LAMMPS (10 Feb 2015)
# ---- initialize simulations
clear
units metal
dimension 3
boundary p p p
atom_style charge
atom_modify map array
# ---- create atoms
read_data /Users/eugeneragasa/pyflamestk_git/pypospack/tests/tests_integration/workflow/WorkflowLammpsThermalExpansion/MgO_NaCl_unit.npt.T1500/lammps.structure
  triclinic box = (0 0 0) to (4.2565 4.2565 4.2565) with tilt (0 0 0)
  1 by 1 by 1 MPI processor grid
  reading atoms ...
  8 atoms
# ---- define interatomic potential
include potential.mod
mass 1 24.305
mass 2 15.999

group Mg type 1
4 atoms in group Mg
group O type 2
4 atoms in group O

set group Mg charge 2.0
  4 settings made for charge
set group O charge -2.0
  4 settings made for charge

variable R_cut equal 10.0

pair_style buck/coul/long ${R_cut}
pair_style buck/coul/long 10
pair_coeff 1 1 0.0 0.5 0.0 ${R_cut}
pair_coeff 1 1 0.0 0.5 0.0 10
pair_coeff 1 2 1279.69 0.29969 0.0 ${R_cut}
pair_coeff 1 2 1279.69 0.29969 0.0 10
pair_coeff 2 2 9547.96 0.21916 32.0 ${R_cut}
pair_coeff 2 2 9547.96 0.21916 32.0 10

kspace_style pppm 1.0e-5

neighbor 1.0 bin
neigh_modify every 1 delay 0 check yes
# ---- define settings
compute eng all pe/atom
compute eatoms all reduce sum c_eng
# ---- run minimization
reset_timestep 0
fix 1 all box/relax iso 0.0 vmax 0.001
thermo 10
thermo_style custom step pe lx ly lz xy xz yz press pxx pyy pzz pxy pxz pyz c_eatoms
min_style cg
minimize 1e-25 1e-25 5000 10000
PPPM initialization ...
  G vector (1/distance) = 0.354854
  grid = 8 8 8
  stencil order = 5
  estimated absolute RMS force accuracy = 5.34408e-05
  estimated relative force accuracy = 3.71126e-06
  using double precision FFTs
  3d grid and FFT values/proc = 3375 512
Neighbor list info ...
  1 neighbor list requests
  update every 1 steps, delay 0 steps, check yes
  master list distance cutoff = 11
Memory usage per processor = 4.06549 Mbytes
Step PotEng Lx Ly Lz Xy Xz Yz Press Pxx Pyy Pzz Pxy Pxz Pyz eatoms 
       0    -164.6599       4.2565       4.2565       4.2565            0            0            0   -75586.685   -75586.685   -75586.685   -75586.685 9.4798587e-11 1.6226154e-10 -3.4446142e-11    -164.6599 
      10   -164.72135     4.213935     4.213935     4.213935            0            0            0   -8637.4527   -8637.4527   -8637.4527   -8637.4527 -1.5549588e-10 2.0227431e-10 -1.1495762e-10   -164.72135 
      15   -164.72214      4.20883      4.20883      4.20883            0            0            0    5.5876567    5.5876567    5.5876567    5.5876567 2.0554645e-10 4.244052e-10 1.3955449e-10   -164.72214 
Loop time of 0.024379 on 1 procs for 15 steps with 8 atoms

Minimization stats:
  Stopping criterion = linesearch alpha is zero
  Energy initial, next-to-last, final = 
        -164.659901251     -164.722138416     -164.722138416
  Force two-norm initial, final = 10.9148 0.000791362
  Force max component initial, final = 10.9148 0.000788889
  Final line search alpha, max atom move = 0.015625 1.23264e-05
  Iterations, force evaluations = 15 55

Pair  time (%) = 0.00689673 (28.2896)
Kspce time (%) = 0.00402594 (16.5139)
Neigh time (%) = 0 (0)
Comm  time (%) = 0.000884533 (3.62826)
Outpt time (%) = 2.09808e-05 (0.086061)
Other time (%) = 0.0125508 (51.4821)

Nlocal:    8 ave 8 max 8 min
Histogram: 1 0 0 0 0 0 0 0 0 0
Nghost:    2189 ave 2189 max 2189 min
Histogram: 1 0 0 0 0 0 0 0 0 0
Neighs:    2344 ave 2344 max 2344 min
Histogram: 1 0 0 0 0 0 0 0 0 0

Total # of neighbors = 2344
Ave neighs/atom = 293
Neighbor list builds = 0
Dangerous builds = 0
unfix 1
# ---- define output variables ----
variable natoms equal "count(all)"
variable tot_energy equal "c_eatoms"
variable length_x equal "lx"
variable length_y equal "ly"
variable length_z equal "lz"
variable tilt_xy equal "xy"
variable tilt_xz equal "xz"
variable tilt_yz equal "yz"
variable tot_press equal "press"
variable press_xx equal "pxx"
variable press_yy equal "pyy"
variable press_zz equal "pzz"
variable press_xy equal "pxy"
variable press_xz equal "pxz"
variable press_yz equal "pyz"

# ---- output ----
print "pypospack:output_section:begin"
pypospack:output_section:begin
print "tot_energy = ${tot_energy}"
tot_energy = -164.722138415744
print "num_atoms = ${natoms}"
num_atoms = 8
print "xx = ${length_x}"
xx = 4.20883001371435
print "yy = ${length_y}"
yy = 4.20883001371435
print "zz = ${length_z}"
zz = 4.20883001371435
print "xy = ${tilt_xy}"
xy = 0
print "xz = ${tilt_xz}"
xz = 0
print "yz = ${tilt_yz}"
yz = 0
print "tot_press = ${tot_press}"
tot_press = 5.58765665687492
print "pxx = ${press_xx}"
pxx = 5.58765665651822
print "pyy = ${press_yy}"
pyy = 5.58765665647238
print "pzz = ${press_zz}"
pzz = 5.58765665763416
print "pxy = ${press_xy}"
pxy = 2.0554645346851e-10
print "pxz = ${press_xz}"
pxz = 4.24405202668874e-10
print "pyz = ${press_yz}"
pyz = 1.39554488680613e-10
print "pypospack:output_section:done"
pypospack:output_section:done
print "pypospack:lammps_sim:done"
pypospack:lammps_sim:done
#------------------------------------------------------------------------------
# RUN THERMOSTAT
# running using an NPT Nose-Hoover style thermostat
#------------------------------------------------------------------------------
variable tempdamp equal 0.1
variable pressdamp equal 1.0
# set initial velocities
velocity all create 1500 9427419 mom yes dist gaussian loop all
# fix for Nose-Hoover style thermostat
fix 20 all npt temp 1500 1500 0.1 aniso 0.0 0.0 1.0 drag 1.0 couple xyz
variable boxx equal lx
variable boxy equal ly
variable boxz equal lz
variable boxp equal press
variable boxt equal temp
# calculate averages every 10000 steps
reset_timestep 0
fix 21 all ave/time 10 10 100 v_boxx v_boxy v_boxz v_boxp v_boxt file lattice.out
thermo_style custom step temp pe ke etotal press lx ly lz press pxx pyy pzz pxy pxz pyz vol
thermo_modify flush yes
thermo 100
run 100000
PPPM initialization ...
  G vector (1/distance) = 0.355405
  grid = 8 8 8
  stencil order = 5
  estimated absolute RMS force accuracy = 5.20839e-05
  estimated relative force accuracy = 3.61703e-06
  using double precision FFTs
  3d grid and FFT values/proc = 3375 512
Memory usage per processor = 3.06549 Mbytes
Step Temp PotEng KinEng TotEng Press Lx Ly Lz Press Pxx Pyy Pzz Pxy Pxz Pyz Volume 
       0         1500   -164.72213    1.3572315    -163.3649    19450.634      4.20883      4.20883      4.20883    19450.634    6353.9573    10275.329    41722.614   -948.45026    1799.8683    4277.5438    74.556267 
     100    1289.2596    -164.3378    1.1665492   -163.17125   -4103.1998    4.2353037    4.2353037    4.2353037   -4103.1998   -17885.647   -3585.5859    9161.6335     2067.937   -10634.283    3139.3666    75.972022 
     200    1234.1292   -163.92153     1.116666   -162.80487   -26576.043     4.254365     4.254365     4.254365   -26576.043    -28560.05   -29095.593   -22072.486    2259.5504    8441.0379   -9561.3005    77.002397 
     300    972.69404   -163.36311   0.88011401     -162.483    12106.537    4.2447024    4.2447024    4.2447024    12106.537   -13699.164   -30071.962    80090.737    1611.0748    4034.5674    15887.854    76.478918 
     400    836.93063   -162.98821   0.75727242   -162.23094    39464.354    4.2374978    4.2374978    4.2374978    39464.354    -16740.86    39669.367    95464.554    272.88204   -13753.516    13543.492    76.090153 
     500    1259.2484   -163.22752    1.1393944   -162.08813   -14007.631    4.2625385    4.2625385    4.2625385   -14007.631   -69149.334   -28140.908     55267.35    5199.3708    7490.1275   -21807.657    77.447063 
     600    1281.4759   -163.15575    1.1595063   -161.99624   -55329.387      4.27157      4.27157      4.27157   -55329.387   -102444.64   -15748.269   -47795.251    727.83946    21897.961    7840.0768     77.94039 
     700    1464.4416   -163.28071    1.3250575   -161.95565   -9953.7147    4.2414247    4.2414247    4.2414247   -9953.7147   -21353.556    17880.271    -26387.86    779.43878   -4411.3881    13491.518     76.30189 
     800    1128.0961   -163.00678     1.020725   -161.98605    13106.681    4.2452098    4.2452098    4.2452098    13106.681   -31720.062    61490.966    9549.1404    -882.2313    17456.139   -3912.2216    76.506349 
     900    1301.3294   -163.17056    1.1774702   -161.99309   -36215.007     4.270888     4.270888     4.270888   -36215.007   -68150.588   -28713.662   -11780.771   -4556.3026    11315.894    -9754.017    77.903067 
    1000    1254.6141   -163.11021    1.1352012     -161.975   -11931.057    4.2717548    4.2717548    4.2717548   -11931.057   -12429.839    -52224.91    28861.577   -10343.472   -2034.8877    4672.2135    77.950509 
    1100    1628.7718   -163.45616     1.473747   -161.98241    7214.2303    4.2424561    4.2424561    4.2424561    7214.2303   -181.92261   -1089.7885    22914.402    776.33648    15109.189    7710.0823    76.357563 
    1200    1701.7127   -163.53048    1.5397454   -161.99073    54362.393    4.2374821    4.2374821    4.2374821    54362.393   -12398.631    87764.785    87721.024    4408.2497     3062.251   -27342.937    76.089305 
    1300    1450.5709   -163.30058    1.3125071   -161.98807   -62239.193    4.2886145    4.2886145    4.2886145   -62239.193   -61206.315   -82009.723    -43501.54    3573.9705   -8946.9197   -20255.045    78.877116 
    1400    1751.8656    -163.5677    1.5851248   -161.98257   -7983.2076    4.2507596    4.2507596    4.2507596   -7983.2076   -24801.939   -49432.356    50284.673    10652.258    5754.5679   -13177.234    76.806793 
    1500    1746.1071   -163.50412    1.5799144    -161.9242    98263.644    4.2145256    4.2145256    4.2145256    98263.644    50850.462    115648.99    128291.48    6387.8439    -189.8509   -17876.251    74.859355 
    1600    1563.6812   -163.39065    1.4148516    -161.9758   -33926.094    4.2810392    4.2810392    4.2810392   -33926.094   -38601.406   -38842.149   -24334.728   -7086.2127     122.0667   -21894.831    78.459875 
    1700    1930.8139   -163.69689     1.747041   -161.94985   -49184.341     4.274274     4.274274     4.274274   -49184.341   -46633.624   -39721.392   -61198.008   -1898.4502    4658.3917    -13242.27    78.088501 
    1800    1737.1115   -163.48611     1.571775   -161.91433    45773.609    4.2210082    4.2210082    4.2210082    45773.609    40773.428    61474.992    35072.406   -12929.246    1137.9762   -27899.493    75.205325 
    1900    1619.0528   -163.43772     1.464953   -161.97277    10048.636    4.2442471    4.2442471    4.2442471    10048.636     5593.361    33981.064    -9428.518   -1553.0499    10923.089   -14988.067    76.454313 
    2000    1648.3155   -163.45458    1.4914305   -161.96315   -17497.114    4.2743798    4.2743798    4.2743798   -17497.114    -56948.53    9068.2687   -4611.0804    3171.4549   -544.82674   -7386.8658    78.094297 
    2100    1697.5126   -163.49655    1.5359451    -161.9606   -13434.454    4.2599938    4.2599938    4.2599938   -13434.454   -40645.173    17350.044   -17008.232   -6869.9963    7210.9935   -148.80995     77.30844 
    2200    1447.5324   -163.27876    1.3097578   -161.96901    5187.3368    4.2429178    4.2429178    4.2429178    5187.3368   -12536.419    3800.9748    24297.454     -945.334    9577.2371    -17483.82    76.382496 
    2300    1584.6689   -163.42245    1.4338417   -161.98861    1920.9255    4.2522912    4.2522912    4.2522912    1920.9255   -39172.735    20413.205    24522.307    2854.9401      303.344    2406.2009    76.889847 
    2400    1496.6629   -163.33393     1.354212   -161.97972   -48918.756    4.2636276    4.2636276    4.2636276   -48918.756    -64307.27   -11294.246    -71154.75    -4510.019   -12705.492   -7930.9927    77.506441 
    2500    1833.9082   -163.62524    1.6593587   -161.96588    9026.0575    4.2403935    4.2403935    4.2403935    9026.0575   -30876.669    2597.4476    55357.394     2876.931   -13581.354    114.55059    76.246247 
    2600    1917.2391   -163.71534    1.7347582   -161.98058   -926.94255     4.242881     4.242881     4.242881   -926.94255   -29180.818    16576.244    9823.7467     -7285.56   -10752.273     21896.71    76.380511 
    2700    1874.4049   -163.67327     1.696001   -161.97727   -6357.1039    4.2606313    4.2606313    4.2606313   -6357.1039   -47855.298   -12028.666    40812.652    9516.8782   -6929.6434    4347.4366    77.343149 
    2800    2070.5805   -163.84964    1.8735048   -161.97614    2383.6718    4.2503831    4.2503831    4.2503831    2383.6718    -43464.05    2008.7381    48606.327   -799.93376    -7389.841     13338.38    76.786388 
    2900    2366.1676   -164.11192    2.1409582   -161.97096    8910.9378    4.2401428    4.2401428    4.2401428    8910.9378    -37410.14    3443.1497    60699.804   -8022.7055   -12522.648    13905.229    76.232727 
    3000    2200.1337   -163.97787    1.9907272   -161.98714   -14308.913    4.2623489    4.2623489    4.2623489   -14308.913   -64803.948    33594.937   -11717.727   -4406.3181   -10187.234    13578.741    77.436726 
    3100     1374.517   -163.21991    1.2436919   -161.97622    8673.0428    4.2733239    4.2733239    4.2733239    8673.0428   -70555.421     33440.42     63134.13   -1154.4885   -6976.9845    20790.527     78.03644 
    3200    1354.9725   -163.18954    1.2260076   -161.96354     5579.124    4.2456317    4.2456317    4.2456317     5579.124   -61825.387    62990.159      15572.6   -16780.494    -6122.737    3814.9908    76.529161 
    3300    1420.7204    -163.2751    1.2854976    -161.9896    38659.918    4.2458042    4.2458042    4.2458042    38659.918   -49037.594    96597.886    68419.462    4358.1489    7201.2204    29084.014    76.538491 
    3400    1143.3494   -163.02195    1.0345266   -161.98742   -50894.138    4.2717174    4.2717174    4.2717174   -50894.138   -96895.621   -22613.229   -33173.564    15891.319   -3442.6372     4847.333    77.948461 
    3500    1300.3397   -163.14612    1.1765747   -161.96955    32047.207    4.2509841    4.2509841    4.2509841    32047.207   -47822.169    27803.693     116160.1     2564.816   -9232.6992    9529.1888    76.818965 
    3600    1530.9624   -163.35704    1.3852469   -161.97179   -19438.472    4.2447954    4.2447954    4.2447954   -19438.472   -44353.028    38248.587   -52210.974    2363.9843    -11301.16      19019.8    76.483948 
    3700    2016.4118   -163.80283    1.8244918   -161.97834    5780.6243    4.2449926    4.2449926    4.2449926    5780.6243   -39918.395    5841.0805    51419.188   -6341.0086   -10766.487   -94.311453    76.494607 
    3800    2158.6937   -163.94628    1.9532314   -161.99305   -16955.949    4.2586438    4.2586438    4.2586438   -16955.949   -61631.433   -10317.271    21080.856   -8849.5689    1241.0133    11007.566    77.234964 
    3900    2092.4406    -163.8898    1.8932842   -161.99652   -4414.2428    4.2552785    4.2552785    4.2552785   -4414.2428   -55144.154      8052.64    33848.785    2706.2175    1134.9414   -8477.3843    77.052007 
    4000    2265.4762   -164.01653    2.0498505   -161.96668    9148.8493    4.2288124    4.2288124    4.2288124    9148.8493   -14121.075    18001.125    23566.498    5245.7155    10733.084    1272.2615    75.623236 
    4100    1787.4627   -163.61094    1.6173338   -161.99361    -6138.913    4.2631487    4.2631487    4.2631487    -6138.913   -20600.353   -22867.351    25050.965    827.12492    20091.906   -14128.887    77.480326 
    4200    1945.8356   -163.72293    1.7606329    -161.9623   -33217.516    4.2609567    4.2609567    4.2609567   -33217.516   -70371.967   -22581.222   -6699.3606   -2374.1598    21352.396    11096.067    77.360874 
    4300    1718.7537   -163.50193    1.5551645   -161.94676    56148.668     4.231971     4.231971     4.231971    56148.668   -15143.052    65562.162    118026.89    2563.1472    8534.2925    693.50237    75.792819 
    4400    1887.2155   -163.68124    1.7075923   -161.97365   -20740.627    4.2585301    4.2585301    4.2585301   -20740.627   -55012.715    16375.538   -23584.704   -2997.7898    6206.3941    13407.205     77.22878 
    4500     1650.417   -163.45873     1.493332    -161.9654   -34247.833    4.2561733    4.2561733    4.2561733   -34247.833   -35296.584    -4414.046    -63032.87   -2284.9572    12438.606    3325.7334    77.100624 
    4600    1074.5978   -162.95003   0.97231866   -161.97771    34885.259    4.2527003    4.2527003    4.2527003    34885.259    -51976.96    93105.055    63527.682    950.71766    10358.195    10458.313    76.912042 
    4700    1112.2171   -162.98889    1.0063574   -161.98254   -14673.683    4.2531474    4.2531474    4.2531474   -14673.683    -80059.24    90897.343   -54859.152    12922.231    22890.751    487.18263    76.936302 
    4800    1726.7776   -163.53952    1.5624247   -161.97709    17536.918     4.239146     4.239146     4.239146    17536.918   -41830.922    40140.227    54301.449   -7895.2419    14919.074    10418.461    76.178975 
    4900    1464.3048   -163.32048    1.3249338   -161.99554   -32014.796     4.273465     4.273465     4.273465   -32014.796   -87810.161    12208.692    -20442.92     -6860.76    20474.006   -12582.256    78.044166 
    5000    860.46223   -162.74907   0.77856431   -161.97051   -40244.746    4.2632441    4.2632441    4.2632441   -40244.746   -91209.604    61382.963   -90907.596   -8364.1411    19766.158    11461.392    77.485529 
    5100    1056.0678   -162.89111   0.95555235   -161.93556    69869.231    4.2238885    4.2238885    4.2238885    69869.231   -25741.365    109951.09    125397.96   -5442.7982    13918.191    8307.6433    75.359384 
    5200    1399.5736   -163.25099    1.2663636   -161.98462   -48833.729     4.257479     4.257479     4.257479   -48833.729   -85159.669    1151.1288   -62492.646    2088.5783   -1770.5194   -31060.957    77.171608 
    5300    1005.6082    -162.8874   0.90989543   -161.97751   -21429.113     4.266612     4.266612     4.266612   -21429.113   -82045.042    17429.844    327.85835    4476.9272    9508.1279   -19452.462    77.669308 
    5400    734.32571   -162.64386   0.66443333   -161.97942    22173.788    4.2399977    4.2399977    4.2399977    22173.788   -30150.266    87961.612    8710.0165    2983.1595    14266.331   -44270.661      76.2249 
    5500    992.27187   -162.88731   0.89782844   -161.98948    15767.381    4.2409779    4.2409779    4.2409779    15767.381   -14807.043    20960.338    41148.847   -3474.2529    5792.9755   -22184.288    76.277775 
    5600    926.37612   -162.83611   0.83820458   -161.99791   -7407.4016    4.2686706    4.2686706    4.2686706   -7407.4016   -42895.625    41297.788   -20624.368   -6342.8164    8558.6225   -28169.588    77.781789 
    5700    1622.9263   -163.46266    1.4684579    -161.9942   -33937.991    4.2517862    4.2517862    4.2517862   -33937.991   -32612.706   -33246.839   -35954.429   -1618.9361    11253.629   -34920.634    76.862458 
    5800    1667.8292   -163.48124    1.5090869   -161.97216    29701.376    4.2184541    4.2184541    4.2184541    29701.376    26234.847    14360.584    48508.696   -2679.7626    4827.0796   -25489.145    75.068887 
    5900    1321.8911   -163.20257    1.1960748    -162.0065    5138.6311    4.2547277    4.2547277    4.2547277    5138.6311   -16292.736    31861.817   -153.18844    2710.8112    2918.2328    5743.0533    77.022092 
    6000    1389.0132   -163.23188    1.2568084   -161.97507   -34514.969    4.2702943    4.2702943    4.2702943   -34514.969   -40544.918   -40749.877   -22250.113    6759.9197    6035.2409    17318.885    77.870581 
    6100    1656.5533   -163.45891    1.4988843   -161.96003    6169.0325    4.2360922    4.2360922    4.2360922    6169.0325   -655.99613    6609.8516    12553.242    736.03475    6867.0464    9776.4056    76.014459 
    6200    2064.9063   -163.83809    1.8683706   -161.96972    9059.4297    4.2315634    4.2315634    4.2315634    9059.4297   -6360.7828    26302.206    7236.8655    670.58631    547.02083    22743.051    75.770919 
    6300    1819.5111   -163.64359    1.6463319   -161.99725     13206.16    4.2549955    4.2549955    4.2549955     13206.16   -46914.583     79968.66    6564.4023   -2771.0892    949.36799    2717.5736    77.036635 
    6400     1834.829   -163.64057    1.6601918   -161.98038   -38153.658    4.2711734    4.2711734    4.2711734   -38153.658   -72812.521    23514.158    -65162.61   -8616.6414   -7672.8063   -14393.289    77.918684 
    6500     2431.319   -164.18139    2.1999086   -161.98148   -6276.9077      4.23396      4.23396      4.23396   -6276.9077   -28638.486    30554.142   -20746.379    4988.7313   -3548.0637    18307.871    75.899733 
    6600    2068.9468   -163.84353    1.8720265    -161.9715    64388.929    4.2112196    4.2112196    4.2112196    64388.929    24036.618    113609.34    55520.824    6411.2814   -10346.392    14529.493    74.683329 
    6700    1915.5032   -163.74405    1.7331876   -162.01086   -49349.687    4.2674301    4.2674301    4.2674301   -49349.687   -86132.308   -22049.569   -39867.185   -1365.0341   -8858.2284    29491.194       77.714 
    6800    1755.2575   -163.56445    1.5881939   -161.97625   -29417.918       4.2701       4.2701       4.2701   -29417.918   -76834.189    19600.621   -31020.184    13249.504    1579.7604    31761.504    77.859952 
    6900    1397.7363   -163.21023    1.2647012   -161.94553     71060.06    4.2075821    4.2075821    4.2075821     71060.06     74162.14    80115.111    58902.929    9059.9402   -11214.991     16570.77    74.489968 
    7000    1432.8425   -163.27971     1.296466   -161.98324    30550.124    4.2246381    4.2246381    4.2246381    30550.124    17388.664    63825.587    10436.122    5133.4307   -17460.578    22182.498    75.399514 
    7100    1621.2248   -163.42706    1.4669182   -161.96014   -46747.016    4.2725031    4.2725031    4.2725031   -46747.016   -48271.082   -27200.549   -64769.415    5696.3055   -20034.099    7007.8778    77.991482 
    7200    1695.4278   -163.49032    1.5340587   -161.95626     9171.225    4.2451906    4.2451906    4.2451906     9171.225    19953.682   -14823.263    22383.257     5112.032   -26920.847   -6698.1016    76.505312 
    7300    1614.6604   -163.41309    1.4609786   -161.95211    12940.039    4.2242043    4.2242043    4.2242043    12940.039    -9956.538    26180.129    22596.526    -1879.963   -30951.974   -6465.3347    75.376289 
    7400    1395.1044   -163.23759    1.2623198   -161.97527    -23175.91    4.2451925    4.2451925    4.2451925    -23175.91   -26807.753   -1116.4063   -41603.569   -4780.3344   -35502.085   -12831.492    76.505415 
    7500    1292.6012    -163.1448    1.1695727   -161.97523     -10979.3    4.2565347    4.2565347    4.2565347     -10979.3   -22099.481     7271.357   -18109.776   -6736.8226   -20977.638   -16481.611    77.120271 
    7600    1212.1839   -163.06847    1.0968094   -161.97166   -10092.539    4.2451923    4.2451923    4.2451923   -10092.539   -32573.117    13263.356   -10967.857    -15192.02    4907.7471    -8091.782    76.505404 
    7700    1248.3175   -163.09736    1.1295039   -161.96786    22869.875    4.2397156    4.2397156    4.2397156    22869.875    34997.464    18155.307    15456.855   -761.31448   -1475.6792   -19744.871    76.209688 
    7800    1279.1732   -163.12966    1.1574228   -161.97223   -18690.692    4.2498689    4.2498689    4.2498689   -18690.692    823.09601   -24598.979   -32296.194   -6120.4352    11947.776    -23685.25     76.75852 
    7900    1057.8747   -162.92769   0.95718726   -161.97051   -10230.289    4.2475193    4.2475193    4.2475193   -10230.289   -32182.524    63591.996    -62100.34   -18530.275    26540.527   -20625.017    76.631282 
    8000    1051.1072   -162.92614   0.95106392   -161.97508    7964.8149    4.2465184    4.2465184    4.2465184    7964.8149    22868.957    15394.166   -14368.678    11086.574    29244.199   -21887.175     76.57712 
    8100    1128.4548   -163.00013    1.0210496   -161.97908   -31785.509    4.2435871    4.2435871    4.2435871   -31785.509   -7797.6221   -27955.679   -59603.225    1577.4471    23488.979   -31260.968    76.418651 
    8200    858.37465   -162.76151   0.77667543   -161.98484    18481.496     4.246124     4.246124     4.246124    18481.496    -17216.01    72241.766    418.73214     10633.21    37370.943   -36478.792    76.555787 
    8300    926.26448   -162.81717   0.83810357   -161.97907   -10261.517    4.2579745    4.2579745    4.2579745   -10261.517   -1575.3784   -13496.401   -15712.772    8206.7113    16343.902   -38429.588    77.198555 
    8400      837.804   -162.73048   0.75806267   -161.97241   -21109.413    4.2375413    4.2375413    4.2375413   -21109.413    26836.962   -11488.265   -78676.936    3234.0387    17138.283   -55583.156    76.092496 
    8500    712.18473   -162.62731   0.64439971   -161.98291    26463.528    4.2356071    4.2356071    4.2356071    26463.528    3094.0657    53541.139    22755.378    15532.293    33676.895   -49808.481    75.988349 
    8600    1029.9393    -162.9173   0.93191068   -161.98539   -48323.501    4.2600311    4.2600311    4.2600311   -48323.501   -48919.997   -11072.098   -84978.408    7489.2012    10510.567   -66057.994     77.31047 
    8700    1201.5121   -163.06719    1.0871534   -161.98004    33364.845    4.2386564    4.2386564    4.2386564    33364.845    40888.542    10782.572    48423.422   -2428.4297    9504.7655   -46615.355    76.152581 
    8800    1575.5193   -163.40646     1.425563    -161.9809   -13172.049    4.2372049    4.2372049    4.2372049   -13172.049    11758.407   -20483.292   -30791.262   -14697.494    9337.6564   -52440.821    76.074376 
    8900    1393.0529   -163.24179    1.2604635   -161.98132   -15305.261    4.2540995    4.2540995    4.2540995   -15305.261    25148.004   -17572.425    -53491.36   -9824.0484    4619.7254   -53158.421    76.987983 
    9000    912.12566   -162.78964   0.82531047   -161.96433    26793.557    4.2532249    4.2532249    4.2532249    26793.557    41962.064    3779.1182     34639.49   -2846.0055   -886.58251    -30461.57    76.940505 
    9100    1116.2023   -162.96232    1.0099633   -161.95236    -36240.51    4.2555782    4.2555782    4.2555782    -36240.51   -19280.009   -7709.8096   -81731.712    -5172.453    -9954.726   -52898.651     77.06829 
    9200    1251.4229   -163.08747    1.1323137   -161.95516    1867.5759    4.2426192    4.2426192    4.2426192    1867.5759     30439.91   -16110.064   -8727.1178   -13465.244   -13711.624     -42268.7    76.366373 
    9300    1269.9669   -163.10632    1.1490927   -161.95723    20678.236    4.2415723    4.2415723    4.2415723    20678.236     39506.22    32826.885   -10298.397   -2915.4913   -16416.265   -38550.579    76.309853 
    9400    1229.6781   -163.07804    1.1126386    -161.9654   -41715.882    4.2651218    4.2651218    4.2651218   -41715.882   -35274.643   -12680.949   -77192.055   -7188.5315   -15335.347   -31665.545    77.587954 
    9500    1020.0977   -162.88582   0.92300583   -161.96281    15592.397    4.2469478    4.2469478    4.2469478    15592.397    50544.012    17385.765   -21152.585    9701.5979   -8443.0753   -44704.459     76.60035 
    9600    1309.5896   -163.13629    1.1849442   -161.95134    2305.4449    4.2258184    4.2258184    4.2258184    2305.4449    11808.506     23279.91   -28172.081    2835.3561   -33158.953   -29817.406    75.462723 
    9700    1302.4978   -163.15186    1.1785273   -161.97333   -377.48985    4.2401158    4.2401158    4.2401158   -377.48985   -12335.335    23277.741   -12074.875   -9503.1454   -24053.443   -3420.2187    76.231268 
    9800    1531.1718   -163.36704    1.3854364    -161.9816   -15825.855    4.2594381    4.2594381    4.2594381   -15825.855    9435.9875    2489.4556   -59403.007    14511.458   -10170.401   -10106.072    77.278186 
    9900    1501.7331   -163.33506    1.3587996   -161.97626   -21711.906    4.2502641    4.2502641    4.2502641   -21711.906    11214.836   -28482.082   -47868.472   -14801.514   -26441.726   -11650.992    76.779937 
   10000    1487.2816   -163.30496    1.3457236   -161.95923    22524.362     4.231162     4.231162     4.231162    22524.362    19567.066    71054.166   -23048.146    5882.4368   -11542.067   -3186.9333    75.749358 
   10100    1485.6228   -163.31892    1.3442227    -161.9747   -37797.736    4.2493705    4.2493705    4.2493705   -37797.736   -30562.357   -11432.641   -71398.211   -12885.591   -23784.083    1175.4958    76.731519 
   10200    1312.6144    -163.1565    1.1876811   -161.96882    14781.899    4.2486311    4.2486311    4.2486311    14781.899   -6640.7127    26667.825    24318.586    2587.9499   -664.07704    -8442.024    76.691472 
   10300    1469.4892   -163.29182    1.3296247    -161.9622    5883.5773    4.2442656    4.2442656    4.2442656    5883.5773   -35288.675    51439.431    1499.9764   -1652.4639    2897.7047    10077.526     76.45531 
   10400    1640.3066   -163.44517    1.4841839   -161.96099    -39278.85    4.2537117    4.2537117    4.2537117    -39278.85   -56783.437   -11321.822   -49731.291   -26315.544   -5161.4951    2741.9796    76.966928 
   10500    1758.9448   -163.54824    1.5915302   -161.95671     38695.21    4.2321965    4.2321965    4.2321965     38695.21    17730.811     36735.58    61619.238    8197.1792    18691.368    1553.6257    75.804933 
   10600     1712.082   -163.52077    1.5491278   -161.97164   -14340.175    4.2431679    4.2431679    4.2431679   -14340.175   -38310.425    13345.101   -18055.201   -13455.073    23046.542    13682.112    76.396006 
   10700    1461.4058   -163.29001    1.3223107    -161.9677   -27418.144    4.2572992    4.2572992    4.2572992   -27418.144   -64552.934    3076.4938   -20777.991    -5685.998    45951.689    9684.2485     77.16183 
   10800    1347.0215   -163.17444    1.2188134   -161.95563    9571.0873    4.2433419    4.2433419    4.2433419    9571.0873   -7430.5691    24596.823    11547.008   -11342.937    37710.644   -5491.6344    76.405402 
   10900    1305.8731   -163.14027    1.1815814   -161.95868   -33699.595    4.2479146    4.2479146    4.2479146   -33699.595    -47545.91    4435.3459   -57988.221      7988.23    45781.926     14451.62    76.652677 
   11000    1374.8622   -163.20103    1.2440042   -161.95703    24661.855    4.2413504    4.2413504    4.2413504    24661.855   -14429.206    52510.775    35903.997   -1149.0441    44737.418   -5320.1486    76.297878 
   11100    1334.5729   -163.17512    1.2075496   -161.96757   -4663.6578    4.2476123    4.2476123    4.2476123   -4663.6578    1399.9431    7317.6124   -22708.529   -2575.7095    53681.627    5554.4367    76.636316 
   11200    1025.3328   -162.89848   0.92774265   -161.97074   -31504.663    4.2515149    4.2515149    4.2515149   -31504.663   -86974.284    22979.559   -30519.265     13328.87    51247.814   -975.11938    76.847743 
   11300    1007.0711    -162.8667   0.91121911   -161.95548    53921.132    4.2297134    4.2297134    4.2297134    53921.132   -7273.8794    76740.335    92296.939    5642.1276    42802.367    6722.9642    75.671586 
   11400    1053.7785   -162.93068   0.95348093    -161.9772   -10776.741     4.253504     4.253504     4.253504   -10776.741   -29788.732    14577.866   -17119.359    5705.3053    43605.204    10984.016    76.955655 
   11500    1170.2782   -163.01997    1.0588923   -161.96108   -14998.287    4.2553129    4.2553129    4.2553129   -14998.287   -79385.499    52682.118   -18291.479    6177.1321    61930.199    8291.6466    77.053875 
   11600    1216.1217   -163.04787    1.1003725    -161.9475    13353.161    4.2316736    4.2316736    4.2316736    13353.161    1072.7082    32769.073    6217.7032    47.342522    51147.882   -11512.369    75.776837 
   11700    1119.1486   -162.97719    1.0126292   -161.96457   -29519.881    4.2421422    4.2421422    4.2421422   -29519.881   -82391.297   -1708.4562   -4459.8908   -21021.545     57389.82    14267.324    76.340615 
   11800    1122.8839   -162.98685    1.0160089   -161.97085    430.67408    4.2405014    4.2405014    4.2405014    430.67408    -65658.46    36422.771    30527.711   -17856.526    48988.604    144.93292    76.252067 
   11900    1121.8785   -162.99366    1.0150993   -161.97856   -15460.906    4.2496022    4.2496022    4.2496022   -15460.906   -29268.373    19509.556   -36623.902   -16257.715    35288.791   -7964.1808    76.744071 
   12000    1228.5513   -163.08648     1.111619   -161.97486   -11415.623    4.2477625    4.2477625    4.2477625   -11415.623   -59659.779   -33487.501     58900.41     -32068.1    53772.923      1731.48    76.644442 
   12100    1087.5365   -162.95582   0.98402586    -161.9718    4025.8515    4.2292794    4.2292794    4.2292794    4025.8515   -15167.113    21937.383    5307.2841   -29109.717     39708.93    -6800.719    75.648291 
   12200    957.86202   -162.85035   0.86669369   -161.98365    16719.665     4.237928     4.237928     4.237928    16719.665   -69547.056    71838.655    47867.396   -17948.508    49444.956    3832.8707    76.113328 
   12300    1037.5456   -162.92137   0.93879309   -161.98258   -10802.731     4.262793     4.262793     4.262793   -10802.731   -41878.599   -15325.515     24795.92   -9826.3883    34224.559   -10182.758    77.460933 
   12400    1326.3967   -163.16533    1.2001516   -161.96518   -21051.273    4.2569264    4.2569264    4.2569264   -21051.273   -41188.515   -6088.7126   -15876.591   -17533.542    46046.702    10683.923    77.141561 
   12500    1333.7395   -163.16102    1.2067955   -161.95422    20711.494    4.2265235    4.2265235    4.2265235    20711.494   -12923.646    46181.703    28876.424    14280.831    46144.362    2362.0182    75.500507 
   12600    1410.2637   -163.24741    1.2760362   -161.97137    16607.356    4.2334656    4.2334656    4.2334656    16607.356   -3616.0254    32841.241    20596.852    7081.6576    37939.284   -4246.2379    75.873148 
   12700    1331.1348   -163.17715    1.2044388   -161.97271    -9352.096    4.2601989    4.2601989    4.2601989    -9352.096   -37107.116   -14104.368    23155.196    27530.562    27585.528    -7385.646    77.319605 
   12800    1313.7907   -163.14394    1.1887454   -161.95519   -358.03835    4.2533783    4.2533783    4.2533783   -358.03835    29532.901    1891.7577   -32498.774    31797.798    22628.519   -6045.8424     76.94883 
   12900    1354.2737   -163.17626    1.2253753   -161.95088    2799.6022    4.2519708    4.2519708    4.2519708    2799.6022   -42386.556    62528.699   -11743.337    11770.902    29020.357   -11431.957    76.872467 
   13000    1625.1742   -163.42105    1.4704917   -161.95056   -7689.0873    4.2452179    4.2452179    4.2452179   -7689.0873   -30384.156    17502.305    -10185.41     11139.94    5858.6811   -15654.343    76.506786 
   13100    1367.8632   -163.19346    1.2376713   -161.95579   -8686.7356     4.234354     4.234354     4.234354   -8686.7356   -36499.947    7389.2114    3050.5291   -4181.7658    8369.0278   -10846.121    75.920924 
   13200    1167.5076    -163.0329    1.0563854   -161.97651   -6835.7599    4.2497795    4.2497795    4.2497795   -6835.7599   -50780.764   -1074.9485    31348.432    409.94196    8638.4939   -20258.605    76.753678 
   13300    1633.3933   -163.45879    1.4779285   -161.98087   -8311.7808    4.2423185    4.2423185    4.2423185   -8311.7808   -23974.701   -10960.365    9999.7234   -5657.3687   -2977.2662   -10179.551    76.350136 
   13400    2326.2429    -164.0824    2.1048334   -161.97757    25376.339    4.2245885    4.2245885    4.2245885    25376.339    13787.433    20919.642    41421.942   -13586.381   -9319.0295    2451.9264    75.396855 
   13500    2274.6806   -164.05402    2.0581788   -161.99585    5266.4124    4.2423358    4.2423358    4.2423358    5266.4124    10860.003   -28334.021    33273.256   -10483.748   -16212.398    23997.695     76.35107 
   13600    1879.0121   -163.69036    1.7001696   -161.99019    8284.9788    4.2456107    4.2456107    4.2456107    8284.9788   -715.62201   -27569.597    53140.156   -2513.6663   -5617.6676    20232.475    76.528026 
   13700    1684.1121   -163.51363      1.52382   -161.98981   -7909.8847    4.2419928    4.2419928    4.2419928   -7909.8847   -17586.181   -12709.126    6565.6531   -4088.2024   -31191.949    13246.997    76.332553 
   13800    1423.3702   -163.27691    1.2878953   -161.98901   -17583.057    4.2430499    4.2430499    4.2430499   -17583.057   -28655.406   -22246.514   -1847.2514   -5477.4408   -3752.6735     32935.88    76.389632 
   13900    1388.3941   -163.24097    1.2562482   -161.98472    24769.331    4.2233644    4.2233644    4.2233644    24769.331    21452.356    10988.078    41867.559    12593.796   -7084.1952    19766.124    75.331336 
   14000    1516.8405   -163.37713    1.3724692   -162.00466    10795.779    4.2474153    4.2474153    4.2474153    10795.779    27177.139   -7930.2395    13140.437    8583.0543   -10712.246    8934.1414     76.62565 
   14100    1498.0319   -163.32949    1.3554507   -161.97404   -36168.626    4.2623461    4.2623461    4.2623461   -36168.626   -58597.404   -19848.266   -30060.209    24800.434    7014.4585   -574.67178    77.436575 
   14200    1574.2637   -163.37846    1.4244269   -161.95404    11951.703    4.2280925    4.2280925    4.2280925    11951.703   -16725.693   -7100.7223    59681.525    47485.871   -921.18805    1747.7706    75.584622 
   14300    1138.7634   -163.00591    1.0303771   -161.97553    2222.0513    4.2379616    4.2379616    4.2379616    2222.0513   -9218.6459   -33312.199    49196.999    53828.003    17183.438    546.20699    76.115142 
   14400    1006.4374    -162.8904   0.91064569   -161.97975   -9231.8251      4.25414      4.25414      4.25414   -9231.8251    -10877.69   -12733.707   -4084.0782    35320.461    8220.8778   -365.19551    76.990177 
   14500    882.22017   -162.78284   0.79825135   -161.98459   -11898.272    4.2502628    4.2502628    4.2502628   -11898.272    45564.719   -77806.901   -3452.6358    50369.985    8918.0003   -11764.657    76.779866 
   14600    536.58976   -162.48596   0.48551769   -162.00044   -17522.628    4.2261008    4.2261008    4.2261008   -17522.628   -27692.291   -86636.372    61760.778    59287.651    3195.5532   -16947.602    75.477855 
   14700    831.75021   -162.75217   0.75258507   -161.99958    62208.393    4.2162855    4.2162855    4.2162855    62208.393    115393.07   -401.82313    71633.936    39917.563     8310.626   -18908.423    74.953177 
   14800    1167.0967   -163.06436    1.0560136   -162.00834   -38104.876    4.2616937    4.2616937    4.2616937   -38104.876   -40869.717   -60605.629   -12839.282    49056.309   -4626.9695   -16469.405    77.401021 
   14900    1363.3174   -163.22064    1.2335582   -161.98708   -5037.7254    4.2500828    4.2500828    4.2500828   -5037.7254    10602.724   -39019.312    13303.412    54016.177    1199.7655   -11304.893    76.770111 
   15000    1480.2084    -163.2943    1.3393236   -161.95497    36742.426    4.2214997    4.2214997    4.2214997    36742.426   -4010.7208    56786.569    57451.429    34718.889   -15340.927   -2230.1827    75.231599 
   15100     1256.539   -163.10769    1.1369429   -161.97075   -35111.672    4.2505899    4.2505899    4.2505899   -35111.672   -42544.759     -27532.6   -35257.656    27096.605   -15404.439    10074.977    76.797594 
   15200    1344.6955   -163.17642    1.2167087   -161.95971   -1078.6204    4.2558246    4.2558246    4.2558246   -1078.6204   -43028.596    34280.435    5512.2993    20596.573   -14345.844    11944.657    77.081678 
   15300    1547.6655   -163.35523    1.4003603   -161.95487   -10390.914    4.2493274    4.2493274    4.2493274   -10390.914   -35515.667   -22196.141    26539.066    19748.748   -19474.533    18233.066    76.729187 
   15400    1564.7446   -163.37521    1.4158138    -161.9594    5082.9893    4.2356786    4.2356786    4.2356786    5082.9893    12296.857    942.51798    2009.5924    17899.511   -14606.758    19315.381    75.992198 
   15500    1809.9725   -163.60354    1.6377012   -161.96584    40762.104    4.2222751    4.2222751    4.2222751    40762.104     48985.38    22437.154    50863.779    831.47317   -15317.781    29861.267    75.273064 
   15600    1681.7562   -163.51569    1.5216883     -161.994   -16261.359    4.2532156    4.2532156    4.2532156   -16261.359   -15275.303   -13804.123   -19704.652    -3533.467     890.8548     28225.02    76.940003 
   15700     1528.907   -163.36356    1.3833871   -161.98018   -25277.878    4.2554105    4.2554105    4.2554105   -25277.878   -11354.063   -35956.897   -28522.672   -931.10727   -7681.9042     35878.24    77.059178 
   15800    1666.7394    -163.4736    1.5081009    -161.9655    25691.692    4.2211048    4.2211048    4.2211048    25691.692    63189.187    -2783.013    16668.901   -4976.6694    4680.3211    19931.856    75.210489 
   15900    1486.3637   -163.32479    1.3448932    -161.9799     25964.65     4.231254     4.231254     4.231254     25964.65    49723.513    24468.846    3701.5898   -15877.475    9218.6598    -5190.424    75.754301 
   16000    1574.3771   -163.39641    1.4245295   -161.97188   -21762.821    4.2576376    4.2576376    4.2576376   -21762.821    2125.7893    -18272.96   -49141.291   -3181.1379    9028.8807     3763.656    77.180232 
   16100    1838.4993   -163.61612    1.6635128   -161.95261   -17599.514     4.256084     4.256084     4.256084   -17599.514    -11116.19   -9773.7222    -31908.63    3242.2668    11867.375   -14300.457    77.095775 
   16200    1866.9215   -163.63467    1.6892298   -161.94544    16737.651    4.2312971    4.2312971    4.2312971    16737.651   -516.62414    11902.961    38826.616    7005.7018    18298.682   -17209.111    75.756617 
   16300    1812.2778   -163.59656    1.6397871   -161.95677     28800.18    4.2248439    4.2248439    4.2248439     28800.18    50538.024    24475.592    11386.924    416.77758    18473.737   -5571.4031    75.410532 
   16400    1850.0883    -163.6451    1.6739987    -161.9711   -2024.8763    4.2528031    4.2528031    4.2528031   -2024.8763    11098.037    12602.072   -29774.738    8503.1557    12061.066    -21275.11    76.917619 
   16500    1923.0281   -163.69521    1.7399962   -161.95521   -27967.961    4.2580094    4.2580094    4.2580094   -27967.961   -46154.003   -48784.759    11034.879     12704.98     11661.76   -1926.5873    77.200454 
   16600    1748.8214   -163.53463    1.5823704   -161.95226    12234.864    4.2254498    4.2254498    4.2254498    12234.864    -2181.358    29458.672    9427.2785    13732.249     11701.46   -1894.0194     75.44298 
   16700    1492.3675   -163.31012    1.3503255   -161.95979    31718.602    4.2172772    4.2172772    4.2172772    31718.602     22275.13    48670.114    24210.562    6178.2269    10552.553   -25716.692    75.006078 
   16800    1630.4132   -163.45187    1.4752321   -161.97664   -11876.393    4.2471788    4.2471788    4.2471788   -11876.393   -41986.561   -46806.704    53164.086    9290.8378    9626.1405   -1440.8056    76.612854 
   16900     1805.872   -163.58737    1.6339909   -161.95337   -29043.238    4.2602018    4.2602018    4.2602018   -29043.238    -55065.67   -27685.533   -4378.5109   -1841.9664    6605.5396     7702.182    77.319764 
   17000    1633.8939    -163.4273    1.4783816   -161.94892    14302.729    4.2331855    4.2331855    4.2331855    14302.729    682.46461    52439.071   -10213.349    3747.4756    12435.044   -5421.4536    75.858091 
   17100    1525.4865   -163.33147    1.3802923   -161.95118    18813.847    4.2119048    4.2119048    4.2119048    18813.847    18148.655   -5923.9953    44216.883   -1081.7182    11265.793    11643.311    74.719788 
   17200    1710.3029   -163.52587     1.547518   -161.97835    11345.429    4.2363255    4.2363255    4.2363255    11345.429   -7854.9216    40180.842    1710.3672    4712.1304    10731.636    9975.7331    76.027018 
   17300    1898.8796   -163.67767    1.7181462   -161.95952   -43840.533    4.2598904    4.2598904    4.2598904   -43840.533   -44939.856   -34462.606   -52119.138   -3774.4006    7744.0758   -3329.5425    77.302807 
   17400    1944.8617   -163.71547    1.7597517   -161.95572   -2071.8487    4.2355456    4.2355456    4.2355456   -2071.8487     3380.786   -13291.684    3695.3519     17081.73     16245.14    41.666867    75.985036 
   17500    1894.3101   -163.66543    1.7140116   -161.95142    35715.929    4.2203326    4.2203326    4.2203326    35715.929    29825.586    58863.422    18458.779    4269.9066     23514.34   -1550.6101    75.169218 
   17600     1756.188   -163.55878    1.5890358   -161.96975   -3571.5954    4.2342944    4.2342944    4.2342944   -3571.5954    5966.2571    14904.638   -31585.681    3995.0734    20359.823   -7367.0783    75.917717 
   17700     1769.006   -163.56953    1.6006338    -161.9689   -31369.757    4.2497289    4.2497289    4.2497289   -31369.757   -16938.334   -17391.079   -59779.859    1147.1324    26734.274   -2343.7953    76.750934 
   17800     1770.523   -163.56662    1.6020064   -161.96461    7529.0484    4.2421453    4.2421453    4.2421453    7529.0484    3079.2357    40671.735   -21163.826    8255.0281     23330.59   -1785.4843    76.340783 
   17900    2024.1346   -163.79018    1.8314796   -161.95871     12726.54    4.2247403    4.2247403    4.2247403     12726.54    5457.2392    30354.385    2367.9968   -670.63097    16985.365   -9070.0039    75.404983 
   18000     2199.946   -163.95606    1.9905573    -161.9655   -1623.9075    4.2365097    4.2365097    4.2365097   -1623.9075   -1963.0454   -1402.5906   -1506.0865    2096.9677    12840.091   -4098.3482    76.036935 
   18100    2150.7905   -163.90668    1.9460804    -161.9606   -4627.4272    4.2487865    4.2487865    4.2487865   -4627.4272   -8413.9123    16209.289   -21677.659   -10204.518     6097.821   -15414.762    76.699888 
   18200    2347.3915   -164.08104    2.1239692   -161.95707   -1424.4927     4.238763     4.238763     4.238763   -1424.4927   -26124.292    17557.488    4293.3261    4084.4606    8199.2958    4934.2569    76.158327 
   18300    2392.4551   -164.12338    2.1647437   -161.95863   -5568.5805     4.239942     4.239942     4.239942   -5568.5805   -3921.7164     800.9973   -13585.022   -13869.154    12009.454   -17297.776    76.221897 
   18400    2040.6487    -163.8057    1.8464218   -161.95928   -2245.6522    4.2339663    4.2339663    4.2339663   -2245.6522   -7705.6382   -875.69578    1844.3774   -11746.357    6422.9898    154.41465    75.900072 
   18500    1956.9004   -163.73792    1.7706446   -161.96728    10819.364    4.2333677    4.2333677    4.2333677    10819.364   -994.01179    18122.551    15329.554   -11889.911     10749.19   -2892.3038    75.867886 
   18600      1947.87   -163.73158    1.7624738    -161.9691   -22693.497     4.247139     4.247139     4.247139   -22693.497    8433.8077   -39452.999   -37061.299    -10624.86    1573.8679    -3123.244    76.610697 
   18700    2089.2461    -163.8577    1.8903938   -161.96731    9970.3159    4.2322411    4.2322411    4.2322411    9970.3159    17519.173    3194.9286     9196.846   -448.13607   -6763.7311    7140.8676    75.807331 
   18800    2239.3906   -163.99614    2.0262476   -161.96989    16001.903    4.2343344    4.2343344    4.2343344    16001.903    32958.867    22836.771   -7789.9289   -6319.6594   -5275.9633   -2984.6051    75.919871 
   18900    2149.3764   -163.90478    1.9448009   -161.95998   -19903.588    4.2509916    4.2509916    4.2509916   -19903.588    15793.962   -28919.883   -46584.844    9886.1483   -9838.9034    3621.8074    76.819372 
   19000    1789.9147   -163.57432    1.6195524   -161.95477    6876.6841    4.2432034    4.2432034    4.2432034    6876.6841    15945.532   -1213.9184    5898.4383   -1942.4565   -3120.1469   -2708.2818    76.397922 
   19100    1726.9004   -163.51697    1.5625358   -161.95443    14754.539    4.2356472    4.2356472    4.2356472    14754.539    15974.915   -2117.8185    30406.522     4177.562    8351.7384     9467.384    75.990508 
   19200     1987.727   -163.75713    1.7985372   -161.95859   -9226.1673    4.2381347    4.2381347    4.2381347   -9226.1673   -2961.4731   -4232.1266   -20484.902   -4330.6102   -5733.7788   -6194.8461    76.124468 
   19300    2180.7647   -163.93404    1.9732017   -161.96084    7701.4053    4.2386841    4.2386841    4.2386841    7701.4053    21083.293    15192.149   -13171.226    11720.601    1611.4327    9244.4123    76.154076 
   19400    2159.2557     -163.909    1.9537399   -161.95526   -8185.4676    4.2438507    4.2438507    4.2438507   -8185.4676   -19316.645   -7940.9889    2701.2315    1181.7846   -5308.9962    8525.1035    76.432892 
   19500     2117.006   -163.86729    1.9155115   -161.95178   -13607.132    4.2426572    4.2426572    4.2426572   -13607.132   -19396.884    2330.7865     -23755.3    8822.9038   -18813.477    4451.1071    76.368423 
   19600    2006.5362   -163.76709    1.8155561   -161.95153    15513.358    4.2337712    4.2337712    4.2337712    15513.358    19840.625    35557.268   -8857.8198    15272.696   -12977.437    19092.174    75.889581 
   19700    2033.9157   -163.80019    1.8403296   -161.95986    10092.495    4.2371463    4.2371463    4.2371463    10092.495   -23778.005    31035.578    23019.911    5199.9373   -22352.384    8311.4214     76.07122 
   19800     2319.225   -164.05474    2.0984835   -161.95625   -18572.619    4.2502098    4.2502098    4.2502098   -18572.619   -39449.788    4194.9452   -20463.013     13478.66   -8694.8725    24064.136    76.776995 
   19900    2473.3656   -164.17893    2.2379532   -161.94098   -7674.2108    4.2435355    4.2435355    4.2435355   -7674.2108   -7330.5423    5799.4879   -21491.578    11563.636   -14060.398    6588.6639    76.415864 
   20000    2392.4267   -164.10355    2.1647179   -161.93883     3384.008    4.2357757    4.2357757    4.2357757     3384.008    1515.6507    3992.7724    4643.6009     18865.09   -744.08593    20099.489    75.997424 
   20100    2197.0072   -163.93062    1.9878983   -161.94272   -1134.7283    4.2418698    4.2418698    4.2418698   -1134.7283     -13488.5    15180.772   -5096.4569    16876.518   -21081.925    13268.089     76.32591 
   20200    2381.1417   -164.10351    2.1545071   -161.94901    5486.6532    4.2365095    4.2365095    4.2365095    5486.6532     957.6473     7656.341    7845.9714    30230.545    -936.1698    12393.769    76.036929 
   20300     2472.891   -164.19144    2.2375237   -161.95392   -9241.4941    4.2415682    4.2415682    4.2415682   -9241.4941   -21620.665   -3811.0185   -2292.7986    22997.793   -6103.4914    15519.644    76.309635 
   20400    2404.7225   -164.13418    2.1758434   -161.95834    11110.205    4.2319511    4.2319511    4.2319511    11110.205    12921.313    23402.691   -2993.3883    18194.307    1755.6621    10950.034    75.791749 
   20500    2096.2295   -163.86369    1.8967125   -161.96698    4521.7293    4.2319386    4.2319386    4.2319386    4521.7293    768.08823    8946.5092    3850.5907    14463.441   -289.31363    8484.4379    75.791075 
   20600    1601.2754   -163.41805    1.4488676   -161.96919   -19368.714    4.2415225    4.2415225    4.2415225   -19368.714    -3146.092   -31856.386   -23103.664   -1982.3294    9959.6168    13055.336    76.307164 
   20700    1572.2542   -163.38797    1.4226086   -161.96536    30623.939     4.233107     4.233107     4.233107    30623.939    47993.012    34146.601    9732.2045    2743.5586    6222.5743    3415.4281    75.853871 
   20800    1844.8797   -163.63716    1.6692859   -161.96788   -9020.3741    4.2371122    4.2371122    4.2371122   -9020.3741   -614.23952   -10631.375   -15815.507   -16161.017     7798.142   -2406.5766    76.069381 
   20900    1958.5009   -163.74045    1.7720927   -161.96835   -20324.747    4.2372566    4.2372566    4.2372566   -20324.747   -24525.106    -8350.351   -28098.785   -20772.259    19131.398   -1021.8127    76.077162 
   21000    1907.2308   -163.69065    1.7257025   -161.96495    24888.205    4.2306658    4.2306658    4.2306658    24888.205    19306.695     35089.95    20267.969   -16879.026    959.35542   -1929.0395    75.722714 
   21100    1857.3545   -163.64815    1.6805734   -161.96758   -27464.719    4.2419369    4.2419369    4.2419369   -27464.719   -26686.607   -34906.068   -20801.483   -34207.156    17410.963   -17619.391    76.329536 
   21200     1920.146   -163.70279    1.7373885    -161.9654    -3771.263    4.2367369    4.2367369    4.2367369    -3771.263    6468.4994   -8799.9796   -8982.3087   -18573.225   -6299.1239   -9222.3569    76.049172 
   21300    2274.1818   -164.02189    2.0577275   -161.96416    27407.645    4.2276813    4.2276813    4.2276813    27407.645    23228.099    34263.184    24731.653   -26619.822    6792.7975   -22710.994     75.56257 
   21400    2484.7576   -164.21794    2.2482609   -161.96968   -7484.1598      4.23948      4.23948      4.23948   -7484.1598   -7716.1455   -10410.124   -4326.2095   -11409.252   -6434.7626   -14098.223    76.196984 
   21500    2452.1063   -164.18984    2.2187173   -161.97112    1463.3301    4.2370255    4.2370255    4.2370255    1463.3301   -18291.055    19679.162     3001.883   -8322.4063   -3479.5096   -16967.007    76.064712 
   21600    2264.7181    -164.0191    2.0491645   -161.96994     7153.813    4.2299819    4.2299819    4.2299819     7153.813   -13796.874    15002.159    20256.155    21.184719    1779.0063   -17233.685    75.685997 
   21700    2073.6708   -163.85311    1.8763009   -161.97681   -5788.3838    4.2401769    4.2401769    4.2401769   -5788.3838   -27255.303   -16584.911    26475.063    20410.559   -8649.1124   -13623.461    76.234565 
   21800     2106.449   -163.88191    1.9059593   -161.97595    1439.9487    4.2379694    4.2379694    4.2379694    1439.9487   -8137.4915    2829.4679    9627.8696    10371.846    25915.421   -15915.209     76.11556 
   21900    2024.8633   -163.80637    1.8321389   -161.97423    6070.0731    4.2329421    4.2329421    4.2329421    6070.0731    3700.6268   -3607.1147    18116.707    35976.322   -869.11256   -10570.081    75.845003 
   22000    1715.8534   -163.52474    1.5525402    -161.9722   -11882.425    4.2415538    4.2415538    4.2415538   -11882.425     -35503.5   -26870.567    26726.791    23817.791    32980.171   -18862.319    76.308853 
   22100    1547.1256   -163.36583    1.3998718   -161.96596   -12053.191    4.2380908    4.2380908    4.2380908   -12053.191   -21257.471   -27490.261    12588.157    30416.708    15628.313   -5646.4107      76.1221 
   22200    1713.5518   -163.51875    1.5504576   -161.96829   -1453.7427    4.2308669    4.2308669    4.2308669   -1453.7427   -12417.754   -15585.448    23641.974     26403.56    10780.722   -14723.634     75.73351 
   22300    2079.1678   -163.85168    1.8812747   -161.97041   -7047.2552    4.2350334    4.2350334    4.2350334   -7047.2552   -9888.5783   -26509.131    15255.943    28995.092    19153.345   -71.597629    75.957473 
   22400    2046.1587   -163.82731    1.8514074    -161.9759   -1068.9641    4.2344064    4.2344064    4.2344064   -1068.9641    12039.697   -27515.507    12268.918    23838.951   -9195.7334   -9419.3751    75.923741 
   22500    1865.8195   -163.66735    1.6882327   -161.97911    5109.2631    4.2350461    4.2350461    4.2350461    5109.2631    45479.699   -27122.759   -3029.1508     16107.15    11552.084    7921.9701    75.958159 
   22600    1631.0605   -163.45695    1.4758178   -161.98114   -4281.9754    4.2375467    4.2375467    4.2375467   -4281.9754    16781.136    -43212.44    13585.377    14924.282   -21727.296     1729.549    76.092789 
   22700    1388.2115   -163.23532     1.256083   -161.97923   -793.16083    4.2321938    4.2321938    4.2321938   -793.16083    6733.8472   -23406.705    14293.375    963.96821   -1234.7631    7265.1474    75.804787 
   22800    1260.3408   -163.12369    1.1403828   -161.98331    7637.7867    4.2358179    4.2358179    4.2358179    7637.7867    56731.968   -12749.883   -21068.724    6412.9078   -9533.1781    17564.388    75.999694 
   22900    1431.8082   -163.27462    1.2955301   -161.97909   -18969.959    4.2432284    4.2432284    4.2432284   -18969.959   -20914.112    -20937.49   -15058.274    -13118.98   -10645.165    18360.381    76.399273 
   23000    1495.0218   -163.32866    1.3527271   -161.97593    251.23814    4.2350484    4.2350484    4.2350484    251.23814   -15144.807    16752.421   -853.89905    -26752.25   -6311.9763    28034.065     75.95828 
   23100    1248.4946   -163.10653    1.1296641   -161.97687    7689.3852    4.2323065    4.2323065    4.2323065    7689.3852    25117.499   -26647.836    24598.492   -17013.491   -1104.4079    23321.043    75.810842 
   23200    949.71757    -162.8418   0.85932442   -161.98248   -11907.509    4.2392934    4.2392934    4.2392934   -11907.509   -34871.178   -6528.2342    5676.8854   -34710.766      6563.02    51007.182    76.186919 
   23300    846.16868   -162.75549   0.76563121   -161.98986    4372.0695    4.2346337    4.2346337    4.2346337    4372.0695   -34249.518    -31893.41    79259.137   -31994.972   -410.66969    41771.768    75.935971 
   23400    839.61946   -162.74957   0.75970533   -161.98986    819.91249    4.2332979    4.2332979    4.2332979    819.91249    3435.0185   -3768.2027    2792.9217   -25201.388    11866.645    52543.588     75.86413 
   23500     809.4489   -162.72255   0.73240638   -161.99014   -12900.706     4.238185     4.238185     4.238185   -12900.706    -25091.27   -25338.541    11727.692   -27519.132    12917.327    57433.172    76.127179 
   23600    852.96974    -162.7576   0.77178495   -161.98582   -8790.5547    4.2390552    4.2390552    4.2390552   -8790.5547   -13767.345   -45392.752    32788.432   -27897.441    10372.601    49792.256    76.174078 
   23700    821.76365   -162.72398   0.74354902   -161.98043    2792.0968    4.2363286    4.2363286    4.2363286    2792.0968    60697.553   -59824.351    7503.0885     -28363.5    9461.5647    42162.136    76.027185 
   23800    838.46453   -162.73659   0.75866033   -161.97792     15429.06    4.2410426    4.2410426    4.2410426     15429.06    33996.708   -31774.825    44065.297   -23341.083    5716.8698    60496.507    76.281269 
   23900    1017.2763   -162.89111   0.92045297   -161.97065   -17442.726    4.2474225    4.2474225    4.2474225   -17442.726    40859.744   -79695.154   -13492.769   -34079.803    13092.855    41923.274    76.626042 
   24000    971.81368   -162.83724   0.87931744   -161.95793    5733.7016    4.2388192    4.2388192    4.2388192    5733.7016    84572.342   -67379.964    8.7273743   -23735.018    5555.0437    31315.077    76.161357 
   24100    851.39837   -162.72996   0.77036313   -161.95959   -1130.8342    4.2407036    4.2407036    4.2407036   -1130.8342    36116.407   -62911.726    23402.816   -7625.2869   -3783.3493    36826.273    76.262975 
   24200    922.82903     -162.799    0.8349951   -161.96401   -32629.396    4.2415443    4.2415443    4.2415443   -32629.396    35706.639   -105193.92   -28400.903   -1569.1473     1665.342    37092.848    76.308345 
   24300     982.1621   -162.85823   0.88868091   -161.96955    23132.381    4.2319525    4.2319525    4.2319525    23132.381    85666.019    -39890.31    23621.434    4793.3196    3215.7314    33301.967    75.791825 
   24400    951.62385   -162.83925   0.86104926    -161.9782   -3817.6357    4.2422928    4.2422928    4.2422928   -3817.6357    12619.581   -9172.9209   -14899.567    2422.3293   -991.16147    43397.725    76.348749 
   24500    965.98099   -162.85064    0.8740399    -161.9766   -15566.692    4.2404239    4.2404239    4.2404239   -15566.692    49142.778   -45133.578   -50709.276     29689.81    -5274.129    49321.459    76.247891 
   24600    696.69683   -162.60834   0.63038593   -161.97795    2970.9942    4.2340934    4.2340934    4.2340934    2970.9942    29402.215   -41196.497    20707.265    31762.876      873.095    38265.467     75.90691 
   24700    753.16275   -162.65685   0.68147749   -161.97537   -19654.317    4.2387619    4.2387619    4.2387619   -19654.317    10298.096   -27114.552   -42146.495    22629.355    -16343.59    43848.123     76.15827 
   24800    1083.8957   -162.95382   0.98073165   -161.97309   -6931.2336    4.2371774    4.2371774    4.2371774   -6931.2336    72387.354    -36914.13   -56266.925    23740.855   -16864.847    42063.053    76.072895 
   24900    1342.3612   -163.19084    1.2145967   -161.97624   -5670.4927    4.2346595    4.2346595    4.2346595   -5670.4927    1044.1268   -7619.1851    -10436.42    23891.525   -366.57111    45246.236    75.937359 
   25000    1438.0468   -163.27868     1.301175   -161.97751    12986.798    4.2306222    4.2306222    4.2306222    12986.798    37076.406    43986.962   -42102.974    17182.444   -24038.952    28237.818    75.720371 
   25100    1395.5494   -163.24076    1.2627224   -161.97804   -23376.241    4.2404479    4.2404479    4.2404479   -23376.241    4137.3959   -13796.843   -60469.275    5442.6977   -8060.7235    35241.268    76.249185 
   25200    1394.5897   -163.23299    1.2618541   -161.97114    1567.6983    4.2415836    4.2415836    4.2415836    1567.6983    18006.972   -10822.774   -2481.1031    4214.5857   -13981.122    21057.267    76.310466 
   25300    1544.7745    -163.3642    1.3977444   -161.96646    6446.2547     4.232681     4.232681     4.232681    6446.2547    21917.272    6732.0583   -9310.5664    2364.0245   -6640.0925    12620.766    75.830971 
   25400    1806.0655   -163.60197     1.634166    -161.9678   -4021.2074    4.2331062    4.2331062    4.2331062   -4021.2074    11163.241   -30685.031    7458.1678   -7803.2189    1127.3698    8049.8096    75.853825 
   25500    1820.7148   -163.62049     1.647421   -161.97307    8003.8537    4.2379241    4.2379241    4.2379241    8003.8537   -2905.5528    11840.418    15076.696   -11914.252   -7089.2881   -20249.468    76.113122 
   25600    1688.5562   -163.50212    1.5278412   -161.97427   -19041.322    4.2400432    4.2400432    4.2400432   -19041.322   -20749.715   -34446.972   -1927.2801    -23286.65    12475.587   -15536.305    76.227354 
   25700    1537.2931   -163.36897    1.3909751   -161.97799    3845.4259    4.2315243    4.2315243    4.2315243    3845.4259       6306.1   -33174.815    38404.993   -32310.984   -3334.3251    -25312.89     75.76882 
   25800    1416.7444   -163.26517    1.2819001   -161.98327    6652.5831    4.2280858    4.2280858    4.2280858    6652.5831    1687.9427   -3548.2226    21818.029   -32154.384   -460.69555   -32166.879    75.584259 
   25900      1445.17   -163.29542    1.3076201    -161.9878    3843.6345    4.2400342    4.2400342    4.2400342    3843.6345    22758.938   -36418.955    25190.921   -45767.712   -8004.2675   -19341.329    76.226869 
   26000    1406.3279   -163.25763    1.2724751   -161.98516   -15010.106      4.24096      4.24096      4.24096   -15010.106   -38910.713   -19933.765    13814.162   -49372.921   -18242.215   -6933.4664    76.276811 
   26100    1164.4285   -163.03591    1.0535993   -161.98231    8923.2048    4.2291952    4.2291952    4.2291952    8923.2048   -6922.3318   -7582.0484    41273.995    -57567.37   -11604.226   -5350.0479    75.643777 
   26200    950.54962    -162.8494   0.86007727   -161.98932   -423.77461    4.2342727    4.2342727    4.2342727   -423.77461    502.75162   -23098.876    21324.801   -58135.488   -22434.373    11850.764     75.91655 
   26300    833.32269   -162.73981   0.75400789   -161.98581   -24526.035    4.2354798    4.2354798    4.2354798   -24526.035    -19972.26   -55185.377    1579.5329   -68395.362   -13073.002      22946.7    75.981497 
   26400    799.72031   -162.70913   0.72360374   -161.98553    17143.318    4.2381639    4.2381639    4.2381639    17143.318    29354.719   -27151.342    49226.576   -54911.025    -9736.334    19508.533     76.12604 
   26500    1062.0613   -162.93807    0.9609754   -161.97709   -34965.242    4.2491507    4.2491507    4.2491507   -34965.242   -39195.342   -37962.276   -27738.106    -57759.59    2877.2783    26760.749    76.719612 
   26600    1164.8878    -163.0309     1.054015   -161.97689    16639.477    4.2231389    4.2231389    4.2231389    16639.477    41845.931   -31229.179    39301.678   -67659.218     6598.867    28154.805    75.319271 
   26700    1207.3302   -163.07624    1.0924177   -161.98382    27073.667    4.2261818    4.2261818    4.2261818    27073.667    8193.3481    12590.316    60437.337   -53464.669    16546.018    20270.186    75.482194 
   26800    1239.7642   -163.09471    1.1217647   -161.97294   -44998.484    4.2525157    4.2525157    4.2525157   -44998.484   -32271.338    -62549.09   -40175.024    -60042.11     32889.22    23028.441    76.902025 
   26900    1072.9684   -162.93914   0.97084433    -161.9683    20208.146     4.230679     4.230679     4.230679    20208.146    44801.862    1917.1461    13905.431   -40293.319    33552.517    21286.005    75.723423 
   27000    1059.3229   -162.92828   0.95849761   -161.96979   -4286.7818    4.2294802    4.2294802    4.2294802   -4286.7818   -21459.211   -12253.532    20852.397   -42636.779     46407.74    12443.134    75.659068 
   27100    1161.8829   -163.02597    1.0512961   -161.97468   -1062.3034    4.2420648    4.2420648    4.2420648   -1062.3034    6478.5001   -26092.732    16427.322   -35831.422    40146.986    8712.0975     76.33644 
   27200    1360.7385   -163.20405    1.2312248   -161.97283    10834.907    4.2398414    4.2398414    4.2398414    10834.907   -23184.188    21766.145    33922.764   -31339.231    39559.251   -800.82083    76.216473 
   27300    1433.8115   -163.26716    1.2973428   -161.96982   -22411.822    4.2420336    4.2420336    4.2420336   -22411.822   -35247.964   -7289.0891   -24698.411   -49173.681    36026.428    1748.5073    76.334753 
   27400    1506.2955   -163.33439    1.3629278   -161.97146    7452.1881    4.2284775    4.2284775    4.2284775    7452.1881    14518.516    9469.0866   -1631.0381   -40357.112    24970.232    -207.9376    75.605268 
   27500    1435.8626   -163.27539    1.2991987   -161.97619    14712.308    4.2266791    4.2266791    4.2266791    14712.308   -4206.3624    37390.597     10952.69   -39576.548    15826.593   -8014.9668    75.508846 
   27600    1512.7923   -163.34398    1.3688062   -161.97517   -18689.789    4.2469657    4.2469657    4.2469657   -18689.789   -10164.536   -1949.9073   -43954.922   -26342.266    17183.744   -6628.5418     76.60132 
   27700    1961.6827   -163.74124    1.7749717   -161.96627   -14397.341    4.2421152    4.2421152    4.2421152   -14397.341   -29041.159   -6200.6867   -7950.1777    -18447.89    11284.228   -8316.3609    76.339159 
   27800    2211.7979   -163.96138    2.0012813    -161.9601    23241.408    4.2245494    4.2245494    4.2245494    23241.408    15294.545    12126.433    42303.245   -11831.224     2560.278   -6818.7176    75.394763 
   27900    2075.4777   -163.84558    1.8779358   -161.96764   -10978.759    4.2409644    4.2409644    4.2409644   -10978.759   -28392.699   -1459.8132   -3083.7652   -2484.8344    2990.8159   -13774.498    76.277049 
   28000    1833.6099   -163.61597    1.6590887   -161.95689   -2540.5969    4.2505257    4.2505257    4.2505257   -2540.5969   -24717.904    764.24439    16331.869    3220.5616   -446.68342   -7676.1981    76.794113 
   28100    1810.0136   -163.58866    1.6377384   -161.95092   -5055.4956    4.2369515    4.2369515    4.2369515   -5055.4956   -16908.357    15779.421   -14037.551   -2494.3097   -24367.554   -7178.2657    76.060725 
   28200    1938.3411   -163.70492    1.7538518   -161.95107    1090.4885     4.231668     4.231668     4.231668    1090.4885   -6303.8129    1146.3764    8428.9021    4242.6372   -6257.2392    11777.542    75.776537 
   28300    1997.0074   -163.76857    1.8069342   -161.96163    16130.218    4.2319023    4.2319023    4.2319023    16130.218    29670.078   -1746.0483    20466.623    18316.725   -18214.831    4687.0443    75.789128 
   28400    1915.5219   -163.70177    1.7332045   -161.96857   -7381.1522    4.2433523    4.2433523    4.2433523   -7381.1522   -13033.493   -10833.919    1723.9554    28175.441   -339.17203    15745.131    76.405966 
   28500    1746.6466   -163.54964    1.5804025   -161.96924   -2059.8079    4.2383647    4.2383647    4.2383647   -2059.8079   -12543.997   -16200.319    22564.892    51399.698   -15329.701     3049.143    76.136861 
   28600    1605.4774    -163.4201    1.4526697   -161.96743    20220.776    4.2242289    4.2242289    4.2242289    20220.776    32693.555    10823.037    17145.736    59326.302    61.600254    7819.9987    75.377606 
   28700    1382.4944   -163.22599      1.25091   -161.97508   -16981.819    4.2349292    4.2349292    4.2349292   -16981.819   -38632.043   -8967.4625   -3345.9521    74860.607   -842.93141    13997.089    75.951869 
   28800    1156.5996   -163.02259    1.0465156   -161.97607   -13659.173    4.2387245    4.2387245    4.2387245   -13659.173   -22783.788   -25040.831    6847.1005    70970.473   -4927.9189   -2445.2769    76.156252 
   28900    1044.3016   -162.92008   0.94490601   -161.97517    3702.0458    4.2324662    4.2324662    4.2324662    3702.0458   -31687.455    12739.455    30054.137    70074.932    11288.554   -1937.3214    75.819429 
   29000     940.9166   -162.82857   0.85136111    -161.9772   -20880.649    4.2354245    4.2354245    4.2354245   -20880.649    -76559.84   -30296.805    44214.697    87289.195    4095.8531    6270.1255    75.978521 
   29100    891.80992     -162.789   0.80692836   -161.98207    17810.478    4.2287651    4.2287651    4.2287651    17810.478   -32483.777    37116.652    48798.559    78428.734    14860.097   -7795.7221    75.620697 
   29200    875.17202   -162.77826   0.79187403   -161.98639    -12118.21    4.2360274    4.2360274    4.2360274    -12118.21   -56297.385    1304.7479    18638.007    81112.936    9329.7673    4551.3292     76.01097 
   29300     705.6123   -162.62257   0.63845283   -161.98411   -7966.7506    4.2404477    4.2404477    4.2404477   -7966.7506    -31919.22   -3994.7099    12013.678    74626.291    16046.909   -7947.4379    76.249172 
   29400    690.81762   -162.60452    0.6250663   -161.97945   -7281.5845    4.2339733    4.2339733    4.2339733   -7281.5845   -22642.581   -13809.871    14607.698    77854.791    13714.862   -4604.2967    75.900451 
   29500     665.7294   -162.58015   0.60236595   -161.97778   -3396.2204    4.2329082    4.2329082    4.2329082   -3396.2204   -38982.482   -19056.094    47849.915    80488.797    10693.022     3351.031    75.843183 
   29600    698.24131   -162.61019   0.63178341   -161.97841    7489.5966      4.24026      4.24026      4.24026    7489.5966   -7330.6659   -27464.157    57263.613    74353.994    2885.1318   -12771.556     76.23905 
   29700    881.46089   -162.76765   0.79756434   -161.97009   -6484.3048    4.2471737    4.2471737    4.2471737   -6484.3048   -53098.105   -19954.977    53600.167    84560.219     725.9528   -3520.5203    76.612578 
   29800    1090.3639   -162.94421   0.98658416   -161.95763    13698.112    4.2367061    4.2367061    4.2367061    13698.112     1982.119   -29813.963    68926.179     84875.79     10149.39   -6560.2528    76.047512 
   29900    1130.0127    -162.9826    1.0224592   -161.96014   -1402.9934     4.236764     4.236764     4.236764   -1402.9934   -4336.7752   -63117.558    63245.353    90827.597   -12320.956    6041.0982    76.050633 
   30000    1031.6408   -162.89781   0.93345027   -161.96436   -8022.5547    4.2375888    4.2375888    4.2375888   -8022.5547   -9400.2156    -50328.78    35661.332    92520.189   -2127.0823    2888.0962    76.095056 
   30100    728.56048   -162.62794   0.65921684   -161.96872    3920.3281    4.2400784    4.2400784    4.2400784    3920.3281    -4583.594   -29678.176    46022.754    84198.038   -15156.736    11244.937    76.229253 
   30200    657.24803   -162.56237   0.59469183   -161.96767   -23648.024    4.2440343    4.2440343    4.2440343   -23648.024     -60093.2    -61156.89    50306.019    86403.044   -4076.3681    1865.7234    76.442813 
   30300    835.02876   -162.71944   0.75555157   -161.96388    17305.636    4.2347792    4.2347792    4.2347792    17305.636   -7114.9663   -7765.1361    66797.011     66688.83   -8714.0155    3377.9694    75.943796 
   30400    1135.2461   -162.99246    1.0271945   -161.96526   -7219.7011    4.2438735    4.2438735    4.2438735   -7219.7011   -23622.946   -18361.999    20325.842    63854.791   -5811.4388   -12102.241    76.434125 
   30500    1249.5551   -163.09148    1.1306237   -161.96085   -11593.801    4.2437329    4.2437329    4.2437329   -11593.801   -29844.071   -18207.474    13270.142    62667.599   -7593.1398    5788.3274    76.426529 
   30600    1232.1215    -163.0711    1.1148494   -161.95625    5131.3735    4.2305318    4.2305318    4.2305318    5131.3735    -29458.69    19847.774    25005.036    56472.319   -8322.2366    -4373.154    75.715516 
   30700    1296.4076   -163.13452    1.1730169    -161.9615   -4229.5003    4.2358846    4.2358846    4.2358846   -4229.5003   -39230.136    6767.1639    19774.471    43037.914    2893.2104   -17551.507    76.003285 
   30800    1514.5168   -163.32856    1.3703666    -161.9582   -16665.028     4.247007     4.247007     4.247007   -16665.028   -57177.334   -11610.576    18792.826    24627.852    6249.6917    1129.7802    76.603554 
   30900    1966.1549   -163.72625    1.7790183   -161.94723   -10904.352    4.2488942    4.2488942    4.2488942   -10904.352   -11195.576   -13029.615   -8487.8662    14224.098    13130.109   -16519.327    76.705719 
   31000    2156.0254   -163.89258    1.9508171   -161.94177    5875.7263    4.2374797    4.2374797    4.2374797    5875.7263    15865.338    6293.2524   -4531.4119   -105.49714   -8131.7682    6848.9085    76.089177 
   31100    2052.5178   -163.80055    1.8571612   -161.94339     18521.52    4.2274298    4.2274298    4.2274298     18521.52     20450.97    7150.9492    27962.639   -1192.5132    4265.4785   -6227.0155    75.549087 
   31200    1981.5104   -163.74956    1.7929122   -161.95665   -10547.903    4.2462697    4.2462697    4.2462697   -10547.903   -29788.001    14286.136   -16141.845   -12696.027   -11766.692    14157.889    76.563668 
   31300    1990.9397   -163.75109    1.8014441   -161.94964   -16852.604    4.2420339    4.2420339    4.2420339   -16852.604   -6501.7117   -22102.902   -21953.198   -18512.706     17122.58    8107.7036    76.334772 
   31400     2335.501   -164.05619    2.1132104   -161.94298    15715.541    4.2340825    4.2340825    4.2340825    15715.541    41044.731    17383.885   -11281.992   -16655.425   -4529.4735    3501.2545    75.906321 
   31500    2510.1611   -164.21138    2.2712465   -161.94013   -16743.455    4.2491144    4.2491144    4.2491144   -16743.455    17507.947   -14102.244   -53636.069   -26035.208   -3202.7067    6148.0438    76.717644 
   31600    2273.8504   -163.98542    2.0574277     -161.928   -9981.6361    4.2428341    4.2428341    4.2428341   -9981.6361    4121.7075   -8110.8772   -25955.739   -25781.028    -2234.073    18690.709    76.377978 
   31700     2006.118   -163.74162    1.8151777   -161.92644   -7234.2323    4.2429897    4.2429897    4.2429897   -7234.2323   -23041.053   -4964.8349    6303.1908   -20068.266    -8016.918    12356.994    76.386379 
   31800    2052.7385   -163.78955    1.8573609   -161.93219    -4527.065    4.2424033    4.2424033    4.2424033    -4527.065   -23859.024   -6494.1881    16772.017   -19028.648    6038.1934    5964.3887    76.354713 
   31900    2050.1267   -163.79412    1.8549977   -161.93912    26016.169     4.228734     4.228734     4.228734    26016.169    13300.141    27228.204    37520.162   -16635.426   -13966.831    7003.4738    75.619031 
   32000    2007.7562    -163.7731      1.81666   -161.95644   -6916.3549    4.2430488    4.2430488    4.2430488   -6916.3549   -31346.078   -5003.6641    15600.678    1274.8174    5203.2268   -3559.1912    76.389575 
   32100    1620.8021   -163.41706    1.4665358   -161.95053   -25031.523    4.2495292    4.2495292    4.2495292   -25031.523   -74745.433   -10154.709    9805.5717    18283.595   -1786.2155    12227.133    76.740117 
   32200    1323.9481   -163.13742    1.1979361   -161.93948    15591.621    4.2353114    4.2353114    4.2353114    15591.621   -23098.186    34778.041    35095.009    39419.972    1575.4966   -3560.5813    75.972434 
   32300      1412.81   -163.22376    1.2783402   -161.94542   -29582.033    4.2416996    4.2416996    4.2416996   -29582.033   -66850.588   -35123.107    13227.597    65225.498   -3882.4315    4611.4473    76.316727 
   32400    1273.8399   -163.10568    1.1525971   -161.95308   -33.626039    4.2342896    4.2342896    4.2342896   -33.626039   -13942.039   -17420.359     31261.52     65345.84    21472.746    -7628.545    75.917458 
   32500     1053.388   -162.91798   0.95312763   -161.96486     30292.12    4.2320168    4.2320168    4.2320168     30292.12    5249.3267    420.66408    85206.368    72753.809    12352.544    2993.7963    75.795277 
   32600    698.81009   -162.59813   0.63229805   -161.96583   -34403.261      4.25026      4.25026      4.25026   -34403.261   -78810.432   -74247.536    49848.186    89580.509    15552.993     139.0893    76.779713 
   32700     354.8148   -162.27791   0.32104388   -161.95686    27528.598    4.2370742    4.2370742    4.2370742    27528.598    17776.756   -18727.905    83536.945    88284.855    2971.7628    4344.9221    76.067337 
   32800    450.53865   -162.36265   0.40765684     -161.955   -4700.9009    4.2385841    4.2385841    4.2385841   -4700.9009   -56648.671   -39971.278    82517.246    102971.85    11784.968   -203.74167    76.148683 
   32900    702.51697   -162.58934   0.63565212   -161.95369   -17974.543    4.2382201    4.2382201    4.2382201   -17974.543   -26605.548   -76049.317    48731.234    114465.63   -8304.3989    17173.362    76.129071 
   33000    876.44907   -162.75303   0.79302954      -161.96    15397.911    4.2333605    4.2333605    4.2333605    15397.911    9558.5917   -8696.1309    45331.272    104757.38    3139.5873   -880.74435    75.867497 
   33100    951.38016   -162.82459   0.86082877   -161.96376    -33121.02     4.243068     4.243068     4.243068    -33121.02   -68249.711    -73631.07    42517.722    110545.34   -4119.5961    2953.7922     76.39061 
   33200    844.30074   -162.72406   0.76394106   -161.96012    12121.852    4.2342412    4.2342412    4.2342412    12121.852   -16346.546   -25432.396    78144.498    89951.078   -2114.1353    8328.2553    75.914859 
   33300    901.60775   -162.77801   0.81579364   -161.96221   -10973.722    4.2436011    4.2436011    4.2436011   -10973.722   -61936.535   -43928.388    72943.758    82770.949    967.16343    5113.4321    76.419406 
   33400    934.48143   -162.80079   0.84553844   -161.95525   -8091.4524    4.2454137    4.2454137    4.2454137   -8091.4524   -38559.075    -38621.76    52906.478    78118.359   -5242.5837   -2787.8584     76.51737 
   33500    1170.2181   -163.01138    1.0588379   -161.95254    25107.413    4.2312126    4.2312126    4.2312126    25107.413    984.02317    20126.182    54212.032    60689.673     5331.073   -5119.0725    75.752076 
   33600    1359.1257   -163.19019    1.2297655   -161.96042   -3854.2248    4.2383848    4.2383848    4.2383848   -3854.2248   -49656.132    3117.0761    34976.381    59042.879    207.93758    16061.835    76.137945 
   33700    1312.3276   -163.14876    1.1874216   -161.96133   -15231.398    4.2417061    4.2417061    4.2417061   -15231.398   -45719.414   -10757.416    10782.635    39566.237    15795.627   -9848.1009    76.317076 
[...]
   91300    1868.4475   -163.64867    1.6906106   -161.95806   -9367.7429    4.2371498    4.2371498    4.2371498   -9367.7429    -4124.696    6042.4025   -30020.935    9373.7377   -19807.004   -1097.0266     76.07141 
   91400    2153.8319   -163.90661    1.9488324   -161.95778    7801.7438    4.2289548    4.2289548    4.2289548    7801.7438    2469.6463    25734.529   -4798.9444    13919.129   -18723.603    3272.8456    75.630874 
   91500    2188.4753    -163.9414    1.9801785   -161.96122    4968.6253     4.227419     4.227419     4.227419    4968.6253    5841.9104    7474.5808    1589.3847     2994.618   -11555.673   -8024.3113    75.548506 
   91600    2002.4004   -163.77614    1.8118139   -161.96432   -1887.8464    4.2331356    4.2331356    4.2331356   -1887.8464    15182.719   -22902.503    2056.2452    4722.9093   -4442.4023   -119.05767    75.855408 
   91700    1695.6412   -163.49915    1.5342518   -161.96489   -2700.6628    4.2313554    4.2313554    4.2313554   -2700.6628    15989.372   -31991.077    7899.7164   -998.19323    3627.2956   -6163.8945    75.759748 
   91800    1580.9262   -163.39587    1.4304553   -161.96541   -6547.8091    4.2308653    4.2308653    4.2308653   -6547.8091    31102.572   -23409.685   -27336.315   -4264.2016    11197.858   -5114.1763    75.733426 
   91900    1671.7357   -163.47841    1.5126215   -161.96579   -1377.6951    4.2287322    4.2287322    4.2287322   -1377.6951    41540.182   -5503.3876   -40169.879   -2634.7546    20240.841   -2969.2343    75.618933 
   92000    1997.4424   -163.77386    1.8073279   -161.96654    2955.5104    4.2302832    4.2302832    4.2302832    2955.5104    20462.752    48.698721    -11644.92   -11345.168    19890.762   -10142.772    75.702167 
   92100    2222.3111   -163.97921    2.0107938   -161.96841     315.0325     4.232732     4.232732     4.232732     315.0325    21218.559     -16381.3   -3892.1615   -5188.8347    18168.984   -3613.3009     75.83371 
   92200    2091.4297   -163.86095    1.8923696   -161.96858    1777.4849    4.2287743    4.2287743    4.2287743    1777.4849    18565.977   -28372.728    15139.205   -20780.014    21242.394   -11294.012    75.621192 
   92300    1691.8192   -163.49879    1.5307936     -161.968   -75.132126    4.2281731    4.2281731    4.2281731   -75.132126    24241.796   -52075.595    27608.403   -16863.158     14871.84    5297.9558    75.588941 
   92400    1336.9033   -163.17785    1.2096582   -161.96819   -10421.601    4.2309264    4.2309264    4.2309264   -10421.601    27241.798   -44490.216   -14016.387   -20665.768    7852.6077    4357.3526    75.736708 
   92500    1385.6234   -163.22055    1.2537411   -161.96681   -3574.2938    4.2310728    4.2310728    4.2310728   -3574.2938    15816.491   -19344.358   -7195.0143   -16794.954    8929.4897    5646.3743    75.744567 
   92600    1893.2153   -163.68021     1.713021   -161.96719   -3383.3394    4.2315277    4.2315277    4.2315277   -3383.3394   -4236.1021   -21042.301    15128.385   -5817.7273    4732.1921    11881.878    75.769001 
   92700    2246.5007   -164.00115    2.0326811   -161.96847    6398.2798    4.2287527    4.2287527    4.2287527    6398.2798   -9865.8032    1819.4691    27241.174   -3346.3359     -1077.36    8053.4668    75.620035 
   92800    1996.5474   -163.77519     1.806518   -161.96868    7682.1129    4.2292764    4.2292764    4.2292764    7682.1129   -18019.219   -10102.209    51167.767    22785.634    3479.4689    10256.716    75.648131 
   92900    1407.5187   -163.23951    1.2735525   -161.96595   -17597.462    4.2360779    4.2360779    4.2360779   -17597.462   -16894.092    -43477.26    7578.9646    30309.536   -5906.3646    6384.3971    76.013689 
   93000    1113.3809   -162.96989    1.0074105   -161.96248   -3734.4226    4.2316564    4.2316564    4.2316564   -3734.4226    -4004.821   -4825.5819   -2372.8648    41048.453   -2488.8487    6572.7853    75.775916 
   93100     1280.172    -163.1219    1.1583266   -161.96357   -4775.7081    4.2273676    4.2273676    4.2273676   -4775.7081   -23556.798   -11819.609    21049.283     50834.33    -6538.587    2602.2305    75.545753 
   93200    1653.8609   -163.46509    1.4964481   -161.96864    -1954.248    4.2291353    4.2291353    4.2291353    -1954.248   -29461.963    245.38184    23353.837     54318.31   -4705.7002   -888.78992    75.640562 
   93300    1876.6526    -163.6709    1.6980347   -161.97287    6834.3452    4.2308113    4.2308113    4.2308113    6834.3452   -35656.678    20619.494    35540.219    60482.965   -6210.4904   -154.45297    75.730524 
   93400    1648.8955    -163.4661    1.4919553   -161.97414   -5899.6032    4.2330312    4.2330312    4.2330312   -5899.6032   -36542.205   -27374.897    46218.292    58185.671   -6222.2047   -10856.655    75.849793 
   93500     1313.624   -163.15973    1.1885946   -161.97114    4925.4038    4.2269248    4.2269248    4.2269248    4925.4038   -14868.332   -3863.4144    33507.958    61461.983   -3001.3277   -6923.1593    75.522014 
   93600    1057.2295   -162.92703   0.95660348   -161.97042   -7019.1331    4.2295156    4.2295156    4.2295156   -7019.1331   -10475.648   -11152.816    571.06489    60583.042   -1800.9453   -9886.6668    75.660965 
   93700    1041.1532   -162.91303   0.94205733   -161.97097   -4275.8521    4.2330464    4.2330464    4.2330464   -4275.8521   -365.49172   -2643.1763   -9818.8883    54113.392    813.02216   -4450.4577    75.850609 
   93800    1359.4562   -163.19843    1.2300645   -161.96837    399.30867    4.2289741    4.2289741    4.2289741    399.30867   -5940.4311    8662.7722   -1524.4151     57450.25      1705.04   -3192.3618    75.631909 
   93900     1708.571   -163.51608    1.5459509   -161.97013    -9041.373    4.2329376    4.2329376    4.2329376    -9041.373   -23670.411   -25914.167     22460.46    53589.146    4966.8076   -10020.721    75.844761 
   94000    1750.4529   -163.55493    1.5838466   -161.97109    12673.946    4.2293712    4.2293712    4.2293712    12673.946    4055.7115   -17863.997    51830.123    52537.519     3981.855    3315.8362     75.65322 
   94100     1494.991   -163.32277    1.3526993   -161.97007     154.8688    4.2293982    4.2293982    4.2293982     154.8688   -11677.112   -33350.178    45491.896    57214.452    8408.0963   -5635.5371    75.654665 
   94200    1078.9161   -162.94521   0.97622597   -161.96898   -16878.311    4.2361457    4.2361457    4.2361457   -16878.311   -8156.9901   -53348.487    10870.545    57522.093    1903.8303    4316.3582    76.017342 
   94300    935.89364   -162.81212   0.84681623    -161.9653    3840.9045      4.22918      4.22918      4.22918    3840.9045    9843.2861    5612.3687   -3932.9413    55846.853   -468.60708    2850.7779    75.642961 
   94400    1083.2591   -162.94666   0.98015559   -161.96651   -7384.7193    4.2295494    4.2295494    4.2295494   -7384.7193   -14452.284   -11983.006    4281.1327    56899.617   -8704.4243    2798.7347    75.662781 
   94500    1259.9695   -163.10849    1.1400469   -161.96844   -8595.0732    4.2362596    4.2362596    4.2362596   -8595.0732   -17800.702   -29172.754    21188.237    64742.024       -16581    5706.8693    76.023471 
   94600    1224.0163   -163.07381    1.1075157   -161.96629    8807.7265    4.2318816    4.2318816    4.2318816    8807.7265   -9681.3553   -8181.7261    44286.261    57271.578   -13155.522     4068.821    75.788013 
   94700    944.81628   -162.82322   0.85488962   -161.96833   -10044.056    4.2304722    4.2304722    4.2304722   -10044.056   -8418.2564   -62961.886    41247.974    59538.809    -25732.48    8072.4016    75.712318 
   94800    738.77772     -162.639    0.6684616   -161.97054   -8312.1827    4.2300325    4.2300325    4.2300325   -8312.1827   -11364.091   -35538.101    21965.644     62993.89   -21556.489    6696.2916    75.688713 
   94900    806.68446   -162.70416   0.72990505   -161.97425    1014.2244    4.2289595    4.2289595    4.2289595    1014.2244   -1784.2386     12514.28   -7687.3681    52062.702   -26713.029    8479.1652     75.63113 
   95000    1012.9141   -162.89421   0.91650594    -161.9777   -13362.033    4.2324126    4.2324126    4.2324126   -13362.033   -22236.901   -9668.0881   -8181.1102    56927.551   -30506.217    5055.1215    75.816546 
   95100    1148.2316   -163.01664    1.0389441   -161.97769    3023.5801    4.2292058    4.2292058    4.2292058    3023.5801   -9860.0716   -5608.3343    24539.146    53662.449   -19773.584       9741.1    75.644343 
   95200    1032.3068   -162.91209   0.93405288   -161.97803   -4259.8886    4.2291428    4.2291428    4.2291428   -4259.8886   -13251.628   -30192.413    30664.375    43000.231   -24587.927    5269.4745    75.640964 
   95300    881.95253   -162.77338   0.79800918   -161.97537   -7366.5686    4.2311636    4.2311636    4.2311636   -7366.5686   -11553.527    -43246.14    32699.961    40960.405   -16448.126    6767.9425    75.749444 
   95400    1019.5912   -162.89633   0.92254752   -161.97379   -3304.9962    4.2317492    4.2317492    4.2317492   -3304.9962   -28532.449   -11237.167    29854.627    39652.365   -10960.674    5290.9973    75.780899 
   95500    1377.7245   -163.21866    1.2465941   -161.97206   -4371.2358    4.2328944    4.2328944    4.2328944   -4371.2358   -29946.683    2924.4889    13908.486    35270.776    -11439.27    991.21464    75.842441 
   95600    1570.4042      -163.39    1.4209347   -161.96907    9730.9033    4.2304379    4.2304379    4.2304379    9730.9033   -32184.076    43371.669    18005.117    33125.589   -4213.4384    4620.9506    75.710475 
   95700    1353.5752   -163.19368    1.2247433   -161.96893   -10261.139     4.234105     4.234105     4.234105   -10261.139   -24442.402   -37270.978    30929.964    40808.488    1501.0527    2015.1139    75.907532 
   95800    1046.4724    -162.9123   0.94687025   -161.96543    851.34429    4.2318774    4.2318774    4.2318774    851.34429   -13910.893   -36400.776    52865.702    44051.213     9944.325    4253.4485    75.787786 
   95900    883.86571   -162.76311   0.79974026   -161.96337    3306.7484    4.2296791    4.2296791    4.2296791    3306.7484   -22734.731   -12955.522    45610.498    41566.137     16100.86    2045.0146    75.669742 
   96000    1073.2087   -162.93718   0.97106181   -161.96611   -12502.809    4.2350996    4.2350996    4.2350996   -12502.809   -44251.922   -17296.641    24040.135    48283.003    16436.112   -2539.7749    75.961034 
   96100    1313.7048   -163.15487    1.1886677    -161.9662    5576.3666    4.2299107    4.2299107    4.2299107    5576.3666   -58296.294    38571.132    36454.262    55980.836    17052.883   -7554.8332    75.682175 
   96200    1351.5913   -163.19253    1.2229482   -161.96958   -2588.4077    4.2286656    4.2286656    4.2286656   -2588.4077    -23965.09   -280.36968    16480.237    47601.594     15848.49   -11633.799    75.615363 
   96300    1112.1451   -162.97868    1.0062922   -161.97239   -7652.3923    4.2313641    4.2313641    4.2313641   -7652.3923    -7352.243   -26729.206    11124.272    53751.679    12991.196   -19040.189    75.760215 
   96400    868.69893   -162.75929   0.78601705   -161.97327   -8.3993747    4.2287356    4.2287356    4.2287356   -8.3993747   -7368.7965   -32975.632     40319.23    51418.514    7799.4492   -15393.795    75.619114 
   96500     845.3478   -162.73941   0.76488846   -161.97452   -7242.7773    4.2320624    4.2320624    4.2320624   -7242.7773   -3478.6502   -36636.633    18386.951    49971.223       4817.2   -22003.963     75.79773 
   96600    1109.9154   -162.97808    1.0042748   -161.97381    1220.1257     4.230022     4.230022     4.230022    1220.1257   -15767.808        20455   -1026.8139    47235.223    3301.4698   -25110.349     75.68815 
   96700    1298.4865   -163.14972    1.1748979   -161.97482    1312.0585    4.2285186    4.2285186    4.2285186    1312.0585   -6546.5836   -4217.8927    14700.652    45350.385    2319.2945   -23663.564    75.607474 
   96800    1266.1454   -163.11908    1.1456349   -161.97344    2319.2218    4.2345376    4.2345376    4.2345376    2319.2218    2071.3103    -15774.62    20660.975    46395.717   -96.542461   -29406.293    75.930801 
   96900     1042.095   -162.91172   0.94290946   -161.96881   -7421.6602    4.2366913    4.2366913    4.2366913   -7421.6602    16454.109   -70233.591    31514.502    38247.088    2031.8562   -22705.854    76.046714 
   97000    956.22332   -162.83063   0.86521096   -161.96542    362.73478    4.2312293    4.2312293    4.2312293    362.73478     11247.74   -57833.928    47674.393    42014.993    6346.0638    -26215.69    75.752973 
   97100    1121.2014   -162.97901    1.0144866   -161.96452     2416.905    4.2282114    4.2282114    4.2282114     2416.905   -16404.797   -12780.811    36436.323    44795.202    1657.1972   -11577.263    75.590999 
   97200    1447.5071   -163.27818    1.3097349   -161.96845   -9586.6101    4.2326033    4.2326033    4.2326033   -9586.6101   -10481.858   -22482.686    4204.7142    43899.421    3972.6376   -11607.961    75.826795 
   97300     1583.851   -163.40318    1.4331016   -161.97007    7176.3548    4.2305388    4.2305388    4.2305388    7176.3548    9906.4941    4419.3808    7203.1895    44306.362   -2069.4783   -2481.1643    75.715891 
   97400    1450.2031   -163.28223    1.3121742   -161.97006    -10678.74    4.2324524    4.2324524    4.2324524    -10678.74   -2812.5466   -45825.112    16601.437    46818.512    1979.0585    10787.386    75.818686 
   97500    1368.3388   -163.20811    1.2381017   -161.97001   -3575.9463    4.2290766    4.2290766    4.2290766   -3575.9463   -3355.7685   -37153.596    29781.525    39363.358   -2604.6128    13396.798    75.637412 
   97600    1470.5993   -163.29997    1.3306291   -161.96934    11553.329    4.2269448    4.2269448    4.2269448    11553.329   -5022.5498    6572.2622    33110.275    35814.403   -4291.8497    15919.324    75.523087 
   97700    1665.0722   -163.47692    1.5065923   -161.97033   -12811.158    4.2361769    4.2361769    4.2361769   -12811.158   -35030.946   -4684.4978    1281.9689     33975.92   -971.85343    16355.573    76.019019 
   97800    1744.9328   -163.54765    1.5788519    -161.9688    5103.5532    4.2283969    4.2283969    4.2283969    5103.5532   -6378.9859    8880.2545    12809.391    32283.974   -8311.1693    13524.652    75.600946 
   97900    1576.7918   -163.39418    1.4267143   -161.96746    8332.6076    4.2263057    4.2263057    4.2263057    8332.6076    13654.013   -19106.002    30449.812    30112.525   -8819.0627    9268.3961    75.488835 
   98000    1380.0732   -163.21639    1.2487192   -161.96767   -12808.698    4.2356222    4.2356222    4.2356222   -12808.698     5913.471   -60109.876    15770.312    26154.738   -8958.7549   -26.787501    75.989161 
   98100    1445.4467   -163.27197    1.3078705    -161.9641   -2824.8043    4.2314054    4.2314054    4.2314054   -2824.8043    -355.0487    -43550.56    35431.196    34358.922   -8349.9847   -747.64086     75.76243 
   98200    1595.9332   -163.40851    1.4440339   -161.96447   -486.63745    4.2314024    4.2314024    4.2314024   -486.63745   -12551.236   -14421.051    25512.374    35306.625   -2718.2698    138.67712     75.76227 
   98300    1605.9094   -163.41993    1.4530606   -161.96687   -7466.4518    4.2327327    4.2327327    4.2327327   -7466.4518   -5840.3075    -8373.632   -8185.4159    35928.393   -8824.6564   -8517.9149    75.833748 
   98400    1395.1151   -163.22922    1.2623295   -161.96689     388.5216    4.2261857    4.2261857    4.2261857     388.5216    15812.061   -11474.876     -3171.62    43707.517    -1179.548   -9391.1665    75.482404 
   98500    1128.5737   -162.99156    1.0211572    -161.9704   -8042.6614    4.2308761    4.2308761    4.2308761   -8042.6614    19820.739   -44405.836    457.11251    41981.951    2711.4134   -13929.425    75.734003 
   98600    1193.2043   -163.04971    1.0796363   -161.97007   -7798.5958    4.2345313    4.2345313    4.2345313   -7798.5958    1376.8557   -26476.846     1704.203    36303.261    1319.2332   -12236.916     75.93046 
   98700    1531.2579   -163.35485    1.3855143   -161.96933   -578.08226     4.229967     4.229967     4.229967   -578.08226   -17330.166   -15710.569    31306.488    35811.294     11866.91    -15590.58    75.685198 
   98800    1631.3471   -163.44848    1.4760771   -161.97241   -218.65212    4.2293451    4.2293451    4.2293451   -218.65212   -45594.152    795.20972    44142.986    33500.701    746.18862   -11179.867    75.651821 
   98900    1380.7968   -163.22359     1.249374   -161.97421    5205.5071     4.231033     4.231033     4.231033    5205.5071    -32783.36    11152.244    37247.638    36013.873    8501.9499   -5700.0937    75.742432 
   99000    981.36412   -162.85916   0.88795887    -161.9712    105.95194    4.2344871    4.2344871    4.2344871    105.95194   -11793.277   -11064.565    23175.698    39633.127    600.59596   -698.21119    75.928086 
   99100    815.35353   -162.70245   0.73774901    -161.9647   -16507.056    4.2366727    4.2366727    4.2366727   -16507.056   -27152.252   -36803.658    14434.742    51078.038    1373.2018     2186.129    76.045714 
   99200    1125.8447   -162.97772    1.0186879   -161.95903   -2321.1268    4.2314791    4.2314791    4.2314791   -2321.1268   -19065.498   -12993.312    25095.429    62929.078    3520.9214    1997.5271    75.766391 
   99300    1491.4392   -163.31226    1.3494855   -161.96278    4714.6206     4.231414     4.231414     4.231414    4714.6206   -14712.495    3440.9804    25415.377    63322.249    -4004.206    7360.5617    75.762895 
   99400    1480.4087   -163.30598    1.3395049   -161.96648   -9878.4126    4.2345157    4.2345157    4.2345157   -9878.4126    -34202.42   -23457.939    28025.121    71372.008   -3037.7106    3599.8737    75.929621 
   99500    1207.0655   -163.06132    1.0921782   -161.96914    5768.0225    4.2291948    4.2291948    4.2291948    5768.0225   -8558.1872   -9631.2621    35493.517      72790.8   -6435.0416    5500.0602    75.643754 
   99600    809.75124   -162.70449   0.73267994   -161.97181   -10932.818     4.231111     4.231111     4.231111   -10932.818   -4172.7531   -43956.875    15331.174    71708.014   -2612.8652    3789.3625    75.746619 
   99700    644.83806   -162.55499   0.58346302   -161.97153   -6205.8199     4.231756     4.231756     4.231756   -6205.8199    7125.4553    -26844.25    1101.3347    76285.545   -1164.7669    1255.1729    75.781264 
   99800      808.264   -162.70419   0.73133425   -161.97286   -2386.3759    4.2297625    4.2297625    4.2297625   -2386.3759    -12498.66   -7133.6218    12473.154    77563.774   -745.54805    558.50546    75.674219 
   99900    1130.6469   -162.99751    1.0230331   -161.97448   -5062.9076    4.2321884    4.2321884    4.2321884   -5062.9076   -22089.147   -23046.623    29947.048    78295.462    3503.7419   -4580.0212    75.804497 
  100000    1323.2338   -163.17151    1.1972897   -161.97422    12462.038    4.2302169    4.2302169    4.2302169    12462.038   -24961.164    5224.6252    57122.651    74861.569   -344.33714    1001.6105    75.698613 
Loop time of 34.6282 on 1 procs for 100000 steps with 8 atoms

Pair  time (%) = 11.7478 (33.9254)
Kspce time (%) = 8.34411 (24.0963)
Neigh time (%) = 0 (0)
Comm  time (%) = 1.67382 (4.8337)
Outpt time (%) = 0.057893 (0.167185)
Other time (%) = 12.8046 (36.9774)

Nlocal:    8 ave 8 max 8 min
Histogram: 1 0 0 0 0 0 0 0 0 0
Nghost:    2189 ave 2189 max 2189 min
Histogram: 1 0 0 0 0 0 0 0 0 0
Neighs:    2472 ave 2472 max 2472 min
Histogram: 1 0 0 0 0 0 0 0 0 0

Total # of neighbors = 2472
Ave neighs/atom = 309
Neighbor list builds = 0
Dangerous builds = 0
unfix 20
unfix 21
print "seeds:9427419"
seeds:9427419
