LAMMPS (11 Aug 2017)
Reading data file ...
  triclinic box = (0 0 0) to (2.8005 2.8005 2.8005) with tilt (0 0 0)
  1 by 1 by 1 MPI processor grid
  reading atoms ...
  2 atoms
2 atoms in group Ni
Neighbor list info ...
  update every 1 steps, delay 0 steps, check yes
  max neighbors/atom: 2000, page size: 100000
  master list distance cutoff = 11
  ghost atom cutoff = 11
  binsize = 5.5, bins = 1 1 1
  1 neighbor lists, perpetual/occasional/extra = 1 0 0
  (1) pair eam/alloy, perpetual
      attributes: half, newton on
      pair build: half/bin/newton/tri
      stencil: half/bin/3d/newton/tri
      bin: standard
Setting up cg style minimization ...
  Unit style    : metal
  Current step  : 0
WARNING: Energy due to 3 extra global DOFs will be included in minimizer energies
Per MPI rank memory allocation (min/avg/max) = 4.286 | 4.286 | 4.286 Mbytes
Step PotEng Xhi Xlo Yhi Ylo Zhi Xy Xz Yz Press Pxx Pyy Pzz Pxy Pxz Pyz c_eatoms 
       0   -8.9634746       2.8005            0       2.8005            0       2.8005            0            0            0   -7882.3245   -7882.3245   -7882.3245   -7882.3245 -0.0001296376 -0.00012963761 -0.00012963761   -8.9634746 
      10   -8.9668954     2.798964 0.0015360203     2.798964 0.0015360203     2.798964            0            0            0     4876.581     4876.581     4876.581     4876.581   -346.21811   -346.21811   -346.21811   -8.9668954 
      20   -8.9839029    2.8073655 -0.0068654797    2.8073655 -0.0068654797    2.8073655            0            0            0    5817.1446    5817.1446    5817.1446    5817.1446   -2052.2197   -2052.2197   -2052.2197   -8.9839029 
      30   -9.0032258    2.8185675  -0.01806748    2.8185675  -0.01806748    2.8185675            0            0            0    603.18862    603.18862    603.18862    603.18862   -4060.7307   -4060.7307   -4060.7307   -9.0032258 
      40   -9.0316533      2.83257  -0.03206998      2.83257  -0.03206998      2.83257            0            0            0    2998.8085    2998.8085    2998.8085    2998.8085   -6324.1387   -6324.1387   -6324.1387   -9.0316533 
      50   -9.0590137    2.8465725  -0.04607248    2.8465725  -0.04607248    2.8465725            0            0            0    4304.6062    4304.6062    4304.6062    4304.6062   -8098.7946   -8098.7946   -8098.7946   -9.0590137 
      60   -9.0858809     2.860575  -0.06007498     2.860575  -0.06007498     2.860575            0            0            0    5767.3211    5767.3211    5767.3211    5767.3211   -9410.8831   -9410.8831   -9410.8831   -9.0858809 
      70   -9.1120343    2.8745775  -0.07407748    2.8745775  -0.07407748    2.8745775            0            0            0    7202.7368    7202.7368    7202.7368    7202.7368   -10313.954   -10313.954   -10313.954   -9.1120343 
      80   -9.1373823      2.88858  -0.08807998      2.88858  -0.08807998      2.88858            0            0            0     8580.484     8580.484     8580.484     8580.484   -10861.611   -10861.611   -10861.611   -9.1373823 
      90   -9.1618207    2.9025825  -0.10208248    2.9025825  -0.10208248    2.9025825            0            0            0    9870.1304    9870.1304    9870.1304    9870.1304   -11106.098   -11106.098   -11106.098   -9.1618207 
     100   -9.1853088     2.916585  -0.11608498     2.916585  -0.11608498     2.916585            0            0            0    10994.913    10994.913    10994.913    10994.913    -11114.84    -11114.84    -11114.84   -9.1853088 
     110   -9.2078161    2.9305875  -0.13008748    2.9305875  -0.13008748    2.9305875            0            0            0    11954.327    11954.327    11954.327    11954.327   -10935.554   -10935.554   -10935.554   -9.2078161 
     120   -9.2293417      2.94459  -0.14408998      2.94459  -0.14408998      2.94459            0            0            0    12720.476    12720.476    12720.476    12720.476   -10621.043   -10621.043   -10621.043   -9.2293417 
     130   -9.2498903    2.9585925  -0.15809248    2.9585925  -0.15809248    2.9585925            0            0            0    13315.437    13315.437    13315.437    13315.437   -10204.396   -10204.396   -10204.396   -9.2498903 
     140   -9.2694744     2.972595  -0.17209498     2.972595  -0.17209498     2.972595            0            0            0     13749.55     13749.55     13749.55     13749.55   -9716.7865   -9716.7865   -9716.7865   -9.2694744 
     150   -9.2881253    2.9865975  -0.18609748    2.9865975  -0.18609748    2.9865975            0            0            0      14037.4      14037.4      14037.4      14037.4   -9183.5072   -9183.5072   -9183.5072   -9.2881253 
     160   -9.3058704       3.0006  -0.20009998       3.0006  -0.20009998       3.0006            0            0            0    14174.893    14174.893    14174.893    14174.893   -8632.8694   -8632.8694   -8632.8694   -9.3058704 
     170    -9.322749    3.0146025  -0.21410248    3.0146025  -0.21410248    3.0146025            0            0            0      14192.2      14192.2      14192.2      14192.2    -8075.665    -8075.665    -8075.665    -9.322749 
     180   -9.3387952     3.028605  -0.22810498     3.028605  -0.22810498     3.028605            0            0            0    14100.786    14100.786    14100.786    14100.786   -7526.0889   -7526.0889   -7526.0889   -9.3387952 
     190    -9.354049    3.0426075  -0.24210748    3.0426075  -0.24210748    3.0426075            0            0            0     13916.31     13916.31     13916.31     13916.31   -6993.3427   -6993.3427   -6993.3427    -9.354049 
     200   -9.3685488      3.05661  -0.25610998      3.05661  -0.25610998      3.05661            0            0            0    13658.639    13658.639    13658.639    13658.639   -6481.3402   -6481.3402   -6481.3402   -9.3685488 
     210   -9.3823313    3.0706125  -0.27011248    3.0706125  -0.27011248    3.0706125            0            0            0    13336.484    13336.484    13336.484    13336.484   -5996.7338   -5996.7338   -5996.7338   -9.3823313 
     220   -9.3954309     3.084615  -0.28411498     3.084615  -0.28411498     3.084615            0            0            0    12962.657    12962.657    12962.657    12962.657   -5541.9164   -5541.9164   -5541.9164   -9.3954309 
     230   -9.4078846    3.0986175  -0.29811748    3.0986175  -0.29811748    3.0986175            0            0            0    12558.704    12558.704    12558.704    12558.704   -5112.3054   -5112.3054   -5112.3054   -9.4078846 
     240   -9.4197244      3.11262  -0.31211998      3.11262  -0.31211998      3.11262            0            0            0    12119.395    12119.395    12119.395    12119.395   -4716.4199   -4716.4199   -4716.4199   -9.4197244 
     250   -9.4309792    3.1266225  -0.32612248    3.1266225  -0.32612248    3.1266225            0            0            0    11665.436    11665.436    11665.436    11665.436   -4346.7159   -4346.7159   -4346.7159   -9.4309792 
     260    -9.441682     3.140625  -0.34012498     3.140625  -0.34012498     3.140625            0            0            0    11194.763    11194.763    11194.763    11194.763   -4007.7642   -4007.7642   -4007.7642    -9.441682 
     270   -9.4518603    3.1546275  -0.35412748    3.1546275  -0.35412748    3.1546275            0            0            0    10727.871    10727.871    10727.871    10727.871   -3689.3413   -3689.3413   -3689.3413   -9.4518603 
     280   -9.4615371      3.16863  -0.36812998      3.16863  -0.36812998      3.16863            0            0            0    10250.358    10250.358    10250.358    10250.358   -3402.0688   -3402.0688   -3402.0688   -9.4615371 
     290   -9.4707426    3.1826325  -0.38213248    3.1826325  -0.38213248    3.1826325            0            0            0    9784.2284    9784.2284    9784.2284    9784.2284   -3133.0482   -3133.0482   -3133.0482   -9.4707426 
     300   -9.4794948     3.196635  -0.39613498     3.196635  -0.39613498     3.196635            0            0            0    9321.3093    9321.3093    9321.3093    9321.3093   -2888.0194   -2888.0194   -2888.0194   -9.4794948 
     310   -9.4878222    3.2106375  -0.41013748    3.2106375  -0.41013748    3.2106375            0            0            0    8866.7271    8866.7271    8866.7271    8866.7271   -2663.9136   -2663.9136   -2663.9136   -9.4878222 
     320    -9.495742      3.22464  -0.42413998      3.22464  -0.42413998      3.22464            0            0            0    8429.1397    8429.1397    8429.1397    8429.1397   -2454.5394   -2454.5394   -2454.5394    -9.495742 
     330   -9.5032741    3.2386425  -0.43814248    3.2386425  -0.43814248    3.2386425            0            0            0    8000.5885    8000.5885    8000.5885    8000.5885   -2265.0418   -2265.0418   -2265.0418   -9.5032741 
     340   -9.5104402     3.252645  -0.45214498     3.252645  -0.45214498     3.252645            0            0            0    7586.3036    7586.3036    7586.3036    7586.3036   -2091.2525   -2091.2525   -2091.2525   -9.5104402 
     350    -9.517257    3.2666475  -0.46614748    3.2666475  -0.46614748    3.2666475            0            0            0    7189.8395    7189.8395    7189.8395    7189.8395    -1929.816    -1929.816    -1929.816    -9.517257 
     360   -9.5237404      3.28065  -0.48014998      3.28065  -0.48014998      3.28065            0            0            0    6808.4324    6808.4324    6808.4324    6808.4324   -1781.8867   -1781.8867   -1781.8867   -9.5237404 
     370   -9.5299079    3.2946525  -0.49415248    3.2946525  -0.49415248    3.2946525            0            0            0    6441.9084    6441.9084    6441.9084    6441.9084   -1646.7258   -1646.7258   -1646.7258   -9.5299079 
     380   -9.5357751     3.308655  -0.50815498     3.308655  -0.50815498     3.308655            0            0            0    6091.5364    6091.5364    6091.5364    6091.5364   -1522.4245   -1522.4245   -1522.4245   -9.5357751 
     390   -9.5413565    3.3226575  -0.52215748    3.3226575  -0.52215748    3.3226575            0            0            0    5757.4397    5757.4397    5757.4397    5757.4397   -1407.8829   -1407.8829   -1407.8829   -9.5413565 
     400   -9.5466661      3.33666  -0.53615998      3.33666  -0.53615998      3.33666            0            0            0    5438.8936    5438.8936    5438.8936    5438.8936   -1302.6355   -1302.6355   -1302.6355   -9.5466661 
     410    -9.551717    3.3506625  -0.55016248    3.3506625  -0.55016248    3.3506625            0            0            0    5135.7943    5135.7943    5135.7943    5135.7943   -1205.7424   -1205.7424   -1205.7424    -9.551717 
     420    -9.556522     3.364665  -0.56416498     3.364665  -0.56416498     3.364665            0            0            0    4847.8127    4847.8127    4847.8127    4847.8127   -1116.4431   -1116.4431   -1116.4431    -9.556522 
     430   -9.5610925    3.3786675  -0.57816748    3.3786675  -0.57816748    3.3786675            0            0            0    4574.5988    4574.5988    4574.5988    4574.5988   -1034.0082   -1034.0082   -1034.0082   -9.5610925 
     440   -9.5654401      3.39267  -0.59216998      3.39267  -0.59216998      3.39267            0            0            0    4315.3825    4315.3825    4315.3825    4315.3825   -958.07842   -958.07842   -958.07842   -9.5654401 
     450   -9.5695756    3.4066725  -0.60617248    3.4066725  -0.60617248    3.4066725            0            0            0    4069.6768    4069.6768    4069.6768    4069.6768   -888.09612   -888.09612   -888.09612   -9.5695756 
     460   -9.5735094     3.420675  -0.62017498     3.420675  -0.62017498     3.420675            0            0            0    3836.8969    3836.8969    3836.8969    3836.8969    -823.6176    -823.6176    -823.6176   -9.5735094 
     470   -9.5772514    3.4346775  -0.63417748    3.4346775  -0.63417748    3.4346775            0            0            0    3616.5184    3616.5184    3616.5184    3616.5184   -764.19107   -764.19107   -764.19107   -9.5772514 
     480   -9.5808109      3.44868  -0.64817998      3.44868  -0.64817998      3.44868            0            0            0    3408.1464    3408.1464    3408.1464    3408.1464   -709.28945   -709.28945   -709.28945   -9.5808109 
     490   -9.5841968    3.4626825  -0.66218248    3.4626825  -0.66218248    3.4626825            0            0            0    3211.2241    3211.2241    3211.2241    3211.2241   -658.54519   -658.54519   -658.54519   -9.5841968 
     500   -9.5874174     3.476685  -0.67618498     3.476685  -0.67618498     3.476685            0            0            0       3025.2       3025.2       3025.2       3025.2   -611.62119   -611.62119   -611.62119   -9.5874174 
     510   -9.5904809    3.4906875  -0.69018748    3.4906875  -0.69018748    3.4906875            0            0            0     2849.545     2849.545     2849.545     2849.545   -568.21177   -568.21177   -568.21177   -9.5904809 
     520   -9.5933948      3.50469  -0.70418998      3.50469  -0.70418998      3.50469            0            0            0    2683.7949    2683.7949    2683.7949    2683.7949   -527.99233   -527.99233   -527.99233   -9.5933948 
     530   -9.5961662    3.5186925  -0.71819248    3.5186925  -0.71819248    3.5186925            0            0            0    2527.4184    2527.4184    2527.4184    2527.4184   -490.73418   -490.73418   -490.73418   -9.5961662 
     540   -9.5988021     3.532695  -0.73219498     3.532695  -0.73219498     3.532695            0            0            0    2379.8878    2379.8878    2379.8878    2379.8878   -456.24339   -456.24339   -456.24339   -9.5988021 
     550   -9.6013091    3.5466975  -0.74619748    3.5466975  -0.74619748    3.5466975            0            0            0    2240.7461    2240.7461    2240.7461    2240.7461   -424.29886   -424.29886   -424.29886   -9.6013091 
     560   -9.6036934       3.5607  -0.76019998       3.5607  -0.76019998       3.5607            0            0            0    2109.5609    2109.5609    2109.5609    2109.5609   -394.70259   -394.70259   -394.70259   -9.6036934 
     570    -9.605961    3.5747025  -0.77420248    3.5747025  -0.77420248    3.5747025            0            0            0    1985.9001    1985.9001    1985.9001    1985.9001   -367.26707   -367.26707   -367.26707    -9.605961 
     580   -9.6081176     3.588705  -0.78820498     3.588705  -0.78820498     3.588705            0            0            0    1869.3569    1869.3569    1869.3569    1869.3569   -341.82338   -341.82338   -341.82338   -9.6081176 
     590   -9.6101685    3.6027075  -0.80220748    3.6027075  -0.80220748    3.6027075            0            0            0    1759.5433    1759.5433    1759.5433    1759.5433   -318.21769   -318.21769   -318.21769   -9.6101685 
     600   -9.6121189      3.61671  -0.81620998      3.61671  -0.81620998      3.61671            0            0            0    1656.0887    1656.0887    1656.0887    1656.0887   -296.30924   -296.30924   -296.30924   -9.6121189 
     610   -9.6139738    3.6307125  -0.83021248    3.6307125  -0.83021248    3.6307125            0            0            0    1558.6402    1558.6402    1558.6402    1558.6402   -275.96874   -275.96874   -275.96874   -9.6139738 
     620   -9.6157376     3.644715  -0.84421498     3.644715  -0.84421498     3.644715            0            0            0    1466.8788    1466.8788    1466.8788    1466.8788   -257.07307   -257.07307   -257.07307   -9.6157376 
     630    -9.617415    3.6587175  -0.85821748    3.6587175  -0.85821748    3.6587175            0            0            0    1380.4566    1380.4566    1380.4566    1380.4566   -239.53383   -239.53383   -239.53383    -9.617415 
     640     -9.61901      3.67272  -0.87221998      3.67272  -0.87221998      3.67272            0            0            0    1299.0849    1299.0849    1299.0849    1299.0849    -223.2307    -223.2307    -223.2307     -9.61901 
     650   -9.6205267    3.6867225  -0.88622248    3.6867225  -0.88622248    3.6867225            0            0            0    1222.4772    1222.4772    1222.4772    1222.4772   -208.07167   -208.07167   -208.07167   -9.6205267 
     660   -9.6219689     3.700725  -0.90022498     3.700725  -0.90022498     3.700725            0            0            0    1150.3616    1150.3616    1150.3616    1150.3616   -193.97617   -193.97617   -193.97617   -9.6219689 
     670   -9.6233403    3.7147275  -0.91422748    3.7147275  -0.91422748    3.7147275            0            0            0    1082.4777    1082.4777    1082.4777    1082.4777   -180.86524   -180.86524   -180.86524   -9.6233403 
     680   -9.6246442      3.72873  -0.92822998      3.72873  -0.92822998      3.72873            0            0            0    1018.5822    1018.5822    1018.5822    1018.5822   -168.66652   -168.66652   -168.66652   -9.6246442 
     690    -9.625884    3.7427325  -0.94223248    3.7427325  -0.94223248    3.7427325            0            0            0    958.44288    958.44288    958.44288    958.44288   -157.31392   -157.31392   -157.31392    -9.625884 
     700   -9.6270628     3.756735  -0.95623498     3.756735  -0.95623498     3.756735            0            0            0    901.84219    901.84219    901.84219    901.84219   -146.74633   -146.74633   -146.74633   -9.6270628 
     710   -9.6281835    3.7707375  -0.97023748    3.7707375  -0.97023748    3.7707375            0            0            0    848.57451    848.57451    848.57451    848.57451   -136.90731   -136.90731   -136.90731   -9.6281835 
     720    -9.629249      3.78474  -0.98423998      3.78474  -0.98423998      3.78474            0            0            0    798.44592    798.44592    798.44592    798.44592   -127.74461   -127.74461   -127.74461    -9.629249 
     730    -9.630262    3.7987425  -0.99824248    3.7987425  -0.99824248    3.7987425            0            0            0     751.2787     751.2787     751.2787     751.2787   -119.20478   -119.20478   -119.20478    -9.630262 
     740   -9.6312251     3.812745    -1.012245     3.812745    -1.012245     3.812745            0            0            0    707.19108    707.19108    707.19108    707.19108   -110.96336   -110.96336   -110.96336   -9.6312251 
     750   -9.6321418    3.8267475   -1.0262475    3.8267475   -1.0262475    3.8267475            0            0            0    697.02848    697.02848    697.02848    697.02848   -73.098702   -73.098702   -73.098702   -9.6321418 
     760   -9.6330122      3.84075     -1.04025      3.84075     -1.04025      3.84075            0            0            0    689.90584    689.90584    689.90584    689.90584   -35.066407   -35.066407   -35.066407   -9.6330122 
     770   -9.6338391    3.8547525   -1.0542525    3.8547525   -1.0542525    3.8547525            0            0            0    662.84558    662.84558    662.84558    662.84558   -18.924185   -18.924185   -18.924185   -9.6338391 
     780   -9.6346257     3.868755    -1.068255     3.868755    -1.068255     3.868755            0            0            0    609.96321    609.96321    609.96321    609.96321   -30.325813   -30.325813   -30.325813   -9.6346257 
     790   -9.6353732    3.8827575   -1.0822575    3.8827575   -1.0822575    3.8827575            0            0            0    558.65206    558.65206    558.65206    558.65206   -42.667388   -42.667388   -42.667388   -9.6353732 
     800   -9.6360807      3.89676     -1.09626      3.89676     -1.09626      3.89676            0            0            0    455.18858    455.18858    455.18858    455.18858   -108.01527   -108.01527   -108.01527   -9.6360807 
     810   -9.6367392    3.9107625   -1.1102625    3.9107625   -1.1102625    3.9107625            0            0            0    304.23329    304.23329    304.23329    304.23329   -221.91757   -221.91757   -221.91757   -9.6367392 
     820   -9.6372493    3.9215327   -1.1210327    3.9215327   -1.1210327    3.9215327            0            0            0     585.5453     585.5453     585.5453     585.5453    76.122443    76.122443    76.122443   -9.6372493 
     830   -9.6376923    3.9314643   -1.1309643    3.9314643   -1.1309643    3.9314643            0            0            0    543.47643    543.47643    543.47643    543.47643    56.465743    56.465743    56.465743   -9.6376923 
     840   -9.6381433     3.942247    -1.141747     3.942247    -1.141747     3.942247            0            0            0    273.19369    273.19369    273.19369    273.19369    -185.2548    -185.2548    -185.2548   -9.6381433 
     850    -9.638558    3.9525079   -1.1520079    3.9525079   -1.1520079    3.9525079            0            0            0    219.97481    219.97481    219.97481    219.97481   -217.34072   -217.34072   -217.34072    -9.638558 
     860   -9.6390006    3.9631317   -1.1626317    3.9631317   -1.1626317    3.9631317            0            0            0    426.51616    426.51616    426.51616    426.51616    4.3465442    4.3465442    4.3465442   -9.6390006 
     870   -9.6394067    3.9738224   -1.1733224    3.9738224   -1.1733224    3.9738224            0            0            0    436.04108    436.04108    436.04108    436.04108    32.760118    32.760118    32.760118   -9.6394067 
     880   -9.6397874    3.9846444   -1.1841444    3.9846444   -1.1841444    3.9846444            0            0            0    189.45328    189.45328    189.45328    189.45328   -190.38886   -190.38886   -190.38886   -9.6397874 
     890   -9.6401517    3.9946782   -1.1941782    3.9946782   -1.1941782    3.9946782            0            0            0    231.02121    231.02121    231.02121    231.02121   -133.45271   -133.45271   -133.45271   -9.6401517 
     900   -9.6404672    4.0041072   -1.2036072    4.0041072   -1.2036072    4.0041072            0            0            0    184.38191    184.38191    184.38191    184.38191   -164.60723   -164.60723   -164.60723   -9.6404672 
     910   -9.6408206    4.0144448   -1.2139448    4.0144448   -1.2139448    4.0144448            0            0            0    333.95011    333.95011    333.95011    333.95011   -2.4244156   -2.4244156   -2.4244156   -9.6408206 
     920     -9.64114    4.0245327   -1.2240327    4.0245327   -1.2240327    4.0245327            0            0            0    324.31671    324.31671    324.31671    324.31671    2.5112874    2.5112874    2.5112874     -9.64114 
     930   -9.6414725    4.0360369   -1.2355369    4.0360369   -1.2355369    4.0360369            0            0            0    127.32077    127.32077    127.32077    127.32077   -175.53714   -175.53714   -175.53714   -9.6414725 
     940   -9.6417564    4.0452498   -1.2447498    4.0452498   -1.2447498    4.0452498            0            0            0    198.95663    198.95663    198.95663    198.95663   -93.167561   -93.167561   -93.167561   -9.6417564 
     950   -9.6420266    4.0546732   -1.2541732    4.0546732   -1.2541732    4.0546732            0            0            0    301.90212    301.90212    301.90212    301.90212    19.904518    19.904518    19.904518   -9.6420266 
     960   -9.6422635    4.0632831   -1.2627831    4.0632831   -1.2627831    4.0632831            0            0            0    274.71002    274.71002    274.71002    274.71002    3.4691946    3.4691946    3.4691946   -9.6422635 
     970   -9.6425427    4.0742292   -1.2737292    4.0742292   -1.2737292    4.0742292            0            0            0    123.80953    123.80953    123.80953    123.80953   -132.66374   -132.66374   -132.66374   -9.6425427 
     980   -9.6427904    4.0840182   -1.2835182    4.0840182   -1.2835182    4.0840182            0            0            0    106.44097    106.44097    106.44097    106.44097   -139.09981   -139.09981   -139.09981   -9.6427904 
     990   -9.6430345    4.0940275   -1.2935275    4.0940275   -1.2935275    4.0940275            0            0            0    89.096461    89.096461    89.096461    89.096461    -145.7483    -145.7483    -145.7483   -9.6430345 
    1000   -9.6432784    4.1037164   -1.3032164    4.1037164   -1.3032164    4.1037164            0            0            0    225.05824    225.05824    225.05824    225.05824   -1.8389882   -1.8389882   -1.8389882   -9.6432784 
    1010   -9.6434936    4.1131205   -1.3126205    4.1131205   -1.3126205    4.1131205            0            0            0     216.0397     216.0397     216.0397     216.0397   -1.6533523   -1.6533523   -1.6533523   -9.6434936 
    1020   -9.6437303    4.1244371   -1.3239371    4.1244371   -1.3239371    4.1244371            0            0            0    72.505151    72.505151    72.505151    72.505151     -133.024     -133.024     -133.024   -9.6437303 
    1030   -9.6439603    4.1353183   -1.3348183    4.1353183   -1.3348183    4.1353183            0            0            0    63.885792    63.885792    63.885792    63.885792   -132.03242   -132.03242   -132.03242   -9.6439603 
    1040   -9.6441774    4.1453324   -1.3448324    4.1453324   -1.3448324    4.1453324            0            0            0    176.63272    176.63272    176.63272    176.63272   -12.162083   -12.162083   -12.162083   -9.6441774 
    1050    -9.644399    4.1566801   -1.3561801    4.1566801   -1.3561801    4.1566801            0            0            0    141.92176    141.92176    141.92176    141.92176    -37.40983    -37.40983    -37.40983    -9.644399 
    1060   -9.6445922    4.1672371   -1.3667371    4.1672371   -1.3667371    4.1672371            0            0            0    241.71893    241.71893    241.71893    241.71893    69.438126    69.438126    69.438126   -9.6445922 
    1070   -9.6447635    4.1766986   -1.3761986    4.1766986   -1.3761986    4.1766986            0            0            0    236.81061    236.81061    236.81061    236.81061    71.526665    71.526665    71.526665   -9.6447635 
    1080     -9.64493    4.1861816   -1.3856816    4.1861816   -1.3856816    4.1861816            0            0            0    227.19726    227.19726    227.19726    227.19726    68.686254    68.686254    68.686254     -9.64493 
    1090   -9.6451036    4.1961182   -1.3956182    4.1961182   -1.3956182    4.1961182            0            0            0    121.54438    121.54438    121.54438    121.54438   -29.302814   -29.302814   -29.302814   -9.6451036 
    1100   -9.6452597     4.205684    -1.405184     4.205684    -1.405184     4.205684            0            0            0    116.66998    116.66998    116.66998    116.66998   -27.977484   -27.977484   -27.977484   -9.6452597 
    1110   -9.6454244    4.2165223   -1.4160223    4.2165223   -1.4160223    4.2165223            0            0            0    205.26409    205.26409    205.26409    205.26409     66.54881     66.54881     66.54881   -9.6454244 
    1120   -9.6455715    4.2263046   -1.4258046    4.2263046   -1.4258046    4.2263046            0            0            0    204.99341    204.99341    204.99341    204.99341    72.065157    72.065157    72.065157   -9.6455715 
    1130   -9.6457237    4.2362878   -1.4357878    4.2362878   -1.4357878    4.2362878            0            0            0    103.41091    103.41091    103.41091    103.41091   -23.075338   -23.075338   -23.075338   -9.6457237 
    1140   -9.6458621    4.2461251   -1.4456251    4.2461251   -1.4456251    4.2461251            0            0            0    99.203745    99.203745    99.203745    99.203745   -21.942571   -21.942571   -21.942571   -9.6458621 
    1150   -9.6460048    4.2569549   -1.4564549    4.2569549   -1.4564549    4.2569549            0            0            0    169.26068    169.26068    169.26068    169.26068    53.199427    53.199427    53.199427   -9.6460048 
    1160   -9.6461319    4.2667787   -1.4662787    4.2667787   -1.4662787    4.2667787            0            0            0    170.84559    170.84559    170.84559    170.84559     59.63601     59.63601     59.63601   -9.6461319 
    1170   -9.6462559    4.2767024   -1.4762024    4.2767024   -1.4762024    4.2767024            0            0            0    170.63906    170.63906    170.63906    170.63906    64.136755    64.136755    64.136755   -9.6462559 
    1180   -9.6463835    4.2867512   -1.4862512    4.2867512   -1.4862512    4.2867512            0            0            0    84.259727    84.259727    84.259727    84.259727   -17.128879   -17.128879   -17.128879   -9.6463835 
    1190   -9.6464989    4.2966322   -1.4961322    4.2966322   -1.4961322    4.2966322            0            0            0    80.607351    80.607351    80.607351    80.607351   -16.484964   -16.484964   -16.484964   -9.6464989 
    1200   -9.6466197    4.3078147   -1.5073147    4.3078147   -1.5073147    4.3078147            0            0            0    149.41521    149.41521    149.41521    149.41521    56.537153    56.537153    56.537153   -9.6466197 
    1210   -9.6467286    4.3178744   -1.5173744    4.3178744   -1.5173744    4.3178744            0            0            0     143.4885     143.4885     143.4885     143.4885    54.626748    54.626748    54.626748   -9.6467286 
    1220    -9.646842    4.3284083   -1.5279083    4.3284083   -1.5279083    4.3284083            0            0            0    53.702771    53.702771    53.702771    53.702771   -30.684646   -30.684646   -30.684646    -9.646842 
    1230   -9.6469476    4.3388647   -1.5383647    4.3388647   -1.5383647    4.3388647            0            0            0     73.90926     73.90926     73.90926     73.90926   -6.8226197   -6.8226197   -6.8226197   -9.6469476 
    1240   -9.6470515    4.3496617   -1.5491617    4.3496617   -1.5491617    4.3496617            0            0            0    69.130023    69.130023    69.130023    69.130023   -7.8658752   -7.8658752   -7.8658752   -9.6470515 
    1250   -9.6471415     4.359387    -1.558887     4.359387    -1.558887     4.359387            0            0            0    79.307476    79.307476    79.307476    79.307476    5.4590982    5.4590982    5.4590982   -9.6471415 
    1260    -9.647218    4.3679202   -1.5674202    4.3679202   -1.5674202    4.3679202            0            0            0    63.848771    63.848771    63.848771    63.848771   -7.2308035   -7.2308035   -7.2308035    -9.647218 
    1270   -9.6473175     4.379448    -1.578948     4.379448    -1.578948     4.379448            0            0            0    59.419279    59.419279    59.419279    59.419279    -8.156146    -8.156146    -8.156146   -9.6473175 
    1280   -9.6474043    4.3899138   -1.5894138    4.3899138   -1.5894138    4.3899138            0            0            0    56.449061    56.449061    56.449061    56.449061   -8.0996065   -8.0996065   -8.0996065   -9.6474043 
    1290   -9.6474934    4.4011256   -1.6006256    4.4011256   -1.6006256    4.4011256            0            0            0    68.118778    68.118778    68.118778    68.118778    6.6013569    6.6013569    6.6013569   -9.6474934 
    1300   -9.6475704    4.4111674   -1.6106674    4.4111674   -1.6106674    4.4111674            0            0            0    54.086575    54.086575    54.086575    54.086575   -4.7408922   -4.7408922   -4.7408922   -9.6475704 
    1310   -9.6476498     4.422113    -1.621613     4.422113    -1.621613     4.422113            0            0            0     78.81427     78.81427     78.81427     78.81427    22.634482    22.634482    22.634482   -9.6476498 
    1320   -9.6477323    4.4343799   -1.6338799    4.4343799   -1.6338799    4.4343799            0            0            0    106.15915    106.15915    106.15915    106.15915    52.805225    52.805225    52.805225   -9.6477323 
    1330   -9.6478078    4.4448329   -1.6443329    4.4448329   -1.6443329    4.4448329            0            0            0    32.583823    32.583823    32.583823    32.583823   -18.138929   -18.138929   -18.138929   -9.6478078 
    1340   -9.6478676    4.4541291   -1.6536291    4.4541291   -1.6536291    4.4541291            0            0            0    20.385165    20.385165    20.385165    20.385165   -28.281839   -28.281839   -28.281839   -9.6478676 
    1350   -9.6479247    4.4630045   -1.6625045    4.4630045   -1.6625045    4.4630045            0            0            0    39.395779    39.395779    39.395779    39.395779   -7.4851432   -7.4851432   -7.4851432   -9.6479247 
    1360   -9.6479864     4.473142    -1.672642     4.473142    -1.672642     4.473142            0            0            0     37.04388     37.04388     37.04388     37.04388   -7.8027038   -7.8027038   -7.8027038   -9.6479864 
    1370   -9.6480451    4.4835569   -1.6830569    4.4835569   -1.6830569    4.4835569            0            0            0     5.956866     5.956866     5.956866     5.956866   -36.805769   -36.805769   -36.805769   -9.6480451 
    1380    -9.648105    4.4942593   -1.6937593    4.4942593   -1.6937593    4.4942593            0            0            0     75.61101     75.61101     75.61101     75.61101     34.59888     34.59888     34.59888    -9.648105 
    1390   -9.6481616    4.5044394   -1.7039394    4.5044394   -1.7039394    4.5044394            0            0            0     12.43696     12.43696     12.43696     12.43696   -26.621126   -26.621126   -26.621126   -9.6481616 
    1400     -9.64821    4.5143411   -1.7138411    4.5143411   -1.7138411    4.5143411            0            0            0   -12.257752   -12.257752   -12.257752   -12.257752   -49.599377   -49.599377   -49.599377     -9.64821 
    1410   -9.6482649    4.5243553   -1.7238553    4.5243553   -1.7238553    4.5243553            0            0            0    30.518512    30.518512    30.518512    30.518512    -5.336454    -5.336454    -5.336454   -9.6482649 
    1420   -9.6483121    4.5340898   -1.7335898    4.5340898   -1.7335898    4.5340898            0            0            0    30.833082    30.833082    30.833082    30.833082   -3.5325602   -3.5325602   -3.5325602   -9.6483121 
    1430   -9.6483611    4.5445898   -1.7440898    4.5445898   -1.7440898    4.5445898            0            0            0    32.767799    32.767799    32.767799    32.767799   -0.0644167   -0.0644167   -0.0644167   -9.6483611 
    1440   -9.6483983    4.5529056   -1.7524056    4.5529056   -1.7524056    4.5529056            0            0            0    19.404879    19.404879    19.404879    19.404879   -12.227688   -12.227688   -12.227688   -9.6483983 
    1450   -9.6484353    4.5613169   -1.7608169    4.5613169   -1.7608169    4.5613169            0            0            0    31.686779    31.686779    31.686779    31.686779    1.1664395    1.1664395    1.1664395   -9.6484353 
    1460   -9.6484723    4.5703994   -1.7698994    4.5703994   -1.7698994    4.5703994            0            0            0    52.434139    52.434139    52.434139    52.434139    23.054723    23.054723    23.054723   -9.6484723 
    1470   -9.6485116    4.5798356   -1.7793356    4.5798356   -1.7793356    4.5798356            0            0            0     9.730288     9.730288     9.730288     9.730288    -18.37725    -18.37725    -18.37725   -9.6485116 
    1480   -9.6485473    4.5887069   -1.7882069    4.5887069   -1.7882069    4.5887069            0            0            0    23.756644    23.756644    23.756644    23.756644   -3.3121107   -3.3121107   -3.3121107   -9.6485473 
    1490   -9.6485861    4.5988752   -1.7983752    4.5988752   -1.7983752    4.5988752            0            0            0     22.65457     22.65457     22.65457     22.65457   -3.2381235   -3.2381235   -3.2381235   -9.6485861 
    1500   -9.6486321    4.6114872   -1.8109872    4.6114872   -1.8109872    4.6114872            0            0            0    18.372442    18.372442    18.372442    18.372442   -6.1269605   -6.1269605   -6.1269605   -9.6486321 
    1510   -9.6486611    4.6197772   -1.8192772    4.6197772   -1.8192772    4.6197772            0            0            0    30.383925    30.383925    30.383925    30.383925    6.7332895    6.7332895    6.7332895   -9.6486611 
    1520   -9.6486921    4.6288513   -1.8283513    4.6288513   -1.8283513    4.6288513            0            0            0    21.992751    21.992751    21.992751    21.992751  -0.72616009  -0.72616009  -0.72616009   -9.6486921 
    1530   -9.6487187    4.6369185   -1.8364185    4.6369185   -1.8364185    4.6369185            0            0            0    19.781463    19.781463    19.781463    19.781463   -2.1484767   -2.1484767   -2.1484767   -9.6487187 
    1540   -9.6487551    4.6484019   -1.8479019    4.6484019   -1.8479019    4.6484019            0            0            0     19.95712     19.95712     19.95712     19.95712  -0.90192899  -0.90192899  -0.90192899   -9.6487551 
    1550   -9.6487835    4.6577502   -1.8572502    4.6577502   -1.8572502    4.6577502            0            0            0    10.651927    10.651927    10.651927    10.651927   -9.3597294   -9.3597294   -9.3597294   -9.6487835 
    1560   -9.6488171    4.6691467   -1.8686467    4.6691467   -1.8686467    4.6691467            0            0            0    23.532496    23.532496    23.532496    23.532496    4.4725612    4.4725612    4.4725612   -9.6488171 
    1570   -9.6488389    4.6777697   -1.8772697    4.6777697   -1.8772697    4.6777697            0            0            0   -13.281794   -13.281794   -13.281794   -13.281794   -31.586525   -31.586525   -31.586525   -9.6488389 
    1580   -9.6488603    4.6856035   -1.8851035    4.6856035   -1.8851035    4.6856035            0            0            0    48.064452    48.064452    48.064452    48.064452    30.291113    30.291113    30.291113   -9.6488603 
    1590   -9.6488808    4.6923061   -1.8918061    4.6923061   -1.8918061    4.6923061            0            0            0    21.574866    21.574866    21.574866    21.574866    4.3486437    4.3486437    4.3486437   -9.6488808 
    1600   -9.6489015    4.7012334   -1.9007334    4.7012334   -1.9007334    4.7012334            0            0            0    45.343211    45.343211    45.343211    45.343211    28.744374    28.744374    28.744374   -9.6489015 
    1610   -9.6489238    4.7099038   -1.9094038    4.7099038   -1.9094038    4.7099038            0            0            0    40.841894    40.841894    40.841894    40.841894    24.864549    24.864549    24.864549   -9.6489238 
    1620   -9.6489425    4.7167535   -1.9162535    4.7167535   -1.9162535    4.7167535            0            0            0    11.884845    11.884845    11.884845    11.884845   -3.5873629   -3.5873629   -3.5873629   -9.6489425 
    1630   -9.6489604    4.7243175   -1.9238175    4.7243175   -1.9238175    4.7243175            0            0            0     17.40764     17.40764     17.40764     17.40764    2.4312071    2.4312071    2.4312071   -9.6489604 
    1640   -9.6489784    4.7321652   -1.9316652    4.7321652   -1.9316652    4.7321652            0            0            0    7.1915443    7.1915443    7.1915443    7.1915443   -7.2692702   -7.2692702   -7.2692702   -9.6489784 
    1650   -9.6490001    4.7418424   -1.9413424    4.7418424   -1.9413424    4.7418424            0            0            0    12.685594    12.685594    12.685594    12.685594    -1.183361    -1.183361    -1.183361   -9.6490001 
    1660   -9.6490191    4.7509279   -1.9504279    4.7509279   -1.9504279    4.7509279            0            0            0  -0.35924901  -0.35924901  -0.35924901  -0.35924901   -13.675423   -13.675423   -13.675423   -9.6490191 
    1670   -9.6490347    4.7585634   -1.9580634    4.7585634   -1.9580634    4.7585634            0            0            0   -4.3411564   -4.3411564   -4.3411564   -4.3411564   -17.216858   -17.216858   -17.216858   -9.6490347 
    1680   -9.6490502    4.7661269   -1.9656269    4.7661269   -1.9656269    4.7661269            0            0            0    -2.768254    -2.768254    -2.768254    -2.768254   -15.227455   -15.227455   -15.227455   -9.6490502 
    1690   -9.6490656    4.7746169   -1.9741169    4.7746169   -1.9741169    4.7746169            0            0            0     35.51136     35.51136     35.51136     35.51136    23.468566    23.468566    23.468566   -9.6490656 
    1700   -9.6490807    4.7819676   -1.9814676    4.7819676   -1.9814676    4.7819676            0            0            0    27.697415    27.697415    27.697415    27.697415    16.042064    16.042064    16.042064   -9.6490807 
    1710   -9.6490933    4.7882158   -1.9877158    4.7882158   -1.9877158    4.7882158            0            0            0    10.758001    10.758001    10.758001    10.758001  -0.56842514  -0.56842514  -0.56842514   -9.6490933 
    1720   -9.6491038    4.7940309   -1.9935309    4.7940309   -1.9935309    4.7940309            0            0            0    13.202175    13.202175    13.202175    13.202175    2.1574367    2.1574367    2.1574367   -9.6491038 
    1730   -9.6491189     4.802613    -2.002113     4.802613    -2.002113     4.802613            0            0            0    3.5758236    3.5758236    3.5758236    3.5758236   -7.0545513   -7.0545513   -7.0545513   -9.6491189 
    1740   -9.6491305    4.8095181   -2.0090181    4.8095181   -2.0090181    4.8095181            0            0            0    19.686484    19.686484    19.686484    19.686484    9.3582907    9.3582907    9.3582907   -9.6491305 
    1750   -9.6491453    4.8186018   -2.0181018    4.8186018   -2.0181018    4.8186018            0            0            0    23.326744    23.326744    23.326744    23.326744    13.397141    13.397141    13.397141   -9.6491453 
    1760    -9.649155     4.824364    -2.023864     4.824364    -2.023864     4.824364            0            0            0    -1.051723    -1.051723    -1.051723    -1.051723   -10.715395   -10.715395   -10.715395    -9.649155 
    1770   -9.6491664    4.8313525   -2.0308525    4.8313525   -2.0308525    4.8313525            0            0            0     3.502864     3.502864     3.502864     3.502864   -5.8738638   -5.8738638   -5.8738638   -9.6491664 
    1780   -9.6491778    4.8387661   -2.0382661    4.8387661   -2.0382661    4.8387661            0            0            0    4.3831254    4.3831254    4.3831254    4.3831254   -4.6955517   -4.6955517   -4.6955517   -9.6491778 
    1790   -9.6491904    4.8471479   -2.0466479    4.8471479   -2.0466479    4.8471479            0            0            0    5.0129271    5.0129271    5.0129271    5.0129271   -3.7398769   -3.7398769   -3.7398769   -9.6491904 
    1800   -9.6492024    4.8554113   -2.0549113    4.8554113   -2.0549113    4.8554113            0            0            0    8.3512403    8.3512403    8.3512403    8.3512403 -0.093612741 -0.093612741 -0.093612741   -9.6492024 
    1810   -9.6492113    4.8621537   -2.0616537    4.8621537   -2.0616537    4.8621537            0            0            0    19.257458    19.257458    19.257458    19.257458     11.05027     11.05027     11.05027   -9.6492113 
    1820    -9.649221    4.8689045   -2.0684045    4.8689045   -2.0684045    4.8689045            0            0            0   0.74578503   0.74578503   0.74578503   0.74578503   -7.2106417   -7.2106417   -7.2106417    -9.649221 
    1830   -9.6492307    4.8767571   -2.0762571    4.8767571   -2.0762571    4.8767571            0            0            0    22.353054    22.353054    22.353054    22.353054    14.651085    14.651085    14.651085   -9.6492307 
    1840   -9.6492398    4.8838252   -2.0833252    4.8838252   -2.0833252    4.8838252            0            0            0   -8.8196623   -8.8196623   -8.8196623   -8.8196623   -16.267898   -16.267898   -16.267898   -9.6492398 
    1850   -9.6492484    4.8899755   -2.0894755    4.8899755   -2.0894755    4.8899755            0            0            0  0.018356089  0.018356089  0.018356089  0.018356089   -7.2377515   -7.2377515   -7.2377515   -9.6492484 
    1860   -9.6492577    4.8973702   -2.0968702    4.8973702   -2.0968702    4.8973702            0            0            0    8.8562501    8.8562501    8.8562501    8.8562501    1.8256771    1.8256771    1.8256771   -9.6492577 
    1870   -9.6492666    4.9048231   -2.1043231    4.9048231   -2.1043231    4.9048231            0            0            0    12.061691    12.061691    12.061691    12.061691      5.25462      5.25462      5.25462   -9.6492666 
    1880    -9.649275    4.9121772   -2.1116772    4.9121772   -2.1116772    4.9121772            0            0            0    14.708753    14.708753    14.708753    14.708753    8.1153532    8.1153532    8.1153532    -9.649275 
    1890   -9.6492815    4.9176654   -2.1171654    4.9176654   -2.1171654    4.9176654            0            0            0    6.3762947    6.3762947    6.3762947    6.3762947 -0.056681467 -0.056681467 -0.056681467   -9.6492815 
    1900   -9.6492906    4.9258468   -2.1253468    4.9258468   -2.1253468    4.9258468            0            0            0    4.0826959    4.0826959    4.0826959    4.0826959   -2.1236477   -2.1236477   -2.1236477   -9.6492906 
    1910   -9.6492984    4.9330845   -2.1325845    4.9330845   -2.1325845    4.9330845            0            0            0      2.16234      2.16234      2.16234      2.16234   -3.8502073   -3.8502073   -3.8502073   -9.6492984 
    1920   -9.6493071    4.9415782   -2.1410782    4.9415782   -2.1410782    4.9415782            0            0            0    11.735393    11.735393    11.735393    11.735393    5.9360124    5.9360124    5.9360124   -9.6493071 
    1930   -9.6493128    4.9475244   -2.1470244    4.9475244   -2.1470244    4.9475244            0            0            0   -5.1022457   -5.1022457   -5.1022457   -5.1022457    -10.74562    -10.74562    -10.74562   -9.6493128 
    1940   -9.6493222    4.9564706   -2.1559706    4.9564706   -2.1559706    4.9564706            0            0            0    5.6507103    5.6507103    5.6507103    5.6507103   0.21730761   0.21730761   0.21730761   -9.6493222 
    1950   -9.6493298    4.9643706   -2.1638706    4.9643706   -2.1638706    4.9643706            0            0            0    5.4235855    5.4235855    5.4235855    5.4235855   0.17351575   0.17351575   0.17351575   -9.6493298 
    1960   -9.6493357    4.9709779   -2.1704779    4.9709779   -2.1704779    4.9709779            0            0            0    12.499157    12.499157    12.499157    12.499157    7.3944441    7.3944441    7.3944441   -9.6493357 
    1970   -9.6493434    4.9791759   -2.1786759    4.9791759   -2.1786759    4.9791759            0            0            0    7.4571073    7.4571073    7.4571073    7.4571073    2.5330925    2.5330925    2.5330925   -9.6493434 
    1980   -9.6493491    4.9857655   -2.1852655    4.9857655   -2.1852655    4.9857655            0            0            0    9.4686485    9.4686485    9.4686485    9.4686485    4.6827113    4.6827113    4.6827113   -9.6493491 
    1990   -9.6493541    4.9914517   -2.1909517    4.9914517   -2.1909517    4.9914517            0            0            0    4.6863294    4.6863294    4.6863294    4.6863294  0.019093304  0.019093304  0.019093304   -9.6493541 
    2000   -9.6493592    4.9976052   -2.1971052    4.9976052   -2.1971052    4.9976052            0            0            0    8.8837801    8.8837801    8.8837801    8.8837801    4.3379569    4.3379569    4.3379569   -9.6493592 
    2010   -9.6493651    5.0056864   -2.2051864    5.0056864   -2.2051864    5.0056864            0            0            0   -8.9001148   -8.9001148   -8.9001148   -8.9001148   -13.282241   -13.282241   -13.282241   -9.6493651 
    2020   -9.6493698    5.0106252   -2.2101252    5.0106252   -2.2101252    5.0106252            0            0            0    7.8338371    7.8338371    7.8338371    7.8338371    3.5383617    3.5383617    3.5383617   -9.6493698 
    2030   -9.6493747    5.0168819   -2.2163819    5.0168819   -2.2163819    5.0168819            0            0            0    -1.032898    -1.032898    -1.032898    -1.032898   -5.2099111   -5.2099111   -5.2099111   -9.6493747 
    2040   -9.6493805    5.0243087   -2.2238087    5.0243087   -2.2238087    5.0243087            0            0            0    3.4951961    3.4951961    3.4951961    3.4951961  -0.55082364  -0.55082364  -0.55082364   -9.6493805 
    2050    -9.649386     5.031805    -2.231305     5.031805    -2.231305     5.031805            0            0            0    4.3939555    4.3939555    4.3939555    4.3939555    0.4772753    0.4772753    0.4772753    -9.649386 
    2060   -9.6493908    5.0386052   -2.2381052    5.0386052   -2.2381052    5.0386052            0            0            0  -0.79881557  -0.79881557  -0.79881557  -0.79881557   -4.5996958   -4.5996958   -4.5996958   -9.6493908 
    2070   -9.6493957    5.0453522   -2.2448522    5.0453522   -2.2448522    5.0453522            0            0            0     3.010791     3.010791     3.010791     3.010791  -0.68153443  -0.68153443  -0.68153443   -9.6493957 
    2080   -9.6494007    5.0526851   -2.2521851    5.0526851   -2.2521851    5.0526851            0            0            0    3.9871752    3.9871752    3.9871752    3.9871752   0.41034125   0.41034125   0.41034125   -9.6494007 
    2090   -9.6494056    5.0601224   -2.2596224    5.0601224   -2.2596224    5.0601224            0            0            0   -1.0506857   -1.0506857   -1.0506857   -1.0506857   -4.5121817   -4.5121817   -4.5121817   -9.6494056 
    2100   -9.6494088    5.0650643   -2.2645643    5.0650643   -2.2645643    5.0650643            0            0            0   -0.9100363   -0.9100363   -0.9100363   -0.9100363   -4.2980169   -4.2980169   -4.2980169   -9.6494088 
    2110    -9.649412    5.0698402   -2.2693402    5.0698402   -2.2693402    5.0698402            0            0            0    2.1102383    2.1102383    2.1102383    2.1102383   -1.2090468   -1.2090468   -1.2090468    -9.649412 
    2120   -9.6494158    5.0765294   -2.2760294    5.0765294   -2.2760294    5.0765294            0            0            0    11.055896    11.055896    11.055896    11.055896    7.8291135    7.8291135    7.8291135   -9.6494158 
    2130   -9.6494205    5.0836997   -2.2831997    5.0836997   -2.2831997    5.0836997            0            0            0    6.1538829    6.1538829    6.1538829    6.1538829    3.0275201    3.0275201    3.0275201   -9.6494205 
    2140   -9.6494243    5.0899834   -2.2894834    5.0899834   -2.2894834    5.0899834            0            0            0     1.793384     1.793384     1.793384     1.793384   -1.2475189   -1.2475189   -1.2475189   -9.6494243 
    2150   -9.6494278    5.0960529   -2.2955529    5.0960529   -2.2955529    5.0960529            0            0            0    2.5135403    2.5135403    2.5135403    2.5135403  -0.44835881  -0.44835881  -0.44835881   -9.6494278 
    2160    -9.649432    5.1035468   -2.3030468    5.1035468   -2.3030468    5.1035468            0            0            0     2.765585     2.765585     2.765585     2.765585  -0.10142204  -0.10142204  -0.10142204    -9.649432 
    2170   -9.6494347    5.1084193   -2.3079193    5.1084193   -2.3079193    5.1084193            0            0            0    3.1864903    3.1864903    3.1864903    3.1864903   0.37948369   0.37948369   0.37948369   -9.6494347 
    2180   -9.6494375    5.1135113   -2.3130113    5.1135113   -2.3130113    5.1135113            0            0            0    3.7150241    3.7150241    3.7150241    3.7150241   0.96936025   0.96936025   0.96936025   -9.6494375 
    2190   -9.6494414    5.1209766   -2.3204766    5.1209766   -2.3204766    5.1209766            0            0            0     0.401637     0.401637     0.401637     0.401637   -2.2554956   -2.2554956   -2.2554956   -9.6494414 
    2200   -9.6494454    5.1292485   -2.3287485    5.1292485   -2.3287485    5.1292485            0            0            0   -4.3433144   -4.3433144   -4.3433144   -4.3433144   -6.9054043   -6.9054043   -6.9054043   -9.6494454 
    2210   -9.6494483    5.1349669   -2.3344669    5.1349669   -2.3344669    5.1349669            0            0            0    8.8814639    8.8814639    8.8814639    8.8814639    6.3792463    6.3792463    6.3792463   -9.6494483 
    2220   -9.6494515     5.140976    -2.340476     5.140976    -2.340476     5.140976            0            0            0    1.5934469    1.5934469    1.5934469    1.5934469   -0.8425478   -0.8425478   -0.8425478   -9.6494515 
    2230   -9.6494538    5.1464481   -2.3459481    5.1464481   -2.3459481    5.1464481            0            0            0   -4.1983812   -4.1983812   -4.1983812   -4.1983812   -6.5757696   -6.5757696   -6.5757696   -9.6494538 
    2240   -9.6494567    5.1519407   -2.3514407    5.1519407   -2.3514407    5.1519407            0            0            0    2.5655276    2.5655276    2.5655276    2.5655276   0.24281624   0.24281624   0.24281624   -9.6494567 
    2250   -9.6494599    5.1589853   -2.3584853    5.1589853   -2.3584853    5.1589853            0            0            0    2.2947782    2.2947782    2.2947782    2.2947782  0.042253068  0.042253068  0.042253068   -9.6494599 
    2260   -9.6494627    5.1652471   -2.3647471    5.1652471   -2.3647471    5.1652471            0            0            0 -0.025452616 -0.025452616 -0.025452616 -0.025452616   -2.2169352   -2.2169352   -2.2169352   -9.6494627 
    2270   -9.6494642    5.1687425   -2.3682425    5.1687425   -2.3682425    5.1687425            0            0            0    2.6993573    2.6993573    2.6993573    2.6993573   0.54041151   0.54041151   0.54041151   -9.6494642 
    2280   -9.6494665    5.1742289   -2.3737289    5.1742289   -2.3737289    5.1742289            0            0            0    5.8493759    5.8493759    5.8493759    5.8493759    3.7407557    3.7407557    3.7407557   -9.6494665 
    2290   -9.6494697    5.1817652   -2.3812652    5.1817652   -2.3812652    5.1817652            0            0            0    1.4709181    1.4709181    1.4709181    1.4709181  -0.56879316  -0.56879316  -0.56879316   -9.6494697 
    2300   -9.6494715    5.1866003   -2.3861003    5.1866003   -2.3861003    5.1866003            0            0            0    7.2340827    7.2340827    7.2340827    7.2340827    5.2357732    5.2357732    5.2357732   -9.6494715 
    2310   -9.6494743    5.1930084   -2.3925084    5.1930084   -2.3925084    5.1930084            0            0            0    1.1102672    1.1102672    1.1102672    1.1102672  -0.83191697  -0.83191697  -0.83191697   -9.6494743 
    2320   -9.6494775    5.2014916   -2.4009916    5.2014916   -2.4009916    5.2014916            0            0            0   -1.3390337   -1.3390337   -1.3390337   -1.3390337   -3.2103268   -3.2103268   -3.2103268   -9.6494775 
    2330   -9.6494799    5.2075545   -2.4070545    5.2075545   -2.4070545    5.2075545            0            0            0    1.5820959    1.5820959    1.5820959    1.5820959   -0.2409292   -0.2409292   -0.2409292   -9.6494799 
    2340   -9.6494821    5.2135131   -2.4130131    5.2135131   -2.4130131    5.2135131            0            0            0    1.0387639    1.0387639    1.0387639    1.0387639  -0.73745101  -0.73745101  -0.73745101   -9.6494821 
    2350    -9.649484    5.2186031   -2.4181031    5.2186031   -2.4181031    5.2186031            0            0            0    1.6994397    1.6994397    1.6994397    1.6994397 -0.037923876 -0.037923876 -0.037923876    -9.649484 
    2360   -9.6494863    5.2252119   -2.4247119    5.2252119   -2.4247119    5.2252119            0            0            0    2.2866715    2.2866715    2.2866715    2.2866715   0.59853685   0.59853685   0.59853685   -9.6494863 
    2370   -9.6494883    5.2311431   -2.4306431    5.2311431   -2.4306431    5.2311431            0            0            0   -0.3590693   -0.3590693   -0.3590693   -0.3590693      -2.0037      -2.0037      -2.0037   -9.6494883 
    2380   -9.6494904    5.2375829   -2.4370829    5.2375829   -2.4370829    5.2375829            0            0            0     -2.85182     -2.85182     -2.85182     -2.85182   -4.4505342   -4.4505342   -4.4505342   -9.6494904 
    2390   -9.6494934    5.2464931   -2.4459931    5.2464931   -2.4459931    5.2464931            0            0            0    3.8241496    3.8241496    3.8241496    3.8241496    2.2853578    2.2853578    2.2853578   -9.6494934 
    2400   -9.6494951     5.251538    -2.451038     5.251538    -2.451038     5.251538            0            0            0   0.85075493   0.85075493   0.85075493   0.85075493   -0.6541164   -0.6541164   -0.6541164   -9.6494951 
    2410   -9.6494967    5.2565814   -2.4560814    5.2565814   -2.4560814    5.2565814            0            0            0    0.4481638    0.4481638    0.4481638    0.4481638   -1.0239073   -1.0239073   -1.0239073   -9.6494967 
    2420    -9.649498    5.2610133   -2.4605133    5.2610133   -2.4605133    5.2610133            0            0            0    3.7447177    3.7447177    3.7447177    3.7447177    2.3003675    2.3003675    2.3003675    -9.649498 
    2430   -9.6494995      5.26588     -2.46538      5.26588     -2.46538      5.26588            0            0            0     1.509525     1.509525     1.509525     1.509525  0.095828158  0.095828158  0.095828158   -9.6494995 
    2440   -9.6495014    5.2721562   -2.4716562    5.2721562   -2.4716562    5.2721562            0            0            0    1.1329938    1.1329938    1.1329938    1.1329938  -0.24246137  -0.24246137  -0.24246137   -9.6495014 
    2450   -9.6495025    5.2761795   -2.4756795    5.2761795   -2.4756795    5.2761795            0            0            0     2.723385     2.723385     2.723385     2.723385    1.3716178    1.3716178    1.3716178   -9.6495025 
    2460   -9.6495035    5.2794705   -2.4789705    5.2794705   -2.4789705    5.2794705            0            0            0    1.3542392    1.3542392    1.3542392    1.3542392  0.021888692  0.021888692  0.021888692   -9.6495035 
    2470   -9.6495042    5.2820232   -2.4815232    5.2820232   -2.4815232    5.2820232            0            0            0    2.7808614    2.7808614    2.7808614    2.7808614    1.4630574    1.4630574    1.4630574   -9.6495042 
    2480   -9.6495067    5.2913131   -2.4908131    5.2913131   -2.4908131    5.2913131            0            0            0    5.0439525    5.0439525    5.0439525    5.0439525    3.7781304    3.7781304    3.7781304   -9.6495067 
    2490   -9.6495082    5.2973632   -2.4968632    5.2973632   -2.4968632    5.2973632            0            0            0     6.268271     6.268271     6.268271     6.268271    5.0352305    5.0352305    5.0352305   -9.6495082 
    2500   -9.6495099    5.3028705   -2.5023705    5.3028705   -2.5023705    5.3028705            0            0            0     1.165528     1.165528     1.165528     1.165528 -0.037661823 -0.037661823 -0.037661823   -9.6495099 
    2510   -9.6495114    5.3089714   -2.5084714    5.3089714   -2.5084714    5.3089714            0            0            0    1.4240807    1.4240807    1.4240807    1.4240807   0.25243464   0.25243464   0.25243464   -9.6495114 
    2520   -9.6495127    5.3140622   -2.5135622    5.3140622   -2.5135622    5.3140622            0            0            0    1.0197354    1.0197354    1.0197354    1.0197354  -0.12614846  -0.12614846  -0.12614846   -9.6495127 
    2530   -9.6495137    5.3180148   -2.5175148    5.3180148   -2.5175148    5.3180148            0            0            0    1.0523933    1.0523933    1.0523933    1.0523933 -0.073916107 -0.073916107 -0.073916107   -9.6495137 
    2540   -9.6495143    5.3204138   -2.5199138    5.3204138   -2.5199138    5.3204138            0            0            0   0.57134775   0.57134775   0.57134775   0.57134775  -0.54318692  -0.54318692  -0.54318692   -9.6495143 
    2550   -9.6495155    5.3255784   -2.5250784    5.3255784   -2.5250784    5.3255784            0            0            0  -0.53441756  -0.53441756  -0.53441756  -0.53441756   -1.6240093   -1.6240093   -1.6240093   -9.6495155 
    2560   -9.6495163    5.3289009   -2.5284009    5.3289009   -2.5284009    5.3289009            0            0            0    1.5484732    1.5484732    1.5484732    1.5484732   0.47433256   0.47433256   0.47433256   -9.6495163 
    2570   -9.6495177    5.3348564   -2.5343564    5.3348564   -2.5343564    5.3348564            0            0            0    1.0019698    1.0019698    1.0019698    1.0019698 -0.044567229 -0.044567229 -0.044567229   -9.6495177 
    2580   -9.6495191    5.3418034   -2.5413034    5.3418034   -2.5413034    5.3418034            0            0            0   -3.0045572   -3.0045572   -3.0045572   -3.0045572   -4.0194363   -4.0194363   -4.0194363   -9.6495191 
    2590   -9.6495204    5.3476168   -2.5471168    5.3476168   -2.5471168    5.3476168            0            0            0   -2.6185509   -2.6185509   -2.6185509   -2.6185509   -3.6080433   -3.6080433   -3.6080433   -9.6495204 
    2600   -9.6495217    5.3536045   -2.5531045    5.3536045   -2.5531045    5.3536045            0            0            0    5.4915677    5.4915677    5.4915677    5.4915677    4.5268094    4.5268094    4.5268094   -9.6495217 
    2610   -9.6495223    5.3558768   -2.5553768    5.3558768   -2.5553768    5.3558768            0            0            0    1.0441597    1.0441597    1.0441597    1.0441597  0.089355268  0.089355268  0.089355268   -9.6495223 
    2620   -9.6495235    5.3615449   -2.5610449    5.3615449   -2.5610449    5.3615449            0            0            0   0.98107529   0.98107529   0.98107529   0.98107529  0.049617825  0.049617825  0.049617825   -9.6495235 
    2630   -9.6495242    5.3648899   -2.5643899    5.3648899   -2.5643899    5.3648899            0            0            0    1.1990462    1.1990462    1.1990462    1.1990462   0.28107617   0.28107617   0.28107617   -9.6495242 
    2640   -9.6495249    5.3680522   -2.5675522    5.3680522   -2.5675522    5.3680522            0            0            0   -0.1096134   -0.1096134   -0.1096134   -0.1096134   -1.0148707   -1.0148707   -1.0148707   -9.6495249 
    2650    -9.649526    5.3737992   -2.5732992    5.3737992   -2.5732992    5.3737992            0            0            0    1.5326308    1.5326308    1.5326308    1.5326308   0.64966969   0.64966969   0.64966969    -9.649526 
    2660   -9.6495267     5.377082    -2.576582     5.377082    -2.576582     5.377082            0            0            0     1.099846     1.099846     1.099846     1.099846   0.22949769   0.22949769   0.22949769   -9.6495267 
    2670   -9.6495278    5.3827971   -2.5822971    5.3827971   -2.5822971    5.3827971            0            0            0    1.0179917    1.0179917    1.0179917    1.0179917   0.16911855   0.16911855   0.16911855   -9.6495278 
    2680   -9.6495286    5.3869554   -2.5864554    5.3869554   -2.5864554    5.3869554            0            0            0   0.96630014   0.96630014   0.96630014   0.96630014   0.13272106   0.13272106   0.13272106   -9.6495286 
    2690   -9.6495291    5.3900597   -2.5895597    5.3900597   -2.5895597    5.3900597            0            0            0   0.69543602   0.69543602   0.69543602   0.69543602  -0.12688438  -0.12688438  -0.12688438   -9.6495291 
    2700     -9.64953    5.3946002   -2.5941002    5.3946002   -2.5941002    5.3946002            0            0            0    1.4951672    1.4951672    1.4951672    1.4951672   0.68894472   0.68894472   0.68894472     -9.64953 
    2710   -9.6495307    5.3983479   -2.5978479    5.3983479   -2.5978479    5.3983479            0            0            0   0.87945738   0.87945738   0.87945738   0.87945738  0.086391051  0.086391051  0.086391051   -9.6495307 
    2720   -9.6495313    5.4021726   -2.6016726    5.4021726   -2.6016726    5.4021726            0            0            0   0.36080426   0.36080426   0.36080426   0.36080426  -0.41906347  -0.41906347  -0.41906347   -9.6495313 
    2730   -9.6495322    5.4070342   -2.6065342    5.4070342   -2.6065342    5.4070342            0            0            0    1.0841568    1.0841568    1.0841568    1.0841568   0.32064314   0.32064314   0.32064314   -9.6495322 
    2740   -9.6495329    5.4111085   -2.6106085    5.4111085   -2.6106085    5.4111085            0            0            0  -0.18106275  -0.18106275  -0.18106275  -0.18106275  -0.93098698  -0.93098698  -0.93098698   -9.6495329 
    2750   -9.6495335    5.4146926   -2.6141926    5.4146926   -2.6141926    5.4146926            0            0            0   0.36777054   0.36777054   0.36777054   0.36777054  -0.37052445  -0.37052445  -0.37052445   -9.6495335 
    2760   -9.6495338    5.4164988   -2.6159988    5.4164988   -2.6159988    5.4164988            0            0            0   0.87867639   0.87867639   0.87867639   0.87867639   0.14615615   0.14615615   0.14615615   -9.6495338 
    2770   -9.6495342    5.4188865   -2.6183865    5.4188865   -2.6183865    5.4188865            0            0            0   0.71775523   0.71775523   0.71775523   0.71775523 -0.0071364577 -0.0071364577 -0.0071364577   -9.6495342 
    2780   -9.6495346    5.4214397   -2.6209397    5.4214397   -2.6209397    5.4214397            0            0            0   -1.3648889   -1.3648889   -1.3648889   -1.3648889   -2.0815673   -2.0815673   -2.0815673   -9.6495346 
    2790   -9.6495349    5.4231926   -2.6226926    5.4231926   -2.6226926    5.4231926            0            0            0   0.63231713   0.63231713   0.63231713   0.63231713 -0.079030028 -0.079030028 -0.079030028   -9.6495349 
    2800   -9.6495357    5.4277477   -2.6272477    5.4277477   -2.6272477    5.4277477            0            0            0    0.2634757    0.2634757    0.2634757    0.2634757  -0.43379564  -0.43379564  -0.43379564   -9.6495357 
    2810   -9.6495363    5.4315177   -2.6310177    5.4315177   -2.6310177    5.4315177            0            0            0  -0.09699593  -0.09699593  -0.09699593  -0.09699593  -0.78282218  -0.78282218  -0.78282218   -9.6495363 
    2820   -9.6495375    5.4394335   -2.6389335    5.4394335   -2.6389335    5.4394335            0            0            0   0.52966577   0.52966577   0.52966577   0.52966577  -0.13282584  -0.13282584  -0.13282584   -9.6495375 
    2830    -9.649538    5.4431189   -2.6426189    5.4431189   -2.6426189    5.4431189            0            0            0   -1.1180223   -1.1180223   -1.1180223   -1.1180223   -1.7697867   -1.7697867   -1.7697867    -9.649538 
    2840   -9.6495387     5.447675    -2.647175     5.447675    -2.647175     5.447675            0            0            0    1.1348779    1.1348779    1.1348779    1.1348779   0.49585058   0.49585058   0.49585058   -9.6495387 
    2850   -9.6495392    5.4508385   -2.6503385    5.4508385   -2.6503385    5.4508385            0            0            0   0.39548099   0.39548099   0.39548099   0.39548099   -0.2346949   -0.2346949   -0.2346949   -9.6495392 
    2860   -9.6495397    5.4545502   -2.6540502    5.4545502   -2.6540502    5.4545502            0            0            0  -0.75542082  -0.75542082  -0.75542082  -0.75542082   -1.3753469   -1.3753469   -1.3753469   -9.6495397 
    2870   -9.6495404    5.4589089   -2.6584089    5.4589089   -2.6584089    5.4589089            0            0            0   0.63559851   0.63559851   0.63559851   0.63559851   0.02732297   0.02732297   0.02732297   -9.6495404 
    2880   -9.6495407    5.4609139   -2.6604139    5.4609139   -2.6604139    5.4609139            0            0            0   0.67478414   0.67478414   0.67478414   0.67478414  0.071833252  0.071833252  0.071833252   -9.6495407 
    2890   -9.6495413       5.4656      -2.6651       5.4656      -2.6651       5.4656            0            0            0   0.39298217   0.39298217   0.39298217   0.39298217  -0.19767923  -0.19767923  -0.19767923   -9.6495413 
    2900   -9.6495419    5.4700692   -2.6695692    5.4700692   -2.6695692    5.4700692            0            0            0   0.40961012   0.40961012   0.40961012   0.40961012  -0.16957849  -0.16957849  -0.16957849   -9.6495419 
    2910   -9.6495423    5.4724214   -2.6719214    5.4724214   -2.6719214    5.4724214            0            0            0   0.29208997   0.29208997   0.29208997   0.29208997  -0.28114124  -0.28114124  -0.28114124   -9.6495423 
    2920   -9.6495427    5.4758563   -2.6753563    5.4758563   -2.6753563    5.4758563            0            0            0  -0.52415722  -0.52415722  -0.52415722  -0.52415722   -1.0887587   -1.0887587   -1.0887587   -9.6495427 
    2930   -9.6495428    5.4764781   -2.6759781    5.4764781   -2.6759781    5.4764781            0            0            0    1.2046172    1.2046172    1.2046172    1.2046172    0.6414517    0.6414517    0.6414517   -9.6495428 
    2940   -9.6495435    5.4816242   -2.6811242    5.4816242   -2.6811242    5.4816242            0            0            0   0.54930097   0.54930097   0.54930097   0.54930097 -0.0012395432 -0.0012395432 -0.0012395432   -9.6495435 
    2950   -9.6495443    5.4880045   -2.6875045    5.4880045   -2.6875045    5.4880045            0            0            0   0.95381991   0.95381991   0.95381991   0.95381991   0.41847584   0.41847584   0.41847584   -9.6495443 
    2960   -9.6495446    5.4909134   -2.6904134    5.4909134   -2.6904134    5.4909134            0            0            0   -1.3985547   -1.3985547   -1.3985547   -1.3985547   -1.9269651   -1.9269651   -1.9269651   -9.6495446 
    2970   -9.6495449     5.492765    -2.692265     5.492765    -2.692265     5.492765            0            0            0   0.29839053   0.29839053   0.29839053   0.29839053  -0.22583144  -0.22583144  -0.22583144   -9.6495449 
    2980   -9.6495452    5.4952374   -2.6947374    5.4952374   -2.6947374    5.4952374            0            0            0   0.46800619   0.46800619   0.46800619   0.46800619 -0.050557816 -0.050557816 -0.050557816   -9.6495452 
    2990   -9.6495457    5.4995777   -2.6990777    5.4995777   -2.6990777    5.4995777            0            0            0   -2.2716479   -2.2716479   -2.2716479   -2.2716479   -2.7802586   -2.7802586   -2.7802586   -9.6495457 
    3000   -9.6495465    5.5057754   -2.7052754    5.5057754   -2.7052754    5.5057754            0            0            0  -0.64232368  -0.64232368  -0.64232368  -0.64232368   -1.1373413   -1.1373413   -1.1373413   -9.6495465 
    3010    -9.649547     5.510919    -2.710419     5.510919    -2.710419     5.510919            0            0            0   -2.3450346   -2.3450346   -2.3450346   -2.3450346   -2.8288838   -2.8288838   -2.8288838    -9.649547 
    3020   -9.6495477    5.5161624   -2.7156624    5.5161624   -2.7156624    5.5161624            0            0            0   -1.2415065   -1.2415065   -1.2415065   -1.2415065   -1.7143709   -1.7143709   -1.7143709   -9.6495477 
    3030   -9.6495481    5.5200463   -2.7195463    5.5200463   -2.7195463    5.5200463            0            0            0   0.28115196   0.28115196   0.28115196   0.28115196  -0.18376942  -0.18376942  -0.18376942   -9.6495481 
    3040   -9.6495487    5.5262102   -2.7257102    5.5262102   -2.7257102    5.5262102            0            0            0   -3.1519857   -3.1519857   -3.1519857   -3.1519857   -3.6042833   -3.6042833   -3.6042833   -9.6495487 
    3050   -9.6495492    5.5309428   -2.7304428    5.5309428   -2.7304428    5.5309428            0            0            0    3.3669877    3.3669877    3.3669877    3.3669877    2.9237135    2.9237135    2.9237135   -9.6495492 
    3060   -9.6495496    5.5339127   -2.7334127    5.5339127   -2.7334127    5.5339127            0            0            0   0.42196491   0.42196491   0.42196491   0.42196491 -0.015403724 -0.015403724 -0.015403724   -9.6495496 
    3070   -9.6495499    5.5358938   -2.7353938    5.5358938   -2.7353938    5.5358938            0            0            0   0.37594972   0.37594972   0.37594972   0.37594972 -0.057612604 -0.057612604 -0.057612604   -9.6495499 
    3080   -9.6495501    5.5378332   -2.7373332    5.5378332   -2.7373332    5.5378332            0            0            0   0.62093224   0.62093224   0.62093224   0.62093224    0.1910511    0.1910511    0.1910511   -9.6495501 
    3090   -9.6495503    5.5401441   -2.7396441    5.5401441   -2.7396441    5.5401441            0            0            0    1.7571638    1.7571638    1.7571638    1.7571638    1.3315897    1.3315897    1.3315897   -9.6495503 
    3100   -9.6495506    5.5435185   -2.7430185    5.5435185   -2.7430185    5.5435185            0            0            0    1.7176793    1.7176793    1.7176793    1.7176793    1.2983959    1.2983959    1.2983959   -9.6495506 
    3110   -9.6495509    5.5455195   -2.7450195    5.5455195   -2.7450195    5.5455195            0            0            0    0.5163946    0.5163946    0.5163946    0.5163946   0.10085161   0.10085161   0.10085161   -9.6495509 
    3120   -9.6495511    5.5475452   -2.7470452    5.5475452   -2.7470452    5.5475452            0            0            0   0.35840982   0.35840982   0.35840982   0.35840982   -0.0534272   -0.0534272   -0.0534272   -9.6495511 
    3130   -9.6495513    5.5496736   -2.7491736    5.5496736   -2.7491736    5.5496736            0            0            0   0.41248237   0.41248237   0.41248237   0.41248237 0.0044943271 0.0044943271 0.0044943271   -9.6495513 
    3140   -9.6495515    5.5517722   -2.7512722    5.5517722   -2.7512722    5.5517722            0            0            0   0.20724939   0.20724939   0.20724939   0.20724939  -0.19696676  -0.19696676  -0.19696676   -9.6495515 
    3150   -9.6495517    5.5538978   -2.7533978    5.5538978   -2.7533978    5.5538978            0            0            0   0.38648986   0.38648986   0.38648986   0.38648986 -0.013957465 -0.013957465 -0.013957465   -9.6495517 
    3160   -9.6495519    5.5561238   -2.7556238    5.5561238   -2.7556238    5.5561238            0            0            0   0.34792097   0.34792097   0.34792097   0.34792097 -0.048606839 -0.048606839 -0.048606839   -9.6495519 
    3170   -9.6495521    5.5583262   -2.7578262    5.5583262   -2.7578262    5.5583262            0            0            0   0.59366379   0.59366379   0.59366379   0.59366379   0.20096472   0.20096472   0.20096472   -9.6495521 
    3180   -9.6495524    5.5612411   -2.7607411    5.5612411   -2.7607411    5.5612411            0            0            0    2.0812639    2.0812639    2.0812639    2.0812639    1.6935274    1.6935274    1.6935274   -9.6495524 
    3190   -9.6495527    5.5649592   -2.7644592    5.5649592   -2.7644592    5.5649592            0            0            0    2.1003646    2.1003646    2.1003646    2.1003646    1.7189472    1.7189472    1.7189472   -9.6495527 
    3200    -9.649553    5.5675129   -2.7670129    5.5675129   -2.7670129    5.5675129            0            0            0   0.54716636   0.54716636   0.54716636   0.54716636    0.1700952    0.1700952    0.1700952    -9.649553 
    3210   -9.6495531    5.5689928   -2.7684928    5.5689928   -2.7684928    5.5689928            0            0            0    1.7516399    1.7516399    1.7516399    1.7516399    1.3769788    1.3769788    1.3769788   -9.6495531 
    3220   -9.6495535    5.5727302   -2.7722302    5.5727302   -2.7722302    5.5727302            0            0            0    1.5797533    1.5797533    1.5797533    1.5797533    1.2112416    1.2112416    1.2112416   -9.6495535 
    3230   -9.6495538    5.5768805   -2.7763805    5.5768805   -2.7763805    5.5768805            0            0            0    2.6699096    2.6699096    2.6699096    2.6699096      2.30806      2.30806      2.30806   -9.6495538 
    3240   -9.6495542    5.5810664   -2.7805664    5.5810664   -2.7805664    5.5810664            0            0            0    0.1154647    0.1154647    0.1154647    0.1154647  -0.23964201  -0.23964201  -0.23964201   -9.6495542 
    3250   -9.6495545    5.5845796   -2.7840796    5.5845796   -2.7840796    5.5845796            0            0            0    0.3277452    0.3277452    0.3277452    0.3277452 -0.021888225 -0.021888225 -0.021888225   -9.6495545 
    3260   -9.6495548    5.5873656   -2.7868656    5.5873656   -2.7868656    5.5873656            0            0            0   0.32175188   0.32175188   0.32175188   0.32175188 -0.023593163 -0.023593163 -0.023593163   -9.6495548 
    3270    -9.649555    5.5895551   -2.7890551    5.5895551   -2.7890551    5.5895551            0            0            0   0.69165723   0.69165723   0.69165723   0.69165723   0.34963206   0.34963206   0.34963206    -9.649555 
    3280   -9.6495554    5.5942062   -2.7937062    5.5942062   -2.7937062    5.5942062            0            0            0   0.23975091   0.23975091   0.23975091   0.23975091 -0.095279212 -0.095279212 -0.095279212   -9.6495554 
    3290   -9.6495556    5.5984678   -2.7979678    5.5984678   -2.7979678    5.5984678            0            0            0   -2.2326324   -2.2326324   -2.2326324   -2.2326324   -2.5613008   -2.5613008   -2.5613008   -9.6495556 
    3300   -9.6495559    5.6007656   -2.8002656    5.6007656   -2.8002656    5.6007656            0            0            0  -0.40328752  -0.40328752  -0.40328752  -0.40328752  -0.72868928  -0.72868928  -0.72868928   -9.6495559 
    3310   -9.6495563    5.6058221   -2.8053221    5.6058221   -2.8053221    5.6058221            0            0            0   0.51958326   0.51958326   0.51958326   0.51958326   0.20136855   0.20136855   0.20136855   -9.6495563 
    3320   -9.6495567    5.6102931   -2.8097931    5.6102931   -2.8097931    5.6102931            0            0            0 0.0074516934 0.0074516934 0.0074516934 0.0074516934  -0.30449133  -0.30449133  -0.30449133   -9.6495567 
    3330   -9.6495569    5.6136693   -2.8131693    5.6136693   -2.8131693    5.6136693            0            0            0   0.28870391   0.28870391   0.28870391   0.28870391 -0.018606094 -0.018606094 -0.018606094   -9.6495569 
    3340   -9.6495571     5.616278    -2.815778     5.616278    -2.815778     5.616278            0            0            0   0.27684036   0.27684036   0.27684036   0.27684036 -0.026928089 -0.026928089 -0.026928089   -9.6495571 
    3350   -9.6495575    5.6208806   -2.8203806    5.6208806   -2.8203806    5.6208806            0            0            0   0.27301877   0.27301877   0.27301877   0.27301877 -0.024598484 -0.024598484 -0.024598484   -9.6495575 
    3360   -9.6495576    5.6226616   -2.8221616    5.6226616   -2.8221616    5.6226616            0            0            0   0.12833891   0.12833891   0.12833891   0.12833891  -0.16692606  -0.16692606  -0.16692606   -9.6495576 
    3370   -9.6495578    5.6250212   -2.8245212    5.6250212   -2.8245212    5.6250212            0            0            0  -0.23060885  -0.23060885  -0.23060885  -0.23060885  -0.52277984  -0.52277984  -0.52277984   -9.6495578 
    3380    -9.649558    5.6277053   -2.8272053    5.6277053   -2.8272053    5.6277053            0            0            0  -0.20942267  -0.20942267  -0.20942267  -0.20942267  -0.49812647  -0.49812647  -0.49812647    -9.649558 
    3390   -9.6495585    5.6350806   -2.8345806    5.6350806   -2.8345806    5.6350806            0            0            0   0.34500839   0.34500839   0.34500839   0.34500839  0.065611076  0.065611076  0.065611076   -9.6495585 
    3400   -9.6495587    5.6371249   -2.8366249    5.6371249   -2.8366249    5.6371249            0            0            0   0.53965853   0.53965853   0.53965853   0.53965853   0.26278742   0.26278742   0.26278742   -9.6495587 
    3410   -9.6495589    5.6403704   -2.8398704    5.6403704   -2.8398704    5.6403704            0            0            0   0.23771388   0.23771388   0.23771388   0.23771388 -0.035173466 -0.035173466 -0.035173466   -9.6495589 
[...]
    4230     -9.64957    5.8957553   -3.0952553    5.8957553   -3.0952553    5.8957553            0            0            0  0.079308477  0.079308477  0.079308477  0.079308477 -0.0058194261 -0.0058194261 -0.0058194261     -9.64957 
    4240     -9.64957    5.8964655   -3.0959655    5.8964655   -3.0959655    5.8964655            0            0            0  0.079265049  0.079265049  0.079265049  0.079265049 -0.0055782328 -0.0055782328 -0.0055782328     -9.64957 
    4250   -9.6495701    5.8995016   -3.0990016    5.8995016   -3.0990016    5.8995016            0            0            0  0.079166037  0.079166037  0.079166037  0.079166037 -0.0044703442 -0.0044703442 -0.0044703442   -9.6495701 
    4260   -9.6495702    5.9013724   -3.1008724    5.9013724   -3.1008724    5.9013724            0            0            0   0.12867043   0.12867043   0.12867043   0.12867043  0.045769316  0.045769316  0.045769316   -9.6495702 
    4270   -9.6495703    5.9058967   -3.1053967    5.9058967   -3.1053967    5.9058967            0            0            0  -0.18559067  -0.18559067  -0.18559067  -0.18559067  -0.26673384  -0.26673384  -0.26673384   -9.6495703 
    4280   -9.6495703    5.9074663   -3.1069663    5.9074663   -3.1069663    5.9074663            0            0            0   0.03111098   0.03111098   0.03111098   0.03111098 -0.049433618 -0.049433618 -0.049433618   -9.6495703 
    4290   -9.6495704    5.9103859   -3.1098859    5.9103859   -3.1098859    5.9103859            0            0            0  0.094818784  0.094818784  0.094818784  0.094818784  0.015380176  0.015380176  0.015380176   -9.6495704 
    4300   -9.6495704    5.9124571   -3.1119571    5.9124571   -3.1119571    5.9124571            0            0            0  0.072156068  0.072156068  0.072156068  0.072156068 -0.0065057695 -0.0065057695 -0.0065057695   -9.6495704 
    4310   -9.6495705    5.9163975   -3.1158975    5.9163975   -3.1158975    5.9163975            0            0            0    1.0919382    1.0919382    1.0919382    1.0919382    1.0147249    1.0147249    1.0147249   -9.6495705 
    4320   -9.6495705    5.9168133   -3.1163133    5.9168133   -3.1163133    5.9168133            0            0            0  0.076184991  0.076184991  0.076184991  0.076184991 -0.000866284 -0.000866284 -0.000866284   -9.6495705 
    4330   -9.6495705    5.9183982   -3.1178982    5.9183982   -3.1178982    5.9183982            0            0            0  0.063896244  0.063896244  0.063896244  0.063896244 -0.012576449 -0.012576449 -0.012576449   -9.6495705 
    4340   -9.6495706    5.9199863   -3.1194863    5.9199863   -3.1194863    5.9199863            0            0            0  0.065108923  0.065108923  0.065108923  0.065108923 -0.010788179 -0.010788179 -0.010788179   -9.6495706 
    4350   -9.6495706    5.9201802   -3.1196802    5.9201802   -3.1196802    5.9201802            0            0            0  0.076733771  0.076733771  0.076733771  0.076733771 0.00090659947 0.00090659947 0.00090659947   -9.6495706 
    4360   -9.6495706    5.9218137   -3.1213137    5.9218137   -3.1213137    5.9218137            0            0            0  0.064877465  0.064877465  0.064877465  0.064877465 -0.010362167 -0.010362167 -0.010362167   -9.6495706 
    4370   -9.6495707    5.9238517   -3.1233517    5.9238517   -3.1233517    5.9238517            0            0            0  0.084012251  0.084012251  0.084012251  0.084012251 0.0094995185 0.0094995185 0.0094995185   -9.6495707 
    4380   -9.6495707    5.9243847   -3.1238847    5.9243847   -3.1238847    5.9243847            0            0            0   0.25623902   0.25623902   0.25623902   0.25623902    0.1819138    0.1819138    0.1819138   -9.6495707 
    4390   -9.6495707    5.9275878   -3.1270878    5.9275878   -3.1270878    5.9275878            0            0            0   0.17874185   0.17874185   0.17874185   0.17874185   0.10554452   0.10554452   0.10554452   -9.6495707 
    4400   -9.6495708    5.9293722   -3.1288722    5.9293722   -3.1288722    5.9293722            0            0            0  -0.10676432  -0.10676432  -0.10676432  -0.10676432  -0.17933791  -0.17933791  -0.17933791   -9.6495708 
    4410   -9.6495708    5.9311478   -3.1306478    5.9311478   -3.1306478    5.9311478            0            0            0  0.065139096  0.065139096  0.065139096  0.065139096 -0.0068227229 -0.0068227229 -0.0068227229   -9.6495708 
    4420   -9.6495709    5.9326373   -3.1321373    5.9326373   -3.1321373    5.9326373            0            0            0  0.064522762  0.064522762  0.064522762  0.064522762 -0.0069282226 -0.0069282226 -0.0069282226   -9.6495709 
    4430   -9.6495709    5.9361299   -3.1356299    5.9361299   -3.1356299    5.9361299            0            0            0  0.065453465  0.065453465  0.065453465  0.065453465 -0.0048126137 -0.0048126137 -0.0048126137   -9.6495709 
    4440   -9.6495709    5.9372751   -3.1367751    5.9372751   -3.1367751    5.9372751            0            0            0   0.10958407   0.10958407   0.10958407   0.10958407  0.039702224  0.039702224  0.039702224   -9.6495709 
    4450    -9.649571    5.9388794   -3.1383794    5.9388794   -3.1383794    5.9388794            0            0            0 -0.039565664 -0.039565664 -0.039565664 -0.039565664  -0.10891064  -0.10891064  -0.10891064    -9.649571 
    4460    -9.649571    5.9415387   -3.1410387    5.9415387   -3.1410387    5.9415387            0            0            0   0.09471089   0.09471089   0.09471089   0.09471089  0.026244375  0.026244375  0.026244375    -9.649571 
    4470   -9.6495711     5.942688    -3.142188     5.942688    -3.142188     5.942688            0            0            0   0.15033907   0.15033907   0.15033907   0.15033907  0.082249079  0.082249079  0.082249079   -9.6495711 
    4480   -9.6495711    5.9447588   -3.1442588    5.9447588   -3.1442588    5.9447588            0            0            0  0.061177383  0.061177383  0.061177383  0.061177383 -0.0062372977 -0.0062372977 -0.0062372977   -9.6495711 
    4490   -9.6495711    5.9464002   -3.1459002    5.9464002   -3.1459002    5.9464002            0            0            0  0.067316751  0.067316751  0.067316751  0.067316751 0.00043236501 0.00043236501 0.00043236501   -9.6495711 
    4500   -9.6495712    5.9482228   -3.1477228    5.9482228   -3.1477228    5.9482228            0            0            0   0.01690756   0.01690756   0.01690756   0.01690756 -0.049391913 -0.049391913 -0.049391913   -9.6495712 
    4510   -9.6495712      5.95001     -3.14951      5.95001     -3.14951      5.95001            0            0            0  0.072107559  0.072107559  0.072107559  0.072107559 0.0063762708 0.0063762708 0.0063762708   -9.6495712 
    4520   -9.6495712    5.9516049   -3.1511049    5.9516049   -3.1511049    5.9516049            0            0            0  0.093952356  0.093952356  0.093952356  0.093952356  0.028724605  0.028724605  0.028724605   -9.6495712 
    4530   -9.6495713    5.9525295   -3.1520295    5.9525295   -3.1520295    5.9525295            0            0            0  0.079509862  0.079509862  0.079509862  0.079509862  0.014572651  0.014572651  0.014572651   -9.6495713 
    4540   -9.6495713    5.9531691   -3.1526691    5.9531691   -3.1526691    5.9531691            0            0            0   0.15632783   0.15632783   0.15632783   0.15632783  0.091590211  0.091590211  0.091590211   -9.6495713 
    4550   -9.6495713    5.9547771   -3.1542771    5.9547771   -3.1542771    5.9547771            0            0            0   0.12767815   0.12767815   0.12767815   0.12767815  0.063441673  0.063441673  0.063441673   -9.6495713 
    4560   -9.6495713     5.955595    -3.155095     5.955595    -3.155095     5.955595            0            0            0 -0.0066595682 -0.0066595682 -0.0066595682 -0.0066595682 -0.070641522 -0.070641522 -0.070641522   -9.6495713 
    4570   -9.6495713    5.9564284   -3.1559284    5.9564284   -3.1559284    5.9564284            0            0            0  0.093769313  0.093769313  0.093769313  0.093769313  0.030043887  0.030043887  0.030043887   -9.6495713 
    4580   -9.6495713    5.9571317   -3.1566317    5.9571317   -3.1566317    5.9571317            0            0            0   0.15996036   0.15996036   0.15996036   0.15996036    0.0964508    0.0964508    0.0964508   -9.6495713 
    4590   -9.6495714    5.9587062   -3.1582062    5.9587062   -3.1582062    5.9587062            0            0            0  0.029524996  0.029524996  0.029524996  0.029524996 -0.033501395 -0.033501395 -0.033501395   -9.6495714 
    4600   -9.6495714    5.9622465   -3.1617465    5.9622465   -3.1617465    5.9622465            0            0            0  0.060192102  0.060192102  0.060192102  0.060192102 -0.0017625252 -0.0017625252 -0.0017625252   -9.6495714 
    4610   -9.6495715     5.964209    -3.163709     5.964209    -3.163709     5.964209            0            0            0  0.051324739  0.051324739  0.051324739  0.051324739 -0.010042639 -0.010042639 -0.010042639   -9.6495715 
    4620   -9.6495715     5.965893    -3.165393     5.965893    -3.165393     5.965893            0            0            0 -0.050433349 -0.050433349 -0.050433349 -0.050433349   -0.1113001   -0.1113001   -0.1113001   -9.6495715 
    4630   -9.6495715    5.9677103   -3.1672103    5.9677103   -3.1672103    5.9677103            0            0            0   0.13530539   0.13530539   0.13530539   0.13530539  0.074972553  0.074972553  0.074972553   -9.6495715 
    4640   -9.6495716    5.9693046   -3.1688046    5.9693046   -3.1688046    5.9693046            0            0            0   0.24130414   0.24130414   0.24130414   0.24130414   0.18143666   0.18143666   0.18143666   -9.6495716 
    4650   -9.6495716    5.9726099   -3.1721099    5.9726099   -3.1721099    5.9726099            0            0            0   0.50717941   0.50717941   0.50717941   0.50717941   0.44826615   0.44826615   0.44826615   -9.6495716 
    4660   -9.6495716    5.9742609   -3.1737609    5.9742609   -3.1737609    5.9742609            0            0            0  0.039304431  0.039304431  0.039304431  0.039304431 -0.019132927 -0.019132927 -0.019132927   -9.6495716 
    4670   -9.6495717    5.9753805   -3.1748805    5.9753805   -3.1748805    5.9753805            0            0            0   0.17504552   0.17504552   0.17504552   0.17504552   0.11692565   0.11692565   0.11692565   -9.6495717 
    4680   -9.6495717     5.975784    -3.175284     5.975784    -3.175284     5.975784            0            0            0  0.092110161  0.092110161  0.092110161  0.092110161  0.034105278  0.034105278  0.034105278   -9.6495717 
    4690   -9.6495717    5.9766407   -3.1761407    5.9766407   -3.1761407    5.9766407            0            0            0  0.053639099  0.053639099  0.053639099  0.053639099 -0.0041232822 -0.0041232822 -0.0041232822   -9.6495717 
    4700   -9.6495717    5.9783911   -3.1778911    5.9783911   -3.1778911    5.9783911            0            0            0  0.052953034  0.052953034  0.052953034  0.052953034 -0.0043172566 -0.0043172566 -0.0043172566   -9.6495717 
    4710   -9.6495717    5.9789535   -3.1784535    5.9789535   -3.1784535    5.9789535            0            0            0  0.059096297  0.059096297  0.059096297  0.059096297 0.0019832456 0.0019832456 0.0019832456   -9.6495717 
    4720   -9.6495717    5.9793025   -3.1788025    5.9793025   -3.1788025    5.9793025            0            0            0  0.035082359  0.035082359  0.035082359  0.035082359 -0.021933081 -0.021933081 -0.021933081   -9.6495717 
    4730   -9.6495718     5.980813    -3.180313     5.980813    -3.180313     5.980813            0            0            0   0.01620961   0.01620961   0.01620961   0.01620961 -0.040385735 -0.040385735 -0.040385735   -9.6495718 
    4740   -9.6495718    5.9853912   -3.1848912    5.9853912   -3.1848912    5.9853912            0            0            0   0.64653444   0.64653444   0.64653444   0.64653444   0.59119074   0.59119074   0.59119074   -9.6495718 
    4750   -9.6495719    5.9868931   -3.1863931    5.9868931   -3.1863931    5.9868931            0            0            0  0.052949267  0.052949267  0.052949267  0.052949267 -0.0019836716 -0.0019836716 -0.0019836716   -9.6495719 
    4760   -9.6495719    5.9910917   -3.1905917    5.9910917   -3.1905917    5.9910917            0            0            0  -0.97752648  -0.97752648  -0.97752648  -0.97752648   -1.0313297   -1.0313297   -1.0313297   -9.6495719 
    4770   -9.6495719    5.9915133   -3.1910133    5.9915133   -3.1910133    5.9915133            0            0            0  0.051550698  0.051550698  0.051550698  0.051550698 -0.0021479237 -0.0021479237 -0.0021479237   -9.6495719 
    4780    -9.649572    5.9934776   -3.1929776    5.9934776   -3.1929776    5.9934776            0            0            0  0.050913154  0.050913154  0.050913154  0.050913154 -0.0022681821 -0.0022681821 -0.0022681821    -9.649572 
    4790    -9.649572    5.9951406   -3.1946406    5.9951406   -3.1946406    5.9951406            0            0            0  0.025226247  0.025226247  0.025226247  0.025226247 -0.027520449 -0.027520449 -0.027520449    -9.649572 
    4800    -9.649572    5.9977744   -3.1972744    5.9977744   -3.1972744    5.9977744            0            0            0  0.045701286  0.045701286  0.045701286  0.045701286 -0.0063638514 -0.0063638514 -0.0063638514    -9.649572 
    4810   -9.6495721     5.999042    -3.198542     5.999042    -3.198542     5.999042            0            0            0  0.046770063  0.046770063  0.046770063  0.046770063 -0.0049697977 -0.0049697977 -0.0049697977   -9.6495721 
    4820   -9.6495721    5.9993126   -3.1988126    5.9993126   -3.1988126    5.9993126            0            0            0   0.13292431   0.13292431   0.13292431   0.13292431  0.081253097  0.081253097  0.081253097   -9.6495721 
    4830   -9.6495721    6.0056702   -3.2051702    6.0056702   -3.2051702    6.0056702            0            0            0   0.63227148   0.63227148   0.63227148   0.63227148   0.58219989   0.58219989   0.58219989   -9.6495721 
    4840   -9.6495722     6.008547    -3.208047     6.008547    -3.208047     6.008547            0            0            0  0.068323418  0.068323418  0.068323418  0.068323418  0.018966155  0.018966155  0.018966155   -9.6495722 
    4850   -9.6495722    6.0101278   -3.2096278    6.0101278   -3.2096278    6.0101278            0            0            0  0.047925325  0.047925325  0.047925325  0.047925325 -0.0010450497 -0.0010450497 -0.0010450497   -9.6495722 
    4860   -9.6495723    6.0131587   -3.2126587    6.0131587   -3.2126587    6.0131587            0            0            0  0.011409282  0.011409282  0.011409282  0.011409282  -0.03682672  -0.03682672  -0.03682672   -9.6495723 
    4870   -9.6495723    6.0148159   -3.2143159    6.0148159   -3.2143159    6.0148159            0            0            0  0.047572653  0.047572653  0.047572653  0.047572653 -0.00026625253 -0.00026625253 -0.00026625253   -9.6495723 
    4880   -9.6495723    6.0167181   -3.2162181    6.0167181   -3.2162181    6.0167181            0            0            0  0.041637318  0.041637318  0.041637318  0.041637318 -0.0057490447 -0.0057490448 -0.0057490448   -9.6495723 
    4890   -9.6495723    6.0177312   -3.2172312    6.0177312   -3.2172312    6.0177312            0            0            0 -0.044977913 -0.044977913 -0.044977913 -0.044977913 -0.092124275 -0.092124275 -0.092124275   -9.6495723 
    4900   -9.6495724    6.0198121   -3.2193121    6.0198121   -3.2193121    6.0198121            0            0            0  0.083990431  0.083990431  0.083990431  0.083990431  0.037331873  0.037331873  0.037331873   -9.6495724 
    4910   -9.6495724    6.0219625   -3.2214625    6.0219625   -3.2214625    6.0219625            0            0            0   0.12413833   0.12413833   0.12413833   0.12413833  0.077979798  0.077979798  0.077979798   -9.6495724 
    4920   -9.6495724     6.025172    -3.224672     6.025172    -3.224672     6.025172            0            0            0  0.069111344  0.069111344  0.069111344  0.069111344  0.023691078  0.023691078  0.023691078   -9.6495724 
    4930   -9.6495725    6.0286554   -3.2281554    6.0286554   -3.2281554    6.0286554            0            0            0  -0.34317361  -0.34317361  -0.34317361  -0.34317361  -0.38780223  -0.38780223  -0.38780223   -9.6495725 
    4940   -9.6495725    6.0304315   -3.2299315    6.0304315   -3.2299315    6.0304315            0            0            0  0.040851248  0.040851248  0.040851248  0.040851248  -0.00339084  -0.00339084  -0.00339084   -9.6495725 
    4950   -9.6495725    6.0325925   -3.2320925    6.0325925   -3.2320925    6.0325925            0            0            0 0.0093791064 0.0093791064 0.0093791064 0.0093791064 -0.034399149 -0.034399149 -0.034399149   -9.6495725 
    4960   -9.6495726    6.0342324   -3.2337324    6.0342324   -3.2337324    6.0342324            0            0            0   0.04687075   0.04687075   0.04687075   0.04687075 0.0034412393 0.0034412393 0.0034412393   -9.6495726 
    4970   -9.6495726     6.035827    -3.235327     6.035827    -3.235327     6.035827            0            0            0  -0.10600131  -0.10600131  -0.10600131  -0.10600131  -0.14909305  -0.14909305  -0.14909305   -9.6495726 
    4980   -9.6495726    6.0393388   -3.2388388    6.0393388   -3.2388388    6.0393388            0            0            0  0.036367196  0.036367196  0.036367196  0.036367196 -0.0059915127 -0.0059915127 -0.0059915127   -9.6495726 
    4990   -9.6495727     6.041991    -3.241491     6.041991    -3.241491     6.041991            0            0            0 -0.0061334746 -0.0061334746 -0.0061334746 -0.0061334746 -0.047945179 -0.047945179 -0.047945179   -9.6495727 
    5000   -9.6495727    6.0441267   -3.2436267    6.0441267   -3.2436267    6.0441267            0            0            0  0.047675383  0.047675383  0.047675383  0.047675383 0.0062991284 0.0062991284 0.0062991284   -9.6495727 
Loop time of 0.208189 on 1 procs for 5000 steps with 2 atoms

34.4% CPU use with 1 MPI tasks x no OpenMP threads

Minimization stats:
  Stopping criterion = max iterations
  Energy initial, next-to-last, final = 
        -8.96347459082     -9.64957269017     -9.64957269024
  Force two-norm initial, final = 0.187159 1.94474e-05
  Force max component initial, final = 0.108056 7.18854e-06
  Final line search alpha, max atom move = 1 7.18854e-06
  Iterations, force evaluations = 5000 7330

MPI task timing breakdown:
Section |  min time  |  avg time  |  max time  |%varavg| %total
---------------------------------------------------------------
Pair    | 0.12138    | 0.12138    | 0.12138    |   0.0 | 58.30
Neigh   | 0.00023174 | 0.00023174 | 0.00023174 |   0.0 |  0.11
Comm    | 0.030124   | 0.030124   | 0.030124   |   0.0 | 14.47
Output  | 0.0042784  | 0.0042784  | 0.0042784  |   0.0 |  2.06
Modify  | 0          | 0          | 0          |   0.0 |  0.00
Other   |            | 0.05218    |            |       | 25.06

Nlocal:    2 ave 2 max 2 min
Histogram: 1 0 0 0 0 0 0 0 0 0
Nghost:    52 ave 52 max 52 min
Histogram: 1 0 0 0 0 0 0 0 0 0
Neighs:    13 ave 13 max 13 min
Histogram: 1 0 0 0 0 0 0 0 0 0

Total # of neighbors = 13
Ave neighs/atom = 6.5
Neighbor list builds = 18
Dangerous builds = 0
pypospack:output_section:begin
tot_energy = -9.64957269023574
num_atoms = 2
a11 = 9.28775336191501
a22 = 9.28775336191495
a33 = 9.28775336192037
a12 = 0
a13 = 0
a23 = 0
tot_press = 0.0476753830568588
pxx = 0.0476753830567478
pyy = 0.0476753830567452
pzz = 0.0476753830570834
pxy = 0.00629912843260632
pxz = 0.00629912843269695
pyz = 0.00629912843269604
pypospack:output_section:done
pypospack:lammps_sim:done
Total wall time: 0:00:00
