LAMMPS (11 Aug 2017)
# ---- initialize simulations
clear
units metal
dimension 3
boundary p p p
atom_style atomic
atom_modify map array
# ---- create atoms
read_data /home/sullberg/repos/pypospack/examples/Ni__eam__born_exp_rose/01_preconditioning_3.5NN/rank_58/Ni_fcc_vac.lmps_min_pos/lammps.structure
  triclinic box = (0 0 0) to (10.5538 10.5538 10.5538) with tilt (0 -0 -0)
  1 by 1 by 1 MPI processor grid
  reading atoms ...
  107 atoms
# ---- define interatomic potential
include potential.mod
mass 1 58.6934

group Ni type 1
107 atoms in group Ni

pair_style eam/alloy
pair_coeff * * /home/sullberg/repos/pypospack/examples/Ni__eam__born_exp_rose/01_preconditioning_3.5NN/rank_58/Ni_fcc_vac.lmps_min_pos/Ni.eam.alloy Ni

neighbor 1.0 bin
neigh_modify every 1 delay 0 check yes
# ---- define settings
compute eng all pe/atom
compute eatoms all reduce sum c_eng

# ---- run minimization
reset_timestep 0
thermo 1
thermo_style custom step pe lx ly lz xy xz yz press pxx pyy pzz pxy pxz pyz c_eatoms
min_style cg
minimize 1e-20 1e-20 1000 100000
Neighbor list info ...
  update every 1 steps, delay 0 steps, check yes
  max neighbors/atom: 2000, page size: 100000
  master list distance cutoff = 11
  ghost atom cutoff = 11
  binsize = 5.5, bins = 2 2 2
  1 neighbor lists, perpetual/occasional/extra = 1 0 0
  (1) pair eam/alloy, perpetual
      attributes: half, newton on
      pair build: half/bin/newton/tri
      stencil: half/bin/3d/newton/tri
      bin: standard
Per MPI rank memory allocation (min/avg/max) = 4.384 | 4.384 | 4.384 Mbytes
Step PotEng Lx Ly Lz Xy Xz Yz Press Pxx Pyy Pzz Pxy Pxz Pyz c_eatoms 
       0   -477.83236      10.5538      10.5538      10.5538            0           -0           -0   -9324.6733   -9324.6733   -9324.6733   -9324.6733 -2.4664398e-05 -2.4664424e-05 -2.46644e-05   -477.83236 
       1   -477.96622      10.5538      10.5538      10.5538            0           -0           -0   -11571.768   -11571.768   -11571.768   -11571.768 -4.116482e-06 -4.1164729e-06 -4.1164859e-06   -477.96622 
       2   -477.97593      10.5538      10.5538      10.5538            0           -0           -0   -11714.205   -11714.205   -11714.205   -11714.205 -5.2906267e-07 -5.2903481e-07 -5.2905499e-07   -477.97593 
       3   -477.97742      10.5538      10.5538      10.5538            0           -0           -0   -11818.758   -11818.758   -11818.758   -11818.758 -1.1137877e-05 -1.1137888e-05 -1.113789e-05   -477.97742 
       4    -477.9776      10.5538      10.5538      10.5538            0           -0           -0    -11823.84    -11823.84    -11823.84    -11823.84 -2.1788857e-06 -2.1788923e-06 -2.178879e-06    -477.9776 
       5   -477.97763      10.5538      10.5538      10.5538            0           -0           -0   -11811.391   -11811.391   -11811.391   -11811.391 7.6828956e-07 7.6828587e-07 7.6829177e-07   -477.97763 
       6   -477.97763      10.5538      10.5538      10.5538            0           -0           -0    -11810.88    -11810.88    -11810.88    -11810.88 -1.7968813e-06 -1.7968784e-06 -1.7968754e-06   -477.97763 
       7   -477.97763      10.5538      10.5538      10.5538            0           -0           -0   -11811.982   -11811.982   -11811.982   -11811.982 -8.0578635e-07 -8.0578027e-07 -8.0578246e-07   -477.97763 
       8   -477.97763      10.5538      10.5538      10.5538            0           -0           -0   -11812.095   -11812.095   -11812.095   -11812.095 -7.7475144e-07 -7.747634e-07 -7.7475721e-07   -477.97763 
       9   -477.97763      10.5538      10.5538      10.5538            0           -0           -0   -11812.044   -11812.044   -11812.044   -11812.044 -4.201888e-07 -4.2017869e-07 -4.201884e-07   -477.97763 
      10   -477.97763      10.5538      10.5538      10.5538            0           -0           -0    -11812.02    -11812.02    -11812.02    -11812.02 -3.0482683e-07 -3.0484146e-07 -3.0485564e-07   -477.97763 
      11   -477.97763      10.5538      10.5538      10.5538            0           -0           -0   -11812.029   -11812.029   -11812.029   -11812.029 -2.1413072e-07 -2.1413097e-07 -2.1411689e-07   -477.97763 
      12   -477.97763      10.5538      10.5538      10.5538            0           -0           -0   -11812.031   -11812.031   -11812.031   -11812.031 -1.4875644e-07 -1.4875928e-07 -1.4875773e-07   -477.97763 
      13   -477.97763      10.5538      10.5538      10.5538            0           -0           -0    -11812.03    -11812.03    -11812.03    -11812.03 -1.1535881e-07 -1.1537165e-07 -1.1537265e-07   -477.97763 
      14   -477.97763      10.5538      10.5538      10.5538            0           -0           -0    -11812.03    -11812.03    -11812.03    -11812.03 -9.4559725e-08 -9.4561868e-08 -9.4549307e-08   -477.97763 
      15   -477.97763      10.5538      10.5538      10.5538            0           -0           -0    -11812.03    -11812.03    -11812.03    -11812.03 -4.7378045e-08 -4.7379694e-08 -4.7373403e-08   -477.97763 
      16   -477.97763      10.5538      10.5538      10.5538            0           -0           -0    -11812.03    -11812.03    -11812.03    -11812.03 1.6098388e-08 1.6098329e-08 1.6098131e-08   -477.97763 
      17   -477.97763      10.5538      10.5538      10.5538            0           -0           -0    -11812.03    -11812.03    -11812.03    -11812.03 1.6913819e-08 1.6899438e-08 1.6901716e-08   -477.97763 
      18   -477.97763      10.5538      10.5538      10.5538            0           -0           -0    -11812.03    -11812.03    -11812.03    -11812.03 1.2714557e-08 1.2740226e-08 1.2727263e-08   -477.97763 
      19   -477.97763      10.5538      10.5538      10.5538            0           -0           -0    -11812.03    -11812.03    -11812.03    -11812.03 3.8258364e-09 3.8105393e-09 3.7996791e-09   -477.97763 
      20   -477.97763      10.5538      10.5538      10.5538            0           -0           -0    -11812.03    -11812.03    -11812.03    -11812.03 3.1034503e-09 3.1154869e-09 3.1099093e-09   -477.97763 
      21   -477.97763      10.5538      10.5538      10.5538            0           -0           -0    -11812.03    -11812.03    -11812.03    -11812.03 2.1302642e-09 2.1442208e-09 2.1408391e-09   -477.97763 
      22   -477.97763      10.5538      10.5538      10.5538            0           -0           -0    -11812.03    -11812.03    -11812.03    -11812.03 2.0028192e-09 1.9775197e-09 1.9716477e-09   -477.97763 
      23   -477.97763      10.5538      10.5538      10.5538            0           -0           -0    -11812.03    -11812.03    -11812.03    -11812.03 1.5509992e-09 1.541843e-09 1.5553428e-09   -477.97763 
      24   -477.97763      10.5538      10.5538      10.5538            0           -0           -0    -11812.03    -11812.03    -11812.03    -11812.03 1.3672101e-09 1.369687e-09 1.3625478e-09   -477.97763 
      25   -477.97763      10.5538      10.5538      10.5538            0           -0           -0    -11812.03    -11812.03    -11812.03    -11812.03 7.1377136e-10 7.1353452e-10 7.2156612e-10   -477.97763 
      26   -477.97763      10.5538      10.5538      10.5538            0           -0           -0    -11812.03    -11812.03    -11812.03    -11812.03 4.4958143e-10 4.6710333e-10 4.5339259e-10   -477.97763 
      27   -477.97763      10.5538      10.5538      10.5538            0           -0           -0    -11812.03    -11812.03    -11812.03    -11812.03 3.4634859e-10 3.4637019e-10 3.5351644e-10   -477.97763 
      28   -477.97763      10.5538      10.5538      10.5538            0           -0           -0    -11812.03    -11812.03    -11812.03    -11812.03 2.9204708e-10 2.8994845e-10 2.6998718e-10   -477.97763 
      29   -477.97763      10.5538      10.5538      10.5538            0           -0           -0    -11812.03    -11812.03    -11812.03    -11812.03 1.792123e-10 1.822779e-10 1.7310358e-10   -477.97763 
      30   -477.97763      10.5538      10.5538      10.5538            0           -0           -0    -11812.03    -11812.03    -11812.03    -11812.03 1.4972222e-10 1.4585344e-10 1.4809541e-10   -477.97763 
      31   -477.97763      10.5538      10.5538      10.5538            0           -0           -0    -11812.03    -11812.03    -11812.03    -11812.03 1.4718769e-10 1.2223957e-10 1.0598563e-10   -477.97763 
      32   -477.97763      10.5538      10.5538      10.5538            0           -0           -0    -11812.03    -11812.03    -11812.03    -11812.03 8.9390352e-11 5.6615984e-11 5.8549016e-11   -477.97763 
      33   -477.97763      10.5538      10.5538      10.5538            0           -0           -0    -11812.03    -11812.03    -11812.03    -11812.03 5.2912661e-11 3.6342602e-11 3.4425123e-11   -477.97763 
      34   -477.97763      10.5538      10.5538      10.5538            0           -0           -0    -11812.03    -11812.03    -11812.03    -11812.03 3.8453935e-11 1.9749482e-11 1.5487552e-11   -477.97763 
      35   -477.97763      10.5538      10.5538      10.5538            0           -0           -0    -11812.03    -11812.03    -11812.03    -11812.03 1.0535388e-11 -4.4006302e-12 1.1803269e-11   -477.97763 
      36   -477.97763      10.5538      10.5538      10.5538            0           -0           -0    -11812.03    -11812.03    -11812.03    -11812.03 1.8215536e-11 8.5817025e-12 -6.1757421e-12   -477.97763 
      37   -477.97763      10.5538      10.5538      10.5538            0           -0           -0    -11812.03    -11812.03    -11812.03    -11812.03 1.3890704e-12 5.3299285e-12 -1.1845917e-12   -477.97763 
      38   -477.97763      10.5538      10.5538      10.5538            0           -0           -0    -11812.03    -11812.03    -11812.03    -11812.03 2.6814275e-11 1.9734575e-13 -1.474681e-11   -477.97763 
      39   -477.97763      10.5538      10.5538      10.5538            0           -0           -0    -11812.03    -11812.03    -11812.03    -11812.03 1.8916204e-11 -7.8523798e-12 -2.2271554e-11   -477.97763 
      40   -477.97763      10.5538      10.5538      10.5538            0           -0           -0    -11812.03    -11812.03    -11812.03    -11812.03 7.8624642e-12 -7.8440353e-12 -2.2847738e-11   -477.97763 
      41   -477.97763      10.5538      10.5538      10.5538            0           -0           -0    -11812.03    -11812.03    -11812.03    -11812.03 2.160448e-11 6.012899e-12 -1.1134801e-11   -477.97763 
      42   -477.97763      10.5538      10.5538      10.5538            0           -0           -0    -11812.03    -11812.03    -11812.03    -11812.03 2.0066711e-11 -7.7089295e-13 -1.1617604e-11   -477.97763 
      43   -477.97763      10.5538      10.5538      10.5538            0           -0           -0    -11812.03    -11812.03    -11812.03    -11812.03 1.8095958e-11 7.5581691e-12 -2.6707479e-11   -477.97763 
      44   -477.97763      10.5538      10.5538      10.5538            0           -0           -0    -11812.03    -11812.03    -11812.03    -11812.03 9.1864788e-12 -5.8565301e-12 -1.1771237e-11   -477.97763 
      45   -477.97763      10.5538      10.5538      10.5538            0           -0           -0    -11812.03    -11812.03    -11812.03    -11812.03 8.0052218e-12 7.0722834e-12 -7.7678908e-12   -477.97763 
Loop time of 0.271292 on 1 procs for 45 steps with 107 atoms

63.2% CPU use with 1 MPI tasks x no OpenMP threads

Minimization stats:
  Stopping criterion = energy tolerance
  Energy initial, next-to-last, final = 
        -477.832355134     -477.977629801     -477.977629801
  Force two-norm initial, final = 0.816976 1.95902e-14
  Force max component initial, final = 0.152986 3.79557e-15
  Final line search alpha, max atom move = 1 3.79557e-15
  Iterations, force evaluations = 45 90

MPI task timing breakdown:
Section |  min time  |  avg time  |  max time  |%varavg| %total
---------------------------------------------------------------
Pair    | 0.26769    | 0.26769    | 0.26769    |   0.0 | 98.67
Neigh   | 0          | 0          | 0          |   0.0 |  0.00
Comm    | 0.0015223  | 0.0015223  | 0.0015223  |   0.0 |  0.56
Output  | 0.0012491  | 0.0012491  | 0.0012491  |   0.0 |  0.46
Modify  | 0          | 0          | 0          |   0.0 |  0.00
Other   |            | 0.0008309  |            |       |  0.31

Nlocal:    107 ave 107 max 107 min
Histogram: 1 0 0 0 0 0 0 0 0 0
Nghost:    3259 ave 3259 max 3259 min
Histogram: 1 0 0 0 0 0 0 0 0 0
Neighs:    28093 ave 28093 max 28093 min
Histogram: 1 0 0 0 0 0 0 0 0 0

Total # of neighbors = 28093
Ave neighs/atom = 262.551
Neighbor list builds = 0
Dangerous builds = 0

# ---- define output variables ----
variable natoms equal "count(all)"
variable tot_energy equal "c_eatoms"
variable a11 equal "xhi-xlo"
variable a22 equal "yhi-ylo"
variable a33 equal "zhi-zlo"
variable tilt_xy equal "xy"
variable tilt_xz equal "xz"
variable tilt_yz equal "yz"
variable tot_press equal "press"
variable press_xx equal "pxx"
variable press_yy equal "pyy"
variable press_zz equal "pzz"
variable press_xy equal "pxy"
variable press_xz equal "pxz"
variable press_yz equal "pyz"

# ---- output ----
print "pypospack:output_section:begin"
pypospack:output_section:begin
print "tot_energy = ${tot_energy}"
tot_energy = -477.97762980066
print "num_atoms = ${natoms}"
num_atoms = 107
print "a11 = ${a11}"
a11 = 10.5538
print "a22 = ${a22}"
a22 = 10.5538
print "a33 = ${a33}"
a33 = 10.5538
print "a12 = ${tilt_xy}"
a12 = 0
print "a13 = ${tilt_xz}"
a13 = -0
print "a23 = ${tilt_yz}"
a23 = -0
print "tot_press = ${tot_press}"
tot_press = -11812.0297559415
print "pxx = ${press_xx}"
pxx = -11812.0297559415
print "pyy = ${press_yy}"
pyy = -11812.0297559415
print "pzz = ${press_zz}"
pzz = -11812.0297559415
print "pxy = ${press_xy}"
pxy = 8.00522177116822e-12
print "pxz = ${press_xz}"
pxz = 7.07228341175141e-12
print "pyz = ${press_yz}"
pyz = -7.76789081965176e-12
print "pypospack:output_section:done"
pypospack:output_section:done
print "pypospack:lammps_sim:done"
pypospack:lammps_sim:done
Total wall time: 0:00:00
