   2   2   0   0
  0.9563318E+01  0.3001819E-09  0.3001820E-09  0.3001819E-09  0.5000000E-15
  1.000000000000000E-004
  CAR 
 automatically generated by pyflamestk   
     44.07421273    -16.31850040  301      3.63625857      1.00000000
    -16.319  0.0000E+00  0.0000E+00
    -16.117  0.0000E+00  0.0000E+00
    -15.916  0.0000E+00  0.0000E+00
    -15.715  0.0000E+00  0.0000E+00
    -15.513  0.0000E+00  0.0000E+00
    -15.312  0.0000E+00  0.0000E+00
    -15.111  0.0000E+00  0.0000E+00
    -14.909  0.0000E+00  0.0000E+00
    -14.708  0.0000E+00  0.0000E+00
    -14.507  0.0000E+00  0.0000E+00
    -14.305  0.0000E+00  0.0000E+00
    -14.104  0.0000E+00  0.0000E+00
    -13.903  0.0000E+00  0.0000E+00
    -13.701  0.4514E-04  0.9087E-05
    -13.500  0.3045E+00  0.6130E-01
    -13.299  0.1014E-01  0.6334E-01
    -13.098  0.9263E+00  0.2498E+00
    -12.896  0.6494E+00  0.3805E+00
    -12.695  0.7776E+00  0.5371E+00
    -12.494  0.2437E+01  0.1028E+01
    -12.292  0.2826E+01  0.1596E+01
    -12.091  0.2005E+01  0.2000E+01
    -11.890  0.1574E-05  0.2000E+01
    -11.688  0.0000E+00  0.2000E+01
    -11.487  0.0000E+00  0.2000E+01
    -11.286  0.0000E+00  0.2000E+01
    -11.084  0.0000E+00  0.2000E+01
    -10.883  0.0000E+00  0.2000E+01
    -10.682  0.0000E+00  0.2000E+01
    -10.481  0.0000E+00  0.2000E+01
    -10.279  0.0000E+00  0.2000E+01
    -10.078  0.0000E+00  0.2000E+01
     -9.877  0.0000E+00  0.2000E+01
     -9.675  0.0000E+00  0.2000E+01
     -9.474  0.0000E+00  0.2000E+01
     -9.273  0.0000E+00  0.2000E+01
     -9.071  0.0000E+00  0.2000E+01
     -8.870  0.0000E+00  0.2000E+01
     -8.669  0.0000E+00  0.2000E+01
     -8.467  0.0000E+00  0.2000E+01
     -8.266  0.0000E+00  0.2000E+01
     -8.065  0.0000E+00  0.2000E+01
     -7.864  0.0000E+00  0.2000E+01
     -7.662  0.0000E+00  0.2000E+01
     -7.461  0.0000E+00  0.2000E+01
     -7.260  0.0000E+00  0.2000E+01
     -7.058  0.0000E+00  0.2000E+01
     -6.857  0.0000E+00  0.2000E+01
     -6.656  0.0000E+00  0.2000E+01
     -6.454  0.0000E+00  0.2000E+01
     -6.253  0.0000E+00  0.2000E+01
     -6.052  0.0000E+00  0.2000E+01
     -5.850  0.0000E+00  0.2000E+01
     -5.649  0.0000E+00  0.2000E+01
     -5.448  0.0000E+00  0.2000E+01
     -5.247  0.0000E+00  0.2000E+01
     -5.045  0.0000E+00  0.2000E+01
     -4.844  0.0000E+00  0.2000E+01
     -4.643  0.0000E+00  0.2000E+01
     -4.441  0.0000E+00  0.2000E+01
     -4.240  0.0000E+00  0.2000E+01
     -4.039  0.0000E+00  0.2000E+01
     -3.837  0.0000E+00  0.2000E+01
     -3.636  0.0000E+00  0.2000E+01
     -3.435  0.0000E+00  0.2000E+01
     -3.233  0.0000E+00  0.2000E+01
     -3.032  0.0000E+00  0.2000E+01
     -2.831  0.0000E+00  0.2000E+01
     -2.629  0.0000E+00  0.2000E+01
     -2.428  0.0000E+00  0.2000E+01
     -2.227  0.0000E+00  0.2000E+01
     -2.026  0.0000E+00  0.2000E+01
     -1.824  0.0000E+00  0.2000E+01
     -1.623  0.0000E+00  0.2000E+01
     -1.422  0.0000E+00  0.2000E+01
     -1.220  0.0000E+00  0.2000E+01
     -1.019  0.1361E-06  0.2000E+01
     -0.818  0.6651E+00  0.2134E+01
     -0.616  0.2917E+00  0.2193E+01
     -0.415  0.3953E+00  0.2272E+01
     -0.214  0.2507E+01  0.2777E+01
     -0.012  0.1958E+01  0.3171E+01
      0.189  0.1934E+01  0.3560E+01
      0.390  0.9385E+00  0.3749E+01
      0.591  0.3727E-02  0.3750E+01
      0.793  0.1623E-07  0.3750E+01
      0.994  0.9760E+00  0.3946E+01
      1.195  0.2385E+01  0.4427E+01
      1.397  0.3646E+00  0.4500E+01
      1.598  0.1508E-03  0.4500E+01
      1.799  0.2698E+01  0.5043E+01
      2.001  0.1292E+00  0.5069E+01
      2.202  0.2470E+01  0.5566E+01
      2.403  0.2241E+01  0.6018E+01
      2.605  0.4470E+01  0.6917E+01
      2.806  0.1360E+01  0.7191E+01
      3.007  0.2748E+01  0.7744E+01
      3.208  0.6500E+00  0.7875E+01
      3.410  0.6178E+00  0.8000E+01
      3.611  0.2406E-02  0.8000E+01
      3.812  0.0000E+00  0.8000E+01
      4.014  0.0000E+00  0.8000E+01
      4.215  0.0000E+00  0.8000E+01
      4.416  0.0000E+00  0.8000E+01
      4.618  0.0000E+00  0.8000E+01
      4.819  0.0000E+00  0.8000E+01
      5.020  0.0000E+00  0.8000E+01
      5.222  0.0000E+00  0.8000E+01
      5.423  0.0000E+00  0.8000E+01
      5.624  0.0000E+00  0.8000E+01
      5.825  0.0000E+00  0.8000E+01
      6.027  0.0000E+00  0.8000E+01
      6.228  0.0000E+00  0.8000E+01
      6.429  0.0000E+00  0.8000E+01
      6.631  0.0000E+00  0.8000E+01
      6.832  0.0000E+00  0.8000E+01
      7.033  0.0000E+00  0.8000E+01
      7.235  0.0000E+00  0.8000E+01
      7.436  0.0000E+00  0.8000E+01
      7.637  0.0000E+00  0.8000E+01
      7.839  0.0000E+00  0.8000E+01
      8.040  0.0000E+00  0.8000E+01
      8.241  0.0000E+00  0.8000E+01
      8.443  0.0000E+00  0.8000E+01
      8.644  0.1209E-07  0.8000E+01
      8.845  0.1944E+00  0.8039E+01
      9.046  0.1160E+00  0.8062E+01
      9.248  0.0000E+00  0.8062E+01
      9.449  0.0000E+00  0.8062E+01
      9.650  0.0000E+00  0.8062E+01
      9.852  0.0000E+00  0.8062E+01
     10.053  0.0000E+00  0.8062E+01
     10.254  0.8961E-06  0.8063E+01
     10.456  0.7679E+00  0.8217E+01
     10.657  0.1635E+00  0.8250E+01
     10.858  0.1323E-07  0.8250E+01
     11.060  0.1963E+00  0.8290E+01
     11.261  0.6893E+00  0.8428E+01
     11.462  0.3562E+00  0.8500E+01
     11.663  0.3963E-06  0.8500E+01
     11.865  0.7261E+00  0.8646E+01
     12.066  0.2054E+00  0.8687E+01
     12.267  0.7007E-02  0.8689E+01
     12.469  0.9239E+00  0.8875E+01
     12.670  0.2264E+00  0.8920E+01
     12.871  0.1658E+01  0.9254E+01
     13.073  0.9105E+00  0.9438E+01
     13.274  0.9227E+00  0.9623E+01
     13.475  0.8464E-02  0.9625E+01
     13.677  0.8663E+00  0.9799E+01
     13.878  0.1208E+01  0.1004E+02
     14.079  0.1643E+01  0.1037E+02
     14.280  0.8392E-02  0.1038E+02
     14.482  0.0000E+00  0.1038E+02
     14.683  0.5563E-09  0.1038E+02
     14.884  0.1014E+01  0.1058E+02
     15.086  0.2711E+01  0.1112E+02
     15.287  0.4537E-01  0.1113E+02
     15.488  0.1840E+01  0.1150E+02
     15.690  0.2899E+01  0.1209E+02
     15.891  0.1115E+01  0.1231E+02
     16.092  0.5082E-01  0.1232E+02
     16.294  0.1573E+01  0.1264E+02
     16.495  0.2390E+00  0.1269E+02
     16.696  0.0000E+00  0.1269E+02
     16.897  0.2576E-06  0.1269E+02
     17.099  0.1324E+01  0.1295E+02
     17.300  0.9346E+00  0.1314E+02
     17.501  0.8445E+00  0.1331E+02
     17.703  0.1901E-02  0.1331E+02
     17.904  0.1257E-04  0.1331E+02
     18.105  0.8687E+00  0.1349E+02
     18.307  0.6265E-01  0.1350E+02
     18.508  0.2461E-12  0.1350E+02
     18.709  0.5939E-01  0.1351E+02
     18.911  0.8720E+00  0.1369E+02
     19.112  0.1419E-04  0.1369E+02
     19.313  0.3145E-03  0.1369E+02
     19.515  0.7212E+00  0.1383E+02
     19.716  0.2429E+01  0.1432E+02
     19.917  0.1738E+01  0.1467E+02
     20.118  0.9999E+00  0.1487E+02
     20.320  0.1686E+01  0.1521E+02
     20.521  0.1144E+01  0.1544E+02
     20.722  0.9064E+00  0.1562E+02
     20.924  0.3285E+00  0.1569E+02
     21.125  0.6088E+00  0.1581E+02
     21.326  0.9508E+00  0.1601E+02
     21.528  0.9065E+00  0.1619E+02
     21.729  0.1830E+01  0.1656E+02
     21.930  0.3247E-01  0.1656E+02
     22.132  0.3196E-03  0.1656E+02
     22.333  0.9211E+00  0.1675E+02
     22.534  0.1007E-01  0.1675E+02
     22.735  0.9033E+00  0.1693E+02
     22.937  0.1883E+01  0.1731E+02
     23.138  0.5549E+00  0.1742E+02
     23.339  0.1316E+01  0.1769E+02
     23.541  0.2738E-04  0.1769E+02
     23.742  0.5976E+00  0.1781E+02
     23.943  0.9468E+00  0.1800E+02
     24.145  0.8218E-02  0.1800E+02
     24.346  0.3088E+00  0.1806E+02
     24.547  0.9598E+00  0.1826E+02
     24.749  0.5939E+00  0.1837E+02
     24.950  0.9225E-02  0.1838E+02
     25.151  0.1228E+01  0.1862E+02
     25.352  0.4266E-02  0.1863E+02
     25.554  0.1565E+01  0.1894E+02
     25.755  0.1188E+01  0.1918E+02
     25.956  0.4135E-01  0.1919E+02
     26.158  0.9399E+00  0.1938E+02
     26.359  0.9229E+00  0.1956E+02
     26.560  0.2634E+00  0.1962E+02
     26.762  0.2531E+01  0.2012E+02
     26.963  0.3259E-02  0.2013E+02
     27.164  0.9423E+00  0.2032E+02
     27.366  0.9188E+00  0.2050E+02
     27.567  0.3087E+00  0.2056E+02
     27.768  0.2533E-03  0.2056E+02
     27.969  0.0000E+00  0.2056E+02
     28.171  0.0000E+00  0.2056E+02
     28.372  0.0000E+00  0.2056E+02
     28.573  0.0000E+00  0.2056E+02
     28.775  0.4817E-03  0.2056E+02
     28.976  0.6436E+00  0.2069E+02
     29.177  0.2703E+01  0.2124E+02
     29.379  0.9979E+00  0.2144E+02
     29.580  0.6766E+00  0.2157E+02
     29.781  0.2562E+00  0.2162E+02
     29.983  0.4779E-06  0.2163E+02
     30.184  0.1882E+01  0.2200E+02
     30.385  0.1774E+01  0.2236E+02
     30.587  0.1204E+01  0.2260E+02
     30.788  0.7286E+00  0.2275E+02
     30.989  0.4185E-06  0.2275E+02
     31.190  0.4445E+00  0.2284E+02
     31.392  0.1418E+01  0.2312E+02
     31.593  0.8715E+00  0.2330E+02
     31.794  0.1392E+01  0.2358E+02
     31.996  0.2394E+01  0.2406E+02
     32.197  0.1299E+01  0.2432E+02
     32.398  0.1273E+01  0.2458E+02
     32.600  0.4205E+01  0.2543E+02
     32.801  0.1748E+00  0.2546E+02
     33.002  0.2682E+01  0.2600E+02
     33.204  0.9217E+00  0.2619E+02
     33.405  0.7891E+00  0.2635E+02
     33.606  0.1695E+01  0.2669E+02
     33.807  0.4334E-06  0.2669E+02
     34.009  0.0000E+00  0.2669E+02
     34.210  0.0000E+00  0.2669E+02
     34.411  0.0000E+00  0.2669E+02
     34.613  0.0000E+00  0.2669E+02
     34.814  0.2784E-08  0.2669E+02
     35.015  0.4492E+00  0.2678E+02
     35.217  0.2345E+01  0.2725E+02
     35.418  0.3724E-03  0.2725E+02
     35.619  0.8250E+00  0.2742E+02
     35.821  0.2764E+01  0.2797E+02
     36.022  0.7136E+00  0.2812E+02
     36.223  0.3545E+00  0.2819E+02
     36.424  0.1215E-02  0.2819E+02
     36.626  0.1936E+01  0.2858E+02
     36.827  0.8567E+00  0.2875E+02
     37.028  0.2184E+00  0.2879E+02
     37.230  0.4025E+00  0.2888E+02
     37.431  0.7990E+00  0.2904E+02
     37.632  0.1069E+01  0.2925E+02
     37.834  0.9254E+00  0.2944E+02
     38.035  0.8068E+00  0.2960E+02
     38.236  0.1057E+01  0.2981E+02
     38.438  0.8604E+00  0.2999E+02
     38.639  0.7101E-01  0.3000E+02
     38.840  0.1542E-10  0.3000E+02
     39.041  0.2125E+00  0.3004E+02
     39.243  0.3789E+01  0.3081E+02
     39.444  0.3412E-01  0.3081E+02
     39.645  0.0000E+00  0.3081E+02
     39.847  0.0000E+00  0.3081E+02
     40.048  0.2068E-15  0.3081E+02
     40.249  0.6994E-02  0.3081E+02
     40.451  0.9239E+00  0.3100E+02
     40.652  0.5153E-03  0.3100E+02
     40.853  0.2093E-08  0.3100E+02
     41.055  0.1570E+00  0.3103E+02
     41.256  0.1554E+01  0.3134E+02
     41.457  0.3256E+01  0.3200E+02
     41.659  0.3091E-03  0.3200E+02
     41.860  0.0000E+00  0.3200E+02
     42.061  0.0000E+00  0.3200E+02
     42.262  0.0000E+00  0.3200E+02
     42.464  0.0000E+00  0.3200E+02
     42.665  0.0000E+00  0.3200E+02
     42.866  0.0000E+00  0.3200E+02
     43.068  0.0000E+00  0.3200E+02
     43.269  0.0000E+00  0.3200E+02
     43.470  0.0000E+00  0.3200E+02
     43.672  0.0000E+00  0.3200E+02
     43.873  0.0000E+00  0.3200E+02
     44.074  0.0000E+00  0.3200E+02
