 running on   16 total cores
 distrk:  each k-point on   16 cores,    1 groups
 distr:  one band on    1 cores,   16 groups
 using from now: INCAR     
 vasp.5.4.1 24Jun15 (build Jun 05 2017 10:38:15) complex                        
  
 POSCAR found type information on POSCAR  O  Mg
 POSCAR found :  2 types and       2 ions
 scaLAPACK will be used

 ----------------------------------------------------------------------------- 
|                                                                             |
|           W    W    AA    RRRRR   N    N  II  N    N   GGGG   !!!           |
|           W    W   A  A   R    R  NN   N  II  NN   N  G    G  !!!           |
|           W    W  A    A  R    R  N N  N  II  N N  N  G       !!!           |
|           W WW W  AAAAAA  RRRRR   N  N N  II  N  N N  G  GGG   !            |
|           WW  WW  A    A  R   R   N   NN  II  N   NN  G    G                |
|           W    W  A    A  R    R  N    N  II  N    N   GGGG   !!!           |
|                                                                             |
|      For optimal performance we recommend to set                            |
|        NCORE= 4 - approx SQRT( number of cores)                             |
|      NCORE specifies how many cores store one orbital (NPAR=cpu/NCORE).     |
|      This setting can  greatly improve the performance of VASP for DFT.     |
|      The default, NPAR=number of cores might be grossly inefficient         |
|      on modern multi-core architectures or massively parallel machines.     |
|      Do your own testing !!!!                                               |
|      Unfortunately you need to use the default for GW and RPA calculations. |
|      (for HF NCORE is supported but not extensively tested yet)             |
|                                                                             |
 ----------------------------------------------------------------------------- 

 LDA part: xc-table for Pade appr. of Perdew
 POSCAR, INCAR and KPOINTS ok, starting setup
 FFT: planning ...
 WAVECAR not read
 initial charge from wavefunction
 entering main loop
       N       E                     dE             d eps       ncg     rms          rms(c)
DAV:   1    -0.253117053856E+03   -0.25312E+03   -0.10466E+04   368   0.726E+02
DAV:   2    -0.307251686032E+03   -0.54135E+02   -0.54135E+02   464   0.162E+02
DAV:   3    -0.307511108134E+03   -0.25942E+00   -0.25942E+00   368   0.129E+01
DAV:   4    -0.307512019212E+03   -0.91108E-03   -0.91108E-03   528   0.656E-01
DAV:   5    -0.307512019609E+03   -0.39677E-06   -0.39678E-06   416   0.887E-03    0.946E+01
DAV:   6    -0.680047408855E+02    0.23951E+03   -0.27799E+02   320   0.107E+02    0.407E+01
DAV:   7    -0.228282711492E+02    0.45176E+02   -0.38389E+02   480   0.742E+01    0.261E+01
DAV:   8    -0.208522679477E+02    0.19760E+01   -0.17447E+02   336   0.453E+01    0.166E+01
DAV:   9    -0.119713589907E+02    0.88809E+01   -0.29997E+01   320   0.176E+01    0.248E+00
DAV:  10    -0.119830906507E+02   -0.11732E-01   -0.21934E+00   416   0.605E+00    0.193E+00
DAV:  11    -0.119226340888E+02    0.60457E-01   -0.67823E-01   368   0.296E+00    0.374E-01
DAV:  12    -0.119195148237E+02    0.31193E-02   -0.26239E-02   384   0.675E-01    0.259E-02
DAV:  13    -0.119195695691E+02   -0.54745E-04   -0.88895E-04   432   0.157E-01    0.503E-02
DAV:  14    -0.119195373591E+02    0.32210E-04   -0.35103E-04   416   0.781E-02    0.130E-02
DAV:  15    -0.119195359052E+02    0.14539E-05   -0.24493E-05   336   0.215E-02    0.311E-03
DAV:  16    -0.119195358629E+02    0.42352E-07   -0.62054E-07   160   0.380E-03
   1 F= -.11919536E+02 E0= -.11919536E+02  d E =-.244979E-20
