# ['Ni']

28 atoms
1 atom types

    0.0000     2.2961 xlo xhi
    0.0000     3.9770 ylo yhi
    0.0000    26.2466 zlo zhi

    0.0000     0.0000     0.0000 xy xz yz

Atoms

1 1     0.0000     0.0000     0.0000
2 1     1.1481     1.9885     0.0000
3 1     1.1481     0.6628     1.8748
4 1     0.0000     2.6513     1.8748
5 1     0.0000     1.3257     3.7495
6 1     1.1481     3.3141     3.7495
7 1     0.0000     0.0000     5.6243
8 1     1.1481     1.9885     5.6243
9 1     1.1481     0.6628     7.4990
10 1     0.0000     2.6513     7.4990
11 1     0.0000     1.3257     9.3738
12 1     1.1481     3.3141     9.3738
13 1     0.0000     0.0000    11.2485
14 1     1.1481     1.9885    11.2485
15 1     0.0000     1.3257    13.1233
16 1     1.1481     3.3141    13.1233
17 1     0.0000     0.0000    14.9981
18 1     1.1481     1.9885    14.9981
19 1     1.1481     0.6628    16.8728
20 1     0.0000     2.6513    16.8728
21 1     0.0000     1.3257    18.7476
22 1     1.1481     3.3141    18.7476
23 1     0.0000     0.0000    20.6223
24 1     1.1481     1.9885    20.6223
25 1     1.1481     0.6628    22.4971
26 1     0.0000     2.6513    22.4971
27 1     0.0000     1.3257    24.3718
28 1     1.1481     3.3141    24.3718
