LAMMPS (11 Aug 2017)
Reading data file ...
  triclinic box = (0 0 0) to (2.8005 2.8005 2.8005) with tilt (0 0 0)
  1 by 1 by 1 MPI processor grid
  reading atoms ...
  2 atoms
2 atoms in group Ni
Neighbor list info ...
  update every 1 steps, delay 0 steps, check yes
  max neighbors/atom: 2000, page size: 100000
  master list distance cutoff = 5.64464
  ghost atom cutoff = 5.64464
  binsize = 2.82232, bins = 1 1 1
  1 neighbor lists, perpetual/occasional/extra = 1 0 0
  (1) pair eam/alloy, perpetual
      attributes: half, newton on
      pair build: half/bin/newton/tri
      stencil: half/bin/3d/newton/tri
      bin: standard
Setting up cg style minimization ...
  Unit style    : metal
  Current step  : 0
WARNING: Energy due to 3 extra global DOFs will be included in minimizer energies
Per MPI rank memory allocation (min/avg/max) = 4.24 | 4.24 | 4.24 Mbytes
Step PotEng Xhi Xlo Yhi Ylo Zhi Xy Xz Yz Press Pxx Pyy Pzz Pxy Pxz Pyz c_eatoms 
       0    -16.04797       2.8005            0       2.8005            0       2.8005            0            0            0   -674255.59   -674255.59   -674255.59   -674255.59  0.036752707  0.036752707  0.036752707    -16.04797 
      10   -16.324421    2.7864975    0.0140025    2.7864975    0.0140025    2.7864975            0            0            0    -683371.2    -683371.2    -683371.2    -683371.2 0.0018813876 0.0018813876 0.0018813877   -16.324421 
      20    -16.59846     2.772495     0.028005     2.772495     0.028005     2.772495            0            0            0   -689688.15   -689688.15   -689688.15   -689688.15 0.0020986819 0.0020986818 0.0020986818    -16.59846 
      30   -16.868785    2.7584925    0.0420075    2.7584925    0.0420075    2.7584925            0            0            0    -692591.8    -692591.8    -692591.8    -692591.8 0.0023231485 0.0023231486 0.0023231485   -16.868785 
      40   -17.133962      2.74449      0.05601      2.74449      0.05601      2.74449            0            0            0   -691491.33   -691491.33   -691491.33   -691491.33 0.0025585085 0.0025585086 0.0025585086   -17.133962 
      50   -17.392704    2.7304875    0.0700125    2.7304875    0.0700125    2.7304875            0            0            0   -687907.55   -687907.55   -687907.55   -687907.55 0.0028037153 0.0028037153 0.0028037153   -17.392704 
      60   -17.644043     2.716485     0.084015     2.716485     0.084015     2.716485            0            0            0   -679794.45   -679794.45   -679794.45   -679794.45 0.0030610655 0.0030610655 0.0030610655   -17.644043 
      70   -17.886091    2.7024825    0.0980175    2.7024825    0.0980175    2.7024825            0            0            0   -665481.43   -665481.43   -665481.43   -665481.43 0.0033148703 0.0033148702 0.0033148703   -17.886091 
      80   -18.116722      2.68848      0.11202      2.68848      0.11202      2.68848            0            0            0   -643966.21   -643966.21   -643966.21   -643966.21 0.0035656617 0.0035656616 0.0035656616   -18.116722 
      90   -18.333588    2.6744775    0.1260225    2.6744775    0.1260225    2.6744775            0            0            0   -614102.11   -614102.11   -614102.11   -614102.11 0.0038079635 0.0038079634 0.0038079635   -18.333588 
     100   -18.534099     2.660475     0.140025     2.660475     0.140025     2.660475            0            0            0   -574577.38   -574577.38   -574577.38   -574577.38 0.0040333092 0.0040333092  0.004033309   -18.534099 
     110   -18.715396    2.6464725    0.1540275    2.6464725    0.1540275    2.6464725            0            0            0   -523891.53   -523891.53   -523891.53   -523891.53 0.0042125458 0.0042125458 0.0042125461   -18.715396 
     120    -18.87432      2.63247      0.16803      2.63247      0.16803      2.63247            0            0            0   -460328.18   -460328.18   -460328.18   -460328.18  0.004326954 0.0043269545  0.004326954    -18.87432 
     130   -19.007387    2.6184675    0.1820325    2.6184675    0.1820325    2.6184675            0            0            0   -381923.92   -381923.92   -381923.92   -381923.92 0.0043390344 0.0043390348 0.0043390345   -19.007387 
     140   -19.110746     2.604465     0.196035     2.604465     0.196035     2.604465            0            0            0   -286432.53   -286432.53   -286432.53   -286432.53 0.0041736875 0.0041736874 0.0041736879   -19.110746 
     150   -19.180146    2.5904625    0.2100375    2.5904625    0.2100375    2.5904625            0            0            0   -171283.83   -171283.83   -171283.83   -171283.83 0.0036557155  0.003655715  0.003655715   -19.180146 
     160   -19.212053      2.57646      0.22404      2.57646      0.22404      2.57646            0            0            0    -56034.63    -56034.63    -56034.63    -56034.63 0.0022235647 0.0022235655 0.0022235649   -19.212053 
     170   -19.217121    2.5678654   0.23263463    2.5678654   0.23263463    2.5678654            0            0            0 -0.0036489548 -0.003648955 -0.0036489547 -0.0036489549 5.5347812e-10  1.43171e-10 1.1174322e-10   -19.217121 
     174   -19.217121    2.5678654   0.23263463    2.5678654   0.23263463    2.5678654            0            0            0 6.1924366e-10 6.4776147e-10 6.9315715e-10 5.1681238e-10 1.571389e-10 -8.3807413e-11 -9.428334e-11   -19.217121 
Loop time of 0.00273609 on 1 procs for 174 steps with 2 atoms

100.0% CPU use with 1 MPI tasks x no OpenMP threads

Minimization stats:
  Stopping criterion = energy tolerance
  Energy initial, next-to-last, final = 
        -16.0479697777     -19.2171206825     -19.2171206825
  Force two-norm initial, final = 16.0096 1.70794e-14
  Force max component initial, final = 9.24317 7.10543e-15
  Final line search alpha, max atom move = 1 7.10543e-15
  Iterations, force evaluations = 174 182

MPI task timing breakdown:
Section |  min time  |  avg time  |  max time  |%varavg| %total
---------------------------------------------------------------
Pair    | 0.001225   | 0.001225   | 0.001225   |   0.0 | 44.77
Neigh   | 1.4067e-05 | 1.4067e-05 | 1.4067e-05 |   0.0 |  0.51
Comm    | 0.00032473 | 0.00032473 | 0.00032473 |   0.0 | 11.87
Output  | 0.00017977 | 0.00017977 | 0.00017977 |   0.0 |  6.57
Modify  | 0          | 0          | 0          |   0.0 |  0.00
Other   |            | 0.0009925  |            |       | 36.28

Nlocal:    2 ave 2 max 2 min
Histogram: 1 0 0 0 0 0 0 0 0 0
Nghost:    339 ave 339 max 339 min
Histogram: 1 0 0 0 0 0 0 0 0 0
Neighs:    112 ave 112 max 112 min
Histogram: 1 0 0 0 0 0 0 0 0 0

Total # of neighbors = 112
Ave neighs/atom = 56
Neighbor list builds = 1
Dangerous builds = 0
pypospack:output_section:begin
tot_energy = -19.2171206825253
num_atoms = 2
a11 = 2.33523074831216
a22 = 2.33523074831216
a33 = 2.33523074831216
a12 = 0
a13 = 0
a23 = 0
tot_press = 6.19243664735157e-10
pxx = 6.47761465084802e-10
pyy = 6.93157147274033e-10
pzz = 5.16812381846634e-10
pxy = 1.57138899885801e-10
pxz = -8.38074132724272e-11
pyz = -9.42833399314806e-11
pypospack:output_section:done
pypospack:lammps_sim:done
Total wall time: 0:00:00
