LAMMPS (11 Aug 2017)
Reading data file ...
  triclinic box = (0 0 0) to (3.52 3.52 3.52) with tilt (0 0 0)
  1 by 1 by 1 MPI processor grid
  reading atoms ...
  4 atoms
4 atoms in group Ni
Neighbor list info ...
  update every 1 steps, delay 0 steps, check yes
  max neighbors/atom: 2000, page size: 100000
  master list distance cutoff = 4.916
  ghost atom cutoff = 4.916
  binsize = 2.458, bins = 2 2 2
  1 neighbor lists, perpetual/occasional/extra = 1 0 0
  (1) pair eam/alloy, perpetual
      attributes: half, newton on
      pair build: half/bin/newton/tri
      stencil: half/bin/3d/newton/tri
      bin: standard
Setting up cg style minimization ...
  Unit style    : metal
  Current step  : 0
WARNING: Energy due to 3 extra global DOFs will be included in minimizer energies
Per MPI rank memory allocation (min/avg/max) = 4.085 | 4.085 | 4.085 Mbytes
Step Temp PotEng Press Pxx Pyy Pzz Pxy Pxz Pyz Lx Ly Lz Volume 
       0            0    512.12431     44755778     44755778     44755778     44755778 1.0440771e-09 -2.0881542e-09 -2.0881542e-09         3.52         3.52         3.52    43.614208 
       1            0    511.75893     44716928     44716928     44716928     44716928 2.0875278e-09 4.1750557e-09 2.0875278e-09     3.520352     3.520352     3.520352    43.627294 
       2            0     511.3938     44678112     44678112     44678112     44678112 5.2172544e-10 1.0434509e-09 1.0434509e-09     3.520704     3.520704     3.520704    43.640382 
       3            0    511.02891     44639329     44639329     44639329     44639329            0 -3.6509829e-09 -3.1294139e-09     3.521056     3.521056     3.521056    43.653473 
       4            0    510.66426     44600580     44600580     44600580     44600580 -5.2141259e-10            0 2.607063e-09     3.521408     3.521408     3.521408    43.666566 
       5            0    510.29986     44561865     44561865     44561865     44561865 -1.5637688e-09 3.1275376e-09 3.1275376e-09      3.52176      3.52176      3.52176    43.679662 
       6            0     509.9357     44523183     44523183     44523183     44523183   -5.211e-10  -4.6899e-09  -4.6899e-09     3.522112     3.522112     3.522112    43.692761 
       7            0    509.57178     44484535     44484535     44484535     44484535            0 -2.604719e-09 -2.604719e-09     3.522464     3.522464     3.522464    43.705862 
       8            0    509.20811     44445921     44445921     44445921     44445921 -2.0831506e-09 -4.1663012e-09 -5.2078765e-10     3.522816     3.522816     3.522816    43.718966 
       9            0    508.84468     44407341     44407341     44407341     44407341 -3.644421e-09 -1.5618947e-09 -2.0825263e-09     3.523168     3.523168     3.523168    43.732072 
      10            0    508.48149     44368794     44368794     44368794     44368794 1.5614267e-09 -5.2047555e-10 -1.0409511e-09      3.52352      3.52352      3.52352    43.745182 
      11            0    508.11855     44330280     44330280     44330280     44330280            0 3.6422372e-09 3.1219176e-09     3.523872     3.523872     3.523872    43.758293 
      12            0    507.75585     44291801     44291801     44291801     44291801 1.5604911e-09 -5.201637e-10 -1.0403274e-09     3.524224     3.524224     3.524224    43.771408 
      13            0    507.39339     44253354     44253354     44253354     44253354 -1.5600236e-09 2.0800315e-09 2.6000394e-09     3.524576     3.524576     3.524576    43.784525 
      14            0    507.03117     44214941     44214941     44214941     44214941 -1.5595563e-09 -5.7183731e-09 -5.198521e-09     3.524928     3.524928     3.524928    43.797644 
      15            0     506.6692     44176562     44176562     44176562     44176562 1.0393928e-09 -2.0787856e-09 -5.196964e-10      3.52528      3.52528      3.52528    43.810766 
      16            0    506.30747     44138216     44138216     44138216     44138216 -3.6367853e-09 -1.5586223e-09 -2.078163e-09     3.525632     3.525632     3.525632    43.823891 
      17            0    505.94597     44099903     44099903     44099903     44099903 -4.6744665e-09 -3.116311e-09 -2.5969259e-09     3.525984     3.525984     3.525984    43.837019 
      18            0    505.58473     44061624     44061624     44061624     44061624 5.1922965e-10 2.5961482e-09 5.1922965e-10     3.526336     3.526336     3.526336    43.850149 
      19            0    505.22372     44023378     44023378     44023378     44023378 2.0762968e-09 -5.1907419e-10 1.0381484e-09     3.526688     3.526688     3.526688    43.863282 
      20            0    504.86295     43985165     43985165     43985165     43985165 2.594594e-09 -1.5567564e-09 -2.0756752e-09      3.52704      3.52704      3.52704    43.876417 
      21            0    504.50243     43946986     43946986     43946986     43946986 4.6688712e-09 5.7063981e-09 5.7063981e-09     3.527392     3.527392     3.527392    43.889555 
      22            0    504.14214     43908839     43908839     43908839     43908839 2.593041e-09            0            0     3.527744     3.527744     3.527744    43.902696 
      23            0     503.7821     43870726     43870726     43870726     43870726 -2.0738119e-09 -5.1845298e-09 -4.6660768e-09     3.528096     3.528096     3.528096    43.915839 
      24            0     503.4223     43832646     43832646     43832646     43832646 -5.1829783e-10 1.5548935e-09 1.0365957e-09     3.528448     3.528448     3.528448    43.928985 
      25            0    503.06274     43794600     43794600     43794600     43794600 1.5544282e-09 5.1814275e-10 -1.0362855e-09       3.5288       3.5288       3.5288    43.942133 
      26            0    502.70341     43756586     43756586     43756586     43756586 4.6618895e-09 1.5539632e-09 3.6259141e-09     3.529152     3.529152     3.529152    43.955284 
      27            0    502.34433     43718605     43718605     43718605     43718605 -2.071331e-09 -6.2139931e-09 -4.1426621e-09     3.529504     3.529504     3.529504    43.968438 
      28            0    501.98549     43680658     43680658     43680658     43680658            0 -4.1414229e-09 -1.5530336e-09     3.529856     3.529856     3.529856    43.981594 
      29            0    501.62689     43642743     43642743     43642743     43642743 4.6577072e-09 2.5876151e-09 2.0700921e-09     3.530208     3.530208     3.530208    43.994753 
      30            0    501.26853     43604862     43604862     43604862     43604862 5.1736824e-10 1.0347365e-09 1.0347365e-09      3.53056      3.53056      3.53056    44.007915 
      31            0    500.91041     43567013     43567013     43567013     43567013 2.0688541e-09            0 -5.1721353e-10     3.530912     3.530912     3.530912    44.021079 
      32            0    500.55253     43529198     43529198     43529198     43529198 -7.2388242e-09 -8.7900009e-09 -7.2388242e-09     3.531264     3.531264     3.531264    44.034246 
      33            0    500.19488     43491415     43491415     43491415     43491415 -1.0338086e-09 5.6859471e-09 5.6859471e-09     3.531616     3.531616     3.531616    44.047415 
      34            0    499.83748     43453665     43453665     43453665     43453665 5.1674975e-10 1.0334995e-09 -5.1674975e-10     3.531968     3.531968     3.531968    44.060587 
      35            0    499.48032     43415948     43415948     43415948     43415948 -2.5829764e-09 -3.616167e-09 -3.0995717e-09      3.53232      3.53232      3.53232    44.073762 
      36            0    499.12339     43378264     43378264     43378264     43378264 5.1644088e-09 5.1644088e-09 5.1644088e-09     3.532672     3.532672     3.532672    44.086939 
      37            0     498.7667     43340613     43340613     43340613     43340613            0            0 2.0651461e-09     3.533024     3.533024     3.533024    44.100119 
      38            0    498.41026     43302994     43302994     43302994     43302994 -2.064529e-09 2.5806612e-09 2.5806612e-09     3.533376     3.533376     3.533376    44.113302 
      39            0    498.05405     43265408     43265408     43265408     43265408 3.0958681e-09 7.2236923e-09 7.7396703e-09     3.533728     3.533728     3.533728    44.126487 
      40            0    497.69807     43227855     43227855     43227855     43227855 2.0632954e-09 2.0632954e-09            0      3.53408      3.53408      3.53408    44.139675 
      41            0    497.34234     43190334     43190334     43190334     43190334 5.1566976e-10 -4.1253581e-09 -4.1253581e-09     3.534432     3.534432     3.534432    44.152865 
      42            0    496.98685     43152846     43152846     43152846     43152846 -5.1551572e-10 -2.0620629e-09 -1.5465472e-09     3.534784     3.534784     3.534784    44.166058 
      43            0    496.63159     43115391     43115391     43115391     43115391 -1.0307235e-09 5.1536175e-09 4.6382557e-09     3.535136     3.535136     3.535136    44.179254 
      44            0    496.27657     43077968     43077968     43077968     43077968 3.091247e-09 3.6064548e-09 3.6064548e-09     3.535488     3.535488     3.535488    44.192452 
      45            0    495.92179     43040578     43040578     43040578     43040578 1.0301079e-09 5.1505397e-10 5.1505397e-10      3.53584      3.53584      3.53584    44.205653 
      46            0    495.56724     43003221     43003221     43003221     43003221            0 -2.5745009e-09 -3.0894011e-09     3.536192     3.536192     3.536192    44.218857 
      47            0    495.21293     42965895     42965895     42965895     42965895 -7.7211967e-09 -1.0294929e-08 -9.7801825e-09     3.536544     3.536544     3.536544    44.232063 
      48            0    494.85886     42928603     42928603     42928603     42928603 1.0291856e-09 -2.0583711e-09 5.1459278e-10     3.536896     3.536896     3.536896    44.245272 
      49            0    494.50503     42891342     42891342     42891342     42891342 2.0577567e-09 3.6010742e-09  6.17327e-09     3.537248     3.537248     3.537248    44.258484 
      50            0    494.15143     42854114     42854114     42854114     42854114 5.1428562e-10 -1.0285712e-09 -5.1428562e-10       3.5376       3.5376       3.5376    44.271698 
      51            0    493.79807     42816919     42816919     42816919     42816919 1.5423964e-09 1.0282643e-09 -1.0282643e-09     3.537952     3.537952     3.537952    44.284914 
      52            0    493.44495     42779756     42779756     42779756     42779756 -2.0559148e-09 -2.0559148e-09 -1.5419361e-09     3.538304     3.538304     3.538304    44.298134 
      53            0    493.09206     42742625     42742625     42742625     42742625            0 -2.0553014e-09 -2.0553014e-09     3.538656     3.538656     3.538656    44.311356 
      54            0    492.73941     42705526     42705526     42705526     42705526 3.0820322e-09 1.5410161e-09 2.0546881e-09     3.539008     3.539008     3.539008     44.32458 
      55            0    492.38699     42668460     42668460     42668460     42668460 -1.0270376e-09 2.0540752e-09            0      3.53936      3.53936      3.53936    44.337808 
      56            0    492.03481     42631426     42631426     42631426     42631426 -5.1336561e-10            0 2.0534624e-09     3.539712     3.539712     3.539712    44.351038 
      57            0    491.68287     42594424     42594424     42594424     42594424 -1.026425e-09  2.05285e-09 -5.1321249e-10     3.540064     3.540064     3.540064     44.36427 
      58            0    491.33116     42557454     42557454     42557454     42557454 2.5652971e-09 3.0783566e-09 3.0783566e-09     3.540416     3.540416     3.540416    44.377505 
      59            0    490.97968     42520517     42520517     42520517     42520517 2.0516257e-09 3.590345e-09 3.590345e-09     3.540768     3.540768     3.540768    44.390743 
      60            0    490.62845     42483611     42483611     42483611     42483611 5.1275349e-10 5.1275349e-10 1.025507e-09      3.54112      3.54112      3.54112    44.403983 
      61            0    490.27744     42446738     42446738     42446738     42446738 1.5378018e-09 -1.5378018e-09 -1.5378018e-09     3.541472     3.541472     3.541472    44.417227 
      62            0    489.92667     42409897     42409897     42409897     42409897 -5.1244779e-10 2.0497912e-09 2.562239e-09     3.541824     3.541824     3.541824    44.430472 
      63            0    489.57614     42373087     42373087     42373087     42373087 1.5368851e-09            0 1.5368851e-09     3.542176     3.542176     3.542176    44.443721 
      64            0    489.22584     42336310     42336310     42336310     42336310 2.5607117e-09 -3.072854e-09 -3.5849964e-09     3.542528     3.542528     3.542528    44.456972 
      65            0    488.87578     42299565     42299565     42299565     42299565 -1.0239794e-09 -3.5839279e-09 -1.0239794e-09      3.54288      3.54288      3.54288    44.470225 
      66            0    488.52595     42262851     42262851     42262851     42262851 -5.1183713e-10 -1.5355114e-09 5.1183713e-10     3.543232     3.543232     3.543232    44.483481 
      67            0    488.17635     42226170     42226170     42226170     42226170 1.0233692e-09 5.1168462e-10 -1.5350539e-09     3.543584     3.543584     3.543584     44.49674 
      68            0    487.82699     42189520     42189520     42189520     42189520 1.0230643e-09 2.0461287e-09 1.5345965e-09     3.543936     3.543936     3.543936    44.510002 
      69            0    487.47786     42152903     42152903     42152903     42152903 -5.1137977e-10 -2.0455191e-09 2.0455191e-09     3.544288     3.544288     3.544288    44.523266 
      70            0    487.12897     42116317     42116317     42116317     42116317 -1.0224549e-09 3.0673646e-09 5.1122744e-10      3.54464      3.54464      3.54464    44.536533 
      71            0    486.78031     42079763     42079763     42079763     42079763 1.0221503e-09 -1.0221503e-09 -5.1107517e-10     3.544992     3.544992     3.544992    44.549802 
      72            0    486.43188     42043240     42043240     42043240     42043240 5.1092295e-10 -1.0218459e-09 -2.5546148e-09     3.545344     3.545344     3.545344    44.563074 
      73            0    486.08369     42006750     42006750     42006750     42006750 3.0646248e-09 3.5753956e-09 1.5323124e-09     3.545696     3.545696     3.545696    44.576349 
      74            0    485.73573     41970291     41970291     41970291     41970291 2.5530936e-09 6.1274246e-09 5.6168058e-09     3.546048     3.546048     3.546048    44.589626 
      75            0      485.388     41933864     41933864     41933864     41933864   1.5314e-09 -5.1046668e-10 -5.1046668e-10       3.5464       3.5464       3.5464    44.602906 
      76            0     485.0405     41897468     41897468     41897468     41897468 -2.5515736e-09 -1.0206294e-09 -1.5309441e-09     3.546752     3.546752     3.546752    44.616189 
      77            0    484.69324     41861104     41861104     41861104     41861104 2.550814e-09 -3.0609768e-09 -2.550814e-09     3.547104     3.547104     3.547104    44.629474 
      78            0    484.34621     41824772     41824772     41824772     41824772 5.1001095e-10 2.5500548e-09            0     3.547456     3.547456     3.547456    44.642762 
      79            0    483.99941     41788471     41788471     41788471     41788471 5.0985917e-09            0            0     3.547808     3.547808     3.547808    44.656052 
      80            0    483.65285     41752202     41752202     41752202     41752202 -1.5291223e-09 -1.5291223e-09 -1.0194149e-09      3.54816      3.54816      3.54816    44.669345 
      81            0    483.30652     41715965     41715965     41715965     41715965 -5.0955577e-10 -3.0573346e-09 -3.5668904e-09     3.548512     3.548512     3.548512    44.682641 
      82            0    482.96041     41679758     41679758     41679758     41679758 2.5470208e-09 1.5282125e-09 1.5282125e-09     3.548864     3.548864     3.548864    44.695939 
      83            0    482.61455     41643584     41643584     41643584     41643584            0            0 5.0925261e-10     3.549216     3.549216     3.549216     44.70924 
      84            0    482.26891     41607440     41607440     41607440     41607440 3.5637079e-09 9.1638202e-09 7.1274157e-09     3.549568     3.549568     3.549568    44.722544 
      85            0     481.9235     41571328     41571328     41571328     41571328 2.0357988e-09 5.089497e-10 -1.5268491e-09      3.54992      3.54992      3.54992     44.73585 
      86            0    481.57833     41535248     41535248     41535248     41535248 -1.0175967e-09 1.0175967e-09 3.5615883e-09     3.550272     3.550272     3.550272    44.749159 
      87            0    481.23338     41499199     41499199     41499199     41499199 -3.5605291e-09 -3.5605291e-09 -3.5605291e-09     3.550624     3.550624     3.550624    44.762471 
      88            0    480.88867     41463181     41463181     41463181     41463181 1.5254873e-09 -1.5254873e-09 5.0849577e-10     3.550976     3.550976     3.550976    44.775785 
      89            0    480.54419     41427194     41427194     41427194     41427194 6.6084796e-09 4.5751013e-09 6.100135e-09     3.551328     3.551328     3.551328    44.789102 
      90            0    480.19994     41391239     41391239     41391239     41391239 2.5409673e-09 -2.5409673e-09 -2.5409673e-09      3.55168      3.55168      3.55168    44.802422 
      91            0    479.85592     41355315     41355315     41355315     41355315 -1.0160848e-09 1.0160848e-09 -5.0804239e-10     3.552032     3.552032     3.552032    44.815744 
      92            0    479.51213     41319422     41319422     41319422     41319422 1.5236741e-09 2.0315655e-09 3.5552397e-09     3.552384     3.552384     3.552384    44.829069 
      93            0    479.16857     41283560     41283560     41283560     41283560 -5.0774043e-10 4.5696639e-09 6.6006256e-09     3.552736     3.552736     3.552736    44.842396 
      94            0    478.82524     41247730     41247730     41247730     41247730 3.0455372e-09 3.0455372e-09 3.5531268e-09     3.553088     3.553088     3.553088    44.855726 
      95            0    478.48214     41211931     41211931     41211931     41211931 -1.0148774e-09 5.0743871e-10 5.0743871e-10      3.55344      3.55344      3.55344    44.869059 
      96            0    478.13927     41176162     41176162     41176162     41176162            0 1.0145759e-09 1.5218638e-09     3.553792     3.553792     3.553792    44.882394 
      97            0    477.79663     41140425     41140425     41140425     41140425            0 -4.0570979e-09 -3.5499606e-09     3.554144     3.554144     3.554144    44.895732 
      98            0    477.45422     41104719     41104719     41104719     41104719 5.0698658e-10 -3.5489061e-09 -4.0558927e-09     3.554496     3.554496     3.554496    44.909073 
      99            0    477.11204     41069044     41069044     41069044     41069044 3.041016e-09 -5.0683599e-10 -5.0683599e-10     3.554848     3.554848     3.554848    44.922416 
     100            0    476.77009     41033399     41033399     41033399     41033399 -2.5334273e-09 5.0668546e-10 1.0133709e-09       3.5552       3.5552       3.5552    44.935762 
Loop time of 0.00259995 on 1 procs for 100 steps with 4 atoms

115.4% CPU use with 1 MPI tasks x no OpenMP threads

Minimization stats:
  Stopping criterion = max iterations
  Energy initial, next-to-last, final = 
         512.124308584      477.112038633      476.770086997
  Force two-norm initial, final = 2110.22 1973.6
  Force max component initial, final = 1218.34 1139.46
  Final line search alpha, max atom move = 8.77023e-08 9.9933e-05
  Iterations, force evaluations = 100 100

MPI task timing breakdown:
Section |  min time  |  avg time  |  max time  |%varavg| %total
---------------------------------------------------------------
Pair    | 0.00060701 | 0.00060701 | 0.00060701 |   0.0 | 23.35
Neigh   | 0          | 0          | 0          |   0.0 |  0.00
Comm    | 0.00014496 | 0.00014496 | 0.00014496 |   0.0 |  5.58
Output  | 0.0012074  | 0.0012074  | 0.0012074  |   0.0 | 46.44
Modify  | 0          | 0          | 0          |   0.0 |  0.00
Other   |            | 0.0006406  |            |       | 24.64

Nlocal:    4 ave 4 max 4 min
Histogram: 1 0 0 0 0 0 0 0 0 0
Nghost:    168 ave 168 max 168 min
Histogram: 1 0 0 0 0 0 0 0 0 0
Neighs:    84 ave 84 max 84 min
Histogram: 1 0 0 0 0 0 0 0 0 0

Total # of neighbors = 84
Ave neighs/atom = 21
Neighbor list builds = 0
Dangerous builds = 0
System init for write_restart ...
Reading restart file ...
  restart file = 11 Aug 2017, LAMMPS = 11 Aug 2017
  triclinic box = (-0.0176 -0.0176 -0.0176) to (3.5376 3.5376 3.5376) with tilt (0 0 0)
  1 by 1 by 1 MPI processor grid
  4 atoms
4 atoms in group Ni
Changing box ...
  triclinic box = (-0.0176 -0.0176 -0.0176) to (3.5376 3.5376 3.5376) with tilt (0 0 0)
Neighbor list info ...
  update every 1 steps, delay 0 steps, check yes
  max neighbors/atom: 2000, page size: 100000
  master list distance cutoff = 4.916
  ghost atom cutoff = 4.916
  binsize = 2.458, bins = 2 2 2
  1 neighbor lists, perpetual/occasional/extra = 1 0 0
  (1) pair eam/alloy, perpetual
      attributes: half, newton on
      pair build: half/bin/newton/tri
      stencil: half/bin/3d/newton/tri
      bin: standard
Setting up cg style minimization ...
  Unit style    : metal
  Current step  : 100
Per MPI rank memory allocation (min/avg/max) = 4.085 | 4.085 | 4.085 Mbytes
Step Temp PotEng Press Pxx Pyy Pzz Pxy Pxz Pyz Lx Ly Lz Volume 
     100            0    476.77124     41033519     41033528     41033515     41033515 2.0267439e-09 3.5468018e-09            0    3.5551964       3.5552       3.5552    44.935717 
     101            0    476.77124     41033519     41033528     41033515     41033515 -1.0133719e-09 -1.5200579e-09            0    3.5551964       3.5552       3.5552    44.935717 
Loop time of 4.60148e-05 on 1 procs for 1 steps with 4 atoms

0.0% CPU use with 1 MPI tasks x no OpenMP threads

Minimization stats:
  Stopping criterion = force tolerance
  Energy initial, next-to-last, final = 
          476.77123785       476.77123785       476.77123785
  Force two-norm initial, final = 1.56538e-12 2.59448e-13
  Force max component initial, final = 5.99076e-13 1.30562e-13
  Final line search alpha, max atom move = 1 1.30562e-13
  Iterations, force evaluations = 1 2

MPI task timing breakdown:
Section |  min time  |  avg time  |  max time  |%varavg| %total
---------------------------------------------------------------
Pair    | 1.9789e-05 | 1.9789e-05 | 1.9789e-05 |   0.0 | 43.01
Neigh   | 0          | 0          | 0          |   0.0 |  0.00
Comm    | 4.0531e-06 | 4.0531e-06 | 4.0531e-06 |   0.0 |  8.81
Output  | 0          | 0          | 0          |   0.0 |  0.00
Modify  | 0          | 0          | 0          |   0.0 |  0.00
Other   |            | 2.217e-05  |            |       | 48.19

Nlocal:    4 ave 4 max 4 min
Histogram: 1 0 0 0 0 0 0 0 0 0
Nghost:    168 ave 168 max 168 min
Histogram: 1 0 0 0 0 0 0 0 0 0
Neighs:    84 ave 84 max 84 min
Histogram: 1 0 0 0 0 0 0 0 0 0

Total # of neighbors = 84
Ave neighs/atom = 21
Neighbor list builds = 0
Dangerous builds = 0
Reading restart file ...
  restart file = 11 Aug 2017, LAMMPS = 11 Aug 2017
  triclinic box = (-0.0176 -0.0176 -0.0176) to (3.5376 3.5376 3.5376) with tilt (0 0 0)
  1 by 1 by 1 MPI processor grid
  4 atoms
4 atoms in group Ni
Changing box ...
  triclinic box = (-0.0176 -0.0176 -0.0176) to (3.5376 3.5376 3.5376) with tilt (0 0 0)
Neighbor list info ...
  update every 1 steps, delay 0 steps, check yes
  max neighbors/atom: 2000, page size: 100000
  master list distance cutoff = 4.916
  ghost atom cutoff = 4.916
  binsize = 2.458, bins = 2 2 2
  1 neighbor lists, perpetual/occasional/extra = 1 0 0
  (1) pair eam/alloy, perpetual
      attributes: half, newton on
      pair build: half/bin/newton/tri
      stencil: half/bin/3d/newton/tri
      bin: standard
Setting up cg style minimization ...
  Unit style    : metal
  Current step  : 100
Per MPI rank memory allocation (min/avg/max) = 4.085 | 4.085 | 4.085 Mbytes
Step Temp PotEng Press Pxx Pyy Pzz Pxy Pxz Pyz Lx Ly Lz Volume 
     100            0    476.76894     41033279     41033271     41033284     41033284            0 -2.5334248e-09 3.5467947e-09    3.5552036       3.5552       3.5552    44.935807 
     101            0    476.76894     41033279     41033271     41033284     41033284 -5.0668496e-09 -5.0668496e-10 -5.0668496e-10    3.5552036       3.5552       3.5552    44.935807 
Loop time of 4.79221e-05 on 1 procs for 1 steps with 4 atoms

0.0% CPU use with 1 MPI tasks x no OpenMP threads

Minimization stats:
  Stopping criterion = force tolerance
  Energy initial, next-to-last, final = 
         476.768936147      476.768936147      476.768936147
  Force two-norm initial, final = 1.55204e-12 4.22661e-13
  Force max component initial, final = 4.68958e-13 2.3137e-13
  Final line search alpha, max atom move = 1 2.3137e-13
  Iterations, force evaluations = 1 2

MPI task timing breakdown:
Section |  min time  |  avg time  |  max time  |%varavg| %total
---------------------------------------------------------------
Pair    | 2.0027e-05 | 2.0027e-05 | 2.0027e-05 |   0.0 | 41.79
Neigh   | 0          | 0          | 0          |   0.0 |  0.00
Comm    | 4.7684e-06 | 4.7684e-06 | 4.7684e-06 |   0.0 |  9.95
Output  | 0          | 0          | 0          |   0.0 |  0.00
Modify  | 0          | 0          | 0          |   0.0 |  0.00
Other   |            | 2.313e-05  |            |       | 48.26

Nlocal:    4 ave 4 max 4 min
Histogram: 1 0 0 0 0 0 0 0 0 0
Nghost:    168 ave 168 max 168 min
Histogram: 1 0 0 0 0 0 0 0 0 0
Neighs:    84 ave 84 max 84 min
Histogram: 1 0 0 0 0 0 0 0 0 0

Total # of neighbors = 84
Ave neighs/atom = 21
Neighbor list builds = 0
Dangerous builds = 0
Reading restart file ...
  restart file = 11 Aug 2017, LAMMPS = 11 Aug 2017
  triclinic box = (-0.0176 -0.0176 -0.0176) to (3.5376 3.5376 3.5376) with tilt (0 0 0)
  1 by 1 by 1 MPI processor grid
  4 atoms
4 atoms in group Ni
Changing box ...
  triclinic box = (-0.0176 -0.0176 -0.0176) to (3.5376 3.5376 3.5376) with tilt (0 0 0)
Neighbor list info ...
  update every 1 steps, delay 0 steps, check yes
  max neighbors/atom: 2000, page size: 100000
  master list distance cutoff = 4.916
  ghost atom cutoff = 4.916
  binsize = 2.458, bins = 2 2 2
  1 neighbor lists, perpetual/occasional/extra = 1 0 0
  (1) pair eam/alloy, perpetual
      attributes: half, newton on
      pair build: half/bin/newton/tri
      stencil: half/bin/3d/newton/tri
      bin: standard
Setting up cg style minimization ...
  Unit style    : metal
  Current step  : 100
Per MPI rank memory allocation (min/avg/max) = 4.085 | 4.085 | 4.085 Mbytes
Step Temp PotEng Press Pxx Pyy Pzz Pxy Pxz Pyz Lx Ly Lz Volume 
     100            0    476.77124     41033519     41033515     41033528     41033515 1.5200579e-09            0 4.0534878e-09       3.5552    3.5551964       3.5552    44.935717 
     101            0    476.77124     41033519     41033515     41033528     41033515 -5.0668597e-10            0 -1.5200579e-09       3.5552    3.5551964       3.5552    44.935717 
Loop time of 4.19617e-05 on 1 procs for 1 steps with 4 atoms

0.0% CPU use with 1 MPI tasks x no OpenMP threads

Minimization stats:
  Stopping criterion = force tolerance
  Energy initial, next-to-last, final = 
          476.77123785       476.77123785       476.77123785
  Force two-norm initial, final = 1.57226e-12 2.5707e-13
  Force max component initial, final = 6.03961e-13 1.35003e-13
  Final line search alpha, max atom move = 1 1.35003e-13
  Iterations, force evaluations = 1 2

MPI task timing breakdown:
Section |  min time  |  avg time  |  max time  |%varavg| %total
---------------------------------------------------------------
Pair    | 1.9073e-05 | 1.9073e-05 | 1.9073e-05 |   0.0 | 45.45
Neigh   | 0          | 0          | 0          |   0.0 |  0.00
Comm    | 3.8147e-06 | 3.8147e-06 | 3.8147e-06 |   0.0 |  9.09
Output  | 0          | 0          | 0          |   0.0 |  0.00
Modify  | 0          | 0          | 0          |   0.0 |  0.00
Other   |            | 1.907e-05  |            |       | 45.45

Nlocal:    4 ave 4 max 4 min
Histogram: 1 0 0 0 0 0 0 0 0 0
Nghost:    168 ave 168 max 168 min
Histogram: 1 0 0 0 0 0 0 0 0 0
Neighs:    84 ave 84 max 84 min
Histogram: 1 0 0 0 0 0 0 0 0 0

Total # of neighbors = 84
Ave neighs/atom = 21
Neighbor list builds = 0
Dangerous builds = 0
Reading restart file ...
  restart file = 11 Aug 2017, LAMMPS = 11 Aug 2017
  triclinic box = (-0.0176 -0.0176 -0.0176) to (3.5376 3.5376 3.5376) with tilt (0 0 0)
  1 by 1 by 1 MPI processor grid
  4 atoms
4 atoms in group Ni
Changing box ...
  triclinic box = (-0.0176 -0.0176 -0.0176) to (3.5376 3.5376 3.5376) with tilt (0 0 0)
Neighbor list info ...
  update every 1 steps, delay 0 steps, check yes
  max neighbors/atom: 2000, page size: 100000
  master list distance cutoff = 4.916
  ghost atom cutoff = 4.916
  binsize = 2.458, bins = 2 2 2
  1 neighbor lists, perpetual/occasional/extra = 1 0 0
  (1) pair eam/alloy, perpetual
      attributes: half, newton on
      pair build: half/bin/newton/tri
      stencil: half/bin/3d/newton/tri
      bin: standard
Setting up cg style minimization ...
  Unit style    : metal
  Current step  : 100
Per MPI rank memory allocation (min/avg/max) = 4.085 | 4.085 | 4.085 Mbytes
Step Temp PotEng Press Pxx Pyy Pzz Pxy Pxz Pyz Lx Ly Lz Volume 
     100            0    476.76894     41033279     41033284     41033271     41033284 -1.0133699e-09 1.0133699e-09 -1.0133699e-09       3.5552    3.5552036       3.5552    44.935807 
     101            0    476.76894     41033279     41033284     41033271     41033284 -4.5601646e-09 -4.5601646e-09 -2.0267398e-09       3.5552    3.5552036       3.5552    44.935807 
Loop time of 4.29153e-05 on 1 procs for 1 steps with 4 atoms

0.0% CPU use with 1 MPI tasks x no OpenMP threads

Minimization stats:
  Stopping criterion = force tolerance
  Energy initial, next-to-last, final = 
         476.768936147      476.768936147      476.768936147
  Force two-norm initial, final = 1.54537e-12 3.96311e-13
  Force max component initial, final = 4.68958e-13 1.65645e-13
  Final line search alpha, max atom move = 1 1.65645e-13
  Iterations, force evaluations = 1 2

MPI task timing breakdown:
Section |  min time  |  avg time  |  max time  |%varavg| %total
---------------------------------------------------------------
Pair    | 1.9073e-05 | 1.9073e-05 | 1.9073e-05 |   0.0 | 44.44
Neigh   | 0          | 0          | 0          |   0.0 |  0.00
Comm    | 4.0531e-06 | 4.0531e-06 | 4.0531e-06 |   0.0 |  9.44
Output  | 0          | 0          | 0          |   0.0 |  0.00
Modify  | 0          | 0          | 0          |   0.0 |  0.00
Other   |            | 1.979e-05  |            |       | 46.11

Nlocal:    4 ave 4 max 4 min
Histogram: 1 0 0 0 0 0 0 0 0 0
Nghost:    168 ave 168 max 168 min
Histogram: 1 0 0 0 0 0 0 0 0 0
Neighs:    84 ave 84 max 84 min
Histogram: 1 0 0 0 0 0 0 0 0 0

Total # of neighbors = 84
Ave neighs/atom = 21
Neighbor list builds = 0
Dangerous builds = 0
Reading restart file ...
  restart file = 11 Aug 2017, LAMMPS = 11 Aug 2017
  triclinic box = (-0.0176 -0.0176 -0.0176) to (3.5376 3.5376 3.5376) with tilt (0 0 0)
  1 by 1 by 1 MPI processor grid
  4 atoms
4 atoms in group Ni
Changing box ...
  triclinic box = (-0.0176 -0.0176 -0.0176) to (3.5376 3.5376 3.5376) with tilt (0 0 0)
Neighbor list info ...
  update every 1 steps, delay 0 steps, check yes
  max neighbors/atom: 2000, page size: 100000
  master list distance cutoff = 4.916
  ghost atom cutoff = 4.916
  binsize = 2.458, bins = 2 2 2
  1 neighbor lists, perpetual/occasional/extra = 1 0 0
  (1) pair eam/alloy, perpetual
      attributes: half, newton on
      pair build: half/bin/newton/tri
      stencil: half/bin/3d/newton/tri
      bin: standard
Setting up cg style minimization ...
  Unit style    : metal
  Current step  : 100
Per MPI rank memory allocation (min/avg/max) = 4.085 | 4.085 | 4.085 Mbytes
Step Temp PotEng Press Pxx Pyy Pzz Pxy Pxz Pyz Lx Ly Lz Volume 
     100            0    476.77124     41033519     41033515     41033515     41033528 1.0133719e-09 -1.5200579e-09 5.0668597e-10       3.5552       3.5552    3.5551964    44.935717 
     101            0    476.77124     41033519     41033515     41033515     41033528 -1.0133719e-09 -1.5200579e-09 -1.0133719e-09       3.5552       3.5552    3.5551964    44.935717 
Loop time of 4.1008e-05 on 1 procs for 1 steps with 4 atoms

0.0% CPU use with 1 MPI tasks x no OpenMP threads

Minimization stats:
  Stopping criterion = force tolerance
  Energy initial, next-to-last, final = 
          476.77123785       476.77123785       476.77123785
  Force two-norm initial, final = 1.57762e-12 2.42309e-13
  Force max component initial, final = 6.11067e-13 1.27898e-13
  Final line search alpha, max atom move = 1 1.27898e-13
  Iterations, force evaluations = 1 2

MPI task timing breakdown:
Section |  min time  |  avg time  |  max time  |%varavg| %total
---------------------------------------------------------------
Pair    | 1.8835e-05 | 1.8835e-05 | 1.8835e-05 |   0.0 | 45.93
Neigh   | 0          | 0          | 0          |   0.0 |  0.00
Comm    | 4.2915e-06 | 4.2915e-06 | 4.2915e-06 |   0.0 | 10.47
Output  | 0          | 0          | 0          |   0.0 |  0.00
Modify  | 0          | 0          | 0          |   0.0 |  0.00
Other   |            | 1.788e-05  |            |       | 43.60

Nlocal:    4 ave 4 max 4 min
Histogram: 1 0 0 0 0 0 0 0 0 0
Nghost:    168 ave 168 max 168 min
Histogram: 1 0 0 0 0 0 0 0 0 0
Neighs:    84 ave 84 max 84 min
Histogram: 1 0 0 0 0 0 0 0 0 0

Total # of neighbors = 84
Ave neighs/atom = 21
Neighbor list builds = 0
Dangerous builds = 0
Reading restart file ...
  restart file = 11 Aug 2017, LAMMPS = 11 Aug 2017
  triclinic box = (-0.0176 -0.0176 -0.0176) to (3.5376 3.5376 3.5376) with tilt (0 0 0)
  1 by 1 by 1 MPI processor grid
  4 atoms
4 atoms in group Ni
Changing box ...
  triclinic box = (-0.0176 -0.0176 -0.0176) to (3.5376 3.5376 3.5376) with tilt (0 0 0)
Neighbor list info ...
  update every 1 steps, delay 0 steps, check yes
  max neighbors/atom: 2000, page size: 100000
  master list distance cutoff = 4.916
  ghost atom cutoff = 4.916
  binsize = 2.458, bins = 2 2 2
  1 neighbor lists, perpetual/occasional/extra = 1 0 0
  (1) pair eam/alloy, perpetual
      attributes: half, newton on
      pair build: half/bin/newton/tri
      stencil: half/bin/3d/newton/tri
      bin: standard
Setting up cg style minimization ...
  Unit style    : metal
  Current step  : 100
Per MPI rank memory allocation (min/avg/max) = 4.085 | 4.085 | 4.085 Mbytes
Step Temp PotEng Press Pxx Pyy Pzz Pxy Pxz Pyz Lx Ly Lz Volume 
     100            0    476.76894     41033279     41033284     41033284     41033271 2.0267398e-09            0 -1.5200549e-09       3.5552       3.5552    3.5552036    44.935807 
     101            0    476.76894     41033279     41033284     41033284     41033271 -4.5601646e-09 -5.5735345e-09 -1.5200549e-09       3.5552       3.5552    3.5552036    44.935807 
Loop time of 4.19617e-05 on 1 procs for 1 steps with 4 atoms

0.0% CPU use with 1 MPI tasks x no OpenMP threads

Minimization stats:
  Stopping criterion = force tolerance
  Energy initial, next-to-last, final = 
         476.768936147      476.768936147      476.768936147
  Force two-norm initial, final = 1.55694e-12 3.68178e-13
  Force max component initial, final = 4.9738e-13 1.65645e-13
  Final line search alpha, max atom move = 1 1.65645e-13
  Iterations, force evaluations = 1 2

MPI task timing breakdown:
Section |  min time  |  avg time  |  max time  |%varavg| %total
---------------------------------------------------------------
Pair    | 1.8835e-05 | 1.8835e-05 | 1.8835e-05 |   0.0 | 44.89
Neigh   | 0          | 0          | 0          |   0.0 |  0.00
Comm    | 5.4836e-06 | 5.4836e-06 | 5.4836e-06 |   0.0 | 13.07
Output  | 0          | 0          | 0          |   0.0 |  0.00
Modify  | 0          | 0          | 0          |   0.0 |  0.00
Other   |            | 1.764e-05  |            |       | 42.05

Nlocal:    4 ave 4 max 4 min
Histogram: 1 0 0 0 0 0 0 0 0 0
Nghost:    168 ave 168 max 168 min
Histogram: 1 0 0 0 0 0 0 0 0 0
Neighs:    84 ave 84 max 84 min
Histogram: 1 0 0 0 0 0 0 0 0 0

Total # of neighbors = 84
Ave neighs/atom = 21
Neighbor list builds = 0
Dangerous builds = 0
Reading restart file ...
  restart file = 11 Aug 2017, LAMMPS = 11 Aug 2017
  triclinic box = (-0.0176 -0.0176 -0.0176) to (3.5376 3.5376 3.5376) with tilt (0 0 0)
  1 by 1 by 1 MPI processor grid
  4 atoms
4 atoms in group Ni
Changing box ...
  triclinic box = (-0.0176 -0.0176 -0.0176) to (3.5376 3.5376 3.5376) with tilt (0 0 -3.5552e-06)
Neighbor list info ...
  update every 1 steps, delay 0 steps, check yes
  max neighbors/atom: 2000, page size: 100000
  master list distance cutoff = 4.916
  ghost atom cutoff = 4.916
  binsize = 2.458, bins = 2 2 2
  1 neighbor lists, perpetual/occasional/extra = 1 0 0
  (1) pair eam/alloy, perpetual
      attributes: half, newton on
      pair build: half/bin/newton/tri
      stencil: half/bin/3d/newton/tri
      bin: standard
Setting up cg style minimization ...
  Unit style    : metal
  Current step  : 100
Per MPI rank memory allocation (min/avg/max) = 4.085 | 4.085 | 4.085 Mbytes
Step Temp PotEng Press Pxx Pyy Pzz Pxy Pxz Pyz Lx Ly Lz Volume 
     100            0    476.77009     41033399     41033399     41033399     41033399 -5.0668546e-10 5.0668546e-10    33.666646       3.5552       3.5552       3.5552    44.935762 
     101            0    476.77009     41033399     41033399     41033399     41033399 1.5200564e-09 -3.0401128e-09    33.666646       3.5552       3.5552       3.5552    44.935762 
Loop time of 4.41074e-05 on 1 procs for 1 steps with 4 atoms

0.0% CPU use with 1 MPI tasks x no OpenMP threads

Minimization stats:
  Stopping criterion = force tolerance
  Energy initial, next-to-last, final = 
         476.770086997      476.770086997      476.770086997
  Force two-norm initial, final = 1.3191e-12 1.11049e-13
  Force max component initial, final = 4.40536e-13 5.68434e-14
  Final line search alpha, max atom move = 1 5.68434e-14
  Iterations, force evaluations = 1 2

MPI task timing breakdown:
Section |  min time  |  avg time  |  max time  |%varavg| %total
---------------------------------------------------------------
Pair    | 2.0027e-05 | 2.0027e-05 | 2.0027e-05 |   0.0 | 45.41
Neigh   | 0          | 0          | 0          |   0.0 |  0.00
Comm    | 5.722e-06  | 5.722e-06  | 5.722e-06  |   0.0 | 12.97
Output  | 0          | 0          | 0          |   0.0 |  0.00
Modify  | 0          | 0          | 0          |   0.0 |  0.00
Other   |            | 1.836e-05  |            |       | 41.62

Nlocal:    4 ave 4 max 4 min
Histogram: 1 0 0 0 0 0 0 0 0 0
Nghost:    168 ave 168 max 168 min
Histogram: 1 0 0 0 0 0 0 0 0 0
Neighs:    84 ave 84 max 84 min
Histogram: 1 0 0 0 0 0 0 0 0 0

Total # of neighbors = 84
Ave neighs/atom = 21
Neighbor list builds = 0
Dangerous builds = 0
Reading restart file ...
  restart file = 11 Aug 2017, LAMMPS = 11 Aug 2017
  triclinic box = (-0.0176 -0.0176 -0.0176) to (3.5376 3.5376 3.5376) with tilt (0 0 0)
  1 by 1 by 1 MPI processor grid
  4 atoms
4 atoms in group Ni
Changing box ...
  triclinic box = (-0.0176 -0.0176 -0.0176) to (3.5376 3.5376 3.5376) with tilt (0 0 3.5552e-06)
Neighbor list info ...
  update every 1 steps, delay 0 steps, check yes
  max neighbors/atom: 2000, page size: 100000
  master list distance cutoff = 4.916
  ghost atom cutoff = 4.916
  binsize = 2.458, bins = 2 2 2
  1 neighbor lists, perpetual/occasional/extra = 1 0 0
  (1) pair eam/alloy, perpetual
      attributes: half, newton on
      pair build: half/bin/newton/tri
      stencil: half/bin/3d/newton/tri
      bin: standard
Setting up cg style minimization ...
  Unit style    : metal
  Current step  : 100
Per MPI rank memory allocation (min/avg/max) = 4.085 | 4.085 | 4.085 Mbytes
Step Temp PotEng Press Pxx Pyy Pzz Pxy Pxz Pyz Lx Ly Lz Volume 
     100            0    476.77009     41033399     41033399     41033399     41033399 -1.5200564e-09 1.5200564e-09   -33.666646       3.5552       3.5552       3.5552    44.935762 
     101            0    476.77009     41033399     41033399     41033399     41033399 -2.0267419e-09            0   -33.666646       3.5552       3.5552       3.5552    44.935762 
Loop time of 4.19617e-05 on 1 procs for 1 steps with 4 atoms

0.0% CPU use with 1 MPI tasks x no OpenMP threads

Minimization stats:
  Stopping criterion = force tolerance
  Energy initial, next-to-last, final = 
         476.770086997      476.770086997      476.770086997
  Force two-norm initial, final = 1.39767e-12 1.18526e-13
  Force max component initial, final = 4.40536e-13 7.10543e-14
  Final line search alpha, max atom move = 1 7.10543e-14
  Iterations, force evaluations = 1 2

MPI task timing breakdown:
Section |  min time  |  avg time  |  max time  |%varavg| %total
---------------------------------------------------------------
Pair    | 1.6928e-05 | 1.6928e-05 | 1.6928e-05 |   0.0 | 40.34
Neigh   | 0          | 0          | 0          |   0.0 |  0.00
Comm    | 6.1989e-06 | 6.1989e-06 | 6.1989e-06 |   0.0 | 14.77
Output  | 0          | 0          | 0          |   0.0 |  0.00
Modify  | 0          | 0          | 0          |   0.0 |  0.00
Other   |            | 1.884e-05  |            |       | 44.89

Nlocal:    4 ave 4 max 4 min
Histogram: 1 0 0 0 0 0 0 0 0 0
Nghost:    168 ave 168 max 168 min
Histogram: 1 0 0 0 0 0 0 0 0 0
Neighs:    84 ave 84 max 84 min
Histogram: 1 0 0 0 0 0 0 0 0 0

Total # of neighbors = 84
Ave neighs/atom = 21
Neighbor list builds = 0
Dangerous builds = 0
Reading restart file ...
  restart file = 11 Aug 2017, LAMMPS = 11 Aug 2017
  triclinic box = (-0.0176 -0.0176 -0.0176) to (3.5376 3.5376 3.5376) with tilt (0 0 0)
  1 by 1 by 1 MPI processor grid
  4 atoms
4 atoms in group Ni
Changing box ...
  triclinic box = (-0.0176 -0.0176 -0.0176) to (3.5376 3.5376 3.5376) with tilt (0 -3.5552e-06 0)
Neighbor list info ...
  update every 1 steps, delay 0 steps, check yes
  max neighbors/atom: 2000, page size: 100000
  master list distance cutoff = 4.916
  ghost atom cutoff = 4.916
  binsize = 2.458, bins = 2 2 2
  1 neighbor lists, perpetual/occasional/extra = 1 0 0
  (1) pair eam/alloy, perpetual
      attributes: half, newton on
      pair build: half/bin/newton/tri
      stencil: half/bin/3d/newton/tri
      bin: standard
Setting up cg style minimization ...
  Unit style    : metal
  Current step  : 100
Per MPI rank memory allocation (min/avg/max) = 4.085 | 4.085 | 4.085 Mbytes
Step Temp PotEng Press Pxx Pyy Pzz Pxy Pxz Pyz Lx Ly Lz Volume 
     100            0    476.77009     41033399     41033399     41033399     41033399 -1.0133709e-09    33.666646 1.0133709e-09       3.5552       3.5552       3.5552    44.935762 
     101            0    476.77009     41033399     41033399     41033399     41033399 5.0668546e-10    33.666646 -3.0401128e-09       3.5552       3.5552       3.5552    44.935762 
Loop time of 4.29153e-05 on 1 procs for 1 steps with 4 atoms

0.0% CPU use with 1 MPI tasks x no OpenMP threads

Minimization stats:
  Stopping criterion = force tolerance
  Energy initial, next-to-last, final = 
         476.770086997      476.770086997      476.770086997
  Force two-norm initial, final = 1.34307e-12 1.11404e-13
  Force max component initial, final = 4.40536e-13 5.68434e-14
  Final line search alpha, max atom move = 1 5.68434e-14
  Iterations, force evaluations = 1 2

MPI task timing breakdown:
Section |  min time  |  avg time  |  max time  |%varavg| %total
---------------------------------------------------------------
Pair    | 2.0027e-05 | 2.0027e-05 | 2.0027e-05 |   0.0 | 46.67
Neigh   | 0          | 0          | 0          |   0.0 |  0.00
Comm    | 4.7684e-06 | 4.7684e-06 | 4.7684e-06 |   0.0 | 11.11
Output  | 0          | 0          | 0          |   0.0 |  0.00
Modify  | 0          | 0          | 0          |   0.0 |  0.00
Other   |            | 1.812e-05  |            |       | 42.22

Nlocal:    4 ave 4 max 4 min
Histogram: 1 0 0 0 0 0 0 0 0 0
Nghost:    168 ave 168 max 168 min
Histogram: 1 0 0 0 0 0 0 0 0 0
Neighs:    84 ave 84 max 84 min
Histogram: 1 0 0 0 0 0 0 0 0 0

Total # of neighbors = 84
Ave neighs/atom = 21
Neighbor list builds = 0
Dangerous builds = 0
Reading restart file ...
  restart file = 11 Aug 2017, LAMMPS = 11 Aug 2017
  triclinic box = (-0.0176 -0.0176 -0.0176) to (3.5376 3.5376 3.5376) with tilt (0 0 0)
  1 by 1 by 1 MPI processor grid
  4 atoms
4 atoms in group Ni
Changing box ...
  triclinic box = (-0.0176 -0.0176 -0.0176) to (3.5376 3.5376 3.5376) with tilt (0 3.5552e-06 0)
Neighbor list info ...
  update every 1 steps, delay 0 steps, check yes
  max neighbors/atom: 2000, page size: 100000
  master list distance cutoff = 4.916
  ghost atom cutoff = 4.916
  binsize = 2.458, bins = 2 2 2
  1 neighbor lists, perpetual/occasional/extra = 1 0 0
  (1) pair eam/alloy, perpetual
      attributes: half, newton on
      pair build: half/bin/newton/tri
      stencil: half/bin/3d/newton/tri
      bin: standard
Setting up cg style minimization ...
  Unit style    : metal
  Current step  : 100
Per MPI rank memory allocation (min/avg/max) = 4.085 | 4.085 | 4.085 Mbytes
Step Temp PotEng Press Pxx Pyy Pzz Pxy Pxz Pyz Lx Ly Lz Volume 
     100            0    476.77009     41033399     41033399     41033399     41033399 -2.0267419e-09   -33.666646 2.0267419e-09       3.5552       3.5552       3.5552    44.935762 
     101            0    476.77009     41033399     41033399     41033399     41033399 -5.0668546e-10   -33.666646            0       3.5552       3.5552       3.5552    44.935762 
Loop time of 4.19617e-05 on 1 procs for 1 steps with 4 atoms

0.0% CPU use with 1 MPI tasks x no OpenMP threads

Minimization stats:
  Stopping criterion = force tolerance
  Energy initial, next-to-last, final = 
         476.770086997      476.770086997      476.770086997
  Force two-norm initial, final = 1.38709e-12 1.17577e-13
  Force max component initial, final = 4.40536e-13 5.68434e-14
  Final line search alpha, max atom move = 1 5.68434e-14
  Iterations, force evaluations = 1 2

MPI task timing breakdown:
Section |  min time  |  avg time  |  max time  |%varavg| %total
---------------------------------------------------------------
Pair    | 2.0981e-05 | 2.0981e-05 | 2.0981e-05 |   0.0 | 50.00
Neigh   | 0          | 0          | 0          |   0.0 |  0.00
Comm    | 4.2915e-06 | 4.2915e-06 | 4.2915e-06 |   0.0 | 10.23
Output  | 0          | 0          | 0          |   0.0 |  0.00
Modify  | 0          | 0          | 0          |   0.0 |  0.00
Other   |            | 1.669e-05  |            |       | 39.77

Nlocal:    4 ave 4 max 4 min
Histogram: 1 0 0 0 0 0 0 0 0 0
Nghost:    168 ave 168 max 168 min
Histogram: 1 0 0 0 0 0 0 0 0 0
Neighs:    84 ave 84 max 84 min
Histogram: 1 0 0 0 0 0 0 0 0 0

Total # of neighbors = 84
Ave neighs/atom = 21
Neighbor list builds = 0
Dangerous builds = 0
Reading restart file ...
  restart file = 11 Aug 2017, LAMMPS = 11 Aug 2017
  triclinic box = (-0.0176 -0.0176 -0.0176) to (3.5376 3.5376 3.5376) with tilt (0 0 0)
  1 by 1 by 1 MPI processor grid
  4 atoms
4 atoms in group Ni
Changing box ...
  triclinic box = (-0.0176 -0.0176 -0.0176) to (3.5376 3.5376 3.5376) with tilt (-3.5552e-06 0 0)
Neighbor list info ...
  update every 1 steps, delay 0 steps, check yes
  max neighbors/atom: 2000, page size: 100000
  master list distance cutoff = 4.916
  ghost atom cutoff = 4.916
  binsize = 2.458, bins = 2 2 2
  1 neighbor lists, perpetual/occasional/extra = 1 0 0
  (1) pair eam/alloy, perpetual
      attributes: half, newton on
      pair build: half/bin/newton/tri
      stencil: half/bin/3d/newton/tri
      bin: standard
Setting up cg style minimization ...
  Unit style    : metal
  Current step  : 100
Per MPI rank memory allocation (min/avg/max) = 4.085 | 4.085 | 4.085 Mbytes
Step Temp PotEng Press Pxx Pyy Pzz Pxy Pxz Pyz Lx Ly Lz Volume 
     100            0    476.77009     41033399     41033399     41033399     41033399    33.666646 1.0133709e-09 2.5334273e-09       3.5552       3.5552       3.5552    44.935762 
     101            0    476.77009     41033399     41033399     41033399     41033399    33.666646 2.5334273e-09            0       3.5552       3.5552       3.5552    44.935762 
Loop time of 4.1008e-05 on 1 procs for 1 steps with 4 atoms

0.0% CPU use with 1 MPI tasks x no OpenMP threads

Minimization stats:
  Stopping criterion = force tolerance
  Energy initial, next-to-last, final = 
         476.770086997      476.770086997      476.770086997
  Force two-norm initial, final = 1.3117e-12 3.94465e-14
  Force max component initial, final = 4.12115e-13 2.13163e-14
  Final line search alpha, max atom move = 1 2.13163e-14
  Iterations, force evaluations = 1 2

MPI task timing breakdown:
Section |  min time  |  avg time  |  max time  |%varavg| %total
---------------------------------------------------------------
Pair    | 1.9073e-05 | 1.9073e-05 | 1.9073e-05 |   0.0 | 46.51
Neigh   | 0          | 0          | 0          |   0.0 |  0.00
Comm    | 4.7684e-06 | 4.7684e-06 | 4.7684e-06 |   0.0 | 11.63
Output  | 0          | 0          | 0          |   0.0 |  0.00
Modify  | 0          | 0          | 0          |   0.0 |  0.00
Other   |            | 1.717e-05  |            |       | 41.86

Nlocal:    4 ave 4 max 4 min
Histogram: 1 0 0 0 0 0 0 0 0 0
Nghost:    168 ave 168 max 168 min
Histogram: 1 0 0 0 0 0 0 0 0 0
Neighs:    84 ave 84 max 84 min
Histogram: 1 0 0 0 0 0 0 0 0 0

Total # of neighbors = 84
Ave neighs/atom = 21
Neighbor list builds = 0
Dangerous builds = 0
Reading restart file ...
  restart file = 11 Aug 2017, LAMMPS = 11 Aug 2017
  triclinic box = (-0.0176 -0.0176 -0.0176) to (3.5376 3.5376 3.5376) with tilt (0 0 0)
  1 by 1 by 1 MPI processor grid
  4 atoms
4 atoms in group Ni
Changing box ...
  triclinic box = (-0.0176 -0.0176 -0.0176) to (3.5376 3.5376 3.5376) with tilt (3.5552e-06 0 0)
Neighbor list info ...
  update every 1 steps, delay 0 steps, check yes
  max neighbors/atom: 2000, page size: 100000
  master list distance cutoff = 4.916
  ghost atom cutoff = 4.916
  binsize = 2.458, bins = 2 2 2
  1 neighbor lists, perpetual/occasional/extra = 1 0 0
  (1) pair eam/alloy, perpetual
      attributes: half, newton on
      pair build: half/bin/newton/tri
      stencil: half/bin/3d/newton/tri
      bin: standard
Setting up cg style minimization ...
  Unit style    : metal
  Current step  : 100
Per MPI rank memory allocation (min/avg/max) = 4.085 | 4.085 | 4.085 Mbytes
Step Temp PotEng Press Pxx Pyy Pzz Pxy Pxz Pyz Lx Ly Lz Volume 
     100            0    476.77009     41033399     41033399     41033399     41033399   -33.666646            0 2.5334273e-09       3.5552       3.5552       3.5552    44.935762 
     101            0    476.77009     41033399     41033399     41033399     41033399   -33.666646 -5.0668546e-09 1.0133709e-09       3.5552       3.5552       3.5552    44.935762 
Loop time of 4.3869e-05 on 1 procs for 1 steps with 4 atoms

0.0% CPU use with 1 MPI tasks x no OpenMP threads

Minimization stats:
  Stopping criterion = force tolerance
  Energy initial, next-to-last, final = 
         476.770086997      476.770086997      476.770086997
  Force two-norm initial, final = 1.40159e-12 1.97943e-13
  Force max component initial, final = 4.40536e-13 1.16795e-13
  Final line search alpha, max atom move = 1 1.16795e-13
  Iterations, force evaluations = 1 2

MPI task timing breakdown:
Section |  min time  |  avg time  |  max time  |%varavg| %total
---------------------------------------------------------------
Pair    | 1.9073e-05 | 1.9073e-05 | 1.9073e-05 |   0.0 | 43.48
Neigh   | 0          | 0          | 0          |   0.0 |  0.00
Comm    | 5.9605e-06 | 5.9605e-06 | 5.9605e-06 |   0.0 | 13.59
Output  | 0          | 0          | 0          |   0.0 |  0.00
Modify  | 0          | 0          | 0          |   0.0 |  0.00
Other   |            | 1.884e-05  |            |       | 42.93

Nlocal:    4 ave 4 max 4 min
Histogram: 1 0 0 0 0 0 0 0 0 0
Nghost:    168 ave 168 max 168 min
Histogram: 1 0 0 0 0 0 0 0 0 0
Neighs:    84 ave 84 max 84 min
Histogram: 1 0 0 0 0 0 0 0 0 0

Total # of neighbors = 84
Ave neighs/atom = 21
Neighbor list builds = 0
Dangerous builds = 0
c11 = 12838.0743701011 GPa
c22 = 12838.0743701011 GPa
c33 = 12838.0743701011 GPa
c12 = 11573.4668875113 GPa
c13 = 11573.4668875113 GPa
c23 = 11573.4668850898 GPa
c44 = 3366.66464705164 GPa
c55 = 3366.66464700097 GPa
c66 = 3366.66464684898 GPa
c14 = 1.2667123928071e-08 GPa
c15 = -2.53343238589617e-08 GPa
c16 = 1.01336940756022e-07 GPa
c24 = 1.26670479252515e-08 GPa
c25 = 1.1400411535264e-07 GPa
c26 = 1.01336966090295e-07 GPa
c34 = 1.26670732595247e-08 GPa
c35 = 1.01336915421749e-07 GPa
c36 = 8.86698168279515e-08 GPa
c45 = -1.5200563914234e-07 GPa
c46 = 6.3335682975975e-08 GPa
c56 = 2.15341322118315e-07 GPa
lammps_sim_done
Total wall time: 0:00:00
