LAMMPS (11 Aug 2017)
# ---- initialize simulations
clear
units metal
dimension 3
boundary p p p
atom_style atomic
atom_modify map array
# ---- create atoms
read_data /ufrc/phillpot/eragasa/pareto_optimization_3.5NN/rank_37/Ni_fcc_vac.lmps_min_pos/lammps.structure
  triclinic box = (0 0 0) to (11.3351 11.3351 11.3351) with tilt (0 -0 -0)
  1 by 1 by 1 MPI processor grid
  reading atoms ...
  107 atoms
# ---- define interatomic potential
include potential.mod
mass 1 58.6934

group Ni type 1
107 atoms in group Ni

pair_style eam/alloy
pair_coeff * * /ufrc/phillpot/eragasa/pareto_optimization_3.5NN/rank_37/Ni_fcc_vac.lmps_min_pos/Ni.eam.alloy Ni

neighbor 1.0 bin
neigh_modify every 1 delay 0 check yes
# ---- define settings
compute eng all pe/atom
compute eatoms all reduce sum c_eng

# ---- run minimization
reset_timestep 0
thermo 1
thermo_style custom step pe lx ly lz xy xz yz press pxx pyy pzz pxy pxz pyz c_eatoms
min_style cg
minimize 1e-20 1e-20 1000 100000
Neighbor list info ...
  update every 1 steps, delay 0 steps, check yes
  max neighbors/atom: 2000, page size: 100000
  master list distance cutoff = 5.64464
  ghost atom cutoff = 5.64464
  binsize = 2.82232, bins = 5 5 5
  1 neighbor lists, perpetual/occasional/extra = 1 0 0
  (1) pair eam/alloy, perpetual
      attributes: half, newton on
      pair build: half/bin/newton/tri
      stencil: half/bin/3d/newton/tri
      bin: standard
Per MPI rank memory allocation (min/avg/max) = 4.205 | 4.205 | 4.205 Mbytes
Step PotEng Lx Ly Lz Xy Xz Yz Press Pxx Pyy Pzz Pxy Pxz Pyz c_eatoms 
       0   -124.01311      11.3351      11.3351      11.3351            0           -0           -0   -542.59143   -542.59143   -542.59143   -542.59143 -1.0249797e-07 -1.0249724e-07 -1.0249769e-07   -124.01311 
       1   -124.01723      11.3351      11.3351      11.3351            0           -0           -0   -666.96901   -666.96901   -666.96901   -666.96901 -2.3434459e-05 -2.3434456e-05 -2.3434458e-05   -124.01723 
       2   -124.01812      11.3351      11.3351      11.3351            0           -0           -0    -686.3094    -686.3094    -686.3094    -686.3094 -1.4855334e-05 -1.4855336e-05 -1.4855333e-05   -124.01812 
       3   -124.01825      11.3351      11.3351      11.3351            0           -0           -0   -690.06079   -690.06079   -690.06079   -690.06079 -3.690623e-05 -3.6906236e-05 -3.6906237e-05   -124.01825 
       4   -124.01827      11.3351      11.3351      11.3351            0           -0           -0   -693.40156   -693.40156   -693.40156   -693.40156 -1.9628668e-06 -1.9628714e-06 -1.9628667e-06   -124.01827 
       5   -124.01827      11.3351      11.3351      11.3351            0           -0           -0   -693.24058   -693.24058   -693.24058   -693.24058 -3.0717584e-06 -3.0717602e-06 -3.0717577e-06   -124.01827 
       6   -124.01827      11.3351      11.3351      11.3351            0           -0           -0   -693.09465   -693.09465   -693.09465   -693.09465 -6.9182373e-07 -6.9182934e-07 -6.9182251e-07   -124.01827 
       7   -124.01827      11.3351      11.3351      11.3351            0           -0           -0    -693.1201    -693.1201    -693.1201    -693.1201 -3.4906584e-07 -3.4907055e-07 -3.4906381e-07   -124.01827 
       8   -124.01827      11.3351      11.3351      11.3351            0           -0           -0   -693.09876   -693.09876   -693.09876   -693.09876 -2.2795656e-07 -2.2795346e-07 -2.2794722e-07   -124.01827 
       9   -124.01827      11.3351      11.3351      11.3351            0           -0           -0   -693.03908   -693.03908   -693.03908   -693.03908 -3.346255e-07 -3.3463168e-07 -3.3462969e-07   -124.01827 
      10   -124.01827      11.3351      11.3351      11.3351            0           -0           -0   -693.04109   -693.04109   -693.04109   -693.04109 -5.8133635e-08 -5.8133884e-08 -5.8141363e-08   -124.01827 
      11   -124.01827      11.3351      11.3351      11.3351            0           -0           -0   -693.03968   -693.03968   -693.03968   -693.03968 -1.945085e-07 -1.945176e-07 -1.9452062e-07   -124.01827 
      12   -124.01827      11.3351      11.3351      11.3351            0           -0           -0   -693.03996   -693.03996   -693.03996   -693.03996 -9.3004611e-08 -9.3009358e-08 -9.3016959e-08   -124.01827 
      13   -124.01827      11.3351      11.3351      11.3351            0           -0           -0   -693.04019   -693.04019   -693.04019   -693.04019 -5.8924699e-08 -5.8929185e-08 -5.8925044e-08   -124.01827 
      14   -124.01827      11.3351      11.3351      11.3351            0           -0           -0   -693.04024   -693.04024   -693.04024   -693.04024 -4.8156057e-08 -4.8161466e-08 -4.8156239e-08   -124.01827 
      15   -124.01827      11.3351      11.3351      11.3351            0           -0           -0   -693.04036   -693.04036   -693.04036   -693.04036 -1.7297418e-08 -1.7297465e-08 -1.729684e-08   -124.01827 
      16   -124.01827      11.3351      11.3351      11.3351            0           -0           -0   -693.04042   -693.04042   -693.04042   -693.04042 -1.0671035e-08 -1.0676608e-08 -1.0669247e-08   -124.01827 
      17   -124.01827      11.3351      11.3351      11.3351            0           -0           -0   -693.04037   -693.04037   -693.04037   -693.04037 -3.4936206e-09 -3.4884866e-09 -3.4865844e-09   -124.01827 
      18   -124.01827      11.3351      11.3351      11.3351            0           -0           -0   -693.04034   -693.04034   -693.04034   -693.04034 6.4778973e-09 6.477539e-09 6.4806826e-09   -124.01827 
      19   -124.01827      11.3351      11.3351      11.3351            0           -0           -0   -693.04033   -693.04033   -693.04033   -693.04033 2.3245206e-09 2.3280974e-09 2.3261623e-09   -124.01827 
      20   -124.01827      11.3351      11.3351      11.3351            0           -0           -0   -693.04033   -693.04033   -693.04033   -693.04033 3.176355e-09 3.1731928e-09 3.1818383e-09   -124.01827 
      21   -124.01827      11.3351      11.3351      11.3351            0           -0           -0   -693.04034   -693.04034   -693.04034   -693.04034 8.6836858e-10 8.6327654e-10 8.6806085e-10   -124.01827 
      22   -124.01827      11.3351      11.3351      11.3351            0           -0           -0   -693.04034   -693.04034   -693.04034   -693.04034 1.273087e-09  1.27141e-09 1.2744362e-09   -124.01827 
      23   -124.01827      11.3351      11.3351      11.3351            0           -0           -0   -693.04034   -693.04034   -693.04034   -693.04034 4.7896058e-10 4.8478113e-10 4.8461844e-10   -124.01827 
      24   -124.01827      11.3351      11.3351      11.3351            0           -0           -0   -693.04034   -693.04034   -693.04034   -693.04034 2.9743608e-10 2.9114463e-10 3.0217458e-10   -124.01827 
      25   -124.01827      11.3351      11.3351      11.3351            0           -0           -0   -693.04034   -693.04034   -693.04034   -693.04034 2.4590174e-10 2.4812978e-10 2.4572522e-10   -124.01827 
      26   -124.01827      11.3351      11.3351      11.3351            0           -0           -0   -693.04034   -693.04034   -693.04034   -693.04034 1.1863913e-10 1.1717445e-10 1.2265245e-10   -124.01827 
      27   -124.01827      11.3351      11.3351      11.3351            0           -0           -0   -693.04034   -693.04034   -693.04034   -693.04034 6.665728e-11 6.8492663e-11 7.0533197e-11   -124.01827 
      28   -124.01827      11.3351      11.3351      11.3351            0           -0           -0   -693.04034   -693.04034   -693.04034   -693.04034 6.7187332e-11 6.5629141e-11 7.0590926e-11   -124.01827 
      29   -124.01827      11.3351      11.3351      11.3351            0           -0           -0   -693.04034   -693.04034   -693.04034   -693.04034 9.0461918e-12 8.6702412e-12 6.3129165e-12   -124.01827 
      30   -124.01827      11.3351      11.3351      11.3351            0           -0           -0   -693.04034   -693.04034   -693.04034   -693.04034 2.7681509e-11 2.7599926e-11 3.0735392e-11   -124.01827 
      31   -124.01827      11.3351      11.3351      11.3351            0           -0           -0   -693.04034   -693.04034   -693.04034   -693.04034 1.0151143e-11 1.1334338e-11 1.3055218e-11   -124.01827 
      32   -124.01827      11.3351      11.3351      11.3351            0           -0           -0   -693.04034   -693.04034   -693.04034   -693.04034 2.9866126e-12 7.0304669e-12 8.946479e-12   -124.01827 
      33   -124.01827      11.3351      11.3351      11.3351            0           -0           -0   -693.04034   -693.04034   -693.04034   -693.04034 1.3042814e-11 1.1040925e-11 1.0830049e-11   -124.01827 
      34   -124.01827      11.3351      11.3351      11.3351            0           -0           -0   -693.04034   -693.04034   -693.04034   -693.04034 6.5734102e-12  7.33867e-12 8.346771e-12   -124.01827 
      35   -124.01827      11.3351      11.3351      11.3351            0           -0           -0   -693.04034   -693.04034   -693.04034   -693.04034 -4.677436e-12 -3.5782099e-13  9.82815e-13   -124.01827 
      36   -124.01827      11.3351      11.3351      11.3351            0           -0           -0   -693.04034   -693.04034   -693.04034   -693.04034 9.0929471e-12 2.9818416e-12 1.1660193e-12   -124.01827 
      37   -124.01827      11.3351      11.3351      11.3351            0           -0           -0   -693.04034   -693.04034   -693.04034   -693.04034 2.837759e-12 8.6544971e-13 6.0452664e-12   -124.01827 
Loop time of 0.0549181 on 1 procs for 37 steps with 107 atoms

24.9% CPU use with 1 MPI tasks x no OpenMP threads

Minimization stats:
  Stopping criterion = energy tolerance
  Energy initial, next-to-last, final = 
        -124.013110126      -124.01827373      -124.01827373
  Force two-norm initial, final = 0.128815 2.3574e-14
  Force max component initial, final = 0.0261811 3.5937e-15
  Final line search alpha, max atom move = 1 3.5937e-15
  Iterations, force evaluations = 37 74

MPI task timing breakdown:
Section |  min time  |  avg time  |  max time  |%varavg| %total
---------------------------------------------------------------
Pair    | 0.012887   | 0.012887   | 0.012887   |   0.0 | 23.47
Neigh   | 0          | 0          | 0          |   0.0 |  0.00
Comm    | 0.00020361 | 0.00020361 | 0.00020361 |   0.0 |  0.37
Output  | 0.041594   | 0.041594   | 0.041594   |   0.0 | 75.74
Modify  | 0          | 0          | 0          |   0.0 |  0.00
Other   |            | 0.0002327  |            |       |  0.42

Nlocal:    107 ave 107 max 107 min
Histogram: 1 0 0 0 0 0 0 0 0 0
Nghost:    551 ave 551 max 551 min
Histogram: 1 0 0 0 0 0 0 0 0 0
Neighs:    2862 ave 2862 max 2862 min
Histogram: 1 0 0 0 0 0 0 0 0 0

Total # of neighbors = 2862
Ave neighs/atom = 26.7477
Neighbor list builds = 0
Dangerous builds = 0

# ---- define output variables ----
variable natoms equal "count(all)"
variable tot_energy equal "c_eatoms"
variable a11 equal "xhi-xlo"
variable a22 equal "yhi-ylo"
variable a33 equal "zhi-zlo"
variable tilt_xy equal "xy"
variable tilt_xz equal "xz"
variable tilt_yz equal "yz"
variable tot_press equal "press"
variable press_xx equal "pxx"
variable press_yy equal "pyy"
variable press_zz equal "pzz"
variable press_xy equal "pxy"
variable press_xz equal "pxz"
variable press_yz equal "pyz"

# ---- output ----
print "pypospack:output_section:begin"
pypospack:output_section:begin
print "tot_energy = ${tot_energy}"
tot_energy = -124.018273730173
print "num_atoms = ${natoms}"
num_atoms = 107
print "a11 = ${a11}"
a11 = 11.3351
print "a22 = ${a22}"
a22 = 11.3351
print "a33 = ${a33}"
a33 = 11.3351
print "a12 = ${tilt_xy}"
a12 = 0
print "a13 = ${tilt_xz}"
a13 = -0
print "a23 = ${tilt_yz}"
a23 = -0
print "tot_press = ${tot_press}"
tot_press = -693.04033586928
print "pxx = ${press_xx}"
pxx = -693.040335869275
print "pyy = ${press_yy}"
pyy = -693.040335869279
print "pzz = ${press_zz}"
pzz = -693.040335869287
print "pxy = ${press_xy}"
pxy = 2.83775902849756e-12
print "pxz = ${press_xz}"
pxz = 8.65449710439571e-13
print "pyz = ${press_yz}"
pyz = 6.04526641729868e-12
print "pypospack:output_section:done"
pypospack:output_section:done
print "pypospack:lammps_sim:done"
pypospack:lammps_sim:done
Total wall time: 0:00:00
