# ['O', 'Mg']

8 atoms
2 atom types

    0.0000     1.0000 xlo xhi
    0.0000     1.0000 ylo yhi
    0.0000     1.0000 zlo zhi

    0.0000     0.0000     0.0000 xy xz yz

Atoms

1 1     1.0000     0.0000     0.5000     0.0000
2 1     1.0000     0.5000     0.0000     0.0000
3 1     1.0000     0.5000     0.5000     0.5000
4 1     1.0000     0.0000     0.0000     0.5000
5 2     1.0000     0.5000     0.5000     0.0000
6 2     1.0000     0.5000     0.0000     0.5000
7 2     1.0000     0.0000     0.0000     0.0000
8 2     1.0000     0.0000     0.5000     0.5000
