    2    2    1    2
  0.1090254E+02  0.2793739E-09  0.2793739E-09  0.2793739E-09  0.5000000E-15
  1.000000000000000E-004
  CAR 
 automatically generated by pyflamestk   
     20      4     16
 
  0.1250000E+00  0.1250000E+00  0.1250000E+00  0.1250000E+00
    1        1.288252      1.288265   1.000000   1.000000
    2        5.555644      5.555814   1.000000   1.000000
    3        5.555644      5.555814   1.000000   1.000000
    4        7.062689      7.062658   1.000000   1.000000
    5        7.062689      7.062658   1.000000   1.000000
    6        7.744607      7.744572   1.000000   1.000000
    7        8.223984      8.223948   1.000000   1.000000
    8        8.525096      8.525316   1.000317   1.000318
    9        8.525096      8.525316   1.000317   1.000318
   10        9.099228      9.099193   0.416373   0.416518
   11        9.099228      9.099193   0.416373   0.416518
   12       17.560883     17.560916   0.000000   0.000000
   13       17.560883     17.560916   0.000000   0.000000
   14       18.568693     18.568712   0.000000   0.000000
   15       27.806283     27.806302   0.000000   0.000000
   16       27.806283     27.806302   0.000000   0.000000
 
  0.3750000E+00  0.1250000E+00  0.1250000E+00  0.3750000E+00
    1        3.485267      3.485285   1.000000   1.000000
    2        5.644725      5.644822   1.000000   1.000000
    3        6.250636      6.250790   1.000000   1.000000
    4        6.875207      6.875237   1.000000   1.000000
    5        6.964384      6.964349   1.000000   1.000000
    6        7.316599      7.316588   1.000000   1.000000
    7        8.058016      8.058162   1.000000   1.000000
    8        8.180677      8.180679   1.000000   1.000000
    9        8.514849      8.514836   1.000243   1.000243
   10        8.946687      8.946883   0.946420   0.946041
   11        8.984533      8.984521   0.855553   0.855588
   12       11.612025     11.612106  -0.000000  -0.000000
   13       20.697065     20.697090   0.000000   0.000000
   14       21.198620     21.198644   0.000000   0.000000
   15       25.296498     25.296514   0.000000   0.000000
   16       26.077750     26.077778   0.000000   0.000000
 
  0.3750000E+00  0.3750000E+00  0.1250000E+00  0.3750000E+00
    1        4.679272      4.679289   1.000000   1.000000
    2        5.340270      5.340313   1.000000   1.000000
    3        6.388920      6.388887   1.000000   1.000000
    4        6.531685      6.531660   1.000000   1.000000
    5        7.215190      7.215313   1.000000   1.000000
    6        7.332855      7.332865   1.000000   1.000000
    7        8.372725      8.372843   1.000003   1.000003
    8        8.512375      8.512529   1.000228   1.000229
    9        8.716227      8.716450   1.013837   1.013879
   10        9.149964      9.149994   0.220873   0.220772
   11        9.786594      9.786568  -0.000003  -0.000003
   12       12.173969     12.174010  -0.000000  -0.000000
   13       16.048874     16.048902   0.000000   0.000000
   14       19.234775     19.234799   0.000000   0.000000
   15       23.119871     23.119897   0.000000   0.000000
   16       26.878672     26.878691   0.000000   0.000000
 
  0.3750000E+00  0.3750000E+00  0.3750000E+00  0.1250000E+00
    1        5.919066      5.919034   1.000000   1.000000
    2        6.067849      6.067834   1.000000   1.000000
    3        6.244072      6.244052   1.000000   1.000000
    4        6.244072      6.244052   1.000000   1.000000
    5        6.527530      6.527544   1.000000   1.000000
    6        6.527530      6.527544   1.000000   1.000000
    7        8.714212      8.714422   1.013462   1.013501
    8        8.714212      8.714422   1.013462   1.013501
    9        8.718710      8.718881   1.014308   1.014340
   10        8.718710      8.718881   1.014308   1.014340
   11       12.184798     12.184788  -0.000000  -0.000000
   12       15.791188     15.791202   0.000000   0.000000
   13       15.791188     15.791202   0.000000   0.000000
   14       18.029806     18.029836   0.000000   0.000000
   15       20.794720     20.794734   0.000000   0.000000
   16       20.794720     20.794734   0.000000   0.000000
