# ['Ni']

10 atoms
1 atom types

    0.0000     3.0431 xlo xhi
    0.0000     2.1784 ylo yhi
    0.0000    21.7836 zlo zhi

    0.0000     0.0000     0.0000 xy xz yz

Atoms

1 1     0.0000     0.0000     0.0000
2 1     1.5215     1.0892     1.0892
3 1     0.0000     0.0000     2.1784
4 1     1.5215     1.0892     3.2675
5 1     0.0000     0.0000     4.3567
6 1     1.5215     1.0892     5.4459
7 1     0.0000     0.0000     6.5351
8 1     1.5215     1.0892     7.6243
9 1     0.0000     0.0000     8.7134
10 1     1.5215     1.0892     9.8026
