# ['Ni']

28 atoms
1 atom types

    0.0000     2.4888 xlo xhi
    0.0000     4.3107 ylo yhi
    0.0000    28.4491 zlo zhi

    0.0000     0.0000     0.0000 xy xz yz

Atoms

1 1     0.0000     0.0000     0.0000
2 1     1.2444     2.1553     0.0000
3 1     1.2444     0.7184     2.0321
4 1     0.0000     2.8738     2.0321
5 1     0.0000     1.4369     4.0641
6 1     1.2444     3.5922     4.0641
7 1     0.0000     0.0000     6.0962
8 1     1.2444     2.1553     6.0962
9 1     1.2444     0.7184     8.1283
10 1     0.0000     2.8738     8.1283
11 1     0.0000     1.4369    10.1604
12 1     1.2444     3.5922    10.1604
13 1     0.0000     0.0000    12.1924
14 1     1.2444     2.1553    12.1924
15 1     0.0000     1.4369    14.2245
16 1     1.2444     3.5922    14.2245
17 1     0.0000     0.0000    16.2566
18 1     1.2444     2.1553    16.2566
19 1     1.2444     0.7184    18.2887
20 1     0.0000     2.8738    18.2887
21 1     0.0000     1.4369    20.3208
22 1     1.2444     3.5922    20.3208
23 1     0.0000     0.0000    22.3528
24 1     1.2444     2.1553    22.3528
25 1     1.2444     0.7184    24.3849
26 1     0.0000     2.8738    24.3849
27 1     0.0000     1.4369    26.4170
28 1     1.2444     3.5922    26.4170
