LAMMPS (10 Feb 2015)
Reading data file ...
  triclinic box = (0 0 0) to (4.2107 4.2107 4.2107) with tilt (0 0 0)
  1 by 1 by 1 MPI processor grid
  reading atoms ...
  8 atoms
4 atoms in group magnesium
4 atoms in group oxygen
Setting atom values ...
  4 settings made for charge
Setting atom values ...
  4 settings made for charge
PPPM initialization ...
  G vector (1/distance) = 0.355384
  grid = 8 8 8
  stencil order = 5
  estimated absolute RMS force accuracy = 5.21363e-05
  estimated relative force accuracy = 3.62066e-06
  using double precision FFTs
  3d grid and FFT values/proc = 3375 512
Neighbor list info ...
  1 neighbor list requests
  update every 1 steps, delay 0 steps, check yes
  master list distance cutoff = 11
Setting up minimization ...
Memory usage per processor = 3.78599 Mbytes
Step Temp PotEng Press Pxx Pyy Pzz Pxy Pxz Pyz Lx Ly Lz Volume 
       0            0   -162.17894   -12.784043   -12.784043   -12.784043   -12.784043 -1.3882206e-10 1.6652114e-10 3.147453e-10       4.2107       4.2107       4.2107    74.655688 
       1            0   -162.17895     29.62825     29.62825     29.62825     29.62825 9.1423687e-12 -2.5800176e-10 4.2059016e-10    4.2106714    4.2106714    4.2106714    74.654169 
       2            0   -162.17895   -1.5723119   -1.5723119   -1.5723119   -1.5723119 -8.7025092e-11 3.0267643e-11 -9.8167044e-11    4.2106923    4.2106923    4.2106923    74.655277 
       3            0   -162.17896    2.2261421    2.2261421    2.2261421    2.2261421 -6.0988878e-11 -2.8264575e-10 -2.8746359e-10    4.2106896    4.2106896    4.2106896    74.655137 
       4            0   -162.17896  -0.61451787  -0.61451787  -0.61451787  -0.61451787 1.5288254e-11 -3.8529393e-11 2.9406321e-10    4.2106915    4.2106915    4.2106915    74.655236 
       5            0   -162.17896  -0.61451787  -0.61451787  -0.61451787  -0.61451787 1.5288254e-11 -3.8529393e-11 2.9406321e-10    4.2106915    4.2106915    4.2106915    74.655236 
Loop time of 0.028903 on 1 procs for 5 steps with 8 atoms

Minimization stats:
  Stopping criterion = linesearch alpha is zero
  Energy initial, next-to-last, final = 
         -162.17893888     -162.178964477     -162.178964477
  Force two-norm initial, final = 0.00200918 6.62276e-05
  Force max component initial, final = 0.000595691 2.86342e-05
  Final line search alpha, max atom move = 0.5 1.43171e-05
  Iterations, force evaluations = 5 13

Pair  time (%) = 0.00978565 (33.8569)
Kspce time (%) = 0.00213504 (7.38691)
Neigh time (%) = 0 (0)
Comm  time (%) = 0.000402451 (1.39242)
Outpt time (%) = 5.00679e-05 (0.173227)
Other time (%) = 0.0165298 (57.1906)

Nlocal:    8 ave 8 max 8 min
Histogram: 1 0 0 0 0 0 0 0 0 0
Nghost:    2189 ave 2189 max 2189 min
Histogram: 1 0 0 0 0 0 0 0 0 0
Neighs:    2472 ave 2472 max 2472 min
Histogram: 1 0 0 0 0 0 0 0 0 0

Total # of neighbors = 2472
Ave neighs/atom = 309
Neighbor list builds = 0
Dangerous builds = 0
System init for write_restart ...
PPPM initialization ...
  G vector (1/distance) = 0.355384
  grid = 8 8 8
  stencil order = 5
  estimated absolute RMS force accuracy = 5.2136e-05
  estimated relative force accuracy = 3.62065e-06
  using double precision FFTs
  3d grid and FFT values/proc = 3375 512
Reading restart file ...
  restart file = 10 Feb 2015, LAMMPS = 10 Feb 2015
  triclinic box = (4.25071e-06 4.25071e-06 4.25071e-06) to (4.2107 4.2107 4.2107) with tilt (0 0 0)
  1 by 1 by 1 MPI processor grid
  8 atoms
4 atoms in group magnesium
4 atoms in group oxygen
Setting atom values ...
  4 settings made for charge
Setting atom values ...
  4 settings made for charge
Changing box ...
  triclinic box = (4.25071e-06 4.25071e-06 4.25071e-06) to (4.21069 4.2107 4.2107) with tilt (0 0 0)
PPPM initialization ...
  G vector (1/distance) = 0.355384
  grid = 8 8 8
  stencil order = 5
  estimated absolute RMS force accuracy = 5.2136e-05
  estimated relative force accuracy = 3.62065e-06
  using double precision FFTs
  3d grid and FFT values/proc = 3375 512
Neighbor list info ...
  1 neighbor list requests
  update every 1 steps, delay 0 steps, check yes
  master list distance cutoff = 11
Setting up minimization ...
Memory usage per processor = 3.77377 Mbytes
Step Temp PotEng Press Pxx Pyy Pzz Pxy Pxz Pyz Lx Ly Lz Volume 
       5            0   -162.17896    1.6130409    2.6305849    1.1042689    1.1042689 7.2023839e-10 4.0777514e-10 3.1498832e-10    4.2106873    4.2106915    4.2106915    74.655161 
       6            0   -162.17896    1.6130409    2.6305849    1.1042689    1.1042689 2.9928004e-10 2.3856332e-10 -6.9276094e-11    4.2106873    4.2106915    4.2106915    74.655161 
Loop time of 0.00107694 on 1 procs for 1 steps with 8 atoms

Minimization stats:
  Stopping criterion = linesearch alpha is zero
  Energy initial, next-to-last, final = 
        -162.178957862     -162.178957862     -162.178957862
  Force two-norm initial, final = 4.23762e-05 4.23762e-05
  Force max component initial, final = 1.22812e-05 1.22812e-05
  Final line search alpha, max atom move = 0.5 6.14062e-06
  Iterations, force evaluations = 1 3

Pair  time (%) = 0.000637531 (59.1986)
Kspce time (%) = 0.000349998 (32.4994)
Neigh time (%) = 0 (0)
Comm  time (%) = 6.4373e-05 (5.97742)
Outpt time (%) = 0 (0)
Other time (%) = 2.5034e-05 (2.32455)

Nlocal:    8 ave 8 max 8 min
Histogram: 1 0 0 0 0 0 0 0 0 0
Nghost:    2189 ave 2189 max 2189 min
Histogram: 1 0 0 0 0 0 0 0 0 0
Neighs:    2472 ave 2472 max 2472 min
Histogram: 1 0 0 0 0 0 0 0 0 0

Total # of neighbors = 2472
Ave neighs/atom = 309
Neighbor list builds = 0
Dangerous builds = 0
Reading restart file ...
  restart file = 10 Feb 2015, LAMMPS = 10 Feb 2015
  triclinic box = (4.25071e-06 4.25071e-06 4.25071e-06) to (4.2107 4.2107 4.2107) with tilt (0 0 0)
  1 by 1 by 1 MPI processor grid
  8 atoms
4 atoms in group magnesium
4 atoms in group oxygen
Setting atom values ...
  4 settings made for charge
Setting atom values ...
  4 settings made for charge
Changing box ...
  triclinic box = (4.25071e-06 4.25071e-06 4.25071e-06) to (4.2107 4.2107 4.2107) with tilt (0 0 0)
PPPM initialization ...
  G vector (1/distance) = 0.355384
  grid = 8 8 8
  stencil order = 5
  estimated absolute RMS force accuracy = 5.21361e-05
  estimated relative force accuracy = 3.62065e-06
  using double precision FFTs
  3d grid and FFT values/proc = 3375 512
Neighbor list info ...
  1 neighbor list requests
  update every 1 steps, delay 0 steps, check yes
  master list distance cutoff = 11
Setting up minimization ...
Memory usage per processor = 3.77377 Mbytes
Step Temp PotEng Press Pxx Pyy Pzz Pxy Pxz Pyz Lx Ly Lz Volume 
       5            0   -162.17895   -2.4858399   -3.1654895    -2.146015    -2.146015 1.574153e-10 -3.6226592e-10 -3.3064837e-10    4.2106957    4.2106915    4.2106915     74.65531 
       6            0   -162.17895   -2.4858399   -3.1654895    -2.146015    -2.146015 5.5748217e-11 -3.335891e-10 -2.681661e-10    4.2106957    4.2106915    4.2106915     74.65531 
Loop time of 0.00296903 on 1 procs for 1 steps with 8 atoms

Minimization stats:
  Stopping criterion = linesearch alpha is zero
  Energy initial, next-to-last, final = 
        -162.178953681     -162.178953681     -162.178953681
  Force two-norm initial, final = 4.33672e-05 4.33672e-05
  Force max component initial, final = 1.24967e-05 1.24967e-05
  Final line search alpha, max atom move = 0.5 6.24834e-06
  Iterations, force evaluations = 1 3

Pair  time (%) = 0.00195813 (65.952)
Kspce time (%) = 0.000369787 (12.4548)
Neigh time (%) = 0 (0)
Comm  time (%) = 7.20024e-05 (2.42512)
Outpt time (%) = 0 (0)
Other time (%) = 0.000569105 (19.1681)

Nlocal:    8 ave 8 max 8 min
Histogram: 1 0 0 0 0 0 0 0 0 0
Nghost:    2189 ave 2189 max 2189 min
Histogram: 1 0 0 0 0 0 0 0 0 0
Neighs:    2472 ave 2472 max 2472 min
Histogram: 1 0 0 0 0 0 0 0 0 0

Total # of neighbors = 2472
Ave neighs/atom = 309
Neighbor list builds = 0
Dangerous builds = 0
Reading restart file ...
  restart file = 10 Feb 2015, LAMMPS = 10 Feb 2015
  triclinic box = (4.25071e-06 4.25071e-06 4.25071e-06) to (4.2107 4.2107 4.2107) with tilt (0 0 0)
  1 by 1 by 1 MPI processor grid
  8 atoms
4 atoms in group magnesium
4 atoms in group oxygen
Setting atom values ...
  4 settings made for charge
Setting atom values ...
  4 settings made for charge
Changing box ...
  triclinic box = (4.25071e-06 4.25071e-06 4.25071e-06) to (4.2107 4.21069 4.2107) with tilt (0 0 0)
PPPM initialization ...
  G vector (1/distance) = 0.355384
  grid = 8 8 8
  stencil order = 5
  estimated absolute RMS force accuracy = 5.2136e-05
  estimated relative force accuracy = 3.62065e-06
  using double precision FFTs
  3d grid and FFT values/proc = 3375 512
Neighbor list info ...
  1 neighbor list requests
  update every 1 steps, delay 0 steps, check yes
  master list distance cutoff = 11
Setting up minimization ...
Memory usage per processor = 3.77377 Mbytes
Step Temp PotEng Press Pxx Pyy Pzz Pxy Pxz Pyz Lx Ly Lz Volume 
       5            0   -162.17896    1.6130409    1.1042689    2.6305849    1.1042689 -6.829046e-10 2.4663763e-10 2.2688194e-10    4.2106915    4.2106873    4.2106915    74.655161 
       6            0   -162.17896    1.6130409    1.1042689    2.6305849    1.1042689 -2.1046653e-10 5.441768e-10 5.2714389e-10    4.2106915    4.2106873    4.2106915    74.655161 
Loop time of 0.00108194 on 1 procs for 1 steps with 8 atoms

Minimization stats:
  Stopping criterion = linesearch alpha is zero
  Energy initial, next-to-last, final = 
        -162.178957862     -162.178957862     -162.178957862
  Force two-norm initial, final = 4.23762e-05 4.23762e-05
  Force max component initial, final = 1.22812e-05 1.22812e-05
  Final line search alpha, max atom move = 0.5 6.14062e-06
  Iterations, force evaluations = 1 3

Pair  time (%) = 0.00062871 (58.1093)
Kspce time (%) = 0.000355005 (32.8118)
Neigh time (%) = 0 (0)
Comm  time (%) = 6.60419e-05 (6.10401)
Outpt time (%) = 0 (0)
Other time (%) = 3.21865e-05 (2.97488)

Nlocal:    8 ave 8 max 8 min
Histogram: 1 0 0 0 0 0 0 0 0 0
Nghost:    2189 ave 2189 max 2189 min
Histogram: 1 0 0 0 0 0 0 0 0 0
Neighs:    2472 ave 2472 max 2472 min
Histogram: 1 0 0 0 0 0 0 0 0 0

Total # of neighbors = 2472
Ave neighs/atom = 309
Neighbor list builds = 0
Dangerous builds = 0
Reading restart file ...
  restart file = 10 Feb 2015, LAMMPS = 10 Feb 2015
  triclinic box = (4.25071e-06 4.25071e-06 4.25071e-06) to (4.2107 4.2107 4.2107) with tilt (0 0 0)
  1 by 1 by 1 MPI processor grid
  8 atoms
4 atoms in group magnesium
4 atoms in group oxygen
Setting atom values ...
  4 settings made for charge
Setting atom values ...
  4 settings made for charge
Changing box ...
  triclinic box = (4.25071e-06 4.25071e-06 4.25071e-06) to (4.2107 4.2107 4.2107) with tilt (0 0 0)
PPPM initialization ...
  G vector (1/distance) = 0.355384
  grid = 8 8 8
  stencil order = 5
  estimated absolute RMS force accuracy = 5.21361e-05
  estimated relative force accuracy = 3.62065e-06
  using double precision FFTs
  3d grid and FFT values/proc = 3375 512
Neighbor list info ...
  1 neighbor list requests
  update every 1 steps, delay 0 steps, check yes
  master list distance cutoff = 11
Setting up minimization ...
Memory usage per processor = 3.77377 Mbytes
Step Temp PotEng Press Pxx Pyy Pzz Pxy Pxz Pyz Lx Ly Lz Volume 
       5            0   -162.17895   -2.4858399    -2.146015   -3.1654895    -2.146015 -1.3666284e-09 -7.8047485e-11 -7.0735909e-11    4.2106915    4.2106957    4.2106915     74.65531 
       6            0   -162.17895   -2.4858399    -2.146015   -3.1654895    -2.146015 -1.3059624e-09 -1.9770575e-10 -1.4024687e-10    4.2106915    4.2106957    4.2106915     74.65531 
Loop time of 0.00320601 on 1 procs for 1 steps with 8 atoms

Minimization stats:
  Stopping criterion = linesearch alpha is zero
  Energy initial, next-to-last, final = 
        -162.178953681     -162.178953681     -162.178953681
  Force two-norm initial, final = 4.33672e-05 4.33672e-05
  Force max component initial, final = 1.24967e-05 1.24967e-05
  Final line search alpha, max atom move = 0.5 6.24834e-06
  Iterations, force evaluations = 1 3

Pair  time (%) = 0.00274158 (85.5135)
Kspce time (%) = 0.000361443 (11.2739)
Neigh time (%) = 0 (0)
Comm  time (%) = 7.03335e-05 (2.1938)
Outpt time (%) = 0 (0)
Other time (%) = 3.26633e-05 (1.01881)

Nlocal:    8 ave 8 max 8 min
Histogram: 1 0 0 0 0 0 0 0 0 0
Nghost:    2189 ave 2189 max 2189 min
Histogram: 1 0 0 0 0 0 0 0 0 0
Neighs:    2472 ave 2472 max 2472 min
Histogram: 1 0 0 0 0 0 0 0 0 0

Total # of neighbors = 2472
Ave neighs/atom = 309
Neighbor list builds = 0
Dangerous builds = 0
Reading restart file ...
  restart file = 10 Feb 2015, LAMMPS = 10 Feb 2015
  triclinic box = (4.25071e-06 4.25071e-06 4.25071e-06) to (4.2107 4.2107 4.2107) with tilt (0 0 0)
  1 by 1 by 1 MPI processor grid
  8 atoms
4 atoms in group magnesium
4 atoms in group oxygen
Setting atom values ...
  4 settings made for charge
Setting atom values ...
  4 settings made for charge
Changing box ...
  triclinic box = (4.25071e-06 4.25071e-06 4.25071e-06) to (4.2107 4.2107 4.21069) with tilt (0 0 0)
PPPM initialization ...
  G vector (1/distance) = 0.355384
  grid = 8 8 8
  stencil order = 5
  estimated absolute RMS force accuracy = 5.2136e-05
  estimated relative force accuracy = 3.62065e-06
  using double precision FFTs
  3d grid and FFT values/proc = 3375 512
Neighbor list info ...
  1 neighbor list requests
  update every 1 steps, delay 0 steps, check yes
  master list distance cutoff = 11
Setting up minimization ...
Memory usage per processor = 3.77377 Mbytes
Step Temp PotEng Press Pxx Pyy Pzz Pxy Pxz Pyz Lx Ly Lz Volume 
       5            0   -162.17896    1.6130409    1.1042689    1.1042689    2.6305849 -6.328302e-11 1.1376991e-09 1.0618714e-09    4.2106915    4.2106915    4.2106873    74.655161 
       6            0   -162.17896    1.6130409    1.1042689    1.1042689    2.6305849 -1.3940828e-10 1.1346249e-09 1.0757875e-09    4.2106915    4.2106915    4.2106873    74.655161 
Loop time of 0.00102711 on 1 procs for 1 steps with 8 atoms

Minimization stats:
  Stopping criterion = linesearch alpha is zero
  Energy initial, next-to-last, final = 
        -162.178957862     -162.178957862     -162.178957862
  Force two-norm initial, final = 4.23762e-05 4.23762e-05
  Force max component initial, final = 1.22812e-05 1.22812e-05
  Final line search alpha, max atom move = 0.5 6.14062e-06
  Iterations, force evaluations = 1 3

Pair  time (%) = 0.000599861 (58.403)
Kspce time (%) = 0.000339031 (33.0084)
Neigh time (%) = 0 (0)
Comm  time (%) = 6.24657e-05 (6.08171)
Outpt time (%) = 0 (0)
Other time (%) = 2.57492e-05 (2.50696)

Nlocal:    8 ave 8 max 8 min
Histogram: 1 0 0 0 0 0 0 0 0 0
Nghost:    2189 ave 2189 max 2189 min
Histogram: 1 0 0 0 0 0 0 0 0 0
Neighs:    2472 ave 2472 max 2472 min
Histogram: 1 0 0 0 0 0 0 0 0 0

Total # of neighbors = 2472
Ave neighs/atom = 309
Neighbor list builds = 0
Dangerous builds = 0
Reading restart file ...
  restart file = 10 Feb 2015, LAMMPS = 10 Feb 2015
  triclinic box = (4.25071e-06 4.25071e-06 4.25071e-06) to (4.2107 4.2107 4.2107) with tilt (0 0 0)
  1 by 1 by 1 MPI processor grid
  8 atoms
4 atoms in group magnesium
4 atoms in group oxygen
Setting atom values ...
  4 settings made for charge
Setting atom values ...
  4 settings made for charge
Changing box ...
  triclinic box = (4.25071e-06 4.25071e-06 4.25071e-06) to (4.2107 4.2107 4.2107) with tilt (0 0 0)
PPPM initialization ...
  G vector (1/distance) = 0.355384
  grid = 8 8 8
  stencil order = 5
  estimated absolute RMS force accuracy = 5.21361e-05
  estimated relative force accuracy = 3.62065e-06
  using double precision FFTs
  3d grid and FFT values/proc = 3375 512
Neighbor list info ...
  1 neighbor list requests
  update every 1 steps, delay 0 steps, check yes
  master list distance cutoff = 11
Setting up minimization ...
Memory usage per processor = 3.77377 Mbytes
Step Temp PotEng Press Pxx Pyy Pzz Pxy Pxz Pyz Lx Ly Lz Volume 
       5            0   -162.17895   -2.4858399    -2.146015    -2.146015   -3.1654895 1.1224218e-11 6.5499503e-10 7.5453808e-10    4.2106915    4.2106915    4.2106957     74.65531 
       6            0   -162.17895   -2.4858399    -2.146015    -2.146015   -3.1654895 6.5947913e-11 7.0876188e-10 6.954989e-10    4.2106915    4.2106915    4.2106957     74.65531 
Loop time of 0.00102806 on 1 procs for 1 steps with 8 atoms

Minimization stats:
  Stopping criterion = linesearch alpha is zero
  Energy initial, next-to-last, final = 
        -162.178953681     -162.178953681     -162.178953681
  Force two-norm initial, final = 4.33672e-05 4.33672e-05
  Force max component initial, final = 1.24967e-05 1.24967e-05
  Final line search alpha, max atom move = 0.5 6.24834e-06
  Iterations, force evaluations = 1 3

Pair  time (%) = 0.000593424 (57.7226)
Kspce time (%) = 0.000348806 (33.9286)
Neigh time (%) = 0 (0)
Comm  time (%) = 6.03199e-05 (5.86735)
Outpt time (%) = 0 (0)
Other time (%) = 2.55108e-05 (2.48145)

Nlocal:    8 ave 8 max 8 min
Histogram: 1 0 0 0 0 0 0 0 0 0
Nghost:    2189 ave 2189 max 2189 min
Histogram: 1 0 0 0 0 0 0 0 0 0
Neighs:    2472 ave 2472 max 2472 min
Histogram: 1 0 0 0 0 0 0 0 0 0

Total # of neighbors = 2472
Ave neighs/atom = 309
Neighbor list builds = 0
Dangerous builds = 0
Reading restart file ...
  restart file = 10 Feb 2015, LAMMPS = 10 Feb 2015
  triclinic box = (4.25071e-06 4.25071e-06 4.25071e-06) to (4.2107 4.2107 4.2107) with tilt (0 0 0)
  1 by 1 by 1 MPI processor grid
  8 atoms
4 atoms in group magnesium
4 atoms in group oxygen
Setting atom values ...
  4 settings made for charge
Setting atom values ...
  4 settings made for charge
Changing box ...
  triclinic box = (4.25071e-06 4.25071e-06 4.25071e-06) to (4.2107 4.2107 4.2107) with tilt (0 0 -4.21069e-06)
PPPM initialization ...
  G vector (1/distance) = 0.355384
  grid = 8 8 8
  stencil order = 5
  estimated absolute RMS force accuracy = 5.2136e-05
  estimated relative force accuracy = 3.62064e-06
  using double precision FFTs
  3d grid and FFT values/proc = 3375 512
Neighbor list info ...
  1 neighbor list requests
  update every 1 steps, delay 0 steps, check yes
  master list distance cutoff = 11
Setting up minimization ...
Memory usage per processor = 3.77377 Mbytes
Step Temp PotEng Press Pxx Pyy Pzz Pxy Pxz Pyz Lx Ly Lz Volume 
       5            0   -162.17896  -0.53239886  -0.55333287  -0.52193224  -0.52193147 3.0654401e-11 2.416165e-11    1.6302961    4.2106915    4.2106915    4.2106915    74.655236 
       6            0   -162.17896  -0.53239886  -0.55333287  -0.52193224  -0.52193147 -1.7690568e-10 2.8575062e-10    1.6302961    4.2106915    4.2106915    4.2106915    74.655236 
Loop time of 0.0011189 on 1 procs for 1 steps with 8 atoms

Minimization stats:
  Stopping criterion = linesearch alpha is zero
  Energy initial, next-to-last, final = 
        -162.178961994     -162.178961994     -162.178961994
  Force two-norm initial, final = 4.31451e-05 4.31451e-05
  Force max component initial, final = 1.27167e-05 1.27167e-05
  Final line search alpha, max atom move = 0.5 6.35837e-06
  Iterations, force evaluations = 1 3

Pair  time (%) = 0.000627041 (56.0409)
Kspce time (%) = 0.000364065 (32.5378)
Neigh time (%) = 0 (0)
Comm  time (%) = 6.41346e-05 (5.73194)
Outpt time (%) = 0 (0)
Other time (%) = 6.36578e-05 (5.68932)

Nlocal:    8 ave 8 max 8 min
Histogram: 1 0 0 0 0 0 0 0 0 0
Nghost:    2189 ave 2189 max 2189 min
Histogram: 1 0 0 0 0 0 0 0 0 0
Neighs:    2472 ave 2472 max 2472 min
Histogram: 1 0 0 0 0 0 0 0 0 0

Total # of neighbors = 2472
Ave neighs/atom = 309
Neighbor list builds = 0
Dangerous builds = 0
Reading restart file ...
  restart file = 10 Feb 2015, LAMMPS = 10 Feb 2015
  triclinic box = (4.25071e-06 4.25071e-06 4.25071e-06) to (4.2107 4.2107 4.2107) with tilt (0 0 0)
  1 by 1 by 1 MPI processor grid
  8 atoms
4 atoms in group magnesium
4 atoms in group oxygen
Setting atom values ...
  4 settings made for charge
Setting atom values ...
  4 settings made for charge
Changing box ...
  triclinic box = (4.25071e-06 4.25071e-06 4.25071e-06) to (4.2107 4.2107 4.2107) with tilt (0 0 4.21069e-06)
PPPM initialization ...
  G vector (1/distance) = 0.355384
  grid = 8 8 8
  stencil order = 5
  estimated absolute RMS force accuracy = 5.21361e-05
  estimated relative force accuracy = 3.62065e-06
  using double precision FFTs
  3d grid and FFT values/proc = 3375 512
Neighbor list info ...
  1 neighbor list requests
  update every 1 steps, delay 0 steps, check yes
  master list distance cutoff = 11
Setting up minimization ...
Memory usage per processor = 3.77377 Mbytes
Step Temp PotEng Press Pxx Pyy Pzz Pxy Pxz Pyz Lx Ly Lz Volume 
       5            0   -162.17896  -0.53244317  -0.55337718  -0.52197655  -0.52197577 2.1171733e-10 1.7325093e-10   -1.6302961    4.2106915    4.2106915    4.2106915    74.655236 
       6            0   -162.17896  -0.53244317  -0.55337718  -0.52197655  -0.52197577 1.3854768e-11 1.6054782e-10   -1.6302961    4.2106915    4.2106915    4.2106915    74.655236 
Loop time of 0.00115514 on 1 procs for 1 steps with 8 atoms

Minimization stats:
  Stopping criterion = linesearch alpha is zero
  Energy initial, next-to-last, final = 
        -162.178961995     -162.178961995     -162.178961995
  Force two-norm initial, final = 4.31451e-05 4.31451e-05
  Force max component initial, final = 1.27167e-05 1.27167e-05
  Final line search alpha, max atom move = 0.5 6.35837e-06
  Iterations, force evaluations = 1 3

Pair  time (%) = 0.000693798 (60.0619)
Kspce time (%) = 0.000361919 (31.3313)
Neigh time (%) = 0 (0)
Comm  time (%) = 6.98566e-05 (6.04747)
Outpt time (%) = 0 (0)
Other time (%) = 2.95639e-05 (2.55934)

Nlocal:    8 ave 8 max 8 min
Histogram: 1 0 0 0 0 0 0 0 0 0
Nghost:    2189 ave 2189 max 2189 min
Histogram: 1 0 0 0 0 0 0 0 0 0
Neighs:    2472 ave 2472 max 2472 min
Histogram: 1 0 0 0 0 0 0 0 0 0

Total # of neighbors = 2472
Ave neighs/atom = 309
Neighbor list builds = 0
Dangerous builds = 0
Reading restart file ...
  restart file = 10 Feb 2015, LAMMPS = 10 Feb 2015
  triclinic box = (4.25071e-06 4.25071e-06 4.25071e-06) to (4.2107 4.2107 4.2107) with tilt (0 0 0)
  1 by 1 by 1 MPI processor grid
  8 atoms
4 atoms in group magnesium
4 atoms in group oxygen
Setting atom values ...
  4 settings made for charge
Setting atom values ...
  4 settings made for charge
Changing box ...
  triclinic box = (4.25071e-06 4.25071e-06 4.25071e-06) to (4.2107 4.2107 4.2107) with tilt (0 -4.21069e-06 0)
PPPM initialization ...
  G vector (1/distance) = 0.355384
  grid = 8 8 8
  stencil order = 5
  estimated absolute RMS force accuracy = 5.2136e-05
  estimated relative force accuracy = 3.62064e-06
  using double precision FFTs
  3d grid and FFT values/proc = 3375 512
Neighbor list info ...
  1 neighbor list requests
  update every 1 steps, delay 0 steps, check yes
  master list distance cutoff = 11
Setting up minimization ...
Memory usage per processor = 3.77377 Mbytes
Step Temp PotEng Press Pxx Pyy Pzz Pxy Pxz Pyz Lx Ly Lz Volume 
       5            0   -162.17896  -0.53239886  -0.52193224  -0.55333287  -0.52193147 -9.6165498e-10    1.6302961 2.4914786e-10    4.2106915    4.2106915    4.2106915    74.655236 
       6            0   -162.17896  -0.53239886  -0.52193224  -0.55333287  -0.52193147 -7.2552553e-10    1.6302961 4.0779422e-10    4.2106915    4.2106915    4.2106915    74.655236 
Loop time of 0.0010972 on 1 procs for 1 steps with 8 atoms

Minimization stats:
  Stopping criterion = linesearch alpha is zero
  Energy initial, next-to-last, final = 
        -162.178961994     -162.178961994     -162.178961994
  Force two-norm initial, final = 4.31451e-05 4.31451e-05
  Force max component initial, final = 1.27167e-05 1.27167e-05
  Final line search alpha, max atom move = 0.5 6.35837e-06
  Iterations, force evaluations = 1 3

Pair  time (%) = 0.00063777 (58.1269)
Kspce time (%) = 0.000369072 (33.6375)
Neigh time (%) = 0 (0)
Comm  time (%) = 6.65188e-05 (6.06258)
Outpt time (%) = 0 (0)
Other time (%) = 2.38419e-05 (2.17297)

Nlocal:    8 ave 8 max 8 min
Histogram: 1 0 0 0 0 0 0 0 0 0
Nghost:    2189 ave 2189 max 2189 min
Histogram: 1 0 0 0 0 0 0 0 0 0
Neighs:    2472 ave 2472 max 2472 min
Histogram: 1 0 0 0 0 0 0 0 0 0

Total # of neighbors = 2472
Ave neighs/atom = 309
Neighbor list builds = 0
Dangerous builds = 0
Reading restart file ...
  restart file = 10 Feb 2015, LAMMPS = 10 Feb 2015
  triclinic box = (4.25071e-06 4.25071e-06 4.25071e-06) to (4.2107 4.2107 4.2107) with tilt (0 0 0)
  1 by 1 by 1 MPI processor grid
  8 atoms
4 atoms in group magnesium
4 atoms in group oxygen
Setting atom values ...
  4 settings made for charge
Setting atom values ...
  4 settings made for charge
Changing box ...
  triclinic box = (4.25071e-06 4.25071e-06 4.25071e-06) to (4.2107 4.2107 4.2107) with tilt (0 4.21069e-06 0)
PPPM initialization ...
  G vector (1/distance) = 0.355384
  grid = 8 8 8
  stencil order = 5
  estimated absolute RMS force accuracy = 5.21361e-05
  estimated relative force accuracy = 3.62065e-06
  using double precision FFTs
  3d grid and FFT values/proc = 3375 512
Neighbor list info ...
  1 neighbor list requests
  update every 1 steps, delay 0 steps, check yes
  master list distance cutoff = 11
Setting up minimization ...
Memory usage per processor = 3.77377 Mbytes
Step Temp PotEng Press Pxx Pyy Pzz Pxy Pxz Pyz Lx Ly Lz Volume 
       5            0   -162.17896  -0.53244317  -0.52197655  -0.55337718  -0.52197577 -8.8087158e-10   -1.6302961 6.4981439e-11    4.2106915    4.2106915    4.2106915    74.655236 
       6            0   -162.17896  -0.53244317  -0.52197655  -0.55337718  -0.52197577 -2.8776127e-10   -1.6302961 2.9914664e-10    4.2106915    4.2106915    4.2106915    74.655236 
Loop time of 0.00114799 on 1 procs for 1 steps with 8 atoms

Minimization stats:
  Stopping criterion = linesearch alpha is zero
  Energy initial, next-to-last, final = 
        -162.178961995     -162.178961995     -162.178961995
  Force two-norm initial, final = 4.31451e-05 4.31451e-05
  Force max component initial, final = 1.27167e-05 1.27167e-05
  Final line search alpha, max atom move = 0.5 6.35837e-06
  Iterations, force evaluations = 1 3

Pair  time (%) = 0.000652552 (56.8432)
Kspce time (%) = 0.000395298 (34.4341)
Neigh time (%) = 0 (0)
Comm  time (%) = 6.86646e-05 (5.98131)
Outpt time (%) = 0 (0)
Other time (%) = 3.14713e-05 (2.74143)

Nlocal:    8 ave 8 max 8 min
Histogram: 1 0 0 0 0 0 0 0 0 0
Nghost:    2189 ave 2189 max 2189 min
Histogram: 1 0 0 0 0 0 0 0 0 0
Neighs:    2472 ave 2472 max 2472 min
Histogram: 1 0 0 0 0 0 0 0 0 0

Total # of neighbors = 2472
Ave neighs/atom = 309
Neighbor list builds = 0
Dangerous builds = 0
Reading restart file ...
  restart file = 10 Feb 2015, LAMMPS = 10 Feb 2015
  triclinic box = (4.25071e-06 4.25071e-06 4.25071e-06) to (4.2107 4.2107 4.2107) with tilt (0 0 0)
  1 by 1 by 1 MPI processor grid
  8 atoms
4 atoms in group magnesium
4 atoms in group oxygen
Setting atom values ...
  4 settings made for charge
Setting atom values ...
  4 settings made for charge
Changing box ...
  triclinic box = (4.25071e-06 4.25071e-06 4.25071e-06) to (4.2107 4.2107 4.2107) with tilt (-4.21069e-06 0 0)
PPPM initialization ...
  G vector (1/distance) = 0.355384
  grid = 8 8 8
  stencil order = 5
  estimated absolute RMS force accuracy = 5.2136e-05
  estimated relative force accuracy = 3.62064e-06
  using double precision FFTs
  3d grid and FFT values/proc = 3375 512
Neighbor list info ...
  1 neighbor list requests
  update every 1 steps, delay 0 steps, check yes
  master list distance cutoff = 11
Setting up minimization ...
Memory usage per processor = 3.77377 Mbytes
Step Temp PotEng Press Pxx Pyy Pzz Pxy Pxz Pyz Lx Ly Lz Volume 
       5            0   -162.17896  -0.53239886  -0.52193224  -0.52193146  -0.55333287    1.6302961 -3.5011736e-10 -3.2749622e-10    4.2106915    4.2106915    4.2106915    74.655236 
       6            0   -162.17896  -0.53239886  -0.52193224  -0.52193147  -0.55333287    1.6302961 -3.8793261e-10 -2.3015076e-10    4.2106915    4.2106915    4.2106915    74.655236 
Loop time of 0.00292015 on 1 procs for 1 steps with 8 atoms

Minimization stats:
  Stopping criterion = linesearch alpha is zero
  Energy initial, next-to-last, final = 
        -162.178961994     -162.178961994     -162.178961994
  Force two-norm initial, final = 4.31451e-05 4.31451e-05
  Force max component initial, final = 1.27167e-05 1.27167e-05
  Final line search alpha, max atom move = 0.5 6.35837e-06
  Iterations, force evaluations = 1 3

Pair  time (%) = 0.00065279 (22.3547)
Kspce time (%) = 0.00216603 (74.1754)
Neigh time (%) = 0 (0)
Comm  time (%) = 6.8903e-05 (2.35957)
Outpt time (%) = 0 (0)
Other time (%) = 3.24249e-05 (1.11039)

Nlocal:    8 ave 8 max 8 min
Histogram: 1 0 0 0 0 0 0 0 0 0
Nghost:    2189 ave 2189 max 2189 min
Histogram: 1 0 0 0 0 0 0 0 0 0
Neighs:    2472 ave 2472 max 2472 min
Histogram: 1 0 0 0 0 0 0 0 0 0

Total # of neighbors = 2472
Ave neighs/atom = 309
Neighbor list builds = 0
Dangerous builds = 0
Reading restart file ...
  restart file = 10 Feb 2015, LAMMPS = 10 Feb 2015
  triclinic box = (4.25071e-06 4.25071e-06 4.25071e-06) to (4.2107 4.2107 4.2107) with tilt (0 0 0)
  1 by 1 by 1 MPI processor grid
  8 atoms
4 atoms in group magnesium
4 atoms in group oxygen
Setting atom values ...
  4 settings made for charge
Setting atom values ...
  4 settings made for charge
Changing box ...
  triclinic box = (4.25071e-06 4.25071e-06 4.25071e-06) to (4.2107 4.2107 4.2107) with tilt (4.21069e-06 0 0)
PPPM initialization ...
  G vector (1/distance) = 0.355384
  grid = 8 8 8
  stencil order = 5
  estimated absolute RMS force accuracy = 5.21361e-05
  estimated relative force accuracy = 3.62065e-06
  using double precision FFTs
  3d grid and FFT values/proc = 3375 512
Neighbor list info ...
  1 neighbor list requests
  update every 1 steps, delay 0 steps, check yes
  master list distance cutoff = 11
Setting up minimization ...
Memory usage per processor = 3.77377 Mbytes
Step Temp PotEng Press Pxx Pyy Pzz Pxy Pxz Pyz Lx Ly Lz Volume 
       5            0   -162.17896  -0.53244317  -0.52197655  -0.52197577  -0.55337718   -1.6302961 -1.2246297e-10 -2.0878753e-10    4.2106915    4.2106915    4.2106915    74.655236 
       6            0   -162.17896  -0.53244317  -0.52197655  -0.52197577  -0.55337718   -1.6302961 2.9293668e-10 2.7343507e-10    4.2106915    4.2106915    4.2106915    74.655236 
Loop time of 0.0010941 on 1 procs for 1 steps with 8 atoms

Minimization stats:
  Stopping criterion = linesearch alpha is zero
  Energy initial, next-to-last, final = 
        -162.178961995     -162.178961995     -162.178961995
  Force two-norm initial, final = 4.31451e-05 4.31451e-05
  Force max component initial, final = 1.27167e-05 1.27167e-05
  Final line search alpha, max atom move = 0.5 6.35837e-06
  Iterations, force evaluations = 1 3

Pair  time (%) = 0.000641346 (58.6184)
Kspce time (%) = 0.000365734 (33.4278)
Neigh time (%) = 0 (0)
Comm  time (%) = 6.41346e-05 (5.86184)
Outpt time (%) = 0 (0)
Other time (%) = 2.28882e-05 (2.09196)

Nlocal:    8 ave 8 max 8 min
Histogram: 1 0 0 0 0 0 0 0 0 0
Nghost:    2189 ave 2189 max 2189 min
Histogram: 1 0 0 0 0 0 0 0 0 0
Neighs:    2472 ave 2472 max 2472 min
Histogram: 1 0 0 0 0 0 0 0 0 0

Total # of neighbors = 2472
Ave neighs/atom = 309
Neighbor list builds = 0
Dangerous builds = 0
c11 = 289.803723479412 GPa
c22 = 289.803723497023 GPa
c33 = 289.803723486966 GPa
c12 = 162.51419665046 GPa
c13 = 162.514196659803 GPa
c23 = 162.514196665505 GPa
c44 = 163.029607552146 GPa
c55 = 163.029607546282 GPa
c66 = 163.029607574022 GPa
c14 = 0.00110771509569774 GPa
c15 = 0.00110774284998557 GPa
c16 = 0.00110776489506778 GPa
c24 = 0.00110772662766651 GPa
c25 = 0.0011077300321388 GPa
c26 = 0.00110774954649585 GPa
c34 = 0.00110773355241211 GPa
c35 = 0.00110774229762423 GPa
c36 = 0.00110770270414524 GPa
c45 = 5.84625946145248e-09 GPa
c46 = -1.73586569722528e-08 GPa
c56 = -2.79658388670779e-08 GPa
lammps_sim_done
