# ['Ni']

10 atoms
1 atom types

    0.0000     3.5977 xlo xhi
    0.0000     2.5754 ylo yhi
    0.0000    25.7537 zlo zhi

    0.0000     0.0000     0.0000 xy xz yz

Atoms

1 1     0.0000     0.0000     0.0000
2 1     1.7988     1.2877     1.2877
3 1     0.0000     0.0000     2.5754
4 1     1.7988     1.2877     3.8631
5 1     0.0000     0.0000     5.1507
6 1     1.7988     1.2877     6.4384
7 1     0.0000     0.0000     7.7261
8 1     1.7988     1.2877     9.0138
9 1     0.0000     0.0000    10.3015
10 1     1.7988     1.2877    11.5892
