# ['Ni']

107 atoms
1 atom types

    0.0000    10.0515 xlo xhi
    0.0000    10.0515 ylo yhi
    0.0000    10.0515 zlo zhi

    0.0000    -0.0000    -0.0000 xy xz yz

Atoms

1 1     1.6752     1.6752     0.0000
2 1     1.6752     0.0000     1.6752
3 1     0.0000     1.6752     1.6752
4 1     0.0000     0.0000     3.3505
5 1     1.6752     1.6752     3.3505
6 1     1.6752     0.0000     5.0257
7 1     0.0000     1.6752     5.0257
8 1     0.0000     0.0000     6.7010
9 1     1.6752     1.6752     6.7010
10 1     1.6752     0.0000     8.3762
11 1     0.0000     1.6752     8.3762
12 1     0.0000     3.3505     0.0000
13 1     1.6752     5.0257     0.0000
14 1     1.6752     3.3505     1.6752
15 1     0.0000     5.0257     1.6752
16 1     0.0000     3.3505     3.3505
17 1     1.6752     5.0257     3.3505
18 1     1.6752     3.3505     5.0257
19 1     0.0000     5.0257     5.0257
20 1     0.0000     3.3505     6.7010
21 1     1.6752     5.0257     6.7010
22 1     1.6752     3.3505     8.3762
23 1     0.0000     5.0257     8.3762
24 1     0.0000     6.7010     0.0000
25 1     1.6752     8.3762     0.0000
26 1     1.6752     6.7010     1.6752
27 1     0.0000     8.3762     1.6752
28 1     0.0000     6.7010     3.3505
29 1     1.6752     8.3762     3.3505
30 1     1.6752     6.7010     5.0257
31 1     0.0000     8.3762     5.0257
32 1     0.0000     6.7010     6.7010
33 1     1.6752     8.3762     6.7010
34 1     1.6752     6.7010     8.3762
35 1     0.0000     8.3762     8.3762
36 1     3.3505     0.0000     0.0000
37 1     5.0257     1.6752     0.0000
38 1     5.0257     0.0000     1.6752
39 1     3.3505     1.6752     1.6752
40 1     3.3505     0.0000     3.3505
41 1     5.0257     1.6752     3.3505
42 1     5.0257     0.0000     5.0257
43 1     3.3505     1.6752     5.0257
44 1     3.3505     0.0000     6.7010
45 1     5.0257     1.6752     6.7010
46 1     5.0257     0.0000     8.3762
47 1     3.3505     1.6752     8.3762
48 1     3.3505     3.3505     0.0000
49 1     5.0257     5.0257     0.0000
50 1     5.0257     3.3505     1.6752
51 1     3.3505     5.0257     1.6752
52 1     3.3505     3.3505     3.3505
53 1     5.0257     5.0257     3.3505
54 1     5.0257     3.3505     5.0257
55 1     3.3505     5.0257     5.0257
56 1     3.3505     3.3505     6.7010
57 1     5.0257     5.0257     6.7010
58 1     5.0257     3.3505     8.3762
59 1     3.3505     5.0257     8.3762
60 1     3.3505     6.7010     0.0000
61 1     5.0257     8.3762     0.0000
62 1     5.0257     6.7010     1.6752
63 1     3.3505     8.3762     1.6752
64 1     3.3505     6.7010     3.3505
65 1     5.0257     8.3762     3.3505
66 1     5.0257     6.7010     5.0257
67 1     3.3505     8.3762     5.0257
68 1     3.3505     6.7010     6.7010
69 1     5.0257     8.3762     6.7010
70 1     5.0257     6.7010     8.3762
71 1     3.3505     8.3762     8.3762
72 1     6.7010     0.0000     0.0000
73 1     8.3762     1.6752     0.0000
74 1     8.3762     0.0000     1.6752
75 1     6.7010     1.6752     1.6752
76 1     6.7010     0.0000     3.3505
77 1     8.3762     1.6752     3.3505
78 1     8.3762     0.0000     5.0257
79 1     6.7010     1.6752     5.0257
80 1     6.7010     0.0000     6.7010
81 1     8.3762     1.6752     6.7010
82 1     8.3762     0.0000     8.3762
83 1     6.7010     1.6752     8.3762
84 1     6.7010     3.3505     0.0000
85 1     8.3762     5.0257     0.0000
86 1     8.3762     3.3505     1.6752
87 1     6.7010     5.0257     1.6752
88 1     6.7010     3.3505     3.3505
89 1     8.3762     5.0257     3.3505
90 1     8.3762     3.3505     5.0257
91 1     6.7010     5.0257     5.0257
92 1     6.7010     3.3505     6.7010
93 1     8.3762     5.0257     6.7010
94 1     8.3762     3.3505     8.3762
95 1     6.7010     5.0257     8.3762
96 1     6.7010     6.7010     0.0000
97 1     8.3762     8.3762     0.0000
98 1     8.3762     6.7010     1.6752
99 1     6.7010     8.3762     1.6752
100 1     6.7010     6.7010     3.3505
101 1     8.3762     8.3762     3.3505
102 1     8.3762     6.7010     5.0257
103 1     6.7010     8.3762     5.0257
104 1     6.7010     6.7010     6.7010
105 1     8.3762     8.3762     6.7010
106 1     8.3762     6.7010     8.3762
107 1     6.7010     8.3762     8.3762
