# ['Ni']

20 atoms
1 atom types

    0.0000     3.4118 xlo xhi
    0.0000     3.4118 ylo yhi
    0.0000    34.1176 zlo zhi

    0.0000    -0.0000     0.0000 xy xz yz

Atoms

1 1     0.0000     0.0000     0.0000
2 1     1.7059     1.7059     0.0000
3 1     1.7059     0.0000     1.7059
4 1     0.0000     1.7059     1.7059
5 1     0.0000     0.0000     3.4118
6 1     1.7059     1.7059     3.4118
7 1     1.7059     0.0000     5.1176
8 1     0.0000     1.7059     5.1176
9 1     0.0000     0.0000     6.8235
10 1     1.7059     1.7059     6.8235
11 1     1.7059     0.0000     8.5294
12 1     0.0000     1.7059     8.5294
13 1     0.0000     0.0000    10.2353
14 1     1.7059     1.7059    10.2353
15 1     1.7059     0.0000    11.9412
16 1     0.0000     1.7059    11.9412
17 1     0.0000     0.0000    13.6471
18 1     1.7059     1.7059    13.6471
19 1     1.7059     0.0000    15.3529
20 1     0.0000     1.7059    15.3529
