# ['Ni']

18 atoms
1 atom types

    0.0000     2.5390 xlo xhi
    0.0000     4.3976 ylo yhi
    0.0000    37.3091 zlo zhi

    0.0000     0.0000    -0.0004 xy xz yz

Atoms

1 1     0.0000     0.0000     0.0000
2 1     1.2695     0.7329     2.0727
3 1     0.0000     1.4659     4.1454
4 1     1.2695     2.1988     0.0000
5 1     0.0000     2.9318     2.0727
6 1     1.2695     3.6647     4.1454
7 1     0.0000     0.0000     6.2182
8 1     1.2695     0.7329     8.2909
9 1     0.0000     1.4659    10.3636
10 1     1.2695     2.1988     6.2182
11 1     0.0000     2.9318     8.2909
12 1     1.2695     3.6647    10.3636
13 1     0.0000     0.0000    12.4363
14 1     1.2695     0.7329    14.5091
15 1     0.0000     1.4659    16.5818
16 1     1.2695     2.1988    12.4363
17 1     0.0000     2.9318    14.5091
18 1     1.2695     3.6647    16.5818
