# ['Ni']

10 atoms
1 atom types

    0.0000     3.5280 xlo xhi
    0.0000     2.5255 ylo yhi
    0.0000    25.2552 zlo zhi

    0.0000     0.0000     0.0000 xy xz yz

Atoms

1 1     0.0000     0.0000     0.0000
2 1     1.7640     1.2628     1.2628
3 1     0.0000     0.0000     2.5255
4 1     1.7640     1.2628     3.7883
5 1     0.0000     0.0000     5.0510
6 1     1.7640     1.2628     6.3138
7 1     0.0000     0.0000     7.5765
8 1     1.7640     1.2628     8.8393
9 1     0.0000     0.0000    10.1021
10 1     1.7640     1.2628    11.3648
