   2   2   0   0
  0.1090254E+02  0.2793739E-09  0.2793739E-09  0.2793739E-09  0.5000000E-15
  1.000000000000000E-004
  CAR 
 automatically generated by pyflamestk   
     29.83430090     -0.72204988  301      9.25350519      1.00000000
     -0.722  0.0000E+00  0.0000E+00  0.0000E+00  0.0000E+00
     -0.620  0.0000E+00  0.0000E+00  0.0000E+00  0.0000E+00
     -0.518  0.0000E+00  0.0000E+00  0.0000E+00  0.0000E+00
     -0.416 -0.1971E-30  0.0000E+00 -0.2007E-31  0.0000E+00
     -0.315 -0.7990E-27 -0.1680E-27 -0.8141E-28 -0.1712E-28
     -0.213 -0.1921E-23 -0.4467E-24 -0.1957E-24 -0.4552E-25
     -0.111 -0.2736E-20 -0.7038E-21 -0.2789E-21 -0.7173E-22
     -0.009 -0.2307E-17 -0.6565E-18 -0.2353E-18 -0.6694E-19
      0.093 -0.1150E-14 -0.3622E-15 -0.1174E-15 -0.3696E-16
      0.195 -0.3273E-12 -0.1142E-12 -0.3346E-13 -0.1167E-13
      0.296 -0.5639E-10 -0.2180E-10 -0.5777E-11 -0.2232E-11
      0.398 -0.5695E-08 -0.2441E-08 -0.5858E-09 -0.2509E-09
      0.500 -0.3353E-06 -0.1596E-06 -0.3474E-07 -0.1650E-07
      0.602 -0.1141E-04 -0.6040E-05 -0.1197E-05 -0.6317E-06
      0.704 -0.2208E-03 -0.1305E-03 -0.2368E-04 -0.1393E-04
      0.806 -0.2354E-02 -0.1567E-02 -0.2634E-03 -0.1735E-03
      0.908 -0.1279E-01 -0.9799E-02 -0.1566E-02 -0.1172E-02
      1.009 -0.2592E-01 -0.2557E-01 -0.4206E-02 -0.3776E-02
      1.111  0.4371E-01  0.1690E-01  0.2454E-03 -0.2054E-02
      1.213  0.2936E+00  0.2359E+00  0.3015E-01  0.2197E-01
      1.315  0.5065E+00  0.4883E+00  0.8175E-01  0.7170E-01
      1.417  0.3731E+00  0.4232E+00  0.1198E+00  0.1148E+00
      1.519  0.9495E-01  0.1404E+00  0.1294E+00  0.1291E+00
      1.621 -0.2137E-01 -0.1295E-01  0.1272E+00  0.1278E+00
      1.722 -0.1758E-01 -0.2102E-01  0.1255E+00  0.1257E+00
      1.824 -0.4007E-02 -0.5664E-02  0.1250E+00  0.1251E+00
      1.926 -0.4463E-03 -0.7155E-03  0.1250E+00  0.1250E+00
      2.028 -0.2701E-04 -0.4850E-04  0.1250E+00  0.1250E+00
      2.130 -0.9235E-06 -0.1848E-05  0.1250E+00  0.1250E+00
      2.232 -0.1818E-07 -0.4042E-07  0.1250E+00  0.1250E+00
      2.334 -0.2084E-09 -0.5138E-09  0.1250E+00  0.1250E+00
      2.435 -0.5210E-11 -0.1243E-10  0.1250E+00  0.1250E+00
      2.537 -0.5738E-09 -0.1192E-08  0.1250E+00  0.1250E+00
      2.639 -0.5057E-07 -0.9665E-07  0.1250E+00  0.1250E+00
      2.741 -0.2594E-05 -0.4553E-05  0.1250E+00  0.1250E+00
      2.843 -0.7662E-04 -0.1233E-03  0.1250E+00  0.1250E+00
      2.945 -0.1280E-02 -0.1879E-02  0.1249E+00  0.1248E+00
      3.047 -0.1162E-01 -0.1543E-01  0.1237E+00  0.1232E+00
      3.148 -0.5174E-01 -0.6016E-01  0.1184E+00  0.1171E+00
      3.250 -0.6575E-01 -0.4768E-01  0.1117E+00  0.1122E+00
      3.352  0.2732E+00  0.3800E+00  0.1395E+00  0.1509E+00
      3.454  0.1104E+01  0.1229E+01  0.2520E+00  0.2761E+00
      3.556  0.1522E+01  0.1485E+01  0.4071E+00  0.4274E+00
      3.658  0.8972E+00  0.7569E+00  0.4985E+00  0.5045E+00
      3.760  0.1399E+00  0.7138E-01  0.5127E+00  0.5117E+00
      3.861 -0.7749E-01 -0.7769E-01  0.5048E+00  0.5038E+00
      3.963 -0.3927E-01 -0.3203E-01  0.5008E+00  0.5006E+00
      4.065 -0.7335E-02 -0.8013E-02  0.5001E+00  0.4998E+00
      4.167 -0.9195E-03 -0.2058E-01  0.5000E+00  0.4977E+00
      4.269 -0.3070E-02 -0.6799E-01  0.4997E+00  0.4907E+00
      4.371 -0.2175E-01 -0.1918E-01  0.4975E+00  0.4888E+00
      4.473 -0.7010E-01  0.4999E+00  0.4903E+00  0.5397E+00
      4.574 -0.8095E-02  0.1337E+01  0.4895E+00  0.6759E+00
      4.676  0.5388E+00  0.1416E+01  0.5444E+00  0.8202E+00
      4.778  0.1367E+01  0.5952E+00  0.6836E+00  0.8808E+00
      4.880  0.1395E+01 -0.5649E-01  0.8257E+00  0.8750E+00
      4.982  0.5775E+00 -0.7226E-01  0.8845E+00  0.8677E+00
      5.084 -0.9977E-02  0.5294E+00  0.8835E+00  0.9216E+00
      5.186 -0.1318E+00  0.1324E+01  0.8700E+00  0.1056E+01
      5.287 -0.9517E-01  0.1509E+01  0.8604E+00  0.1210E+01
      5.389  0.2645E+00  0.1514E+01  0.8873E+00  0.1364E+01
      5.491  0.1085E+01  0.2001E+01  0.9979E+00  0.1568E+01
      5.593  0.1891E+01  0.2133E+01  0.1190E+01  0.1785E+01
      5.695  0.2502E+01  0.1365E+01  0.1445E+01  0.1924E+01
      5.797  0.2575E+01  0.5158E+00  0.1707E+01  0.1977E+01
      5.898  0.1486E+01  0.6696E+00  0.1859E+01  0.2045E+01
      6.000  0.3188E+00  0.2180E+01  0.1891E+01  0.2267E+01
      6.102  0.2771E+00  0.3870E+01  0.1920E+01  0.2661E+01
      6.204  0.7771E+00  0.4235E+01  0.1999E+01  0.3093E+01
      6.306  0.1127E+01  0.3452E+01  0.2113E+01  0.3444E+01
      6.408  0.1765E+01  0.2124E+01  0.2293E+01  0.3661E+01
      6.510  0.2485E+01  0.1094E+01  0.2546E+01  0.3772E+01
      6.611  0.2810E+01  0.1780E+01  0.2833E+01  0.3953E+01
      6.713  0.3313E+01  0.3199E+01  0.3170E+01  0.4279E+01
      6.815  0.3309E+01  0.2936E+01  0.3507E+01  0.4578E+01
      6.917  0.1938E+01  0.1776E+01  0.3704E+01  0.4759E+01
      7.019  0.7758E+00  0.2340E+01  0.3784E+01  0.4998E+01
      7.121  0.1309E+01  0.3828E+01  0.3917E+01  0.5387E+01
      7.223  0.2761E+01  0.3418E+01  0.4198E+01  0.5736E+01
      7.324  0.3919E+01  0.1553E+01  0.4597E+01  0.5894E+01
      7.426  0.4314E+01  0.4548E+00  0.5037E+01  0.5940E+01
      7.528  0.3920E+01  0.2375E+00  0.5436E+01  0.5964E+01
      7.630  0.2884E+01  0.1159E+00  0.5730E+01  0.5976E+01
      7.732  0.1385E+01  0.6326E+00  0.5871E+01  0.6040E+01
      7.834  0.2105E+00  0.2177E+01  0.5892E+01  0.6262E+01
      7.936 -0.4613E-01  0.3163E+01  0.5888E+01  0.6584E+01
      8.037  0.2278E+00  0.2756E+01  0.5911E+01  0.6865E+01
      8.139  0.4984E+00  0.2903E+01  0.5961E+01  0.7161E+01
      8.241  0.9147E+00  0.4161E+01  0.6055E+01  0.7585E+01
      8.343  0.1670E+01  0.4651E+01  0.6225E+01  0.8058E+01
      8.445  0.2334E+01  0.4278E+01  0.6462E+01  0.8494E+01
      8.547  0.2714E+01  0.4001E+01  0.6739E+01  0.8901E+01
      8.649  0.3180E+01  0.3962E+01  0.7063E+01  0.9305E+01
      8.750  0.4190E+01  0.4441E+01  0.7490E+01  0.9757E+01
      8.852  0.5275E+01  0.4297E+01  0.8027E+01  0.1019E+02
      8.954  0.5366E+01  0.2584E+01  0.8573E+01  0.1046E+02
      9.056  0.4136E+01  0.6848E+00  0.8995E+01  0.1053E+02
      9.158  0.2697E+01 -0.1398E+00  0.9269E+01  0.1051E+02
      9.260  0.2499E+01 -0.2085E+00  0.9524E+01  0.1049E+02
      9.362  0.3201E+01  0.5278E-01  0.9850E+01  0.1050E+02
      9.463  0.3463E+01  0.7945E+00  0.1020E+02  0.1058E+02
      9.565  0.2400E+01  0.1499E+01  0.1045E+02  0.1073E+02
      9.667  0.7383E+00  0.1192E+01  0.1052E+02  0.1085E+02
      9.769 -0.1435E+00  0.3457E+00  0.1051E+02  0.1089E+02
      9.871 -0.1451E+00 -0.5425E-01  0.1049E+02  0.1088E+02
      9.973  0.4631E+00 -0.5761E-01  0.1054E+02  0.1088E+02
     10.075  0.1332E+01 -0.1417E-01  0.1068E+02  0.1088E+02
     10.176  0.1420E+01 -0.1673E-02  0.1082E+02  0.1088E+02
     10.278  0.6203E+00 -0.1067E-03  0.1088E+02  0.1088E+02
     10.380  0.1807E-01 -0.3836E-05  0.1089E+02  0.1088E+02
     10.482 -0.7386E-01 -0.7935E-07  0.1088E+02  0.1088E+02
     10.584 -0.2532E-01 -0.5037E-08  0.1088E+02  0.1087E+02
     10.686 -0.3774E-02 -0.2864E-06  0.1088E+02  0.1087E+02
     10.788 -0.2959E-03 -0.1165E-04  0.1088E+02  0.1087E+02
     10.889 -0.1297E-04 -0.2711E-03  0.1088E+02  0.1087E+02
     10.991 -0.2192E-05 -0.3521E-02  0.1087E+02  0.1087E+02
     11.093 -0.5800E-04 -0.2413E-01  0.1087E+02  0.1087E+02
     11.195 -0.1020E-02 -0.7275E-01  0.1087E+02  0.1086E+02
     11.297 -0.9807E-02  0.9137E-02  0.1087E+02  0.1087E+02
     11.399 -0.4692E-01  0.5938E+00  0.1087E+02  0.1093E+02
     11.500 -0.7212E-01  0.1403E+01  0.1086E+02  0.1107E+02
     11.602  0.2187E+00  0.1344E+01  0.1088E+02  0.1121E+02
     11.704  0.1027E+01  0.4685E+00  0.1099E+02  0.1125E+02
     11.806  0.1525E+01 -0.9191E-01  0.1114E+02  0.1124E+02
     11.908  0.9411E+00  0.1905E+00  0.1124E+02  0.1126E+02
     12.010  0.9737E-01  0.1207E+01  0.1125E+02  0.1139E+02
     12.112 -0.9181E-02  0.1950E+01  0.1125E+02  0.1159E+02
     12.213  0.7809E+00  0.1408E+01  0.1133E+02  0.1173E+02
     12.315  0.1742E+01  0.3699E+00  0.1151E+02  0.1177E+02
     12.417  0.1684E+01 -0.7367E-01  0.1168E+02  0.1176E+02
     12.519  0.7553E+00 -0.6708E-01  0.1175E+02  0.1175E+02
     12.621  0.7349E-01 -0.1614E-01  0.1176E+02  0.1175E+02
     12.723 -0.7312E-01 -0.1897E-02  0.1175E+02  0.1175E+02
     12.825 -0.3427E-01 -0.1215E-03  0.1175E+02  0.1175E+02
     12.926 -0.6857E-02 -0.4407E-05  0.1175E+02  0.1175E+02
     13.028 -0.7408E-03 -0.9220E-07  0.1175E+02  0.1175E+02
     13.130 -0.4558E-04 -0.1124E-08  0.1175E+02  0.1175E+02
     13.232 -0.1626E-05 -0.8026E-11  0.1175E+02  0.1175E+02
     13.334 -0.3389E-07 -0.3379E-13  0.1175E+02  0.1175E+02
     13.436 -0.4143E-09  0.0000E+00  0.1175E+02  0.1175E+02
     13.538 -0.2979E-11  0.0000E+00  0.1175E+02  0.1175E+02
     13.639 -0.1254E-13  0.0000E+00  0.1175E+02  0.1175E+02
     13.741  0.0000E+00  0.0000E+00  0.1175E+02  0.1175E+02
     13.843  0.0000E+00  0.0000E+00  0.1175E+02  0.1175E+02
     13.945  0.0000E+00  0.0000E+00  0.1175E+02  0.1175E+02
     14.047  0.0000E+00 -0.9043E-29  0.1175E+02  0.1175E+02
     14.149  0.0000E+00 -0.3022E-25  0.1175E+02  0.1175E+02
     14.251 -0.1572E-28 -0.5988E-22  0.1175E+02  0.1175E+02
     14.352 -0.5076E-25 -0.7026E-19  0.1175E+02  0.1175E+02
     14.454 -0.9715E-22 -0.4879E-16  0.1175E+02  0.1175E+02
     14.556 -0.1101E-18 -0.1948E-13  0.1175E+02  0.1175E+02
     14.658 -0.7384E-16 -0.4676E-11  0.1175E+02  0.1175E+02
     14.760 -0.2832E-13 -0.6615E-09  0.1175E+02  0.1175E+02
     14.862 -0.6597E-11 -0.5477E-07  0.1175E+02  0.1175E+02
     14.964 -0.9009E-09 -0.2637E-05  0.1175E+02  0.1175E+02
     15.065 -0.7197E-07 -0.7301E-04  0.1175E+02  0.1175E+02
     15.167 -0.3341E-05 -0.1140E-02  0.1175E+02  0.1175E+02
     15.269 -0.8912E-04 -0.9651E-02  0.1175E+02  0.1175E+02
     15.371 -0.1337E-02 -0.3977E-01  0.1175E+02  0.1174E+02
     15.473 -0.1079E-01 -0.4556E-01  0.1175E+02  0.1174E+02
     15.575 -0.4125E-01  0.1867E+00  0.1174E+02  0.1176E+02
     15.677 -0.3180E-01  0.7280E+00  0.1174E+02  0.1183E+02
     15.778  0.2462E+00  0.1226E+01  0.1177E+02  0.1196E+02
     15.880  0.7644E+00  0.1570E+01  0.1184E+02  0.1212E+02
     15.982  0.9662E+00  0.1588E+01  0.1194E+02  0.1228E+02
     16.084  0.9945E+00  0.9106E+00  0.1204E+02  0.1237E+02
     16.186  0.1383E+01  0.1549E+00  0.1218E+02  0.1239E+02
     16.288  0.1364E+01 -0.7939E-01  0.1232E+02  0.1238E+02
     16.390  0.5929E+00 -0.4335E-01  0.1238E+02  0.1238E+02
     16.491  0.1234E-01 -0.8501E-02  0.1239E+02  0.1238E+02
     16.593 -0.7386E-01 -0.8428E-03  0.1238E+02  0.1238E+02
     16.695 -0.2501E-01 -0.4600E-04  0.1238E+02  0.1238E+02
     16.797 -0.3707E-02 -0.6289E-05  0.1238E+02  0.1237E+02
     16.899 -0.2961E-03 -0.1224E-03  0.1238E+02  0.1237E+02
     17.001 -0.1760E-03 -0.1723E-02  0.1237E+02  0.1237E+02
     17.102 -0.2169E-02 -0.1294E-01  0.1237E+02  0.1237E+02
     17.204 -0.1522E-01 -0.4463E-01  0.1237E+02  0.1237E+02
     17.306 -0.4759E-01 -0.1594E-01  0.1237E+02  0.1237E+02
     17.408 -0.2607E-03  0.3211E+00  0.1237E+02  0.1240E+02
     17.510  0.3760E+00  0.8778E+00  0.1241E+02  0.1249E+02
     17.612  0.9222E+00  0.9346E+00  0.1250E+02  0.1258E+02
     17.714  0.9111E+00  0.4072E+00  0.1259E+02  0.1263E+02
     17.815  0.3456E+00  0.1289E+00  0.1263E+02  0.1264E+02
     17.917 -0.4774E-02  0.3446E+00  0.1263E+02  0.1267E+02
     18.019  0.1335E+00  0.4822E+00  0.1264E+02  0.1272E+02
     18.121  0.4404E+00  0.2590E+00  0.1269E+02  0.1275E+02
     18.223  0.4534E+00  0.7024E-02  0.1273E+02  0.1275E+02
     18.325  0.1669E+00 -0.1988E-01  0.1275E+02  0.1275E+02
     18.427  0.7984E-02  0.1957E+00  0.1275E+02  0.1277E+02
     18.528  0.1854E+00  0.4715E+00  0.1277E+02  0.1282E+02
     18.630  0.4671E+00  0.4432E+00  0.1282E+02  0.1286E+02
     18.732  0.4424E+00  0.1492E+00  0.1286E+02  0.1288E+02
     18.834  0.1594E+00 -0.6937E-01  0.1288E+02  0.1287E+02
     18.936 -0.3593E-01 -0.6227E-01  0.1287E+02  0.1286E+02
     19.038 -0.9890E-01  0.4110E+00  0.1286E+02  0.1291E+02
     19.140  0.3945E-01  0.1265E+01  0.1287E+02  0.1303E+02
     19.241  0.6950E+00  0.1467E+01  0.1294E+02  0.1318E+02
     19.343  0.1459E+01  0.7118E+00  0.1309E+02  0.1326E+02
     19.445  0.1279E+01  0.5239E-01  0.1322E+02  0.1326E+02
     19.547  0.4313E+00 -0.7680E-01  0.1326E+02  0.1325E+02
     19.649 -0.3653E-01 -0.2960E-01  0.1326E+02  0.1325E+02
     19.751 -0.6373E-01 -0.4748E-02  0.1325E+02  0.1325E+02
     19.853 -0.1738E-01 -0.3974E-03  0.1325E+02  0.1325E+02
     19.954 -0.2215E-02 -0.4318E-04  0.1325E+02  0.1325E+02
     20.056 -0.1626E-03 -0.5168E-03  0.1325E+02  0.1325E+02
     20.158 -0.2742E-03 -0.6026E-02  0.1325E+02  0.1325E+02
     20.260 -0.3604E-02 -0.3725E-01  0.1325E+02  0.1325E+02
     20.362 -0.2610E-01 -0.1007E+00  0.1325E+02  0.1324E+02
     20.464 -0.8913E-01  0.3246E-01  0.1324E+02  0.1324E+02
     20.566 -0.4432E-01  0.8467E+00  0.1323E+02  0.1332E+02
     20.667  0.5934E+00  0.2023E+01  0.1329E+02  0.1353E+02
     20.769  0.1806E+01  0.2167E+01  0.1348E+02  0.1375E+02
     20.871  0.2284E+01  0.1072E+01  0.1371E+02  0.1386E+02
     20.973  0.1351E+01  0.2882E+00  0.1385E+02  0.1389E+02
     21.075  0.3726E+00  0.7461E+00  0.1389E+02  0.1397E+02
     21.177  0.6222E+00  0.1458E+01  0.1395E+02  0.1411E+02
     21.279  0.1397E+01  0.1145E+01  0.1409E+02  0.1423E+02
     21.380  0.1255E+01  0.3132E+00  0.1422E+02  0.1426E+02
     21.482  0.4210E+00 -0.5970E-01  0.1426E+02  0.1426E+02
     21.584 -0.3857E-01 -0.5515E-01  0.1426E+02  0.1425E+02
     21.686 -0.6318E-01 -0.1305E-01  0.1425E+02  0.1425E+02
     21.788 -0.1706E-01 -0.1496E-02  0.1425E+02  0.1425E+02
     21.890 -0.2159E-02 -0.9291E-04  0.1425E+02  0.1425E+02
     21.992 -0.1465E-03 -0.3257E-05  0.1425E+02  0.1425E+02
     22.093 -0.5590E-05 -0.6583E-07  0.1425E+02  0.1425E+02
     22.195 -0.1227E-06 -0.1408E-07  0.1425E+02  0.1425E+02
     22.297 -0.2689E-07 -0.8083E-06  0.1425E+02  0.1425E+02
     22.399 -0.1420E-05 -0.2839E-04  0.1425E+02  0.1425E+02
     22.501 -0.4591E-04 -0.5677E-03  0.1425E+02  0.1425E+02
     22.603 -0.8428E-03 -0.6272E-02  0.1425E+02  0.1425E+02
     22.704 -0.8488E-02 -0.3556E-01  0.1425E+02  0.1425E+02
     22.806 -0.4302E-01 -0.7819E-01  0.1424E+02  0.1424E+02
     22.908 -0.7554E-01  0.1048E+00  0.1424E+02  0.1425E+02
     23.010  0.1774E+00  0.8292E+00  0.1426E+02  0.1433E+02
     23.112  0.9628E+00  0.1508E+01  0.1435E+02  0.1449E+02
     23.214  0.1530E+01  0.1166E+01  0.1451E+02  0.1461E+02
     23.316  0.1042E+01  0.3232E+00  0.1462E+02  0.1464E+02
     23.417  0.2280E+00 -0.5818E-01  0.1464E+02  0.1463E+02
     23.519 -0.7117E-01 -0.5585E-01  0.1463E+02  0.1463E+02
     23.621 -0.4777E-01 -0.1336E-01  0.1463E+02  0.1463E+02
     23.723 -0.1011E-01 -0.1544E-02  0.1463E+02  0.1463E+02
     23.825 -0.1063E-02 -0.9665E-04  0.1463E+02  0.1463E+02
     23.927 -0.6097E-04 -0.3412E-05  0.1463E+02  0.1463E+02
     24.029 -0.1981E-05 -0.6933E-07  0.1463E+02  0.1463E+02
     24.130 -0.3712E-07 -0.8193E-09  0.1463E+02  0.1463E+02
     24.232 -0.4052E-09 -0.1932E-10  0.1463E+02  0.1462E+02
     24.334 -0.5154E-10 -0.1804E-08  0.1462E+02  0.1462E+02
     24.436 -0.5653E-08 -0.1393E-06  0.1462E+02  0.1462E+02
     24.538 -0.3813E-06 -0.6251E-05  0.1462E+02  0.1462E+02
     24.640 -0.1490E-04 -0.1610E-03  0.1462E+02  0.1462E+02
     24.742 -0.3329E-03 -0.2327E-02  0.1462E+02  0.1462E+02
     24.843 -0.4139E-02 -0.1801E-01  0.1462E+02  0.1462E+02
     24.945 -0.2697E-01 -0.6478E-01  0.1462E+02  0.1462E+02
     25.047 -0.7519E-01 -0.3271E-01  0.1461E+02  0.1461E+02
     25.149  0.3098E-01  0.4474E+00  0.1462E+02  0.1466E+02
     25.251  0.6564E+00  0.1294E+01  0.1468E+02  0.1479E+02
     25.353  0.1440E+01  0.1451E+01  0.1483E+02  0.1494E+02
     25.455  0.1310E+01  0.6769E+00  0.1496E+02  0.1501E+02
     25.556  0.4655E+00  0.3283E-01  0.1501E+02  0.1501E+02
     25.658 -0.3558E-01 -0.1107E+00  0.1501E+02  0.1500E+02
     25.760 -0.1059E+00 -0.1061E+00  0.1500E+02  0.1499E+02
     25.862 -0.9598E-01  0.9368E-01  0.1499E+02  0.1500E+02
     25.964  0.1443E+00  0.8149E+00  0.1500E+02  0.1508E+02
     26.066  0.9096E+00  0.1504E+01  0.1509E+02  0.1523E+02
     26.168  0.1524E+01  0.1179E+01  0.1525E+02  0.1535E+02
     26.269  0.1092E+01  0.3335E+00  0.1536E+02  0.1539E+02
     26.371  0.2616E+00 -0.5983E-01  0.1539E+02  0.1538E+02
     26.473 -0.8705E-01 -0.8053E-01  0.1538E+02  0.1537E+02
     26.575 -0.1190E+00 -0.8620E-01  0.1537E+02  0.1536E+02
     26.677 -0.3045E-01  0.5373E-02  0.1536E+02  0.1537E+02
     26.779  0.4988E+00  0.5872E+00  0.1541E+02  0.1543E+02
     26.881  0.1338E+01  0.1400E+01  0.1555E+02  0.1557E+02
     26.982  0.1420E+01  0.1361E+01  0.1570E+02  0.1571E+02
     27.084  0.6196E+00  0.5309E+00  0.1576E+02  0.1576E+02
     27.186  0.1778E-01 -0.1061E-01  0.1576E+02  0.1576E+02
     27.288 -0.7473E-01 -0.7210E-01  0.1575E+02  0.1575E+02
     27.390 -0.3330E-01 -0.3782E-01  0.1575E+02  0.1575E+02
     27.492 -0.3892E-01 -0.5178E-01  0.1575E+02  0.1574E+02
     27.594 -0.4304E-01  0.8284E-02  0.1574E+02  0.1574E+02
     27.695  0.1899E+00  0.4031E+00  0.1576E+02  0.1579E+02
     27.797  0.7462E+00  0.9405E+00  0.1584E+02  0.1588E+02
     27.899  0.1013E+01  0.8992E+00  0.1594E+02  0.1597E+02
     28.001  0.5873E+00  0.3428E+00  0.1600E+02  0.1601E+02
     28.103  0.8741E-01 -0.1015E-01  0.1601E+02  0.1601E+02
     28.205 -0.5185E-01 -0.4585E-01  0.1600E+02  0.1600E+02
     28.306 -0.2557E-01 -0.1381E-01  0.1600E+02  0.1600E+02
     28.408 -0.4707E-02 -0.1888E-02  0.1600E+02  0.1600E+02
     28.510 -0.4415E-03 -0.1372E-03  0.1600E+02  0.1600E+02
     28.612 -0.2282E-04 -0.5586E-05  0.1600E+02  0.1600E+02
     28.714 -0.6707E-06 -0.1303E-06  0.1600E+02  0.1600E+02
     28.816 -0.1139E-07 -0.1765E-08  0.1600E+02  0.1600E+02
     28.918 -0.1128E-09 -0.1397E-10  0.1600E+02  0.1600E+02
     29.019 -0.6546E-12 -0.6486E-13  0.1600E+02  0.1600E+02
     29.121 -0.2180E-14  0.0000E+00  0.1600E+02  0.1600E+02
     29.223  0.0000E+00  0.0000E+00  0.1600E+02  0.1600E+02
     29.325  0.0000E+00  0.0000E+00  0.1600E+02  0.1600E+02
     29.427  0.0000E+00  0.0000E+00  0.1600E+02  0.1600E+02
     29.529  0.0000E+00  0.0000E+00  0.1600E+02  0.1600E+02
     29.631  0.0000E+00  0.0000E+00  0.1600E+02  0.1600E+02
     29.732  0.0000E+00  0.0000E+00  0.1600E+02  0.1600E+02
     29.834  0.0000E+00  0.0000E+00  0.1600E+02  0.1600E+02
