LAMMPS (11 Aug 2017)
# ---- initialize simulations
clear
units metal
dimension 3
boundary p p p
atom_style atomic
atom_modify map array
# ---- create atoms
read_data /home/eragasa/repos/pypospack/examples/Ni__eam__born_exp_rose/preconditioning_3.5NN/rank_5/Ni_fcc.lmps_min_all/lammps.structure
  triclinic box = (0 0 0) to (3.5167 3.5167 3.5167) with tilt (0 -0 0)
  1 by 1 by 1 MPI processor grid
  reading atoms ...
  4 atoms
# ---- define interatomic potential
include potential.mod
mass 1 58.6934

group Ni type 1
4 atoms in group Ni

pair_style eam/alloy
pair_coeff * * /home/eragasa/repos/pypospack/examples/Ni__eam__born_exp_rose/preconditioning_3.5NN/rank_5/Ni_fcc.lmps_min_all/Ni.eam.alloy Ni

neighbor 1.0 bin
neigh_modify every 1 delay 0 check yes
# ---- define settings
compute eng all pe/atom
compute eatoms all reduce sum c_eng
# ---- run minimization
reset_timestep 0
fix 1 all box/relax aniso 0.0 vmax 0.001
thermo 10
thermo_style custom step pe xhi xlo yhi ylo zhi xy xz yz press pxx pyy pzz pxy pxz pyz c_eatoms
min_style cg
minimize 1e-25 1e-25 5000 10000
Neighbor list info ...
  update every 1 steps, delay 0 steps, check yes
  max neighbors/atom: 2000, page size: 100000
  master list distance cutoff = 5.64464
  ghost atom cutoff = 5.64464
  binsize = 2.82232, bins = 2 2 2
  1 neighbor lists, perpetual/occasional/extra = 1 0 0
  (1) pair eam/alloy, perpetual
      attributes: half, newton on
      pair build: half/bin/newton/tri
      stencil: half/bin/3d/newton/tri
      bin: standard
Per MPI rank memory allocation (min/avg/max) = 4.211 | 4.211 | 4.211 Mbytes
Step PotEng Xhi Xlo Yhi Ylo Zhi Xy Xz Yz Press Pxx Pyy Pzz Pxy Pxz Pyz c_eatoms 
       0   -17.806924       3.5167            0       3.5167            0       3.5167            0           -0            0    7702.0261    7702.0261    7702.0261    7702.0261 3.0674387e-12 4.0899182e-12 2.0449591e-12   -17.806924 
      10    -84.89541    3.5174427 -0.0007426589    3.5174427 -0.0007426589    3.5174427            0           -0            0     -2561834     -2561834     -2561834     -2561834 2.6344609e-07 -1.4168943e-08 -1.5394084e-07    -84.89541 
      20   -9956.1308    3.5043227  0.012377323    3.5043227  0.012377323    3.5043227            0           -0            0 -2.4129592e+08 -2.4129592e+08 -2.4129592e+08 -2.4129592e+08 -1.1409464e-05 6.4989691e-07 7.0217834e-06   -9956.1308 
      30   -12202.262    3.4867392  0.029960823    3.4867392  0.029960823    3.4867392            0           -0            0 -2.7130033e+08 -2.7130033e+08 -2.7130033e+08 -2.7130033e+08 -1.6892737e-05 1.508982e-06 1.0048706e-05   -12202.262 
      40   -15237.423    3.4691557  0.047544323    3.4691557  0.047544323    3.4691557            0           -0            0 -3.0248903e+08 -3.0248903e+08 -3.0248903e+08 -3.0248903e+08 -2.682852e-05 2.6356857e-06 1.6240882e-05   -15237.423 
      50   -19582.188    3.4515722  0.065127823    3.4515722  0.065127823    3.4515722            0           -0            0 -3.3134505e+08 -3.3134505e+08 -3.3134505e+08 -3.3134505e+08 -4.2952933e-05 3.1566797e-06 2.3191039e-05   -19582.188 
      60   -26487.222    3.4339887  0.082711323    3.4339887  0.082711323    3.4339887            0           -0            0 -3.4630081e+08 -3.4630081e+08 -3.4630081e+08 -3.4630081e+08 -6.8903013e-05 3.5088607e-06 3.6567468e-05   -26487.222 
      70   -40860.838    3.4164052   0.10029482    3.4164052   0.10029482    3.4164052            0           -0            0 -2.8787176e+08 -2.8787176e+08 -2.8787176e+08 -2.8787176e+08 -0.000118308 6.7216519e-06 6.2900451e-05   -40860.838 
      80   -62678.374    3.4083923   0.10830768    3.4083923   0.10830768    3.4083923            0           -0            0    1616205.6    1616205.6    1616205.6    1616205.6 -2.959825e-06 6.0377719e-07 3.5635089e-10   -62678.374 
      90   -62678.496    3.4102644   0.10643562    3.4102644   0.10643562    3.4102644            0           -0            0      1567963      1567963      1567963      1567963 6.0438519e-07 -1.7069761e-05 9.4184509e-06   -62678.496 
     100     -62678.9     3.416656   0.10004404     3.416656   0.10004404     3.416656            0           -0            0    1495205.1    1495205.3    1495205.2    1495204.8 -2.3371227e-06 9.0910706e-05 -4.1965973e-05     -62678.9 
     110   -62679.019    3.4185829  0.098117094    3.4185829  0.098117094    3.4185829            0           -0            0    1479802.3    1479795.5    1479797.7    1479813.6 -4.0697591e-06 0.00013704858 -5.8649097e-05   -62679.019 
     120   -62679.396     3.424908  0.091792026     3.424908  0.091792004    3.4249082            0           -0            0    1537339.8    1555627.8    1549937.9    1506453.8  0.072926546    -2.129638   0.93041353   -62679.396 
     130   -62679.489    3.4267311  0.089968919    3.4267312  0.089968825    3.4267318            0           -0            0    1436493.8    1514811.1    1490630.8    1304039.5   -3.5878672    103.21037   -44.999092   -62679.489 
     140   -62679.834    3.4322288  0.084471227    3.4322288  0.084471211    3.4322287            0           -0            0    1387933.8    1385040.5    1385762.1    1392998.7  -0.01192671   0.45167197  -0.20143292   -62679.834 
     150    -62680.03    3.4357801  0.080919912    3.4357802   0.08091984    3.4357804            0           -0            0    1352429.5    1394732.9    1382539.8    1280015.7  -0.55312281    23.526447   -10.595512    -62680.03 
     160    -62680.14    3.4376853  0.079014695    3.4376854  0.079014631    3.4376855            0           -0            0    1392051.5    1417519.5    1408245.1      1350390    36.991316   -1573.3632    709.17983    -62680.14 
     170   -62680.283    3.4401655  0.076534529    3.4401655  0.076534495    3.4401654            0           -0            0      1284132    1283528.6    1283728.4    1285139.1 -0.0095554172   -2.9440313    1.5177146   -62680.283 
     180   -62680.514    3.4449232   0.07177684    3.4449232   0.07177682    3.4449228            0           -0            0      1470399    1449720.8    1453968.2    1507508.1   -1.4517347   -438.87943    225.30937   -62680.514 
     190   -62680.544    3.4449323  0.071767723    3.4449323  0.071767687    3.4449322            0           -0            0    1295991.6    1295858.3    1295874.8    1296241.6   0.06902892    20.645695   -10.591629   -62680.544 
     200   -62680.671    3.4472933  0.069406669    3.4472934   0.06940663    3.4472933            0           -0            0    1290015.9    1295842.4    1295108.8    1279096.6 0.00053716491   0.41739469  -0.22480612   -62680.671 
     210   -62680.672    3.4473059  0.069394098    3.4473059  0.069394063    3.4473058            0           -0            0    1267722.6    1266801.4    1266918.1    1269448.3 4.8334201e-05  0.045447279 -0.023114275   -62680.672 
     220   -62680.977    3.4530756  0.063624431    3.4530756  0.063624399    3.4530753            0           -0            0    1201449.5    1190531.3    1192040.9    1221776.1 -0.0009765033  -0.77944024   0.42066983   -62680.977 
     230   -62680.981    3.4531627  0.063537343    3.4531627    0.0635373    3.4531626            0           -0            0    1228811.8    1238530.7    1237224.7      1210680 0.00064229114   0.51693972  -0.28160788   -62680.981 
     240   -62681.106     3.455561  0.061138956    3.4555611  0.061138915    3.4555609            0           -0            0    1181063.6    1181622.4    1181553.3    1180015.2 0.0043630705    4.1657822   -2.2076582   -62681.106 
     250    -62681.43    3.4620568  0.054643181    3.4620569  0.054643149    3.4620563            0           -0            0      1096678      1073373    1076444.6    1140216.3   0.16324656    112.02072   -58.422363    -62681.43 
     260    -62681.56    3.4646156  0.052084367    3.4646157  0.052084319    3.4646153            0           -0            0    1111263.8      1105224    1106201.5    1122365.9   0.17201125   -63.564613    31.477735    -62681.56 
     270   -62681.677    3.4670713  0.049628725    3.4670713  0.049628655    3.4670712            0           -0            0    1145219.1    1168136.3    1163953.1    1103567.9    3.4717612   -1298.9801    638.50405   -62681.677 
     280   -62681.696    3.4675559  0.049144123    3.4675559  0.049144097    3.4675551            0           -0            0    1124577.2    1084379.2    1091584.2    1197768.1    9.1970346   -4180.6532    2059.9093   -62681.696 
     290   -62681.834    3.4702716  0.046428424    3.4702716   0.04642837    3.4702712            0           -0            0    1111540.7    1110031.4    1110241.5    1114349.3   0.24671692    297.12592   -147.63154   -62681.834 
     300   -62681.898    3.4719564  0.044743584    3.4719565  0.044743498    3.4719567            0           -0            0    1088573.9    1145160.6    1137396.1    983165.19   0.18043673    220.62791   -110.07205   -62681.898 
     310   -62681.917    3.4720023  0.044697697    3.4720024  0.044697637     3.472002            0           -0            0      1057802    1065423.4    1064513.1    1043469.5  0.046252555    58.443558   -29.186536   -62681.917 
     320   -62682.047    3.4747626  0.041937449    3.4747626  0.041937393    3.4747622            0           -0            0    1042319.3    1041271.1    1041395.8    1044291.2 -0.042785234   -82.400569    41.118224   -62682.047 
     330    -62682.16    3.4771993  0.039500718    3.4771993  0.039500666    3.4771988            0           -0            0    1043005.3    1034140.1    1035209.6    1059666.3  -0.63927063    1241.5082   -617.71032    -62682.16 
     340   -62682.345    3.4820337  0.034666311    3.4820338  0.034666243    3.4820338            0           -0            0    1129748.9    1169008.5    1166920.5    1053317.7   -364.44477    104209.01   -51764.735   -62682.345 
     350   -62682.537    3.4855565  0.031143457    3.4855566  0.031143387    3.4855562            0           -0            0     984695.9    986066.82    986166.36    981854.51    17.031653   -683.00714    340.51508   -62682.537 
     360    -62682.76     3.490793  0.025907008    3.4907931  0.025906935    3.4907924            0           -0            0    1027740.6    1014172.5    1013196.6    1055852.8   -1.8385666    113.00782   -55.805859    -62682.76 
     370   -62682.767    3.4908182  0.025881754    3.4908183  0.025881685    3.4908178            0           -0            0    976163.84    977316.15    977393.98     973781.4   0.11569152   -7.2615789    3.5871233   -62682.767 
     380   -62682.933    3.4947256  0.021974357    3.4947257   0.02197429    3.4947252            0           -0            0    919074.74    920793.74    920971.48    915458.99 -0.0080042661  -0.23601173   0.13100236   -62682.933 
     390   -62683.229    3.5018758  0.014824247    3.5018758   0.01482418    3.5018753            0           -0            0    928542.95    931088.88    930163.31    924376.67    2.1792384   -111.50798    55.117706   -62683.229 
     400   -62683.326      3.50458  0.012120026    3.5045801  0.012119883      3.50458            0           -0            0    937821.84    985342.33    966565.08    861558.12   -17.434087    864.70592   -428.28754   -62683.326 
     410   -62683.349    3.5049759  0.011724081     3.504976  0.011723959    3.5049758            0           -0            0    866380.67     901869.6    888542.74    808729.67   -23.462566    1149.0928   -566.02832   -62683.349 
     420   -62683.481    3.5081478 0.0085522289    3.5081478 0.0085521565    3.5081473            0           -0            0    851503.33    852226.12    851769.76    850514.11    0.2337349    -11.21246     5.437192   -62683.481 
     430   -62683.619    3.5116942 0.0050058432    3.5116943 0.0050057411    3.5116938            0           -0            0    823540.91    831953.26    826604.62    812064.86    105.84387   -5649.4529    2688.3058   -62683.619 
     440   -62683.624    3.5118971 0.0048028825    3.5118973 0.0048027478    3.5118969            0           -0            0    796596.18    818103.56    804833.97    766851.01    176.69382   -8901.3461    4339.9527   -62683.624 
     450   -62683.718    3.5142735 0.0024265316    3.5142735 0.0024264505     3.514273            0           -0            0    818076.78    815751.17    817225.42    821253.75    161.25398   -6203.1023    3085.8243   -62683.718 
     460    -62683.88    3.5189698 -0.0022698282      3.51897 -0.0022699879    3.5189695            0           -0            0    692013.51    709686.71    696932.16    669421.65     1497.278   -48184.967    23355.212    -62683.88 
     470   -62684.065    3.5235696 -0.0068696072    3.5235698 -0.0068697582    3.5235691            0           -0            0    776359.83     777092.2    776509.21    775478.09    23.116098   -685.73192    340.76509   -62684.065 
     480   -62684.274    3.5297185 -0.013018529    3.5297186 -0.013018631    3.5297179            0           -0            0    852792.22    832972.32    848945.06    876459.28    62.377763   -15596.848    7953.3841   -62684.274 
     490   -62684.362    3.5324997 -0.015799708       3.5325 -0.015799982    3.5324995            0           -0            0    725324.16     757927.4    732432.47    685612.62   -353.71456     103332.5   -52713.373   -62684.362 
     500   -62684.391    3.5327835 -0.016083512    3.5327836 -0.016083629    3.5327829            0           -0            0    750885.18    734534.46     747430.2    770690.88     477.6747    4565.3536   -1991.2542   -62684.391 
     510   -62684.714     3.542352 -0.025652026    3.5423522 -0.025652244    3.5423515            0           -0            0    677426.22    672926.81    675040.12    684311.72     4233.646    37889.628   -16202.168   -62684.714 
     520    -62684.72    3.5425583 -0.025858291    3.5425585 -0.025858478    3.5425576            0           -0            0    717282.58    696432.85    706363.62    749051.27   -1027.0921   -8865.1699    3799.2297    -62684.72 
     530    -62684.88    3.5473904 -0.030690366    3.5473906 -0.030690601    3.5473899            0           -0            0    676223.52    676193.77    676215.47     676261.3    393.08844     3738.778   -1593.7744    -62684.88 
     540   -62684.984     3.550681 -0.033980979    3.5506812 -0.033981228    3.5506806            0           -0            0    692399.02    696589.37    693725.78    686881.91    644.59618    6870.4836   -2930.2291   -62684.984 
     550   -62684.991    3.5510219 -0.034321879    3.5510222 -0.034322176    3.5510216            0           -0            0    696120.52    717030.92    702831.32     668499.3    5428.9196    34725.057   -14738.096   -62684.991 
     560   -62685.054    3.5529038 -0.036203836    3.5529041 -0.036204103    3.5529035            0           -0            0    661428.38    670910.03    664431.76    648943.36   -2959.8221   -21698.562    9397.5721   -62685.054 
     570   -62685.205    3.5577619 -0.041061901    3.5577622 -0.041062156    3.5577615            0           -0            0    623588.43    623602.97    623589.47    623572.85    540.44603    3484.0656   -1533.5087   -62685.205 
     580   -62685.375    3.5639817 -0.047281717    3.5639818 -0.047281829     3.563981            0           -0            0    683496.92    646413.53    680340.26    723736.98    8085.9225    54358.551   -24689.451   -62685.375 
     590   -62685.464    3.5664713 -0.049771334    3.5664716   -0.0497716    3.5664709            0           -0            0    598253.48     596772.3    598114.03    599874.11    28.141927    200.99615   -85.887583   -62685.464 
     600   -62685.568    3.5701716 -0.053471605    3.5701719 -0.053471852    3.5701711            0           -0            0     586697.1    578270.86    585570.69    596249.73    3994.7719     30475.19   -13169.294   -62685.568 
     610   -62685.573     3.570369 -0.053669037    3.5703693 -0.053669289    3.5703686            0           -0            0    618576.32    611604.59    617636.75    626487.63   -2805.8192   -21934.307    9439.4448   -62685.573 
     620   -62685.747    3.5764821 -0.059782075    3.5764824  -0.05978237    3.5764817            0           -0            0    557261.81    558172.46    557350.33    556262.64    74.261433    533.14441   -254.06895   -62685.747 
     630   -62685.984    3.5855545 -0.068854471    3.5855548 -0.068854813    3.5855541            0           -0            0    603373.18    608558.57    603990.96    597569.99   -0.4531067    -1.570583   -1.5111203   -62685.984 
     640   -62685.992    3.5856508 -0.068950772     3.585651 -0.068951016    3.5856502            0           -0            0    525947.88    505990.73    523739.29     548113.6  -0.20961096    2.6302677   -1.5649898   -62685.992 
     650    -62686.07    3.5885766 -0.071876645     3.588577  -0.07187698    3.5885763            0           -0            0    512007.55    514221.66    512168.39    509632.62  -0.12483784  -0.50848924  -0.25373425    -62686.07 
     660   -62686.204    3.5938773  -0.07717728    3.5938776 -0.077177558    3.5938768            0           -0            0    505937.96    490872.25    504594.53     522347.1   -3.5969161   -4.0641264   -13.712082   -62686.204 
     670   -62686.342    3.5994259 -0.082725924    3.5994262 -0.082726238    3.5994255            0           -0            0    458895.97    454178.11    458287.22    464222.58   -47.088975   -84.023863   -181.76885   -62686.342 
     680   -62686.412    3.6023362 -0.085636241    3.6023366 -0.085636565    3.6023359            0           -0            0     469596.7    467669.63    469526.01    471594.47   -16.892501   -28.746923   -59.757967   -62686.412 
     690   -62686.481    3.6052078 -0.088507752    3.6052081 -0.088508086    3.6052074            0           -0            0    463279.41    463757.06    463305.27    462775.89    1748.2979    3011.5622    6204.4778   -62686.481 
     700   -62686.608     3.611632 -0.094931977    3.6116325 -0.094932464    3.6116321            0           -0            0    535815.69    582289.58    546033.14    479124.36   -5871.1938   -12736.979   -28300.853   -62686.608 
     710    -62686.67    3.6133991 -0.096699112    3.6133994 -0.096699424    3.6133987            0           -0            0    437922.44    437969.09    437928.18    437870.05   -1038.5241   -937.97353   -1365.5502    -62686.67 
     720   -62686.927    3.6253875  -0.10868752    3.6253878  -0.10868777    3.6253871            0           -0            0    417046.11     408868.2    415913.73    426356.39   -26030.777   -23587.224   -34356.126   -62686.927 
     730   -62686.985    3.6281224  -0.11142244    3.6281227  -0.11142273    3.6281221            0           -0            0    457020.86    458391.04    457053.59    455617.96   -2067.7155   -1946.3089   -3002.1764   -62686.985 
     740   -62687.062    3.6316491  -0.11494906    3.6316493  -0.11494934    3.6316487            0           -0            0     384590.4    385094.13    384669.97    384007.08    2384.3529    2159.0244    3164.1664   -62687.062 
     750   -62687.145    3.6357845  -0.11908447    3.6357847  -0.11908474    3.6357841            0           -0            0    379456.65     378026.7     379343.1    381000.17     566.5237    541.67805    838.61328   -62687.145 
     760   -62687.227    3.6399848  -0.12328478     3.639985  -0.12328504    3.6399844            0           -0            0    392333.02    387231.22    391558.37    398209.47    822.43835    835.76926    1327.1217   -62687.227 
     770   -62687.229    3.6400266  -0.12332662    3.6400269  -0.12332691    3.6400263            0           -0            0    353555.81    357682.14    354205.99     348779.3    -12.33957   -12.894334   -19.721608   -62687.229 
     780   -62687.344    3.6460539  -0.12935386    3.6460542  -0.12935418    3.6460536            0           -0            0    374084.82    382184.64    376203.88    363865.94   -2759.2116   -2829.3684   -4519.9589   -62687.344 
     790   -62687.352    3.6467533  -0.13005326    3.6467534  -0.13005344    3.6467526            0           -0            0    352374.78    320047.74    344191.92    392884.67    6249.7171    5679.6077    8309.9258   -62687.352 
     800   -62687.423    3.6502712  -0.13357122    3.6502715  -0.13357151    3.6502709            0           -0            0    346290.38    347019.41     346040.1    345811.63   -361.14267   -325.74803   -516.92065   -62687.423 
     810   -62687.486    3.6539842  -0.13728425    3.6539844  -0.13728444    3.6539838            0           -0            0    385029.34    369937.94    390045.73    395104.34    -34.01334   -31.488043   -62.788012   -62687.486 
     820   -62687.491    3.6539974  -0.13729744    3.6539977  -0.13729773    3.6539971            0           -0            0       337969     339378.1    337516.61    337012.29   -8.4507881   -8.2478682   -15.743281   -62687.491 
     830   -62687.587    3.6594257  -0.14272566     3.659426  -0.14272596    3.6594254            0           -0            0    321916.84    325118.27    320899.42    319732.84   -31.320924   -30.685763   -60.867176   -62687.587 
     840   -62687.632    3.6620306  -0.14533055    3.6620308  -0.14533077    3.6620302            0           -0            0    335102.07    324545.13     338506.6    342254.47   -87.238688   -81.083733   -143.87247   -62687.632 
     850   -62687.633    3.6620348  -0.14533482    3.6620351  -0.14533511    3.6620345            0           -0            0    315975.44    316247.82    315883.72    315794.78  -0.75196497  -0.72911956   -1.2514462   -62687.633 
     860   -62687.641    3.6625494  -0.14584944    3.6625497  -0.14584973    3.6625491            0           -0            0    321109.87    320529.83    321303.39    321496.39  -0.54076803  -0.45708901  -0.84999915   -62687.641 
     870   -62687.719    3.6673619   -0.1506619     3.667362  -0.15066195    3.6673613            0           -0            0    305545.38    268163.14    317693.04    330779.97    48.846843    49.296342    84.221163   -62687.719 
     880   -62687.723    3.6673908  -0.15069082    3.6673911   -0.1506911    3.6673905            0           -0            0    313272.64    311585.72    313809.63    314422.57    154.48503    145.66607    258.06163   -62687.723 
     890   -62687.757    3.6694125  -0.15271252    3.6694128  -0.15271283    3.6694123            0           -0            0    308243.76    311219.34    307298.54    306213.39   -191.36136   -175.05862   -260.98751   -62687.757 
     900   -62687.783    3.6712069  -0.15450687    3.6712071  -0.15450708    3.6712065            0           -0            0    333346.23    318949.81    337702.92    343385.96     9235.272     8434.936     12593.29   -62687.783 
     910   -62687.787    3.6712293  -0.15452933    3.6712296   -0.1545296     3.671229            0           -0            0    299398.83    296188.56     300356.3    301651.65   -303.55819   -278.14228   -420.41982   -62687.787 
     920   -62687.821    3.6733059  -0.15660589    3.6733062   -0.1566062    3.6733056            0           -0            0    302012.13    303483.04    301585.55     300967.8    172.84342      157.827    238.90839   -62687.821 
     930   -62687.821    3.6733277  -0.15662768     3.673328  -0.15662796    3.6733274            0           -0            0    293494.15    290441.23    294380.26    295660.96    44.981502     41.28105    61.968507   -62687.821 
     940   -62687.862    3.6767463  -0.16004628    3.6767464  -0.16004641    3.6767458            0           -0            0    302409.78    277990.14    311880.81     317358.4   -38618.132   -35208.223   -52890.944   -62687.862 
     950   -62687.876    3.6767523  -0.16005226    3.6767526  -0.16005256     3.676752            0           -0            0    287794.09    288661.28    287460.84    287260.15    143.63537    130.58868    198.18429   -62687.876 
     960   -62687.934    3.6807806  -0.16408063    3.6807809  -0.16408091    3.6807804            0           -0            0    335024.93    332469.34    335838.51    336766.94   -14.388085  -0.22629446    104.91007   -62687.934 
     970   -62687.939     3.680783  -0.16408301    3.6807833   -0.1640833    3.6807827            0           -0            0    279702.66     279449.3    279782.76    279875.93   0.43514477  0.015806832   -3.3002374   -62687.939 
     980   -62687.978    3.6833232  -0.16662315    3.6833235  -0.16662345    3.6833229            0           -0            0    269147.31    270119.42    268857.22    268465.29   -23.645585  -0.43644612    167.57277   -62687.978 
     990   -62688.011    3.6857994  -0.16909937    3.6857994  -0.16909944    3.6857988            0           -0            0    273356.37    237220.09    283928.48    298920.55    2.7030054    1.0353536   -33.314763   -62688.011 
    1000   -62688.015    3.6858081  -0.16910814    3.6858085  -0.16910845    3.6858079            0           -0            0     267969.1    269825.12    267432.93    266649.27    6.9248503  0.070661434   -48.360081   -62688.015 
    1010   -62688.016    3.6858411  -0.16914109    3.6858414  -0.16914139    3.6858409            0           -0            0    269974.73    270577.63    269800.29    269546.27    1.3837053  0.008183215   -9.8062542   -62688.016 
    1020   -62688.078    3.6899925  -0.17329253    3.6899928  -0.17329282    3.6899923            0           -0            0    258260.36    257250.53    258512.48    259018.08   -7.7148795  -0.16974944    43.532781   -62688.078 
    1030   -62688.113    3.6927412  -0.17604119    3.6927414  -0.17604142    3.6927409            0           -0            0    215975.23    204366.56    218993.57    224565.56    4769.7535    130.94132    -26640.54   -62688.113 
    1040   -62688.169    3.6963297  -0.17962968      3.69633  -0.17962998    3.6963295            0           -0            0    252059.45    252392.07    251900.12    251886.16   -1080.9343   -26.978285    6168.9913   -62688.169 
    1050   -62688.237    3.7014126   -0.1847126     3.701413  -0.18471297    3.7014125            0           -0            0    280859.11    293198.22    274966.47    274412.63    627.78676    47.385239   -3042.5166   -62688.237 
    1060    -62688.24    3.7014156  -0.18471556    3.7014158  -0.18471584    3.7014153            0           -0            0    239469.53    239539.82     239435.4    239433.38     2.119537   0.15816524   -10.260921    -62688.24 
    1070    -62688.24    3.7014469  -0.18474692    3.7014472  -0.18474719    3.7014467            0           -0            0    247631.45    247058.56    247906.67    247929.11   -5.9646788  -0.43484114    28.744747    -62688.24 
    1080   -62688.269    3.7035948   -0.1868948    3.7035952  -0.18689518    3.7035947            0           -0            0    228908.84     242387.4    222406.82     221932.3     6.718068   0.12581528   -34.099349   -62688.269 
    1090    -62688.27    3.7036488  -0.18694878     3.703649  -0.18694898    3.7036485            0           -0            0    240311.24    229890.46    245332.25       245711    95.276146    7.4655646   -467.28895    -62688.27 
    1100   -62688.322    3.7075463  -0.19084626    3.7075465  -0.19084654    3.7075461            0           -0            0    239924.01    240502.26    239646.53    239623.25   -148.70937   -9.5320646    691.15225   -62688.322 
    1110   -62688.353     3.709982  -0.19328198    3.7099823  -0.19328235    3.7099819            0           -0            0    242951.53    255082.85    237144.15    236627.58    -2586.282   -161.46014    12116.129   -62688.353 
    1120   -62688.355    3.7100216  -0.19332163    3.7100219   -0.1933219    3.7100214            0           -0            0     222507.9     221800.6    222844.21     222878.9   -1992.1015    -130.7193    9355.6275   -62688.355 
    1130   -62688.413    3.7145679  -0.19786791    3.7145682  -0.19786817    3.7145677            0           -0            0    221515.61    221570.63    221489.69     221486.5    568.62151    50.116992   -2712.0614   -62688.413 
    1140     -62688.5    3.7216571   -0.2049571    3.7216574  -0.20495736    3.7216569            0           -0            0    229322.81    231583.98     228244.2    228140.24    3479.1935     367.9369   -17244.639     -62688.5 
    1150   -62688.502     3.721671  -0.20497102    3.7216713  -0.20497126    3.7216708            0           -0            0    214897.38    212367.23    216108.28    216216.64    125.43253    12.408796   -626.51706   -62688.502 
    1160   -62688.536    3.7245348  -0.20783481    3.7245351  -0.20783508    3.7245346            0           -0            0    211483.56    214116.92    210224.08    210109.69   -204.99297   -24.779427    978.01964   -62688.536 
    1170   -62688.536    3.7245472  -0.20784723    3.7245475  -0.20784747     3.724547            0           -0            0    209156.13    208567.96    209437.18    209463.24     43.27441    5.2187561   -205.79461   -62688.536 
    1180   -62688.561    3.7277011   -0.2110011     3.727701  -0.21100104    3.7277006            0           -0            0    141835.16    100641.41    161515.09    163348.98    971.88806    116.87032    -4905.042   -62688.561 
    1190   -62688.594    3.7294625  -0.21276247    3.7294627  -0.21276272    3.7294623            0           -0            0    197479.52    197939.75    197259.99    197238.81  -0.20919632 -0.027949836   0.96166576   -62688.594 
    1200   -62688.643     3.733993  -0.21729301    3.7339934  -0.21729341     3.733993            0           -0            0    217990.94    239202.03    207909.74    206861.05    1245.2057    85.040298   -5255.0275   -62688.643 
    1210   -62688.646    3.7339945  -0.21729455    3.7339948  -0.21729476    3.7339943            0           -0            0    197980.25    194686.58    199536.59    199717.58   -1595.3814   -116.50664    6514.2128   -62688.646 
    1220   -62688.677    3.7370883  -0.22038826    3.7370885  -0.22038849    3.7370881            0           -0            0    232990.06     231023.8    233879.73    234066.66   -2876.4261   -152.00416    11291.309   -62688.677 
    1230    -62688.69     3.737926  -0.22122603    3.7379263  -0.22122627    3.7379259            0           -0            0    189123.96    189470.29    188959.85    188941.76   -16.096113  -0.62301531    61.317352    -62688.69 
    1240   -62688.734    3.7420899  -0.22538991    3.7420902  -0.22539019    3.7420898            0           -0            0    184450.37    190368.96    181661.84    181320.31    4113.0997    84.719741   -17207.786   -62688.734 
    1250   -62688.739    3.7423963  -0.22569633    3.7423966  -0.22569656    3.7423962            0           -0            0    181152.15    181345.08    181060.78    181050.59   -15.443194  0.010212925    66.979215   -62688.739 
    1260   -62688.796    3.7478728  -0.23117282    3.7478731  -0.23117306    3.7478727            0           -0            0    168785.37    169420.97    168475.14       168460   -3654.9411    32.430413    16147.093   -62688.796 
    1270   -62688.796    3.7478911  -0.23119113    3.7478914  -0.23119137     3.747891            0           -0            0    168738.91    168548.54    168831.96    168836.24    306.65827   -3.7743044   -1353.8028   -62688.796 
    1280   -62688.851    3.7532555  -0.23655546    3.7532557  -0.23655569    3.7532553            0           -0            0     171418.9    172215.71    171024.67    171016.32   -490.73561   -3.7010713    2147.0638   -62688.851 
    1290   -62688.889     3.757122  -0.24042197    3.7571221  -0.24042211    3.7571217            0           -0            0    164584.19    153908.45    169851.99    169992.11    35.586743    1.7324433   -135.27893   -62688.889 
    1300    -62688.89    3.7571362  -0.24043618    3.7571364  -0.24043643    3.7571361            0           -0            0    162024.71    165776.19    160172.97    160124.98    81.153472    3.2149515   -302.98729    -62688.89 
    1310   -62688.911    3.7593253  -0.24262534    3.7593256  -0.24262556    3.7593252            0           -0            0    162295.69    161880.07    162500.62    162506.38   -943.38373   -28.183525    3417.3479   -62688.911 
    1320   -62688.912    3.7594288  -0.24272879     3.759429  -0.24272903    3.7594287            0           -0            0    164108.65    166251.25    163048.77    163025.92   -252.42462   -10.264599    920.34597   -62688.912 
    1330   -62688.913     3.759555  -0.24285501    3.7595551  -0.24285513    3.7595548            0           -0            0    155892.43     143397.9    162072.11    162207.28    53.890866    2.4946451   -198.66163   -62688.913 
    1340   -62688.947    3.7630819  -0.24638194    3.7630822  -0.24638215    3.7630818            0           -0            0    160754.13    159755.98    161244.72    161261.68    353.74298    13.889181    -1273.448   -62688.947 
    1350   -62688.951    3.7635035  -0.24680352    3.7635037   -0.2468037    3.7635034            0           -0            0    161264.39    157131.57    163293.27    163368.32    188.65484    -1.259582   -737.95546   -62688.951 
    1360   -62688.952    3.7636696  -0.24696956    3.7636697  -0.24696973    3.7636694            0           -0            0    166996.32    160266.19    170300.51    170422.27   -2898.3836   -82.338516    10656.092   -62688.952 
    1370   -62688.982    3.7668556  -0.25015563    3.7668559  -0.25015585    3.7668555            0           -0            0    155359.64    155688.41    155197.84    155192.65    5.2915941    3.0666141    24.830191   -62688.982 
    1380   -62689.011    3.7700851  -0.25338506    3.7700852  -0.25338525    3.7700849            0           -0            0    153033.58    149244.09    154894.49    154962.17   -145.04352   -83.101026   -687.36356   -62689.011 
    1390   -62689.015     3.770729  -0.25402897    3.7707293  -0.25402926    3.7707289            0           -0            0    145870.92    155552.06    141121.12    140939.57   -5739.7356   -3309.6924   -27017.157   -62689.015 
    1400   -62689.037    3.7728952  -0.25619523    3.7728954  -0.25619544    3.7728951            0           -0            0    143643.63    143830.07    143551.91    143548.92   -13.028419   -7.6581727   -52.410669   -62689.037 
    1410    -62689.06    3.7756888  -0.25898884    3.7756891  -0.25898911    3.7756888            0           -0            0    160372.52    168444.57    156401.75    156271.23   -6.1317231   -3.3773802   -47.924451    -62689.06 
    1420   -62689.061    3.7757005  -0.25900054    3.7757007  -0.25900075    3.7757004            0           -0            0    145248.33    144588.92    145573.09    145582.98   -2.1852805   -1.0171874   -15.575033   -62689.061 
    1430   -62689.089    3.7789012  -0.26220119    3.7789014   -0.2622014    3.7789011            0           -0            0    137016.97    137686.75    136686.89    136677.27   -128.44992   -61.836335   -943.97173   -62689.089 
    1440   -62689.093    3.7795461  -0.26284611    3.7795465  -0.26284647    3.7795462            0           -0            0    147559.96    166063.91    138441.51    138174.45    -219.7624   -106.24673   -1666.8583   -62689.093 
    1450   -62689.094    3.7795482  -0.26284816    3.7795484  -0.26284836     3.779548            0           -0            0    138143.99    137824.07    138301.38    138306.53   -4.7233693   -2.2439402   -35.782473   -62689.094 
    1460   -62689.095    3.7796705  -0.26297049    3.7796707  -0.26297069    3.7796704            0           -0            0    140066.78    139702.63     140246.5    140251.22   -56.587335   -27.016339   -429.52578   -62689.095 
    1470   -62689.127    3.7834725  -0.26677255    3.7834727  -0.26677268    3.7834724            0           -0            0    134763.85     126543.1    138821.63    138926.83   -357.16859   -169.75632   -2698.2767   -62689.127 
    1480    -62689.15    3.7863464  -0.26964639    3.7863465  -0.26964653    3.7863462            0           -0            0    125771.05    118800.63    129213.39    129299.13   -1218.2484    -579.2054   -9449.9937    -62689.15 
    1490   -62689.152    3.7865373  -0.26983731    3.7865375   -0.2698375    3.7865372            0           -0            0    130413.83    129865.98    130684.42    130691.09   -32.349907   -17.485413   -188.06118   -62689.152 
    1500   -62689.202     3.792755  -0.27605497    3.7927552  -0.27605521    3.7927549            0           -0            0    123570.46    128539.56    121115.58    121056.24   -373.80728   -204.61276   -2219.3936   -62689.202 
    1510   -62689.226    3.7960327  -0.27933272    3.7960329  -0.27933294    3.7960327            0           -0            0    145229.49    148150.21    143781.13    143757.12   -357.57087   -183.42673   -2196.2182   -62689.226 
    1520   -62689.227    3.7960394   -0.2793394    3.7960396  -0.27933959    3.7960393            0           -0            0    121712.57    120699.96    122214.81    122222.95    294.75736    163.16027    1700.2583   -62689.227 
    1530    -62689.25    3.7990364  -0.28233636    3.7990365  -0.28233652    3.7990362            0           -0            0    119663.76    116127.79    121417.87    121445.63    335.95994    187.09846     1899.142    -62689.25 
    1540    -62689.25    3.7990472  -0.28234725    3.7990474  -0.28234743    3.7990472            0           -0            0    119188.74     117805.8       119875    119885.41   -207.40889   -115.43557   -1168.6598    -62689.25 
    1550   -62689.277    3.8026854  -0.28598544    3.8026856  -0.28598562    3.8026854            0           -0            0    116552.44    115735.92    116959.18    116962.21    23.206092    12.253987    145.16951   -62689.277 
    1560   -62689.315    3.8080907  -0.29139071    3.8080909  -0.29139089    3.8080906            0           -0            0    115532.85    115208.04    115694.28    115696.23    116.27402    63.348655    737.82441   -62689.315 
    1570   -62689.316    3.8083697  -0.29166974      3.80837     -0.29167    3.8083697            0           -0            0    125594.51    134630.13     121098.5    121054.91   -276.12212   -150.54446   -1722.2337   -62689.316 
    1580    -62689.36    3.8146047  -0.29790471    3.8146049  -0.29790488    3.8146046            0           -0            0    106186.49    104807.45    106871.61    106880.41    57.753708     31.66171    342.61426    -62689.36 
    1590   -62689.383    3.8181771  -0.30147713    3.8181774  -0.30147737    3.8181771            0           -0            0    118246.33    124813.72    114980.36    114944.92      239.942    139.90579    1252.1376   -62689.383 
    1600   -62689.384    3.8181798  -0.30147984      3.81818  -0.30148002    3.8181798            0           -0            0     102478.7    102468.73    102483.57    102483.78   -10.403427   -5.6878416   -62.683421   -62689.384 
    1610   -62689.399    3.8204978  -0.30379782     3.820498  -0.30379801    3.8204978            0           -0            0    100764.77    101769.55    100265.22    100259.55    627.04329    345.54593    3809.7357   -62689.399 
    1620   -62689.407    3.8219239  -0.30522394     3.821924  -0.30522398    3.8219237            0           -0            0    106913.29    91376.901    114629.43    114733.53    67.624817    39.124219    343.99077   -62689.407 
    1630   -62689.408    3.8219265  -0.30522653    3.8219267  -0.30522671    3.8219265            0           -0            0    99505.263    99505.035    99505.299    99505.455  -0.21862316  -0.12358602   -1.0644179   -62689.408 
    1640    -62689.42     3.823815  -0.30711498    3.8238152  -0.30711515    3.8238149            0           -0            0    96759.413    96161.817    97052.397    97064.025   -23.413292   -13.205951   -113.74294    -62689.42 
    1650   -62689.446    3.8279554  -0.31125544    3.8279556  -0.31125561    3.8279554            0           -0            0    98646.821    98672.748    98634.288    98633.427   -579.59962   -323.49446   -2523.4667   -62689.446 
    1660   -62689.446    3.8279627   -0.3112627    3.8279629  -0.31126287    3.8279626            0           -0            0    95911.749    95891.311    95921.835      95922.1   -270.76378   -151.09726   -1179.5555   -62689.446 
    1670    -62689.47    3.8319684  -0.31526844    3.8319686  -0.31526862    3.8319684            0           -0            0    93839.047     95123.83    93211.229    93182.082    90.405426    51.250398    366.67912    -62689.47 
    1680   -62689.482    3.8340728   -0.3173728     3.834073  -0.31737296    3.8340727            0           -0            0    100528.58    100731.04    100441.44    100413.27    69.685127    39.549265    285.70429   -62689.482 
    1690   -62689.483    3.8342333  -0.31753325    3.8342334  -0.31753335    3.8342331            0           -0            0    81919.157     73653.15    85477.113     86627.21    222.58745    126.81283    916.05962   -62689.483 
    1700   -62689.501    3.8373377  -0.32063769    3.8373379  -0.32063786    3.8373377            0           -0            0    89926.297    91883.388     89091.54    88803.962    343.62033    195.97115    1417.6457   -62689.501 
    1710   -62689.502    3.8373503  -0.32065026    3.8373504  -0.32065042    3.8373502            0           -0            0    89611.096    89046.512    89852.027    89934.749   -16.280655   -9.2479554   -67.003078   -62689.502 
    1720   -62689.512    3.8394441  -0.32274415    3.8394443  -0.32274426     3.839444            0           -0            0    99697.411    93981.264    102102.86     103008.1    -4700.277   -2690.6346   -19562.978   -62689.512 
    1730   -62689.525    3.8414189  -0.32471887     3.841419  -0.32471903    3.8414188            0           -0            0    84859.131    84858.595    84859.168     84859.63    96.024597    54.738276    399.03351   -62689.525 
    1740   -62689.538    3.8443756  -0.32767564    3.8443758   -0.3276758    3.8443756            0           -0            0    97010.384    97390.318    96898.171    96742.663   -5974.6166   -3413.7014   -24801.946   -62689.538 
    1750   -62689.543    3.8450802  -0.32838019    3.8450802  -0.32838021      3.84508            0           -0            0    79141.764    61651.719    85015.949    90757.623    1672.9078    959.42162    7029.8344   -62689.543 
    1760   -62689.564    3.8486782  -0.33197821    3.8486784  -0.33197837    3.8486782            0           -0            0    79098.801    80138.241    78751.611    78406.552   -387.79243   -219.64654   -1612.0313   -62689.564 
    1770   -62689.564     3.848685  -0.33198504    3.8486852   -0.3319852     3.848685            0           -0            0    82305.067    82588.464    82210.254    82116.483   -10.091998   -5.6944618   -41.627253   -62689.564 
    1780   -62689.572    3.8509646  -0.33426457    3.8509648   -0.3342648    3.8509646            0           -0            0    42020.562    52963.221    38286.509    34811.957   -385.89425   -216.97017   -1560.6484   -62689.572 
    1790   -62689.585    3.8527239  -0.33602386     3.852724  -0.33602401    3.8527238            0           -0            0    77950.708    78102.851    77903.799    77845.474    46.384099    25.976014     188.2667   -62689.585 
    1800   -62689.603    3.8563738  -0.33967384     3.856374  -0.33967397    3.8563738            0           -0            0    79053.878    76748.247    79751.471    80661.914    278.33754    154.37898     1084.085   -62689.603 
    1810   -62689.604    3.8564116  -0.33971158    3.8564117   -0.3397117    3.8564115            0           -0            0     74297.85    70512.641    75449.136    76931.772   -6.6015585    -3.439999   -25.135089   -62689.604 
    1820   -62689.627     3.861216  -0.34451603    3.8612162  -0.34451616     3.861216            0           -0            0    73743.656     71318.42    74475.999    75436.547    15.341684      8.58955    59.597879   -62689.627 
    1830   -62689.636    3.8632674  -0.34656736    3.8632674  -0.34656744    3.8632672            0           -0            0     87768.81    79383.559    90374.731     93548.14   -191.07414   -99.120881   -659.24353   -62689.636 
    1840   -62689.637    3.8632692  -0.34656915    3.8632693   -0.3465693    3.8632691            0           -0            0    71479.009     72231.37    71247.247    70958.409 -0.021456557 -0.065088885  -0.38563517   -62689.637 
    1850   -62689.637    3.8633021  -0.34660213    3.8633023  -0.34660228    3.8633021            0           -0            0    70694.053    70877.489     70636.98    70567.692 -0.011380065 -0.020412641  -0.13334691   -62689.637 
    1860   -62689.651    3.8662834  -0.34958344    3.8662835  -0.34958351    3.8662833            0           -0            0    72189.591    62608.477    75095.155    78865.142    27.058357    20.528838    173.25095   -62689.651 
    1870   -62689.651    3.8662857  -0.34958575    3.8662859   -0.3495859    3.8662857            0           -0            0    69208.075    69560.921    69101.107    68962.196   -11.476537   -8.4478419   -71.634272   -62689.651 
    1880   -62689.652    3.8663944  -0.34969443    3.8663946  -0.34969458    3.8663944            0           -0            0    69523.967    69502.353    69530.315    69539.233   -36.716012   -26.996609   -229.58877   -62689.652 
    1890    -62689.67    3.8704707  -0.35377068    3.8704708  -0.35377079    3.8704706            0           -0            0    69515.003    64874.587    70841.086    72829.336   -107.24365    -78.50952   -683.08669    -62689.67 
    1900    -62689.67    3.8704722  -0.35377223    3.8704724  -0.35377237    3.8704722            0           -0            0     66423.29    66473.231      66408.9    66387.739  0.016301368 0.0087425582  0.087762479    -62689.67 
    1910   -62689.671    3.8706524  -0.35395237    3.8706525  -0.35395251    3.8706523            0           -0            0    65511.894    65785.586    65432.602    65317.494   0.21129732   0.13806484    1.2761028   -62689.671 
    1920   -62689.684    3.8744575  -0.35775748    3.8744578  -0.35775779    3.8744577            0           -0            0    82856.103    104290.95    76597.298    67680.067    -2.131125   -2.9261622   -19.413903   -62689.684 
    1930   -62689.688    3.8744596  -0.35775956    3.8744597   -0.3577597    3.8744595            0           -0            0    64916.894    65243.372    64822.842    64684.469  0.033936257 0.0033942876  0.097799708   -62689.688 
    1940   -62689.688    3.8744956  -0.35779555    3.8744957  -0.35779569    3.8744955            0           -0            0    65366.361    65067.008    65451.495     65580.58  -0.28337965  -0.18407079   -1.5429758   -62689.688 
    1950     -62689.7    3.8772155  -0.36051552    3.8772157  -0.36051565    3.8772155            0           -0            0    68815.881    68602.587    68810.777    69034.278   -2.6233407   -1.8690212    -15.05502     -62689.7 
    1960     -62689.7     3.877331  -0.36063103    3.8773312  -0.36063119     3.877331            0           -0            0    69605.175    73052.244     69685.86     66077.42    1.2331377   0.67914377    6.4389029     -62689.7 
    1970   -62689.712    3.8801326  -0.36343258    3.8801327  -0.36343272    3.8801326            0           -0            0     63528.16    63897.969    63531.915    63154.598    13.324361    9.5481115    76.715541   -62689.712 
    1980   -62689.716    3.8811801  -0.36448015    3.8811803  -0.36448029    3.8811801            0           -0            0    62460.726      64255.2    62433.119    60693.861   -2388.1678   -1713.6892   -13702.734   -62689.716 
Loop time of 0.119358 on 1 procs for 1980 steps with 4 atoms

99.7% CPU use with 1 MPI tasks x no OpenMP threads

Minimization stats:
  Stopping criterion = max force evaluations
  Energy initial, next-to-last, final = 
        -17.8069238179     -62689.7146144     -62689.7155518
  Force two-norm initial, final = 0.362188 189.25
  Force max component initial, final = 0.209074 82.2075
  Final line search alpha, max atom move = 1.46743e-06 0.000120634
  Iterations, force evaluations = 1980 10001

MPI task timing breakdown:
Section |  min time  |  avg time  |  max time  |%varavg| %total
---------------------------------------------------------------
Pair    | 0.062271   | 0.062271   | 0.062271   |   0.0 | 52.17
Neigh   | 6.5088e-05 | 6.5088e-05 | 6.5088e-05 |   0.0 |  0.05
Comm    | 0.012544   | 0.012544   | 0.012544   |   0.0 | 10.51
Output  | 0.0023139  | 0.0023139  | 0.0023139  |   0.0 |  1.94
Modify  | 0          | 0          | 0          |   0.0 |  0.00
Other   |            | 0.04216    |            |       | 35.33

Nlocal:    4 ave 4 max 4 min
Histogram: 1 0 0 0 0 0 0 0 0 0
Nghost:    252 ave 252 max 252 min
Histogram: 1 0 0 0 0 0 0 0 0 0
Neighs:    73 ave 73 max 73 min
Histogram: 1 0 0 0 0 0 0 0 0 0

Total # of neighbors = 73
Ave neighs/atom = 18.25
Neighbor list builds = 5
Dangerous builds = 0
# ---- define output variables ----
variable natoms equal "count(all)"
variable tot_energy equal "c_eatoms"
variable a11 equal "xhi-xlo"
variable a22 equal "yhi-ylo"
variable a33 equal "zhi-zlo"
variable tilt_xy equal "xy"
variable tilt_xz equal "xz"
variable tilt_yz equal "yz"
variable tot_press equal "press"
variable press_xx equal "pxx"
variable press_yy equal "pyy"
variable press_zz equal "pzz"
variable press_xy equal "pxy"
variable press_xz equal "pxz"
variable press_yz equal "pyz"

# ---- output ----
print "pypospack:output_section:begin"
pypospack:output_section:begin
print "tot_energy = ${tot_energy}"
tot_energy = -62689.7155517943
print "num_atoms = ${natoms}"
num_atoms = 4
print "a11 = ${a11}"
a11 = 4.24566029558384
print "a22 = ${a22}"
a22 = 4.24566058702963
print "a33 = ${a33}"
a33 = 4.24566028644967
print "a12 = ${tilt_xy}"
a12 = 0
print "a13 = ${tilt_xz}"
a13 = -0
print "a23 = ${tilt_yz}"
a23 = 0
print "tot_press = ${tot_press}"
tot_press = 62460.726451756
print "pxx = ${press_xx}"
pxx = 64255.1998714401
print "pyy = ${press_yy}"
pyy = 62433.1187182312
print "pzz = ${press_zz}"
pzz = 60693.8607655967
print "pxy = ${press_xy}"
pxy = -2388.1678037249
print "pxz = ${press_xz}"
pxz = -1713.68918586039
print "pyz = ${press_yz}"
pyz = -13702.7335469291
print "pypospack:output_section:done"
pypospack:output_section:done
print "pypospack:lammps_sim:done"
pypospack:lammps_sim:done
Total wall time: 0:00:00
