# ['Si']

215 atoms
1 atom types

    0.0000    90.8223 xlo xhi
    0.0000    90.8223 ylo yhi
    0.0000    90.8223 zlo zhi

    0.0000     0.0000     0.0000 xy xz yz

Atoms

1 1     7.5685     7.5685     7.5685
2 1     0.0000    15.1371    15.1371
3 1     7.5685    22.7056    22.7056
4 1    15.1371     0.0000    15.1371
5 1    22.7056     7.5685    22.7056
6 1    15.1371    15.1371     0.0000
7 1    22.7056    22.7056     7.5685
8 1     0.0000     0.0000    30.2741
9 1     7.5685     7.5685    37.8426
10 1     0.0000    15.1371    45.4111
11 1     7.5685    22.7056    52.9796
12 1    15.1371     0.0000    45.4111
13 1    22.7056     7.5685    52.9796
14 1    15.1371    15.1371    30.2741
15 1    22.7056    22.7056    37.8426
16 1     0.0000     0.0000    60.5482
17 1     7.5685     7.5685    68.1167
18 1     0.0000    15.1371    75.6852
19 1     7.5685    22.7056    83.2538
20 1    15.1371     0.0000    75.6852
21 1    22.7056     7.5685    83.2538
22 1    15.1371    15.1371    60.5482
23 1    22.7056    22.7056    68.1167
24 1     0.0000    30.2741     0.0000
25 1     7.5685    37.8426     7.5685
26 1     0.0000    45.4111    15.1371
27 1     7.5685    52.9796    22.7056
28 1    15.1371    30.2741    15.1371
29 1    22.7056    37.8426    22.7056
30 1    15.1371    45.4111     0.0000
31 1    22.7056    52.9796     7.5685
32 1     0.0000    30.2741    30.2741
33 1     7.5685    37.8426    37.8426
34 1     0.0000    45.4111    45.4111
35 1     7.5685    52.9796    52.9796
36 1    15.1371    30.2741    45.4111
37 1    22.7056    37.8426    52.9796
38 1    15.1371    45.4111    30.2741
39 1    22.7056    52.9796    37.8426
40 1     0.0000    30.2741    60.5482
41 1     7.5685    37.8426    68.1167
42 1     0.0000    45.4111    75.6852
43 1     7.5685    52.9796    83.2538
44 1    15.1371    30.2741    75.6852
45 1    22.7056    37.8426    83.2538
46 1    15.1371    45.4111    60.5482
47 1    22.7056    52.9796    68.1167
48 1     0.0000    60.5482     0.0000
49 1     7.5685    68.1167     7.5685
50 1     0.0000    75.6852    15.1371
51 1     7.5685    83.2538    22.7056
52 1    15.1371    60.5482    15.1371
53 1    22.7056    68.1167    22.7056
54 1    15.1371    75.6852     0.0000
55 1    22.7056    83.2538     7.5685
56 1     0.0000    60.5482    30.2741
57 1     7.5685    68.1167    37.8426
58 1     0.0000    75.6852    45.4111
59 1     7.5685    83.2538    52.9796
60 1    15.1371    60.5482    45.4111
61 1    22.7056    68.1167    52.9796
62 1    15.1371    75.6852    30.2741
63 1    22.7056    83.2538    37.8426
64 1     0.0000    60.5482    60.5482
65 1     7.5685    68.1167    68.1167
66 1     0.0000    75.6852    75.6852
67 1     7.5685    83.2538    83.2538
68 1    15.1371    60.5482    75.6852
69 1    22.7056    68.1167    83.2538
70 1    15.1371    75.6852    60.5482
71 1    22.7056    83.2538    68.1167
72 1    30.2741     0.0000     0.0000
73 1    37.8426     7.5685     7.5685
74 1    30.2741    15.1371    15.1371
75 1    37.8426    22.7056    22.7056
76 1    45.4111     0.0000    15.1371
77 1    52.9796     7.5685    22.7056
78 1    45.4111    15.1371     0.0000
79 1    52.9796    22.7056     7.5685
80 1    30.2741     0.0000    30.2741
81 1    37.8426     7.5685    37.8426
82 1    30.2741    15.1371    45.4111
83 1    37.8426    22.7056    52.9796
84 1    45.4111     0.0000    45.4111
85 1    52.9796     7.5685    52.9796
86 1    45.4111    15.1371    30.2741
87 1    52.9796    22.7056    37.8426
88 1    30.2741     0.0000    60.5482
89 1    37.8426     7.5685    68.1167
90 1    30.2741    15.1371    75.6852
91 1    37.8426    22.7056    83.2538
92 1    45.4111     0.0000    75.6852
93 1    52.9796     7.5685    83.2538
94 1    45.4111    15.1371    60.5482
95 1    52.9796    22.7056    68.1167
96 1    30.2741    30.2741     0.0000
97 1    37.8426    37.8426     7.5685
98 1    30.2741    45.4111    15.1371
99 1    37.8426    52.9796    22.7056
100 1    45.4111    30.2741    15.1371
101 1    52.9796    37.8426    22.7056
102 1    45.4111    45.4111     0.0000
103 1    52.9796    52.9796     7.5685
104 1    30.2741    30.2741    30.2741
105 1    37.8426    37.8426    37.8426
106 1    30.2741    45.4111    45.4111
107 1    37.8426    52.9796    52.9796
108 1    45.4111    30.2741    45.4111
109 1    52.9796    37.8426    52.9796
110 1    45.4111    45.4111    30.2741
111 1    52.9796    52.9796    37.8426
112 1    30.2741    30.2741    60.5482
113 1    37.8426    37.8426    68.1167
114 1    30.2741    45.4111    75.6852
115 1    37.8426    52.9796    83.2538
116 1    45.4111    30.2741    75.6852
117 1    52.9796    37.8426    83.2538
118 1    45.4111    45.4111    60.5482
119 1    52.9796    52.9796    68.1167
120 1    30.2741    60.5482     0.0000
121 1    37.8426    68.1167     7.5685
122 1    30.2741    75.6852    15.1371
123 1    37.8426    83.2538    22.7056
124 1    45.4111    60.5482    15.1371
125 1    52.9796    68.1167    22.7056
126 1    45.4111    75.6852     0.0000
127 1    52.9796    83.2538     7.5685
128 1    30.2741    60.5482    30.2741
129 1    37.8426    68.1167    37.8426
130 1    30.2741    75.6852    45.4111
131 1    37.8426    83.2538    52.9796
132 1    45.4111    60.5482    45.4111
133 1    52.9796    68.1167    52.9796
134 1    45.4111    75.6852    30.2741
135 1    52.9796    83.2538    37.8426
136 1    30.2741    60.5482    60.5482
137 1    37.8426    68.1167    68.1167
138 1    30.2741    75.6852    75.6852
139 1    37.8426    83.2538    83.2538
140 1    45.4111    60.5482    75.6852
141 1    52.9796    68.1167    83.2538
142 1    45.4111    75.6852    60.5482
143 1    52.9796    83.2538    68.1167
144 1    60.5482     0.0000     0.0000
145 1    68.1167     7.5685     7.5685
146 1    60.5482    15.1371    15.1371
147 1    68.1167    22.7056    22.7056
148 1    75.6852     0.0000    15.1371
149 1    83.2538     7.5685    22.7056
150 1    75.6852    15.1371     0.0000
151 1    83.2538    22.7056     7.5685
152 1    60.5482     0.0000    30.2741
153 1    68.1167     7.5685    37.8426
154 1    60.5482    15.1371    45.4111
155 1    68.1167    22.7056    52.9796
156 1    75.6852     0.0000    45.4111
157 1    83.2538     7.5685    52.9796
158 1    75.6852    15.1371    30.2741
159 1    83.2538    22.7056    37.8426
160 1    60.5482     0.0000    60.5482
161 1    68.1167     7.5685    68.1167
162 1    60.5482    15.1371    75.6852
163 1    68.1167    22.7056    83.2538
164 1    75.6852     0.0000    75.6852
165 1    83.2538     7.5685    83.2538
166 1    75.6852    15.1371    60.5482
167 1    83.2538    22.7056    68.1167
168 1    60.5482    30.2741     0.0000
169 1    68.1167    37.8426     7.5685
170 1    60.5482    45.4111    15.1371
171 1    68.1167    52.9796    22.7056
172 1    75.6852    30.2741    15.1371
173 1    83.2538    37.8426    22.7056
174 1    75.6852    45.4111     0.0000
175 1    83.2538    52.9796     7.5685
176 1    60.5482    30.2741    30.2741
177 1    68.1167    37.8426    37.8426
178 1    60.5482    45.4111    45.4111
179 1    68.1167    52.9796    52.9796
180 1    75.6852    30.2741    45.4111
181 1    83.2538    37.8426    52.9796
182 1    75.6852    45.4111    30.2741
183 1    83.2538    52.9796    37.8426
184 1    60.5482    30.2741    60.5482
185 1    68.1167    37.8426    68.1167
186 1    60.5482    45.4111    75.6852
187 1    68.1167    52.9796    83.2538
188 1    75.6852    30.2741    75.6852
189 1    83.2538    37.8426    83.2538
190 1    75.6852    45.4111    60.5482
191 1    83.2538    52.9796    68.1167
192 1    60.5482    60.5482     0.0000
193 1    68.1167    68.1167     7.5685
194 1    60.5482    75.6852    15.1371
195 1    68.1167    83.2538    22.7056
196 1    75.6852    60.5482    15.1371
197 1    83.2538    68.1167    22.7056
198 1    75.6852    75.6852     0.0000
199 1    83.2538    83.2538     7.5685
200 1    60.5482    60.5482    30.2741
201 1    68.1167    68.1167    37.8426
202 1    60.5482    75.6852    45.4111
203 1    68.1167    83.2538    52.9796
204 1    75.6852    60.5482    45.4111
205 1    83.2538    68.1167    52.9796
206 1    75.6852    75.6852    30.2741
207 1    83.2538    83.2538    37.8426
208 1    60.5482    60.5482    60.5482
209 1    68.1167    68.1167    68.1167
210 1    60.5482    75.6852    75.6852
211 1    68.1167    83.2538    83.2538
212 1    75.6852    60.5482    75.6852
213 1    83.2538    68.1167    83.2538
214 1    75.6852    75.6852    60.5482
215 1    83.2538    83.2538    68.1167
