       N       E                     dE             d eps       ncg     rms          rms(c)
DAV:   1    -0.880495554796E+03   -0.88050E+03   -0.25165E+04   512   0.206E+03
DAV:   2    -0.101960477152E+04   -0.13911E+03   -0.13843E+03   768   0.283E+02
DAV:   3    -0.102089742673E+04   -0.12927E+01   -0.12776E+01   512   0.273E+01
DAV:   4    -0.102092801623E+04   -0.30589E-01   -0.30578E-01   784   0.385E+00
DAV:   5    -0.102092847093E+04   -0.45470E-03   -0.45470E-03   592   0.407E-01    0.140E+02
DAV:   6    -0.146268593733E+03    0.87466E+03   -0.51942E+02   704   0.157E+02    0.732E+01
DAV:   7    -0.316347429292E+03   -0.17008E+03   -0.37422E+03   640   0.347E+02    0.116E+02
DAV:   8    -0.605548456063E+02    0.25579E+03   -0.22509E+03   512   0.579E+02    0.530E+01
DAV:   9    -0.216778299347E+02    0.38877E+02   -0.27739E+02   656   0.130E+02    0.676E+00
DAV:  10    -0.283499997183E+02   -0.66722E+01   -0.16124E+01   624   0.436E+01    0.206E+01
DAV:  11    -0.217947655388E+02    0.65552E+01   -0.17560E+01   560   0.433E+01    0.549E+00
DAV:  12    -0.222395844070E+02   -0.44482E+00   -0.23879E+00   656   0.191E+01    0.768E+00
DAV:  13    -0.216539669509E+02    0.58562E+00   -0.13353E+00   608   0.156E+01    0.443E+00
DAV:  14    -0.217478740782E+02   -0.93907E-01   -0.41968E-01   576   0.800E+00    0.488E+00
DAV:  15    -0.217236751465E+02    0.24199E-01   -0.54178E-02   560   0.314E+00    0.371E+00
DAV:  16    -0.217153636653E+02    0.83115E-02   -0.11526E-02   608   0.134E+00    0.258E+00
DAV:  17    -0.216531415772E+02    0.62222E-01   -0.40132E-02   528   0.265E+00    0.212E+00
DAV:  18    -0.216059379584E+02    0.47204E-01   -0.67589E-02   544   0.337E+00    0.323E-01
DAV:  19    -0.216050182604E+02    0.91970E-03   -0.86617E-03   704   0.111E+00    0.133E-01
DAV:  20    -0.216051789916E+02   -0.16073E-03   -0.19309E-04   624   0.111E-01    0.131E-01
DAV:  21    -0.216049463250E+02    0.23267E-03   -0.31824E-04   560   0.239E-01    0.378E-02
DAV:  22    -0.216049269479E+02    0.19377E-04   -0.88113E-05   624   0.117E-01    0.163E-02
DAV:  23    -0.216049276117E+02   -0.66378E-06   -0.19040E-06   576   0.106E-02
   1 F= -.21604928E+02 E0= -.21580048E+02  d E =-.746384E-01  mag=     0.0006
