# ['Ni']

20 atoms
1 atom types

    0.0000     2.3392 xlo xhi
    0.0000     2.3392 ylo yhi
    0.0000    23.3920 zlo zhi

    0.0000    -0.0000     0.0000 xy xz yz

Atoms

1 1     0.0000     0.0000     0.0000
2 1     1.1696     1.1696     0.0000
3 1     1.1696     0.0000     1.1696
4 1     0.0000     1.1696     1.1696
5 1     0.0000     0.0000     2.3392
6 1     1.1696     1.1696     2.3392
7 1     1.1696     0.0000     3.5088
8 1     0.0000     1.1696     3.5088
9 1     0.0000     0.0000     4.6784
10 1     1.1696     1.1696     4.6784
11 1     1.1696     0.0000     5.8480
12 1     0.0000     1.1696     5.8480
13 1     0.0000     0.0000     7.0176
14 1     1.1696     1.1696     7.0176
15 1     1.1696     0.0000     8.1872
16 1     0.0000     1.1696     8.1872
17 1     0.0000     0.0000     9.3568
18 1     1.1696     1.1696     9.3568
19 1     1.1696     0.0000    10.5264
20 1     0.0000     1.1696    10.5264
