# ['Ni']

20 atoms
1 atom types

    0.0000     3.6447 xlo xhi
    0.0000     3.6447 ylo yhi
    0.0000    36.4471 zlo zhi

    0.0000    -0.0000     0.0000 xy xz yz

Atoms

1 1     0.0000     0.0000     0.0000
2 1     1.8224     1.8224     0.0000
3 1     1.8224     0.0000     1.8224
4 1     0.0000     1.8224     1.8224
5 1     0.0000     0.0000     3.6447
6 1     1.8224     1.8224     3.6447
7 1     1.8224     0.0000     5.4671
8 1     0.0000     1.8224     5.4671
9 1     0.0000     0.0000     7.2894
10 1     1.8224     1.8224     7.2894
11 1     1.8224     0.0000     9.1118
12 1     0.0000     1.8224     9.1118
13 1     0.0000     0.0000    10.9341
14 1     1.8224     1.8224    10.9341
15 1     1.8224     0.0000    12.7565
16 1     0.0000     1.8224    12.7565
17 1     0.0000     0.0000    14.5789
18 1     1.8224     1.8224    14.5789
19 1     1.8224     0.0000    16.4012
20 1     0.0000     1.8224    16.4012
