# ['Ni']

28 atoms
1 atom types

    0.0000     2.1918 xlo xhi
    0.0000     3.7962 ylo yhi
    0.0000    25.0538 zlo zhi

    0.0000     0.0000     0.0000 xy xz yz

Atoms

1 1     0.0000     0.0000     0.0000
2 1     1.0959     1.8981     0.0000
3 1     1.0959     0.6327     1.7896
4 1     0.0000     2.5308     1.7896
5 1     0.0000     1.2654     3.5791
6 1     1.0959     3.1635     3.5791
7 1     0.0000     0.0000     5.3687
8 1     1.0959     1.8981     5.3687
9 1     1.0959     0.6327     7.1582
10 1     0.0000     2.5308     7.1582
11 1     0.0000     1.2654     8.9478
12 1     1.0959     3.1635     8.9478
13 1     0.0000     0.0000    10.7373
14 1     1.0959     1.8981    10.7373
15 1     0.0000     1.2654    12.5269
16 1     1.0959     3.1635    12.5269
17 1     0.0000     0.0000    14.3165
18 1     1.0959     1.8981    14.3165
19 1     1.0959     0.6327    16.1060
20 1     0.0000     2.5308    16.1060
21 1     0.0000     1.2654    17.8956
22 1     1.0959     3.1635    17.8956
23 1     0.0000     0.0000    19.6851
24 1     1.0959     1.8981    19.6851
25 1     1.0959     0.6327    21.4747
26 1     0.0000     2.5308    21.4747
27 1     0.0000     1.2654    23.2642
28 1     1.0959     3.1635    23.2642
