LAMMPS (16 Mar 2018)
Reading data file ...
  triclinic box = (0 0 0) to (4.2565 4.2565 4.2565) with tilt (0 0 0)
  1 by 1 by 1 MPI processor grid
  reading atoms ...
  8 atoms
4 atoms in group Mg
4 atoms in group O
Setting atom values ...
  4 settings made for charge
Setting atom values ...
  4 settings made for charge
PPPM initialization ...
  using 12-bit tables for long-range coulomb (../kspace.cpp:321)
  G vector (1/distance) = 0.354605
  grid = 8 8 8
  stencil order = 5
  estimated absolute RMS force accuracy = 5.09268e-05
  estimated relative force accuracy = 3.53667e-06
  using double precision FFTs
  3d grid and FFT values/proc = 3375 512
Neighbor list info ...
  update every 1 steps, delay 0 steps, check yes
  max neighbors/atom: 2000, page size: 100000
  master list distance cutoff = 11
  ghost atom cutoff = 11
  binsize = 5.5, bins = 1 1 1
  1 neighbor lists, perpetual/occasional/extra = 1 0 0
  (1) pair buck/coul/long, perpetual
      attributes: half, newton on
      pair build: half/bin/newton/tri
      stencil: half/bin/3d/newton/tri
      bin: standard
Setting up cg style minimization ...
  Unit style    : metal
  Current step  : 0
WARNING: Energy due to 3 extra global DOFs will be included in minimizer energies
Per MPI rank memory allocation (min/avg/max) = 4.909 | 4.909 | 4.909 Mbytes
Step PotEng Xhi Xlo Yhi Ylo Zhi Xy Xz Yz Press Pxx Pyy Pzz Pxy Pxz Pyz c_eatoms 
       0   -155.78589       4.2565            0       4.2565            0       4.2565            0            0            0   -134079.58   -134079.58   -134079.58   -134079.58 6.4455542e-11 -1.5052738e-10 -2.2249159e-10   -155.78589 
      10   -155.94128    4.2352175    0.0212825    4.2352175    0.0212825    4.2352175            0            0            0   -81974.898   -81974.898   -81974.898   -81974.898 -3.5591525e-12 -2.1860742e-10 1.4622474e-10   -155.94128 
      20   -156.01553     4.213935     0.042565     4.213935     0.042565     4.213935            0            0            0   -22626.507   -22626.507   -22626.507   -22626.507 -7.3719519e-11 -1.6344172e-10 -1.354522e-10   -156.01553 
      29   -156.02107    4.2064879  0.050012111    4.2064879  0.050012111    4.2064879            0            0            0   0.10830701   0.10830702   0.10830701   0.10830701 -1.0292212e-10 2.2552789e-10 -1.7443922e-10   -156.02107 
Loop time of 0.021852 on 1 procs for 29 steps with 8 atoms

100.0% CPU use with 1 MPI tasks x no OpenMP threads

Minimization stats:
  Stopping criterion = linesearch alpha is zero
  Energy initial, next-to-last, final = 
        -155.785893369     -156.021074769     -156.021074769
  Force two-norm initial, final = 11.1782 3.33297e-05
  Force max component initial, final = 6.45372 8.70026e-06
  Final line search alpha, max atom move = 0.5 4.35013e-06
  Iterations, force evaluations = 29 38

MPI task timing breakdown:
Section |  min time  |  avg time  |  max time  |%varavg| %total
---------------------------------------------------------------
Pair    | 0.0060892  | 0.0060892  | 0.0060892  |   0.0 | 27.87
Kspace  | 0.0053103  | 0.0053103  | 0.0053103  |   0.0 | 24.30
Neigh   | 0          | 0          | 0          |   0.0 |  0.00
Comm    | 0.000422   | 0.000422   | 0.000422   |   0.0 |  1.93
Output  | 3.4094e-05 | 3.4094e-05 | 3.4094e-05 |   0.0 |  0.16
Modify  | 0          | 0          | 0          |   0.0 |  0.00
Other   |            | 0.009996   |            |       | 45.75

Nlocal:    8 ave 8 max 8 min
Histogram: 1 0 0 0 0 0 0 0 0 0
Nghost:    2189 ave 2189 max 2189 min
Histogram: 1 0 0 0 0 0 0 0 0 0
Neighs:    2344 ave 2344 max 2344 min
Histogram: 1 0 0 0 0 0 0 0 0 0

Total # of neighbors = 2344
Ave neighs/atom = 293
Neighbor list builds = 0
Dangerous builds = 0
pypospack:output_section:begin
tot_energy = -156.021074768645
num_atoms = 8
a11 = 4.15647577775588
a22 = 4.15647577775588
a33 = 4.15647577775589
a12 = 0
a13 = 0
a23 = 0
tot_press = 0.108307012495365
pxx = 0.108307018531679
pyy = 0.108307009806039
pzz = 0.108307009148377
pxy = -1.02922116444775e-10
pxz = 2.25527892623697e-10
pyz = -1.74439216931017e-10
pypospack:output_section:done
pypospack:lammps_sim:done
Total wall time: 0:00:00
