   2   2   0   0
  0.1090254E+02  0.2793739E-09  0.2793739E-09  0.2793739E-09  0.5000000E-15
  1.000000000000000E-004
  CAR 
 automatically generated by pyflamestk   
     29.86965053     -0.72268801  301      9.26021036      1.00000000
     -0.723  0.0000E+00  0.0000E+00  0.0000E+00  0.0000E+00
     -0.621  0.0000E+00  0.0000E+00  0.0000E+00  0.0000E+00
     -0.519  0.0000E+00  0.0000E+00  0.0000E+00  0.0000E+00
     -0.417  0.0000E+00 -0.2029E-30  0.0000E+00 -0.2069E-31
     -0.315 -0.1743E-27 -0.8289E-27 -0.1777E-28 -0.8455E-28
     -0.213 -0.4663E-24 -0.2006E-23 -0.4757E-25 -0.2046E-24
     -0.111 -0.7386E-21 -0.2872E-20 -0.7536E-22 -0.2930E-21
     -0.009 -0.6918E-18 -0.2431E-17 -0.7062E-19 -0.2482E-18
      0.093 -0.3828E-15 -0.1147E-14 -0.3910E-16 -0.1172E-15
      0.195 -0.1209E-12 -0.3463E-12 -0.1236E-13 -0.3543E-13
      0.297 -0.2308E-10 -0.5966E-10 -0.2366E-11 -0.6119E-11
      0.399 -0.2582E-08 -0.6018E-08 -0.2656E-09 -0.6198E-09
      0.501 -0.1684E-06 -0.3534E-06 -0.1743E-07 -0.3666E-07
      0.603 -0.6349E-05 -0.1198E-04 -0.6648E-06 -0.1258E-05
      0.705 -0.1365E-03 -0.2305E-03 -0.1458E-04 -0.2476E-04
      0.807 -0.1626E-02 -0.2438E-02 -0.1804E-03 -0.2734E-03
      0.909 -0.1006E-01 -0.1309E-01 -0.1207E-02 -0.1609E-02
      1.011 -0.2569E-01 -0.2581E-01 -0.3827E-02 -0.4241E-02
      1.113  0.1941E-01  0.4706E-01 -0.1847E-02  0.5582E-03
      1.215  0.2423E+00  0.3002E+00  0.2286E-01  0.3117E-01
      1.317  0.4912E+00  0.5077E+00  0.7295E-01  0.8294E-01
      1.419  0.4174E+00  0.3664E+00  0.1155E+00  0.1203E+00
      1.521  0.1341E+00  0.8954E-01  0.1292E+00  0.1294E+00
      1.623 -0.1440E-01 -0.2214E-01  0.1277E+00  0.1272E+00
      1.725 -0.2054E-01 -0.1707E-01  0.1256E+00  0.1254E+00
      1.827 -0.5389E-02 -0.3797E-02  0.1251E+00  0.1250E+00
      1.929 -0.6663E-03 -0.4140E-03  0.1250E+00  0.1250E+00
      2.031 -0.4422E-04 -0.2453E-04  0.1250E+00  0.1250E+00
      2.133 -0.1649E-05 -0.8211E-06  0.1250E+00  0.1250E+00
      2.235 -0.3528E-07 -0.1581E-07  0.1250E+00  0.1250E+00
      2.337 -0.4382E-09 -0.1770E-09  0.1250E+00  0.1250E+00
      2.439 -0.1322E-10 -0.5631E-11  0.1250E+00  0.1250E+00
      2.540 -0.1377E-08 -0.6659E-09  0.1250E+00  0.1250E+00
      2.642 -0.1103E-06 -0.5798E-07  0.1250E+00  0.1250E+00
      2.744 -0.5126E-05 -0.2934E-05  0.1250E+00  0.1250E+00
      2.846 -0.1367E-03 -0.8534E-04  0.1250E+00  0.1250E+00
      2.948 -0.2047E-02 -0.1401E-02  0.1248E+00  0.1248E+00
      3.050 -0.1645E-01 -0.1245E-01  0.1231E+00  0.1236E+00
      3.152 -0.6214E-01 -0.5383E-01  0.1168E+00  0.1181E+00
      3.254 -0.4157E-01 -0.6202E-01  0.1125E+00  0.1118E+00
      3.356  0.4097E+00  0.2997E+00  0.1543E+00  0.1423E+00
      3.458  0.1259E+01  0.1139E+01  0.2827E+00  0.2585E+00
      3.560  0.1470E+01  0.1515E+01  0.4326E+00  0.4129E+00
      3.662  0.7180E+00  0.8575E+00  0.5058E+00  0.5004E+00
      3.764  0.5457E-01  0.1184E+00  0.5114E+00  0.5125E+00
      3.866 -0.7689E-01 -0.7804E-01  0.5036E+00  0.5045E+00
      3.968 -0.2996E-01 -0.3691E-01  0.5005E+00  0.5007E+00
      4.070 -0.7641E-02 -0.6641E-02  0.4997E+00  0.5001E+00
      4.172 -0.2133E-01 -0.8518E-03  0.4976E+00  0.5000E+00
      4.274 -0.6913E-01 -0.3273E-02  0.4905E+00  0.4996E+00
      4.376 -0.1314E-01 -0.2283E-01  0.4892E+00  0.4973E+00
      4.478  0.5223E+00 -0.7141E-01  0.5424E+00  0.4900E+00
      4.580  0.1355E+01  0.2034E-03  0.6806E+00  0.4901E+00
      4.682  0.1400E+01  0.5669E+00  0.8234E+00  0.5479E+00
      4.784  0.5679E+00  0.1387E+01  0.8814E+00  0.6893E+00
      4.886 -0.6639E-01  0.1374E+01  0.8746E+00  0.8294E+00
      4.988 -0.6575E-01  0.5462E+00  0.8679E+00  0.8851E+00
      5.090  0.5469E+00 -0.2049E-01  0.9237E+00  0.8831E+00
      5.192  0.1334E+01 -0.1314E+00  0.1060E+01  0.8697E+00
      5.294  0.1502E+01 -0.9112E-01  0.1213E+01  0.8604E+00
      5.396  0.1518E+01  0.2806E+00  0.1368E+01  0.8890E+00
      5.498  0.2020E+01  0.1107E+01  0.1574E+01  0.1002E+01
      5.600  0.2128E+01  0.1905E+01  0.1791E+01  0.1196E+01
      5.702  0.1336E+01  0.2513E+01  0.1927E+01  0.1452E+01
      5.804  0.5021E+00  0.2563E+01  0.1978E+01  0.1714E+01
      5.906  0.6887E+00  0.1446E+01  0.2048E+01  0.1861E+01
      6.008  0.2215E+01  0.2997E+00  0.2274E+01  0.1892E+01
      6.110  0.3887E+01  0.2934E+00  0.2671E+01  0.1922E+01
      6.212  0.4229E+01  0.7907E+00  0.3102E+01  0.2002E+01
      6.314  0.3431E+01  0.1127E+01  0.3452E+01  0.2117E+01
      6.416  0.2090E+01  0.1775E+01  0.3665E+01  0.2298E+01
      6.517  0.1083E+01  0.2500E+01  0.3775E+01  0.2553E+01
      6.619  0.1816E+01  0.2831E+01  0.3960E+01  0.2842E+01
      6.721  0.3216E+01  0.3335E+01  0.4288E+01  0.3182E+01
      6.823  0.2901E+01  0.3283E+01  0.4584E+01  0.3517E+01
      6.925  0.1767E+01  0.1879E+01  0.4764E+01  0.3708E+01
      7.027  0.2403E+01  0.7608E+00  0.5009E+01  0.3786E+01
      7.129  0.3867E+01  0.1352E+01  0.5404E+01  0.3924E+01
      7.231  0.3362E+01  0.2817E+01  0.5746E+01  0.4211E+01
      7.333  0.1477E+01  0.3961E+01  0.5897E+01  0.4615E+01
      7.435  0.4283E+00  0.4323E+01  0.5941E+01  0.5056E+01
      7.537  0.2337E+00  0.3885E+01  0.5965E+01  0.5452E+01
      7.639  0.1171E+00  0.2814E+01  0.5977E+01  0.5739E+01
      7.741  0.6629E+00  0.1317E+01  0.6044E+01  0.5873E+01
      7.843  0.2220E+01  0.1817E+00  0.6271E+01  0.5892E+01
      7.945  0.3165E+01 -0.3935E-01  0.6593E+01  0.5888E+01
      8.047  0.2742E+01  0.2409E+00  0.6873E+01  0.5912E+01
      8.149  0.2930E+01  0.5068E+00  0.7172E+01  0.5964E+01
      8.251  0.4191E+01  0.9332E+00  0.7599E+01  0.6059E+01
      8.353  0.4643E+01  0.1696E+01  0.8073E+01  0.6232E+01
      8.455  0.4265E+01  0.2351E+01  0.8508E+01  0.6472E+01
      8.557  0.3994E+01  0.2726E+01  0.8915E+01  0.6750E+01
      8.659  0.3969E+01  0.3203E+01  0.9320E+01  0.7077E+01
      8.761  0.4457E+01  0.4229E+01  0.9774E+01  0.7508E+01
      8.863  0.4260E+01  0.5298E+01  0.1021E+02  0.8048E+01
      8.965  0.2504E+01  0.5341E+01  0.1046E+02  0.8593E+01
      9.067  0.6318E+00  0.4073E+01  0.1053E+02  0.9008E+01
      9.169 -0.1521E+00  0.2662E+01  0.1051E+02  0.9279E+01
      9.271 -0.2043E+00  0.2520E+01  0.1049E+02  0.9536E+01
      9.373  0.7747E-01  0.3230E+01  0.1050E+02  0.9866E+01
      9.475  0.8418E+00  0.3446E+01  0.1059E+02  0.1022E+02
      9.577  0.1512E+01  0.2325E+01  0.1074E+02  0.1045E+02
      9.679  0.1149E+01  0.6723E+00  0.1086E+02  0.1052E+02
      9.781  0.3077E+00 -0.1608E+00  0.1089E+02  0.1051E+02
      9.883 -0.6080E-01 -0.1271E+00  0.1088E+02  0.1049E+02
      9.985 -0.5447E-01  0.5130E+00  0.1088E+02  0.1055E+02
     10.087 -0.1273E-01  0.1369E+01  0.1088E+02  0.1069E+02
     10.189 -0.1443E-02  0.1388E+01  0.1088E+02  0.1083E+02
     10.291 -0.8853E-04  0.5686E+00  0.1088E+02  0.1088E+02
     10.393 -0.3063E-05  0.7415E-03  0.1088E+02  0.1088E+02
     10.495 -0.6100E-07 -0.7149E-01  0.1088E+02  0.1088E+02
     10.596 -0.6884E-08 -0.2290E-01  0.1087E+02  0.1088E+02
     10.698 -0.4142E-06 -0.3258E-02  0.1087E+02  0.1088E+02
     10.800 -0.1606E-04 -0.2449E-03  0.1087E+02  0.1088E+02
     10.902 -0.3554E-03 -0.1032E-04  0.1087E+02  0.1088E+02
     11.004 -0.4368E-02 -0.2888E-05  0.1087E+02  0.1087E+02
     11.106 -0.2802E-01 -0.7810E-04  0.1087E+02  0.1087E+02
     11.208 -0.7593E-01 -0.1303E-02  0.1086E+02  0.1087E+02
     11.310  0.4025E-01 -0.1181E-01  0.1087E+02  0.1087E+02
     11.412  0.6818E+00 -0.5226E-01  0.1094E+02  0.1087E+02
     11.514  0.1451E+01 -0.6477E-01  0.1109E+02  0.1086E+02
     11.616  0.1273E+01  0.2808E+00  0.1122E+02  0.1089E+02
     11.718  0.3784E+00  0.1114E+01  0.1125E+02  0.1100E+02
     11.820 -0.1055E+00  0.1513E+01  0.1124E+02  0.1116E+02
     11.922  0.2720E+00  0.8418E+00  0.1127E+02  0.1124E+02
     12.024  0.1331E+01  0.4257E-01  0.1141E+02  0.1125E+02
     12.126  0.1959E+01  0.3976E-01  0.1161E+02  0.1125E+02
     12.228  0.1287E+01  0.9033E+00  0.1174E+02  0.1134E+02
     12.330  0.2804E+00  0.1797E+01  0.1177E+02  0.1153E+02
     12.432 -0.8618E-01  0.1598E+01  0.1176E+02  0.1169E+02
     12.534 -0.5937E-01  0.6502E+00  0.1175E+02  0.1176E+02
     12.636 -0.1291E-01  0.3717E-01  0.1175E+02  0.1176E+02
     12.738 -0.1401E-02 -0.7099E-01  0.1175E+02  0.1175E+02
     12.840 -0.8319E-04 -0.2956E-01  0.1175E+02  0.1175E+02
     12.942 -0.2803E-05 -0.5521E-02  0.1175E+02  0.1175E+02
     13.044 -0.5451E-07 -0.5612E-03  0.1175E+02  0.1175E+02
     13.146 -0.6174E-09 -0.3252E-04  0.1175E+02  0.1175E+02
     13.248 -0.4094E-11 -0.1092E-05  0.1175E+02  0.1175E+02
     13.350 -0.1633E-13 -0.2139E-07  0.1175E+02  0.1175E+02
     13.452  0.0000E+00 -0.2455E-09  0.1175E+02  0.1175E+02
     13.554  0.0000E+00 -0.1655E-11  0.1175E+02  0.1175E+02
     13.656  0.0000E+00 -0.6532E-14  0.1175E+02  0.1175E+02
     13.758  0.0000E+00  0.0000E+00  0.1175E+02  0.1175E+02
     13.860  0.0000E+00  0.0000E+00  0.1175E+02  0.1175E+02
     13.962  0.0000E+00  0.0000E+00  0.1175E+02  0.1175E+02
     14.064 -0.2600E-28  0.0000E+00  0.1175E+02  0.1175E+02
     14.166 -0.8209E-25  0.0000E+00  0.1175E+02  0.1175E+02
     14.268 -0.1534E-21 -0.4615E-28  0.1175E+02  0.1175E+02
     14.370 -0.1696E-18 -0.1405E-24  0.1175E+02  0.1175E+02
     14.472 -0.1108E-15 -0.2532E-21  0.1175E+02  0.1175E+02
     14.573 -0.4134E-13 -0.2699E-18  0.1175E+02  0.1175E+02
     14.675 -0.9345E-11 -0.1700E-15  0.1175E+02  0.1175E+02
     14.777 -0.1238E-08 -0.6129E-13  0.1175E+02  0.1175E+02
     14.879 -0.9574E-07 -0.1333E-10  0.1175E+02  0.1175E+02
     14.981 -0.4296E-05 -0.1701E-08  0.1175E+02  0.1175E+02
     15.083 -0.1105E-03 -0.1267E-06  0.1175E+02  0.1175E+02
     15.185 -0.1595E-02 -0.5474E-05  0.1175E+02  0.1175E+02
     15.287 -0.1235E-01 -0.1354E-03  0.1175E+02  0.1175E+02
     15.389 -0.4512E-01 -0.1872E-02  0.1174E+02  0.1175E+02
     15.491 -0.3311E-01 -0.1377E-01  0.1174E+02  0.1175E+02
     15.593  0.2509E+00 -0.4610E-01  0.1177E+02  0.1174E+02
     15.695  0.8111E+00 -0.1397E-01  0.1185E+02  0.1174E+02
     15.797  0.1281E+01  0.3177E+00  0.1198E+02  0.1177E+02
     15.899  0.1604E+01  0.8259E+00  0.1214E+02  0.1186E+02
     16.001  0.1530E+01  0.9601E+00  0.1230E+02  0.1196E+02
     16.103  0.7806E+00  0.1029E+01  0.1238E+02  0.1206E+02
     16.205  0.8706E-01  0.1433E+01  0.1239E+02  0.1221E+02
     16.307 -0.8093E-01  0.1281E+01  0.1238E+02  0.1234E+02
     16.409 -0.3570E-01  0.4724E+00  0.1238E+02  0.1239E+02
     16.511 -0.6246E-02 -0.2480E-01  0.1238E+02  0.1238E+02
     16.613 -0.5621E-03 -0.6738E-01  0.1238E+02  0.1238E+02
     16.715 -0.2814E-04 -0.1956E-01  0.1238E+02  0.1238E+02
     16.817 -0.9422E-05 -0.2604E-02  0.1237E+02  0.1238E+02
     16.919 -0.1980E-03 -0.1968E-03  0.1237E+02  0.1237E+02
     17.021 -0.2530E-02 -0.2718E-03  0.1237E+02  0.1237E+02
     17.123 -0.1697E-01 -0.3174E-02  0.1237E+02  0.1237E+02
     17.225 -0.4934E-01 -0.1980E-01  0.1237E+02  0.1237E+02
     17.327  0.1319E-01 -0.5124E-01  0.1237E+02  0.1237E+02
     17.429  0.4168E+00  0.3605E-01  0.1241E+02  0.1237E+02
     17.531  0.9431E+00  0.4778E+00  0.1251E+02  0.1242E+02
     17.633  0.8656E+00  0.9780E+00  0.1260E+02  0.1252E+02
     17.735  0.3181E+00  0.8307E+00  0.1263E+02  0.1260E+02
     17.837  0.1416E+00  0.2484E+00  0.1264E+02  0.1263E+02
     17.939  0.3925E+00 -0.1235E-01  0.1268E+02  0.1263E+02
     18.041  0.4642E+00  0.1903E+00  0.1273E+02  0.1265E+02
     18.143  0.2041E+00  0.4737E+00  0.1275E+02  0.1270E+02
     18.245 -0.1658E-01  0.4132E+00  0.1275E+02  0.1274E+02
     18.347  0.4158E-02  0.1168E+00  0.1275E+02  0.1275E+02
     18.449  0.2557E+00  0.1773E-01  0.1278E+02  0.1275E+02
     18.550  0.4977E+00  0.2456E+00  0.1283E+02  0.1278E+02
     18.652  0.3954E+00  0.4942E+00  0.1287E+02  0.1283E+02
     18.754  0.9422E-01  0.3953E+00  0.1288E+02  0.1287E+02
     18.856 -0.8824E-01  0.1079E+00  0.1287E+02  0.1288E+02
     18.958 -0.2599E-01 -0.5441E-01  0.1287E+02  0.1287E+02
     19.060  0.5394E+00 -0.9722E-01  0.1292E+02  0.1286E+02
     19.162  0.1371E+01  0.1064E+00  0.1306E+02  0.1287E+02
     19.264  0.1390E+01  0.8423E+00  0.1320E+02  0.1296E+02
     19.366  0.5708E+00  0.1512E+01  0.1326E+02  0.1311E+02
     19.468  0.1437E-02  0.1152E+01  0.1326E+02  0.1323E+02
     19.570 -0.7159E-01  0.3106E+00  0.1325E+02  0.1326E+02
     19.672 -0.2300E-01 -0.6033E-01  0.1325E+02  0.1326E+02
     19.774 -0.3277E-02 -0.5471E-01  0.1325E+02  0.1325E+02
     19.876 -0.2479E-03 -0.1283E-01  0.1325E+02  0.1325E+02
     19.978 -0.5165E-04 -0.1459E-02  0.1325E+02  0.1325E+02
     20.080 -0.7894E-03 -0.1093E-03  0.1325E+02  0.1325E+02
     20.182 -0.8386E-02 -0.4299E-03  0.1325E+02  0.1325E+02
     20.284 -0.4638E-01 -0.5207E-02  0.1324E+02  0.1325E+02
     20.386 -0.1039E+00 -0.3380E-01  0.1323E+02  0.1325E+02
     20.488  0.1086E+00 -0.9822E-01  0.1324E+02  0.1324E+02
     20.590  0.1038E+01  0.7495E-02  0.1335E+02  0.1324E+02
     20.692  0.2138E+01  0.7758E+00  0.1357E+02  0.1332E+02
     20.794  0.2040E+01  0.1971E+01  0.1378E+02  0.1352E+02
     20.896  0.8864E+00  0.2202E+01  0.1387E+02  0.1374E+02
     20.998  0.3073E+00  0.1141E+01  0.1390E+02  0.1386E+02
     21.100  0.9227E+00  0.3423E+00  0.1399E+02  0.1389E+02
     21.202  0.1487E+01  0.7933E+00  0.1414E+02  0.1397E+02
     21.304  0.9766E+00  0.1465E+01  0.1424E+02  0.1412E+02
     21.406  0.1895E+00  0.1100E+01  0.1426E+02  0.1424E+02
     21.508 -0.7468E-01  0.2770E+00  0.1426E+02  0.1426E+02
     21.610 -0.4414E-01 -0.6521E-01  0.1425E+02  0.1426E+02
     21.712 -0.8835E-02 -0.5205E-01  0.1425E+02  0.1425E+02
     21.814 -0.8860E-03 -0.1172E-01  0.1425E+02  0.1425E+02
     21.916 -0.4863E-04 -0.1291E-02  0.1425E+02  0.1425E+02
     22.018 -0.1512E-05 -0.7716E-04  0.1425E+02  0.1425E+02
     22.120 -0.2745E-07 -0.2604E-05  0.1425E+02  0.1425E+02
     22.222 -0.3290E-07 -0.5128E-07  0.1425E+02  0.1425E+02
     22.324 -0.1778E-05 -0.6257E-07  0.1425E+02  0.1425E+02
     22.426 -0.5580E-04 -0.3110E-05  0.1425E+02  0.1425E+02
     22.527 -0.9914E-03 -0.8966E-04  0.1425E+02  0.1425E+02
     22.629 -0.9619E-02 -0.1458E-02  0.1425E+02  0.1425E+02
     22.731 -0.4644E-01 -0.1283E-01  0.1424E+02  0.1425E+02
     22.833 -0.7253E-01 -0.5470E-01  0.1424E+02  0.1424E+02
     22.935  0.2149E+00 -0.6036E-01  0.1426E+02  0.1424E+02
     23.037  0.1023E+01  0.3104E+00  0.1436E+02  0.1427E+02
     23.139  0.1531E+01  0.1152E+01  0.1452E+02  0.1439E+02
     23.241  0.9797E+00  0.1512E+01  0.1462E+02  0.1454E+02
     23.343  0.1871E+00  0.8430E+00  0.1464E+02  0.1463E+02
     23.445 -0.7488E-01  0.1111E+00  0.1463E+02  0.1464E+02
     23.547 -0.4383E-01 -0.7813E-01  0.1463E+02  0.1463E+02
     23.649 -0.8733E-02 -0.3613E-01  0.1463E+02  0.1463E+02
     23.751 -0.8726E-03 -0.6414E-02  0.1463E+02  0.1463E+02
     23.853 -0.4773E-04 -0.5827E-03  0.1463E+02  0.1463E+02
     23.955 -0.1479E-05 -0.2919E-04  0.1463E+02  0.1463E+02
     24.057 -0.2643E-07 -0.8315E-06  0.1463E+02  0.1463E+02
     24.159 -0.2748E-09 -0.1367E-07  0.1463E+02  0.1463E+02
     24.261 -0.2459E-10 -0.1315E-09  0.1462E+02  0.1463E+02
     24.363 -0.2883E-08 -0.8639E-10  0.1462E+02  0.1462E+02
     24.465 -0.2118E-06 -0.9363E-08  0.1462E+02  0.1462E+02
     24.567 -0.9012E-05 -0.5966E-06  0.1462E+02  0.1462E+02
     24.669 -0.2195E-03 -0.2197E-04  0.1462E+02  0.1462E+02
     24.771 -0.2987E-02 -0.4608E-03  0.1462E+02  0.1462E+02
     24.873 -0.2155E-01 -0.5349E-02  0.1462E+02  0.1462E+02
     24.975 -0.6990E-01 -0.3209E-01  0.1462E+02  0.1462E+02
     25.077 -0.8873E-02 -0.7775E-01  0.1461E+02  0.1461E+02
     25.179  0.5370E+00  0.7464E-01  0.1467E+02  0.1462E+02
     25.281  0.1366E+01  0.7653E+00  0.1481E+02  0.1470E+02
     25.383  0.1394E+01  0.1488E+01  0.1495E+02  0.1485E+02
     25.485  0.5771E+00  0.1220E+01  0.1501E+02  0.1498E+02
     25.587 -0.5551E-02  0.3695E+00  0.1501E+02  0.1501E+02
     25.689 -0.1174E+00 -0.6113E-01  0.1500E+02  0.1501E+02
     25.791 -0.9679E-01 -0.1108E+00  0.1499E+02  0.1500E+02
     25.893  0.2011E+00 -0.8112E-01  0.1501E+02  0.1499E+02
     25.995  0.1007E+01  0.2691E+00  0.1511E+02  0.1501E+02
     26.097  0.1531E+01  0.1102E+01  0.1527E+02  0.1513E+02
     26.199  0.9957E+00  0.1523E+01  0.1537E+02  0.1528E+02
     26.301  0.1968E+00  0.8970E+00  0.1539E+02  0.1537E+02
     26.403 -0.7906E-01  0.1354E+00  0.1538E+02  0.1539E+02
     26.504 -0.7533E-01 -0.1040E+00  0.1537E+02  0.1538E+02
     26.606 -0.8628E-01 -0.1139E+00  0.1536E+02  0.1537E+02
     26.708  0.6032E-01  0.2054E-01  0.1537E+02  0.1537E+02
     26.810  0.7341E+00  0.6479E+00  0.1544E+02  0.1543E+02
     26.912  0.1476E+01  0.1436E+01  0.1560E+02  0.1558E+02
     27.014  0.1246E+01  0.1314E+01  0.1572E+02  0.1571E+02
     27.116  0.3962E+00  0.4706E+00  0.1576E+02  0.1576E+02
     27.218 -0.4464E-01 -0.2719E-01  0.1576E+02  0.1576E+02
     27.320 -0.6336E-01 -0.6694E-01  0.1575E+02  0.1575E+02
     27.422 -0.3117E-01 -0.2641E-01  0.1575E+02  0.1575E+02
     27.524 -0.4958E-01 -0.3661E-01  0.1574E+02  0.1575E+02
     27.626  0.1358E-03 -0.4446E-01  0.1574E+02  0.1574E+02
     27.728  0.3784E+00  0.1791E+00  0.1578E+02  0.1576E+02
     27.830  0.9251E+00  0.7327E+00  0.1588E+02  0.1583E+02
     27.932  0.9159E+00  0.1015E+01  0.1597E+02  0.1594E+02
     28.034  0.3649E+00  0.6004E+00  0.1601E+02  0.1600E+02
     28.136 -0.3857E-02  0.9412E-01  0.1601E+02  0.1601E+02
     28.238 -0.4696E-01 -0.5163E-01  0.1600E+02  0.1600E+02
     28.340 -0.1466E-01 -0.2619E-01  0.1600E+02  0.1600E+02
     28.442 -0.2050E-02 -0.4876E-02  0.1600E+02  0.1600E+02
     28.544 -0.1517E-03 -0.4609E-03  0.1600E+02  0.1600E+02
     28.646 -0.6274E-05 -0.2395E-04  0.1600E+02  0.1600E+02
     28.748 -0.1484E-06 -0.7069E-06  0.1600E+02  0.1600E+02
     28.850 -0.2035E-08 -0.1204E-07  0.1600E+02  0.1600E+02
     28.952 -0.1628E-10 -0.1193E-09  0.1600E+02  0.1600E+02
     29.054 -0.7676E-13 -0.6924E-12  0.1600E+02  0.1600E+02
     29.156  0.0000E+00 -0.2177E-14  0.1600E+02  0.1600E+02
     29.258  0.0000E+00  0.0000E+00  0.1600E+02  0.1600E+02
     29.360  0.0000E+00  0.0000E+00  0.1600E+02  0.1600E+02
     29.462  0.0000E+00  0.0000E+00  0.1600E+02  0.1600E+02
     29.564  0.0000E+00  0.0000E+00  0.1600E+02  0.1600E+02
     29.666  0.0000E+00  0.0000E+00  0.1600E+02  0.1600E+02
     29.768  0.0000E+00  0.0000E+00  0.1600E+02  0.1600E+02
     29.870  0.0000E+00  0.0000E+00  0.1600E+02  0.1600E+02
