LAMMPS (10 Feb 2015)
Reading data file ...
  triclinic box = (0 0 0) to (4.2565 4.2565 4.2565) with tilt (0 0 0)
  1 by 1 by 1 MPI processor grid
  reading atoms ...
  8 atoms
4 atoms in group Mg
4 atoms in group O
Setting atom values ...
  4 settings made for charge
Setting atom values ...
  4 settings made for charge
PPPM initialization ...
  G vector (1/distance) = 0.352506
  grid = 8 8 8
  stencil order = 5
  estimated absolute RMS force accuracy = 3.81426e-05
  estimated relative force accuracy = 2.64886e-06
  using double precision FFTs
  3d grid and FFT values/proc = 3375 512
Neighbor list info ...
  1 neighbor list requests
  update every 1 steps, delay 0 steps, check yes
  master list distance cutoff = 11
Setting up minimization ...
Memory usage per processor = 4.06549 Mbytes
Step PotEng Lx Ly Lz Xy Xz Yz Press Pxx Pyy Pzz Pxy Pxz Pyz eatoms 
       0   -108.09373       4.2565       4.2565       4.2565            0            0            0    -32837.55    -32837.55    -32837.55    -32837.55 6.8800808e-12 1.9793426e-10 1.5308399e-10   -108.09373 
       9   -108.11055     4.226584     4.226584     4.226584            0            0            0    13.792758    13.792758    13.792758    13.792758 -4.4920118e-11 -8.154534e-11 2.0970287e-11   -108.11055 
Loop time of 0.0108919 on 1 procs for 9 steps with 8 atoms

Minimization stats:
  Stopping criterion = linesearch alpha is zero
  Energy initial, next-to-last, final = 
         -108.09372829     -108.110551709     -108.110551709
  Force two-norm initial, final = 4.74176 0.0024943
  Force max component initial, final = 4.74176 0.00196378
  Final line search alpha, max atom move = 0.00390625 7.67103e-06
  Iterations, force evaluations = 9 28

Pair  time (%) = 0.00293088 (26.9088)
Kspce time (%) = 0.00182629 (16.7674)
Neigh time (%) = 0 (0)
Comm  time (%) = 0.000360727 (3.31188)
Outpt time (%) = 0 (0)
Other time (%) = 0.00577402 (53.012)

Nlocal:    8 ave 8 max 8 min
Histogram: 1 0 0 0 0 0 0 0 0 0
Nghost:    2189 ave 2189 max 2189 min
Histogram: 1 0 0 0 0 0 0 0 0 0
Neighs:    2344 ave 2344 max 2344 min
Histogram: 1 0 0 0 0 0 0 0 0 0

Total # of neighbors = 2344
Ave neighs/atom = 293
Neighbor list builds = 0
Dangerous builds = 0
pypospack:output_section:begin
tot_energy = -108.110551708828
num_atoms = 8
xx = 4.22658398474032
yy = 4.22658398474032
zz = 4.22658398474032
xy = 0
xz = 0
yz = 0
tot_press = 13.7927584127517
pxx = 13.7927584125475
pyy = 13.7927584121258
pzz = 13.7927584135819
pxy = -4.49201179574407e-11
pxz = -8.15453399591787e-11
pyz = 2.09702873442201e-11
pypospack:output_section:done
pypospack:lammps_sim:done
PPPM initialization ...
  G vector (1/distance) = 0.352801
  grid = 8 8 8
  stencil order = 5
  estimated absolute RMS force accuracy = 3.76353e-05
  estimated relative force accuracy = 2.61363e-06
  using double precision FFTs
  3d grid and FFT values/proc = 3375 512
Setting up run ...
Memory usage per processor = 3.06549 Mbytes
Step Temp PotEng KinEng TotEng Press Lx Ly Lz Press Pxx Pyy Pzz Pxy Pxz Pyz Volume 
       0          500   -108.11055   0.45241051   -107.65814    6414.1708     4.226584     4.226584     4.226584    6414.1708    3247.4076     11096.98    4898.1247   -2451.6064    191.86413   -3383.3045    75.503748 
     100    146.25988   -107.73191   0.13233901   -107.59957    1911.1024    4.2345329    4.2345329    4.2345329    1911.1024    4379.5175      5732.79   -4379.0002    2436.2306    2500.8796     3242.543    75.930547 
     200    241.38253   -107.69043   0.21840799   -107.47202   -6897.0402    4.2387376    4.2387376    4.2387376   -6897.0402   -1789.6769    399.59078   -19301.034    1500.1729    6824.0325    2746.0937    76.156958 
     300    670.57175   -107.97346   0.60674741   -107.36671    15481.233    4.2280844    4.2280844    4.2280844    15481.233    5781.6905    21693.422    18968.587   -2188.4182   -3080.3127   -1544.9089    75.584187 
     400    325.55176   -107.58993   0.29456607   -107.29536    1890.1355     4.237546     4.237546     4.237546    1890.1355    1228.6981    14892.224   -10450.515    2567.9964    2813.6429    9104.2875    76.092751 
     500      242.683    -107.4557   0.21958468   -107.23611   -7707.8273     4.246793     4.246793     4.246793   -7707.8273   -1784.2269   -4560.9538   -16778.301     2094.346     9118.714    4635.3444    76.591977 
     600    824.88303   -107.94812    0.7463715   -107.20174    17154.503    4.2230086    4.2230086    4.2230086    17154.503    6360.1066      26956.4    18147.001   -1134.0833   -9741.8819   -500.75396    75.312296 
     700    383.66093   -107.55165   0.34714448   -107.20451   -3308.4976    4.2437963    4.2437963    4.2437963   -3308.4976   -2841.8079    2062.3285   -9146.0134    -814.2739    1142.5162    5708.8064    76.429954 
     800    440.86593   -107.59929   0.39890475   -107.20039   -13638.174    4.2462966    4.2462966    4.2462966   -13638.174   -3314.5275   -12477.281   -25122.713    4865.2299    4717.8872    4576.5091    76.565122 
     900     657.2977    -107.7887   0.59473677   -107.19396    19125.925    4.2205479    4.2205479    4.2205479    19125.925    5959.8712    23595.814    27822.089   -6368.7608    -9659.829    -3876.994    75.180722 
    1000    469.88604   -107.62682   0.42516277   -107.20166   -12992.306    4.2467103    4.2467103    4.2467103   -12992.306   -14577.009   -9368.2732   -15031.637   -1871.4472   -2953.0089    7124.8286    76.587501 
    1100    435.68248   -107.59508   0.39421466   -107.20086   -2353.3145    4.2417891    4.2417891    4.2417891   -2353.3145    2835.4363   -5889.5452   -4005.8346    6230.9194    8122.2707    10459.943    76.321556 
    1200     590.3156   -107.73053   0.53412996    -107.1964    8069.4135    4.2266848    4.2266848    4.2266848    8069.4135   -6835.4493    15485.923    15557.767   -11772.148   -11693.659   -5553.4075    75.509151 
    1300    438.50446   -107.59798   0.39676805   -107.20122   -6730.4154    4.2429237    4.2429237    4.2429237   -6730.4154    -14873.63   -1099.3914   -4218.2254    -2595.247   -3636.1064    12168.775    76.382817 
    1400    530.97897   -107.68036   0.48044093   -107.19992   -2528.4251    4.2415771    4.2415771    4.2415771   -2528.4251    1603.2471   -2601.4046   -6587.1179     3876.371    10701.067    10860.887    76.310114 
    1500    495.99431   -107.64842   0.44878607   -107.19964    4948.0713    4.2293092    4.2293092    4.2293092    4948.0713   -11550.158    14230.742     12163.63   -14042.178   -17810.283   -5202.6501    75.649891 
    1600    448.48678   -107.60889   0.40580027   -107.20309   -2804.2759    4.2389176    4.2389176    4.2389176   -2804.2759   -9406.7215    2913.5085   -1919.6147   -5000.9614   -3414.1476     10356.08    76.166661 
    1700    546.43667   -107.69476   0.49442738   -107.20033   -4375.8419     4.244972     4.244972     4.244972   -4375.8419     4833.169   -8011.6457   -9949.0491    1712.6705    5889.9049    6819.1395    76.493493 
    1800     455.4272   -107.61343   0.41208011   -107.20135    5531.4198    4.2272374    4.2272374    4.2272374    5531.4198   -5367.3784    10928.958     11032.68   -15500.831   -17199.883   -2835.4014    75.538772 
    1900    432.20738   -107.59531   0.39107032   -107.20424   -5474.6541     4.240851     4.240851     4.240851   -5474.6541   -5555.8919   -7070.8756    -3797.195   -6898.0792    -7300.017    3779.2889    76.270928 
    2000    596.16919   -107.73915   0.53942641   -107.19972   -5279.1291    4.2440578    4.2440578    4.2440578   -5279.1291    6988.3172   -12434.267   -10391.438    4568.3605    3244.6412    9685.8159    76.444081 
    2100     447.5847   -107.60538   0.40498404    -107.2004    8012.3185    4.2262086    4.2262086    4.2262086    8012.3185    -4185.239    7220.9384    21001.256   -16098.455   -14761.882   -3455.8645    75.483632 
    2200    442.29322   -107.60252    0.4001962   -107.20232   -8918.9592      4.24539      4.24539      4.24539   -8918.9592    -7231.469   -15262.805   -4262.6034   -3789.3436   -9839.2914    4469.6199    76.516093 
    2300     631.1332   -107.76951   0.57106258   -107.19845    -595.5977    4.2399552    4.2399552    4.2399552    -595.5977    7403.7091   -10114.958    924.45589      6998.04    8441.0463    15056.226    76.222606 
    2400    470.77035   -107.62552   0.42596291   -107.19956    2490.1027    4.2298853    4.2298853    4.2298853    2490.1027   -12697.111    1817.6092     18349.81   -15573.753   -13896.077   -4678.5661     75.68081 
    2500    464.59396   -107.62166   0.42037438   -107.20128   -9767.5689    4.2444664    4.2444664    4.2444664   -9767.5689   -6717.4018   -15057.474   -7527.8314   -1318.5296   -6584.4917    10775.131    76.466163 
    2600    622.49193   -107.76162   0.56324378   -107.19838   -1923.5292    4.2393926    4.2393926    4.2393926   -1923.5292    3971.9555   -9274.4235   -468.11965    5398.8797    9833.9784    15151.345    76.192271 
    2700    522.16262   -107.67148   0.47246371   -107.19902    990.62303    4.2323611    4.2323611    4.2323611    990.62303   -11470.022    2918.2549    11523.637    -14319.55   -14010.993    -4064.176     75.81378 
    2800    466.94752   -107.62344   0.42250393   -107.20093    -1068.619    4.2412469    4.2412469    4.2412469    -1068.619    831.79526   -3851.7601   -185.89211   -2266.7137   -3196.5522    9421.9071    76.292292 
    2900    567.51442   -107.71182   0.51349898   -107.19832   -1908.6408    4.2427129    4.2427129    4.2427129   -1908.6408    125.45701   -7912.2734    2060.8939    3844.7024    4425.6131    9369.5247     76.37143 
    3000    494.46359   -107.64661   0.44740105   -107.19921    10576.626    4.2294032    4.2294032    4.2294032    10576.626   -332.84412    12117.278    19945.445   -14725.284   -12500.324   -3698.7059    75.654937 
    3100    430.35917   -107.59166   0.38939802   -107.20226    3690.5797    4.2416611    4.2416611    4.2416611    3690.5797     4582.346   -3371.7709    9861.1641   -3701.4001   -6264.6804    3229.8238    76.314648 
    3200    467.62986   -107.62429   0.42312132   -107.20116   -904.03497    4.2429406    4.2429406    4.2429406   -904.03497     2998.982   -13622.748    7911.6606    4245.7653    185.02635    9824.2343    76.383727 
    3300    490.36411   -107.64227   0.44369175   -107.19858    15285.412    4.2265639    4.2265639    4.2265639    15285.412     10032.03    9372.8458    26451.361   -15620.338   -8854.9291   -6368.7976     75.50267 
    3400    469.17217   -107.62494   0.42451684   -107.20042   -2789.6477    4.2449323    4.2449323    4.2449323   -2789.6477   -198.17475   -13746.439    5575.6706   -666.67316   -7701.0942    5691.1489    76.491347 
    3500    460.29527   -107.61918   0.41648484    -107.2027   -3640.2842    4.2379747    4.2379747    4.2379747   -3640.2842    9372.2666   -22641.887    2348.7673    7676.1735    6511.4634    14355.797    76.115848 
    3600      582.854    -107.7279   0.52737855   -107.20053    11234.156     4.228888     4.228888     4.228888    11234.156    12937.304    516.01159    20249.151   -8799.2445   -5361.8196   -6913.1402     75.62729 
    3700    573.35595   -107.71932   0.51878451   -107.20054   -11588.577    4.2497704    4.2497704    4.2497704   -11588.577    -10384.92    -22899.65    -1481.162    4063.0188   -2380.3873    12732.833    76.753183 
    3800    401.28114   -107.56422   0.36308761   -107.20113   -1852.8849    4.2347854    4.2347854    4.2347854   -1852.8849    10762.314   -21229.367    4908.3982    11926.034    7710.1348    10523.197    75.944133 
    3900    656.21261   -107.79174   0.59375496   -107.19799    6822.8856    4.2310473    4.2310473    4.2310473    6822.8856    1975.5602    945.38765    17547.709   -6190.4468   -7019.9957   -8222.8205    75.743198 
    4000    542.40303   -107.69038   0.49077766    -107.1996   -9823.9112    4.2479383    4.2479383    4.2479383   -9823.9112   -16574.209   -18318.626    5421.1014    5570.1618     996.9424    9912.0942    76.653962 
    4100    308.86844   -107.48363   0.27947066   -107.20416   -4068.5761    4.2331137    4.2331137    4.2331137   -4068.5761    4659.7488   -18181.623    1316.1461    12104.595    431.65318    6683.2566    75.854227 
    4200    663.10998   -107.80139   0.59999584   -107.20139    5972.1313    4.2337909    4.2337909    4.2337909    5972.1313    3134.3992    2617.4513    12164.544   -8064.9365   -530.32181   -11994.116    75.890641 
    4300    574.34847   -107.72066   0.51968257   -107.20098   -8815.6913    4.2471569    4.2471569    4.2471569   -8815.6913    -9635.065   -13991.168    -2820.841    5136.5451   -2275.6635    10992.889     76.61167 
    4400    247.11055   -107.42783   0.22359082   -107.20424   -5658.8586    4.2352941    4.2352941    4.2352941   -5658.8586    5582.5694    -21040.43   -1518.7148    7545.1936    999.56989    6136.1095    75.971504 
    4500    710.67156   -107.84256   0.64303056   -107.19953    7500.7669    4.2322343    4.2322343    4.2322343    7500.7669    15287.136    1901.2695    5313.8953   -6236.6065    4499.7431   -12617.208    75.806965 
    4600    581.55882   -107.72838   0.52620664   -107.20217   -5848.0778    4.2450718    4.2450718    4.2450718   -5848.0778    655.40414   -21452.729     3253.092    3957.5321   -5000.3729    15580.543    76.498885 
    4700    176.28395   -107.36722   0.15950543   -107.20771   -1742.7208    4.2352085    4.2352085    4.2352085   -1742.7208    18392.021   -27649.281    4029.0982    10315.281    6340.5608    3121.5389    75.966898 
    4800    704.69624   -107.83929   0.63762397   -107.20166    4985.5903    4.2342357    4.2342357    4.2342357    4985.5903    12188.554    -2971.465    5739.6819    -92.74929    2276.3736   -14165.972    75.914564 
    4900    504.59879   -107.65892   0.45657159   -107.20235   -1712.4989    4.2445129    4.2445129    4.2445129   -1712.4989   -250.33145   -17686.354    12799.189    5879.5551   -1929.4318    12729.252    76.468679 
    5000    259.77218   -107.44092   0.23504732   -107.20588   -5126.8165    4.2341131    4.2341131    4.2341131   -5126.8165      3595.98   -18942.384   -34.045681    16660.849    4477.0411   -1624.9224     75.90797 
    5100    657.38301   -107.79659   0.59481396   -107.20178     6778.099    4.2336623    4.2336623    4.2336623     6778.099    8058.3111    9666.0423    2609.9436   -1327.1399    1271.7523   -12335.457    75.883726 
    5200    532.56918    -107.6841   0.48187978   -107.20222   -3783.2732    4.2453682    4.2453682    4.2453682   -3783.2732   -9412.9207   -9268.6809    7331.7819    5523.7214   -918.96687    10880.326    76.514913 
    5300     308.4591   -107.48381   0.27910028   -107.20471   -1581.0461    4.2343243    4.2343243    4.2343243   -1581.0461    1715.0599   -8438.4721    1980.2739    14786.176    513.12285    3454.8001    75.919327 
    5400    678.06287   -107.81327   0.61352553   -107.19975     4319.373    4.2359445    4.2359445    4.2359445     4319.373   -3936.7771    6212.6628    10682.233   -4928.3494    4144.2592   -8500.4704    76.006509 
    5500    473.29907    -107.6298   0.42825095   -107.20155   -2578.0168    4.2435515    4.2435515    4.2435515   -2578.0168   -14430.446   -13446.797    20143.192   -354.34091   -3475.3172    11655.992    76.416726 
    5600    419.61917   -107.58167   0.37968024   -107.20199   -1968.2465    4.2339702    4.2339702    4.2339702   -1968.2465   -4283.0655   -16102.405    14480.731    10340.653    2350.8936    2288.2758    75.900284 
    5700    665.27734   -107.80074   0.60195692   -107.19878    5686.9192    4.2366491    4.2366491    4.2366491    5686.9192   -3716.8475    2880.5357    17897.069   -5474.3741    6672.5432   -10445.135    76.044442 
    5800     486.2514    -107.6426   0.43997048   -107.20263   -7459.2148    4.2419908    4.2419908    4.2419908   -7459.2148    -17025.74   -15463.789    10111.884   -2042.9459   -4386.0331    6885.6397    76.332446 
    5900    396.03135   -107.56302   0.35833749   -107.20468   -1798.8702    4.2352746    4.2352746    4.2352746   -1798.8702    17.693389    -10467.42    5053.1165    14192.289    3972.8816   -275.08822    75.970454 
    6000    745.15889   -107.87333   0.67423542    -107.1991     2498.622     4.237876     4.237876     4.237876     2498.622   -2038.6257    5961.5172    3572.9745   -3708.2105    50.490788   -8067.1456    76.110527 
    6100    356.00596   -107.52637   0.32212167   -107.20425   -7273.8253    4.2419879    4.2419879    4.2419879   -7273.8253   -14689.553   -8152.2487    1020.3255     319.4059   -4103.7576    6772.7907    76.332287 
    6200    386.57808   -107.55611   0.34978397   -107.20632   -1578.1536    4.2337587    4.2337587    4.2337587   -1578.1536    -4762.079   -9868.7368     9896.355    17798.696   -2841.4104    5018.0993    75.888906 
    6300     754.2827    -107.8827   0.68249084   -107.20021    9160.3355    4.2383588    4.2383588    4.2383588    9160.3355    2844.4473    12778.974    11857.585   -3732.8959   -3735.7339   -3107.0484    76.136545 
    6400     299.1848   -107.47727    0.2707087   -107.20656   -6528.7571    4.2443056    4.2443056    4.2443056   -6528.7571   -21952.722   -14272.468    16638.919    2597.3524   -5601.1443    8592.8876    76.457471 
    6500    321.21356   -107.49607   0.29064078   -107.20543    4128.9775    4.2353835    4.2353835    4.2353835    4128.9775    -10759.02    -8453.194    31599.147    15657.207   -5756.3099     5753.109    75.976317 
    6600    808.49588   -107.92854   0.73154406   -107.19699    10264.997    4.2369078    4.2369078    4.2369078    10264.997   -4027.5549    6978.6731    27843.873   -5981.7579   -776.92551    12.384845    76.058374 
    6700    257.17069   -107.44072   0.23269344   -107.20802   -3378.1903    4.2421677    4.2421677    4.2421677   -3378.1903   -26792.089   -15653.172     32310.69    4001.5329   -3654.5751    2583.0857    76.341996 
    6800    364.68279   -107.53786   0.32997265   -107.20789   -5425.4718    4.2358546    4.2358546    4.2358546   -5425.4718   -18737.093   -14225.621    16686.298      15532.2   -2373.0298    10651.976    76.001672 
    6900    804.04236   -107.92852   0.72751442   -107.20101    10256.499    4.2348308    4.2348308    4.2348308    10256.499   -2313.2979    16342.607    16740.187   -6440.7999     5269.819   -2066.1151    75.946577 
    7000    378.62619   -107.54875   0.34258893   -107.20616    -18338.83    4.2493032    4.2493032    4.2493032    -18338.83   -34425.387   -24115.791    3524.6868    10144.273    228.10553    335.45356    76.727875 
    7100    443.46913   -107.60329   0.40126019   -107.20203    -707.2313    4.2295849    4.2295849    4.2295849    -707.2313   -9284.4541    5.9842579    7156.7759    11653.076    265.43222     11300.99    75.664689 
    7200    817.67581   -107.93839   0.73985026   -107.19854   -805.26702     4.239013     4.239013     4.239013   -805.26702   -7505.5406    6656.2762   -1566.5367    -5333.305    8008.8024   -5063.6205    76.171805 
    7300    416.48894   -107.58067   0.37684795   -107.20382   -11212.886    4.2448898    4.2448898    4.2448898   -11212.886   -27351.258   -13271.189    6983.7902    13255.091   -348.64582    969.35041    76.489049 
    7400    443.70519   -107.60404   0.40147378   -107.20257    6555.6424     4.228011     4.228011     4.228011    6555.6424     -2227.03   -1026.1918    22920.149    6078.8625   -1939.8583    10876.241    75.580248 
    7500    605.12698    -107.7466   0.54753161   -107.19906   -955.72378    4.2451458    4.2451458    4.2451458   -955.72378   -12934.805    3322.5116    6745.1218   -2202.4407    6297.2272   -2417.2046    76.502889 
    7600    382.20536   -107.54791   0.34582744   -107.20208    5268.5405    4.2361352    4.2361352    4.2361352    5268.5405   -14400.582   -4671.8968      34878.1    12113.284   -2476.1345    1450.7375    76.016774 
    7700    411.44705   -107.57402   0.37228594   -107.20174    2046.2413    4.2364388    4.2364388    4.2364388    2046.2413   -5163.3651   -11134.263    22436.352    3299.1155   -4814.9099    13602.399     76.03312 
    7800    566.41556   -107.71246   0.51250471   -107.19995    3127.1882    4.2374094    4.2374094    4.2374094    3127.1882   -1927.2779    6007.5071    5301.3353    -381.1504    7443.5393   -678.31902    76.085389 
    7900    425.05112   -107.58799   0.38459518    -107.2034   -2019.7502    4.2392801    4.2392801    4.2392801   -2019.7502   -16380.826   -2732.2501    13053.826    13698.494   -879.41225    1633.9402    76.186205 
    8000    526.11777   -107.67747   0.47604241   -107.20143   -4408.3187    4.2373134    4.2373134    4.2373134   -4408.3187   -3527.6181   -7060.6497   -2636.6882    4224.4142   -1205.4961    13909.986    76.080217 
    8100    575.05574   -107.72135   0.52032251   -107.20102    1625.2649    4.2348971    4.2348971    4.2348971    1625.2649    -58.56305    17481.882   -12547.524    1274.4961    11329.194   -6311.8109    75.950141 
    8200    461.82049   -107.61925   0.41786488   -107.20139   -11774.173    4.2456512    4.2456512    4.2456512   -11774.173   -24308.494    -6942.749   -4071.2767    15575.948    3595.6233   -4533.9442    76.530216 
    8300    522.29373   -107.67181   0.47258234   -107.19923     3982.209    4.2336902    4.2336902    4.2336902     3982.209   -113.12366   -2413.1135    14472.864    123.23873    2087.1516    9120.7499    75.885223 
    8400    450.52278   -107.60814   0.40764248    -107.2005   -87.669537    4.2386385    4.2386385    4.2386385   -87.669537   -8609.8451    902.83894    7443.9975    593.12045    13268.154   -10777.327    76.151617 
    8500    397.19518   -107.56143   0.35939055   -107.20203   -2191.1575    4.2416415    4.2416415    4.2416415   -2191.1575   -21471.559   -11633.399    26531.485    13093.307    4406.4899   -7044.7357    76.313588 
    8600    523.40649   -107.67358   0.47358919   -107.19999    5786.1988    4.2349904    4.2349904    4.2349904    5786.1988   -1878.7352   -6546.8803    25784.212   -4217.1656   -310.31169    14566.837    75.955163 
    8700    466.33604   -107.62387   0.42195064   -107.20192   -2125.5294    4.2390808    4.2390808    4.2390808   -2125.5294   -6508.5784   -3387.6235    3519.6138    2322.4552    12104.008   -6450.0069    76.175462 
    8800    494.01454   -107.64713   0.44699474   -107.20014   -12311.044    4.2453262    4.2453262    4.2453262   -12311.044   -21293.742   -15851.272    211.88219    8956.5354    1656.2203   -4159.8216    76.512644 
    8900    673.77055   -107.80684   0.60964175    -107.1972    3184.9145    4.2306274    4.2306274    4.2306274    3184.9145    5179.2553    144.56054    4230.9277   -6197.2648   -2191.3427    15096.337    75.720652 
    9000    518.52949   -107.67156   0.46917638   -107.20238     -7509.25    4.2387401    4.2387401    4.2387401     -7509.25    -8476.798   -1784.7094   -12266.243    3698.0525    9967.3935   -6700.4658    76.157094 
    9100    419.67149   -107.58407   0.37972758   -107.20434   -10084.779    4.2451979    4.2451979    4.2451979   -10084.779   -22455.446   -13311.401    5512.5114    7151.7796    -1258.551     -6903.34    76.505707 
    9200    668.80242   -107.80237   0.60514649   -107.19722    10363.076    4.2318123    4.2318123    4.2318123    10363.076    3499.3182    3610.1244    23979.785   -5558.1072    -3155.383    7803.4668    75.784291 
    9300    380.49656   -107.54638   0.34428128    -107.2021   -2544.2071    4.2402614    4.2402614    4.2402614   -2544.2071   -15559.499   -3799.7397    11726.618    5626.4146    12334.021   -9528.4516    76.239121 
    9400    344.93827   -107.51715   0.31210739   -107.20504   -1862.9361    4.2404648    4.2404648    4.2404648   -1862.9361   -16393.348   -7375.5998    18180.139     7987.497    4776.4465   -9663.0241    76.250097 
    9500      708.284   -107.84033   0.64087025   -107.19946    9765.8158    4.2348949    4.2348949    4.2348949    9765.8158    4262.9867    1962.6833    23071.777   -5088.8291   -9.3446237    2151.4145    75.950022 
    9600     440.8628   -107.60448   0.39890192   -107.20558    1468.9309    4.2375494    4.2375494    4.2375494    1468.9309   -1507.3218    8194.4603   -2280.3457    7635.7584    14962.946   -9067.3326    76.092931 
    9700    332.30847   -107.50634   0.30067969   -107.20566   -7391.1692    4.2454941    4.2454941    4.2454941   -7391.1692   -3022.7325   -9766.2068   -9384.5683    9085.2603    6056.6501    -8837.958    76.521722 
    9800    776.30929   -107.90014   0.70242096   -107.19771    11684.506    4.2331328    4.2331328    4.2331328    11684.506    17418.652    8899.2341    8735.6322   -6999.7014   -2772.7778    2025.3826    75.855256 
    9900    449.01794   -107.61134   0.40628087   -107.20506     1201.417    4.2352682    4.2352682    4.2352682     1201.417    8075.6899    6337.9094   -10809.348     9857.477    9151.0289   -4576.1184    75.970112 
   10000    275.16856   -107.45717   0.24897829   -107.20819    -11424.41    4.2460937    4.2460937    4.2460937    -11424.41   -9972.4841   -16318.485   -7982.2606    8982.6525    1186.9762   -8866.8169    76.554145 
   10100    792.09833   -107.91603   0.71670721   -107.19932    11111.374    4.2323655    4.2323655    4.2323655    11111.374    7862.3357    6412.3152    19059.472   -9184.4919   -6209.8612    7236.5682    75.814017 
   10200    433.84742   -107.59696   0.39255426    -107.2044   -5758.0648     4.241215     4.241215     4.241215   -5758.0648   -13986.296    3075.4556   -6363.3544    9255.6056    8926.1957   -2096.2822    76.290572 
   10300    312.32389   -107.48763   0.28259722   -107.20504   -7228.4385    4.2425906    4.2425906    4.2425906   -7228.4385   -17851.172   -12657.247    8823.1031     7158.553    4616.1925   -8165.3329    76.364827 
   10400     792.2663   -107.91476    0.7168592    -107.1979    11336.199    4.2316308    4.2316308    4.2316308    11336.199    9384.1875    5312.5304    19311.878   -10184.479   -1117.4594    7803.9658    75.774539 
   10500    437.43166   -107.60085   0.39579736   -107.20506   -2287.6548      4.24051      4.24051      4.24051   -2287.6548   -3931.6359   -1188.8337   -1742.4947    6458.4574    14109.531    -2274.522    76.252534 
   10600     327.8561    -107.5027   0.29665109   -107.20605   -4904.8436    4.2437459    4.2437459    4.2437459   -4904.8436    403.56781   -16712.532    1594.4337    7730.9386    8560.3618   -8798.5857    76.427229 
   10700    760.85877    -107.8848     0.688441   -107.19636    8805.4638    4.2340156    4.2340156    4.2340156    8805.4638    24209.712    364.13396    1842.5457    -5274.915     415.9061    4644.1552    75.902725 
   10800    402.92495   -107.56717   0.36457496   -107.20259   -3863.1906    4.2391553    4.2391553    4.2391553   -3863.1906    6375.8102   -4326.3247   -13639.057    9902.7543     11527.82   -1744.1292    76.179478 
   10900    371.49579   -107.54073    0.3361372   -107.20459   -5649.4524    4.2409591    4.2409591    4.2409591   -5649.4524   -2038.3099   -8940.7066   -5969.3405    14319.613    6156.5128   -11120.127    76.276763 
   11000    733.09564   -107.86228   0.66332034   -107.19896    5975.8772    4.2345845    4.2345845    4.2345845    5975.8772    21471.167    2853.2207   -6396.7564   -534.28416   -3834.8132    5584.7452    75.933323 
   11100    423.67214   -107.58718   0.38334745   -107.20383   -4379.8476    4.2406165    4.2406165    4.2406165   -4379.8476    -7112.595    2653.8612   -8680.8091    10228.007    5810.3675    5601.7255    76.258278 
   11200    405.32819   -107.57036   0.36674946   -107.20361   -3610.3349    4.2394283    4.2394283    4.2394283   -3610.3349   -14205.988    3464.6983   -89.714562    17246.768    4320.5569   -9771.9008    76.194194 
   11300    675.25427   -107.80998   0.61098425     -107.199    5045.3804     4.235111     4.235111     4.235111    5045.3804    13198.763     4069.294   -2131.9156   -4185.0944   -4619.4561    15411.121    75.961652 
   11400    477.45179   -107.63508   0.43200842   -107.20308     10.02454    4.2365215    4.2365215    4.2365215     10.02454   -7634.9231    6861.1251    803.87157    5774.7383    8296.2348    8373.2062    76.037575 
   11500    343.89876   -107.51624   0.31116683   -107.20507   -4717.7433    4.2420098    4.2420098    4.2420098   -4717.7433   -14209.592   -3577.9417     3634.304    12092.438    8228.3336   -7742.3328    76.333467 
   11600    642.65993   -107.78256   0.58149221   -107.20107    3472.0315    4.2334071    4.2334071    4.2334071    3472.0315    23189.561   -5238.8988    -7534.568   -7133.7261   -3232.4711    18055.079    75.870002 
   11700    467.04195   -107.62493   0.42258937   -107.20234    6019.6725    4.2368004    4.2368004    4.2368004    6019.6725    10302.166    2553.7194     5203.132    4929.6548    10129.154    3335.2346    76.052592 
   11800    384.57062   -107.55144   0.34796757   -107.20347    -10218.96    4.2436398    4.2436398    4.2436398    -10218.96   -5086.0245   -16286.595   -9284.2596    11725.869    9499.8828   -6671.0653    76.421498 
   11900    526.73879   -107.67754   0.47660432   -107.20094    9882.9736    4.2284772    4.2284772    4.2284772    9882.9736    36921.555   -5373.1329   -1899.5013   -2710.5971   -2717.0367    13692.034    75.605252 
   12000    626.88514   -107.76867   0.56721885   -107.20145   -1393.1177    4.2395214    4.2395214    4.2395214   -1393.1177     2924.681   -4062.7381   -3041.2959      5089.97    6522.4398    2647.5859    76.199215 
   12100    351.74417   -107.52242   0.31826552   -107.20416   -3850.7748    4.2426709    4.2426709    4.2426709   -3850.7748   -1747.6204   -5900.7113   -3903.9926    17274.889    6764.7939   -6150.8109    76.369162 
   12200    555.08482   -107.70198   0.50225241   -107.19973    2781.1832    4.2306382    4.2306382    4.2306382    2781.1832     23014.82   -1504.8124   -13166.458   -1771.5162   -1597.9571    12366.019     75.72123 
   12300    572.90181   -107.71723    0.5183736   -107.19886    2796.1353    4.2396781    4.2396781    4.2396781    2796.1353   -987.42035    6149.2193     3226.607    5319.9711     1195.071    5192.7438    76.207666 
   12400    454.04767   -107.61338   0.41083187   -107.20255   -6652.6447    4.2383423    4.2383423    4.2383423   -6652.6447   -11083.606   -2442.4734   -6431.8551    17070.486    6009.4325   -7276.6277    76.135657 
   12500    400.83787    -107.5664   0.36268653   -107.20371    2081.7824     4.233016     4.233016     4.233016    2081.7824    18777.083    -2618.106   -9913.6295   -5398.9507   -1821.9484    15836.904    75.848977 
   12600    675.97608   -107.81265   0.61163736   -107.20101   -2501.4453    4.2376382    4.2376382    4.2376382   -2501.4453   -3913.6488   -439.30506   -3151.3822    5492.4117   -7383.3261    7111.7874    76.097714 
   12700     421.9325    -107.5854   0.38177339   -107.20363    182.52733    4.2390074    4.2390074    4.2390074    182.52733    6714.8431   -8755.0779    2587.8168    12385.267    7944.2103    -5310.731    76.171502 
   12800    488.89128   -107.64541    0.4423591   -107.20305   -3732.1572    4.2327203    4.2327203    4.2327203   -3732.1572    19358.633   -11007.924    -19547.18   -2980.9082   -4274.5425    18811.035    75.833082 
   12900    542.00417   -107.69267   0.49041676   -107.20225    6874.4705    4.2360358    4.2360358    4.2360358    6874.4705    8865.6542    4969.0139    6788.7434    5457.2754   -7296.6837    3943.1434    76.011421 
   13000    562.78823   -107.71107   0.50922262   -107.20184   -4819.4778    4.2408592    4.2408592    4.2408592   -4819.4778    93.312678   -6912.4409    -7639.305    12504.083    6694.0863   -1692.6792    76.271375 
   13100    332.24817   -107.50424   0.30062512   -107.20361    6636.7428    4.2307366    4.2307366    4.2307366    6636.7428    24580.223    4985.8438   -9655.8389    194.26785   -2429.5164     17097.34    75.726513 
   13200    548.30208   -107.69879   0.49611524   -107.20268   -3031.1288    4.2388008    4.2388008    4.2388008   -3031.1288    -5284.283    8572.9802   -12382.084    2795.9634   -5867.1565    1703.7143    76.160365 
   13300    517.09512   -107.66966   0.46787853   -107.20179    6423.7504    4.2370978    4.2370978    4.2370978    6423.7504    5680.7408    7852.7967    5737.7138    14923.586    592.68705   -125.44902    76.068608 
   13400     465.2729    -107.6247    0.4209887   -107.20371   -804.37437    4.2330736    4.2330736    4.2330736   -804.37437    14095.089    392.87432   -16901.087   -2421.5165    1931.4961    13084.445    75.852076 
   13500    446.86532   -107.60744   0.40433313   -107.20311   -3032.6506    4.2406059    4.2406059    4.2406059   -3032.6506   -2915.3282    4440.4976   -10623.121    1492.9057   -10959.067    2985.8809    76.257708 
   13600    669.07888   -107.80542   0.60539663   -107.20002    2783.6926    4.2344642    4.2344642    4.2344642    2783.6926    3834.6894    636.89493    3879.4936    13379.524   -1004.3912   -1860.7054    75.926853 
   13700    470.46126   -107.62821   0.42568323   -107.20253    322.54586    4.2358541    4.2358541    4.2358541    322.54586    18845.198    -5893.966   -11983.594   -4228.0336    1759.0762    15483.945    76.001642 
   13800    484.56104   -107.64136   0.43844101   -107.20292   -2187.8206    4.2370816    4.2370816    4.2370816   -2187.8206     54.00208    8473.6778   -15091.142    4617.4129   -15001.186    2397.0642    76.067732 
   13900    531.25484   -107.68213   0.48069054   -107.20144    7031.0351     4.237489     4.237489     4.237489    7031.0351    8967.4862    8200.5869    3925.0322    11760.621    2665.5822   -2056.9713    76.089681 
   14000    519.53486   -107.67117   0.47008606   -107.20109    714.85009    4.2361561    4.2361561    4.2361561    714.85009    16666.275    1020.5464   -15542.271   -1324.4465   -2503.1745    21513.683      76.0179 
   14100    445.20329   -107.60501   0.40282929   -107.20218    5456.0842    4.2353945    4.2353945    4.2353945    5456.0842    7103.0388    18361.017   -9095.8034    4594.9236    -10812.66     431.3921    75.976904 
   14200    498.84948   -107.65338   0.45136949   -107.20201    841.14305    4.2387186    4.2387186    4.2387186    841.14305    3575.3103   -198.12244   -853.75869    11949.953    2536.4021    1073.1265    76.155937 
   14300    496.14473   -107.65069   0.44892218   -107.20177    5631.9144    4.2347116    4.2347116    4.2347116    5631.9144    24258.464    1383.3868   -8746.1076     299.7137   -1677.3582    22660.025    75.940164 
   14400    539.61937   -107.68989   0.48825895   -107.20163    -324.3599    4.2385633    4.2385633    4.2385633    -324.3599     5109.217    2986.4561   -9068.7527   -288.53378   -8615.4155   -623.47391    76.147566 
   14500    425.83502    -107.5869   0.38530448   -107.20159     4032.687    4.2364311    4.2364311    4.2364311     4032.687    11131.032   -2087.0016    3054.0303    14832.639   -1970.5356    1826.8232    76.032708 
   14600    495.36125   -107.65034   0.44821327   -107.20213   -1523.5257    4.2360494    4.2360494    4.2360494   -1523.5257    13367.625   -9684.1576   -8254.0444   -4780.6429    5016.6178    20036.349    76.012156 
   14700    594.75062   -107.73797   0.53814286   -107.19983    1700.4382    4.2386522    4.2386522    4.2386522    1700.4382    2487.0443    85.211188    2529.0592    283.47585   -8216.8911   -2069.1015    76.152358 
   14800    454.60083   -107.61357   0.41133238   -107.20223    2395.9471    4.2359408    4.2359408    4.2359408    2395.9471    5293.3979   -3065.4565       4959.9    15097.213   -112.72413   -750.08704    76.006308 
   14900    449.81418   -107.60989   0.40700132   -107.20289   -4485.6706    4.2396645    4.2396645    4.2396645   -4485.6706    9858.7697    -10979.79   -12335.992   -5760.6522    7793.4878    19404.226    76.206931 
   15000    651.13019   -107.78875   0.58915628   -107.19959    5547.0495    4.2346256    4.2346256    4.2346256    5547.0495     8881.541    7011.8108    747.79675    3791.4742   -9017.4423    -2697.002    75.935536 
   15100    450.98096   -107.61136   0.40805705    -107.2033    293.49841    4.2375413    4.2375413    4.2375413    293.49841    7513.1966   -335.81952   -6296.8818    12522.138    2378.1309    1719.4581    76.092495 
   15200    412.07863   -107.57645    0.3728574   -107.20359   -4808.4527    4.2396442    4.2396442    4.2396442   -4808.4527    12687.901   -7668.4643   -19444.795   -1571.3831    4221.8149    22953.528    76.205835 
   15300    653.65752    -107.7905   0.59144306   -107.19906    6895.1406    4.2342519    4.2342519    4.2342519    6895.1406    9943.8068    7253.8279    3487.7871   -1300.0085   -4414.4936   -2267.6138    75.915433 
   15400    433.99219    -107.5949   0.39268526   -107.20222   -2143.8622    4.2405438    4.2405438    4.2405438   -2143.8622    1664.0652   -3876.4569   -4219.1949    14321.505   -3993.1592    6700.5338    76.254357 
   15500    408.42795    -107.5736    0.3695542   -107.20404   -814.77689    4.2340799    4.2340799    4.2340799   -814.77689    9237.9707   -8455.9816   -3226.3198   -3873.8199    3131.1069    24467.764    75.906181 
   15600    612.05337   -107.75537   0.55379875   -107.20157    6062.1008    4.2373558    4.2373558    4.2373558    6062.1008   -3744.7868    4561.9825    17369.107   -7054.7579   -1537.2707   -2519.9084    76.082506 
   15700    486.68735    -107.6437   0.44036494   -107.20334   -813.93456    4.2389436    4.2389436    4.2389436   -813.93456   -6534.5973   -3942.3422    8035.1358    17198.996   -7203.5927    6821.2989    76.168062 
   15800    360.21978   -107.53008   0.32593443   -107.20414    6574.8949    4.2351494    4.2351494    4.2351494    6574.8949    17105.616   -6202.0498    8821.1181   -5880.5331      8204.29    21755.564    75.963716 
   15900     674.8296   -107.80975       0.6106   -107.19915   -434.66377    4.2402027    4.2402027    4.2402027   -434.66377    -7669.794   -1167.2982    7533.1009   -2864.5431   -1959.5071   -5285.8645    76.235959 
   16000    424.80475   -107.58723   0.38437227   -107.20286     7313.749    4.2323775    4.2323775    4.2323775     7313.749    14509.732    3672.4821    3759.0332    15265.256   -2919.5301    7864.9306    75.814662 
   16100    438.16874    -107.6014   0.39646428   -107.20494   -7750.7705    4.2409389    4.2409389    4.2409389   -7750.7705    4363.8718   -16118.268   -11497.915    -859.3805    2718.8822    19613.894    76.275675 
   16200    646.43805    -107.7855   0.58491073   -107.20059     4906.915    4.2358659    4.2358659    4.2358659     4906.915    3585.1737    6671.0595    4464.5117   -4710.4779    2166.8563   -6306.1535    76.002278 
   16300    447.65567   -107.60878   0.40504826   -107.20373   -1757.5483    4.2353682    4.2353682    4.2353682   -1757.5483    1077.1268    -3868.399   -2481.3727    13521.344    -4885.984    10126.699    75.975491 
   16400    389.36433   -107.55668   0.35230503   -107.20437   -8516.9892     4.241511     4.241511     4.241511   -8516.9892    4754.3668   -18614.666   -11690.668    1120.8928   -1300.6277    20183.326    76.306547 
   16500     691.8593   -107.82495   0.62600884   -107.19894     10716.98    4.2305124    4.2305124    4.2305124     10716.98    193.97701    13781.567    18175.396   -8427.8196    5706.3879   -4202.1998    75.714477 
   16600    377.52408   -107.54618   0.34159172   -107.20459   -7165.1864    4.2423293    4.2423293    4.2423293   -7165.1864   -7598.6978   -12918.466   -978.39532     13659.33   -6607.8283     11974.46     76.35072 
   16700     388.7825   -107.55587   0.35177858   -107.20409   -317.03444    4.2360433    4.2360433    4.2360433   -317.03444    2857.9929   -13587.444     9778.348   -232.14883    593.34787    22394.412    76.011826 
   16800     734.0306   -107.86304   0.66416631   -107.19888    7329.3965    4.2343942    4.2343942    4.2343942    7329.3965   -2066.9047    10681.134     13373.96   -6071.1652    6491.6639   -5166.6473    75.923089 
   16900    387.93816   -107.55685    0.3510146   -107.20584    -8181.186    4.2403224    4.2403224    4.2403224    -8181.186   -3853.9842   -16607.358   -4082.2158    12429.823   -1281.1327    14013.686    76.242411 
   17000    427.66563   -107.59318   0.38696085   -107.20622    -1464.387     4.233717     4.233717     4.233717    -1464.387    10564.379   -10300.629   -4656.9111    1198.3458   -1382.9537    23075.394    75.886664 
   17100    767.76354   -107.89407   0.69468858   -107.19938   -1699.3359    4.2411515    4.2411515    4.2411515   -1699.3359   -7207.0958    4079.1214   -1970.0333   -3985.5311    7500.9109    -10889.98    76.287144 
   17200    365.04215   -107.53472   0.33029781   -107.20442   -5047.7617    4.2362284    4.2362284    4.2362284   -5047.7617    3803.3472   -16372.602   -2574.0301    9761.4003     218.5909    18229.447    76.021791 
   17300    377.93012   -107.54861   0.34195911   -107.20665   -3827.2234    4.2367297    4.2367297    4.2367297   -3827.2234     4636.178    -13831.19   -2286.6584    4596.4721   -6053.1438    16982.529    76.048783 
   17400    732.41449   -107.86364   0.66270402   -107.20094    10861.981    4.2339681    4.2339681    4.2339681    10861.981    4637.4501    10364.181    17584.312   -3985.2204    3351.6257   -10776.651    75.900167 
   17500    318.89827   -107.49723   0.28854586   -107.20868   -1169.6281    4.2396589    4.2396589    4.2396589   -1169.6281    6152.0637   -17050.382    7389.4341    9397.1502   -661.00756    20385.301     76.20663 
   17600     373.8056   -107.54624   0.33822716   -107.20801   -3674.8817    4.2388268    4.2388268    4.2388268   -3674.8817    2858.3019   -12586.386   -1296.5608    6385.5407   -8062.2864    17838.348    76.161765 
   17700    778.85119   -107.90384   0.70472093   -107.19912    17944.167    4.2277946    4.2277946    4.2277946    17944.167    14341.794    21121.462    18369.247   -2733.8442    786.18177   -5046.3087    75.568644 
   17800    356.13189   -107.52974   0.32223562   -107.20751    -12943.96    4.2462766    4.2462766    4.2462766    -12943.96    -4297.221    -19268.71   -15265.949    10463.945    4670.5194    20229.371    76.564042 
   17900    380.28737   -107.55096     0.344092   -107.20687    2867.8507    4.2303436    4.2303436    4.2303436    2867.8507    9919.2685    2858.5163   -4174.2325    6294.8281   -9987.0729    18880.267     75.70541 
   18000    758.31905   -107.88759   0.68614302   -107.20144    8255.4746     4.234985     4.234985     4.234985    8255.4746    2500.6019    12819.652    9446.1703   -3560.6016    3747.7165    -7450.331    75.954873 
   18100    333.13563   -107.50814   0.30142811   -107.20671   -9056.3676     4.244176     4.244176     4.244176   -9056.3676   -2051.1941   -10940.944   -14176.964    8063.6922    8050.6292    17603.256     76.45047 
   18200    327.74355    -107.5025   0.29654925   -107.20595    6564.8613    4.2287404    4.2287404    4.2287404    6564.8613    9862.0548   -989.80025    10822.329    6561.0859   -7260.8071    18164.145    75.619373 
   18300    782.91326   -107.90886   0.70839637   -107.20046    1305.8037    4.2385188    4.2385188    4.2385188    1305.8037   -5347.2874    7668.5352    1596.1633   -3994.4922    1818.2197   -11422.403    76.145166 
   18400    356.83681   -107.52958   0.32287345   -107.20671   -2957.5496    4.2385102    4.2385102    4.2385102   -2957.5496    2966.9763   -6503.3817   -5336.2433    5255.3217     5225.272    20520.212    76.144706 
   18500    393.45448   -107.56316   0.35600588   -107.20715   -7639.3632    4.2343321    4.2343321    4.2343321   -7639.3632   -361.77798   -13540.909   -9015.4027    9161.6269   -6482.6304    17194.614    75.919745 
   18600    740.16286   -107.87008   0.66971491   -107.20037    6242.3649     4.235478     4.235478     4.235478    6242.3649   -3959.0012    15444.022    7242.0738   -2380.0173   -8001.9459   -7861.1448    75.981401 
   18700    455.84487   -107.61813   0.41245802   -107.20567   -10759.991    4.2403268    4.2403268    4.2403268   -10759.991    1744.2766   -16143.976   -17880.273    4939.5342    5686.5701    23091.715     76.24265 
   18800     309.1167   -107.48774   0.27969529   -107.20804   -3684.6212    4.2322262    4.2322262    4.2322262   -3684.6212     -1259.59   -11672.536    1878.2624    13904.674   -10021.101    14515.091     75.80653 
   18900    737.16383   -107.86929   0.66700132   -107.20229    3200.5793    4.2353597    4.2353597    4.2353597    3200.5793   -4790.6492    10756.264    3636.1235   -1947.1404   -11399.247   -5234.5803    75.975032 
   19000    446.64173   -107.61048   0.40413082   -107.20635     -8941.57    4.2420801    4.2420801    4.2420801     -8941.57    2389.3693   -18944.653   -10269.426    2800.8932    10738.125    16669.194    76.337266 
   19100    312.85245    -107.4895   0.28307547   -107.20642   -872.51417    4.2299808    4.2299808    4.2299808   -872.51417    7251.8266    -10641.66    772.29102        16303   -10667.733    13901.728    75.685934 
   19200    698.74802   -107.83385   0.63224189    -107.2016     279.2398    4.2384466    4.2384466    4.2384466     279.2398   -5869.8575    2850.9785    3856.5984   -3903.7983   -4419.5938   -6335.6328    76.141278 
   19300    499.91453   -107.65656   0.45233317   -107.20423   -5471.5646    4.2384738    4.2384738    4.2384738   -5471.5646    13853.195   -19804.362   -10463.527    1070.7617    7679.9938    14489.253    76.142742 
   19400    300.50232    -107.4782   0.27190082    -107.2063   -4486.6913     4.232195     4.232195     4.232195   -4486.6913   -1285.0451   -14033.502     1858.473    14146.281   -6498.1566    16064.156    75.804855 
   19500    660.28562   -107.79996    0.5974403   -107.20252    -257.5949    4.2371342    4.2371342    4.2371342    -257.5949   -4390.7284    4746.3756   -1128.4319   -2334.3614   -6787.4306   -9256.3423    76.070567 
   19600    517.35935   -107.67148   0.46811761   -107.20336   -1548.6586    4.2381979    4.2381979    4.2381979   -1548.6586    13901.805   -12566.578   -5981.2032   -1278.3175    208.57592    17688.037    76.127872 
   19700    340.33426   -107.51399   0.30794159   -107.20605    -5461.698    4.2344228    4.2344228    4.2344228    -5461.698   -3268.9806   -10238.151   -2877.9624    15662.248   -3855.6975    13474.367    75.924625 
   19800    593.94145   -107.74001   0.53741071    -107.2026    2249.3737    4.2346043    4.2346043    4.2346043    2249.3737   -7967.8369    10542.095    4173.8628    2234.7808   -15904.191   -8397.4142    75.934388 
   19900    545.62621   -107.69689   0.49369406   -107.20319   -2389.1744     4.239129     4.239129     4.239129   -2389.1744    11799.059   -10144.152   -8822.4297    -4869.209    2364.6048    14362.735    76.178057 
   20000    411.05196   -107.57678   0.37192845   -107.20485    -4900.567    4.2343278    4.2343278    4.2343278    -4900.567   -7696.6518   -6439.8616   -565.18751    18657.406   -4364.8251    10254.112    75.919517 
   20100    519.63981   -107.67288   0.47018102    -107.2027    45.516872    4.2366314    4.2366314    4.2366314    45.516872   -3915.7006    7267.9835   -3215.7323    2771.7926   -15214.502   -6647.8385    76.043489 
   20200    572.84098   -107.72044   0.51831856   -107.20212   -4729.8359     4.237445     4.237445     4.237445   -4729.8359     10847.59   -16835.356   -8201.7417   -6356.4101    6790.1253    8693.7271    76.087309 
   20300    429.24628   -107.59209   0.38839106    -107.2037   -225.87851    4.2330291    4.2330291    4.2330291   -225.87851    5421.8287     -3081.76   -3017.7042    13432.133   -6290.7117    12364.585    75.849683 
   20400    509.03796   -107.66478   0.46058825    -107.2042    -4099.522    4.2380505    4.2380505    4.2380505    -4099.522   -9152.8564    6052.7394    -9198.449   -2677.8985   -10249.732   -9326.7157     76.11993 
   20500    482.95213   -107.64006   0.43698524   -107.20308   -388.25134    4.2376361    4.2376361    4.2376361   -388.25134    16381.755   -7860.4368   -9686.0721   -6865.6414    1769.5109    6779.7009    76.097603 
   20600     529.8858   -107.68117   0.47945181   -107.20172   -319.52221    4.2339567    4.2339567    4.2339567   -319.52221    -3101.871    5856.6843   -3713.3799    2938.3363   -4732.9499    14623.116    75.899555 
   20700    453.46435   -107.61316   0.41030407   -107.20285     2010.439    4.2368098    4.2368098    4.2368098     2010.439    1359.2648    14344.628   -9672.5762    1876.2431   -9767.0412   -11425.725    76.053099 
   20800    470.39349   -107.62872   0.42562191    -107.2031   -4649.7391    4.2377477    4.2377477    4.2377477   -4649.7391    2645.0458   -3868.6982   -12725.565   -7035.2228    -1179.594       7249.4    76.103614 
   20900     516.9476   -107.67008   0.46774505   -107.20234    3184.4982    4.2334755    4.2334755    4.2334755    3184.4982    3705.7693    10458.116   -4610.3901    521.36209   -1279.2319    13982.718     75.87368 
   21000    558.74825   -107.70765   0.50556716   -107.20209   -4968.9096     4.238407     4.238407     4.238407   -4968.9096   -9835.7321     9992.893    -15063.89    8606.1023   -14279.445    -9949.075     76.13914 
   21100    414.62981   -107.57787   0.37516576   -107.20271   -4325.7084    4.2388983    4.2388983    4.2388983   -4325.7084    9152.2163   -8996.2165   -13133.125   -10045.844    2607.9991     4029.361    76.165623 
   21200    594.04007   -107.73878   0.53749994   -107.20128   -443.59548     4.231312     4.231312     4.231312   -443.59548    354.52934    4075.8175   -5761.1333      1243.46   -3126.7975    13813.065    75.757416 
   21300    547.09728   -107.69715   0.49502512   -107.20213   -947.52824    4.2390485    4.2390485    4.2390485   -947.52824    447.75382     13852.25   -17142.588    3615.6293   -14853.676    -8332.526    76.173719 
   21400    480.41889   -107.63832   0.43469311   -107.20362   -4503.2828    4.2381234    4.2381234    4.2381234   -4503.2828    2486.4674   -4967.8516   -11028.464   -9980.8701    5526.3895   -1465.7588     76.12386 
   21500    458.25891   -107.61731   0.41464229   -107.20267    3876.9031    4.2335439    4.2335439    4.2335439    3876.9031    8215.2032    10799.839   -7384.3327   -3054.0053     -7300.35    14364.324    75.877359 
   21600    550.79848   -107.70017   0.49837404    -107.2018    938.41861    4.2372966    4.2372966    4.2372966    938.41861    -6337.424     24726.78     -15574.1   -4289.3971   -14156.448    -6715.865    76.079317 
   21700    456.07568   -107.61576   0.41266686    -107.2031    3217.7318    4.2371387    4.2371387    4.2371387    3217.7318    11407.615    4432.8328   -6187.2523   -5026.0033    3977.7713   -1707.2918    76.070808 
   21800    404.95084   -107.57046   0.36640803   -107.20405   -821.90047    4.2348279    4.2348279    4.2348279   -821.90047    1697.5653    4646.3028   -8809.5695   -11016.816   -9304.8805    11980.599    75.946418 
   21900    505.80767   -107.66115   0.45766541   -107.20349    4613.0433    4.2351179    4.2351179    4.2351179    4613.0433    2541.6932    20460.356   -9162.9196    2335.8539   -14098.841   -1857.0216    75.962021 
   22000     596.2222   -107.74073   0.53947437   -107.20126   -5184.0914    4.2418989    4.2418989    4.2418989   -5184.0914   -2402.8469   -3425.1506   -9724.2766   -2268.3555    2792.5026   -6351.8145    76.327481 
   22100    412.71186   -107.57683   0.37343037    -107.2034    3213.4976    4.2291194    4.2291194    4.2291194    3213.4976    11172.578    2338.2327   -3870.3183   -9762.7595   -8584.2054    10840.198    75.639707 
   22200    518.03013   -107.67349   0.46872454   -107.20476   -5830.6815    4.2390873    4.2390873    4.2390873   -5830.6815   -14206.241    7679.9981   -10965.802    10584.706   -17558.719    810.09007    76.175811 
   22300     651.1864   -107.78978   0.58920714   -107.20057   -3538.2456    4.2417011    4.2417011    4.2417011   -3538.2456     907.4929   -4687.4916    -6834.738   -2167.9235    5551.4722   -10769.749    76.316806 
   22400    459.30609   -107.61766    0.4155898   -107.20207    5991.1532     4.226642     4.226642     4.226642    5991.1532    9246.5668    9519.8493   -792.95643   -3406.6061   -9170.8417    10997.276    75.506855 
   22500    416.05148   -107.58115   0.37645212    -107.2047   -6030.5573    4.2413471    4.2413471    4.2413471   -6030.5573   -17647.492    8471.8213   -8916.0013    7791.7361   -20114.204    623.96772    76.297698 
   22600    621.96231   -107.76325   0.56276457   -107.20049    6298.2344    4.2376221    4.2376221    4.2376221    6298.2344    4335.5041     13835.66    723.53855    -491.4577    9022.9456   -7804.1808    76.096849 
   22700    453.57815   -107.61298   0.41040704   -107.20258    4256.0486    4.2309886    4.2309886    4.2309886    4256.0486    7379.2948     11019.97   -5631.1195   -4319.2162   -11828.453    8033.8353    75.740047 
   22800    355.59427   -107.52711   0.32174917   -107.20536   -543.47373     4.238639     4.238639     4.238639   -543.47373   -11060.981    13289.059   -3858.4987    2606.6979   -21302.655    3074.5951    76.151643 
   22900    662.35588    -107.8005   0.59931352   -107.20119    3635.5997    4.2378453    4.2378453    4.2378453    3635.5997    6129.3669    6289.4753   -1512.0432    3727.2795    10104.308   -5656.4933    76.108872 
   23000     438.3037   -107.60112    0.3965864   -107.20453    2761.1476    4.2318494    4.2318494    4.2318494    2761.1476    3892.1201     12219.57   -7828.2472   -6987.2424   -13021.103    769.02071    75.786284 
   23100    380.82182   -107.55155   0.34457558   -107.20698   -2164.2658    4.2361095    4.2361095    4.2361095   -2164.2658    -10760.38    8496.3202   -4228.7378     4493.368   -20770.054    6934.3196     76.01539 
   23200    693.52709   -107.82823   0.62751789   -107.20071   -2726.2701    4.2413372    4.2413372    4.2413372   -2726.2701    1874.3724   -4677.1656   -5376.0172    7625.5988    8394.3083   -8559.1717    76.297167 
   23300    460.10495   -107.62066   0.41631263   -107.20435    1148.3596     4.228169     4.228169     4.228169    1148.3596    549.05701    10670.594   -7774.5718   -4332.5389   -11554.451   -1355.5109    75.588725 
   23400      343.289   -107.51921   0.31061511    -107.2086   -7038.9495    4.2391148    4.2391148    4.2391148   -7038.9495   -7700.2907    401.43463   -13817.992    4616.1246   -21255.432    9983.4792    76.177293 
   23500     774.1468   -107.90216    0.7004643   -107.20169   -4275.5999     4.240202     4.240202     4.240202   -4275.5999    826.02752   -6819.0602   -6833.7669    6765.3857    6929.3325   -7563.5425    76.235917 
   23600     409.4724   -107.57602   0.37049923   -107.20552    9729.1605     4.225049     4.225049     4.225049    9729.1605    8981.0081    24579.906   -4373.4331   -3593.1207   -10178.219     1987.387    75.421517 
   23700    313.70884   -107.49282   0.28385035   -107.20897   -12907.093    4.2446392    4.2446392    4.2446392   -12907.093   -6288.7312   -2909.3795   -29523.169   -394.91754   -21057.274    9341.1578    76.475504 
   23800    720.21573   -107.85295   0.65166633   -107.20128    7851.4063    4.2359717    4.2359717    4.2359717    7851.4063    18102.008    7084.7621    -1632.551     4043.073    8359.7204   -1351.1054    76.007974 
   23900    488.31022   -107.64615   0.44183335   -107.20432    6124.3333    4.2270459    4.2270459    4.2270459    6124.3333    3180.2011    25551.849    -10359.05   -3144.5771   -11906.113    2124.0283    75.528507 
   24000    224.18986   -107.41202    0.2028517   -107.20917   -10242.675    4.2446854    4.2446854    4.2446854   -10242.675     -1985.02    2262.9138   -31005.919   -221.51951    -17730.22    9586.0955    76.478002 
   24100    751.93039    -107.8824   0.68036242   -107.20204    8932.2209    4.2323612    4.2323612    4.2323612    8932.2209     17378.63    9251.7439    166.28924    7145.4704     9007.946    4174.9715    75.813785 
   24200    497.65312   -107.65526     0.450287   -107.20497    5606.9551    4.2323102    4.2323102    4.2323102    5606.9551    3565.5892    26481.227   -13225.951    498.66058   -16949.454   -2033.7505    75.811044 
   24300    277.79719   -107.45902   0.25135674   -107.20766   -8048.8802     4.242539     4.242539     4.242539   -8048.8802    8170.4001    964.71499   -33281.756    1227.3773   -11654.233    11892.866    76.362043 
   24400    649.79605   -107.78975   0.58794912    -107.2018    10310.489    4.2313937    4.2313937    4.2313937    10310.489     23824.45    6560.7403    546.27795    5551.1896    4904.7812    3092.8371    75.761804 
   24500    548.00589   -107.69974   0.49584724    -107.2039     3521.988    4.2336659    4.2336659    4.2336659     3521.988    10810.313    16510.068   -16754.417    1566.9569   -18035.112   -5871.5119    75.883918 
   24600    359.59373   -107.53086   0.32536797   -107.20549   -6104.1807    4.2428046    4.2428046    4.2428046   -6104.1807    5323.3888    2582.6369   -26218.568   -3186.5112   -8954.6583    12284.035    76.376385 
   24700     629.9689   -107.77054    0.5700091   -107.20053    5163.7325    4.2312671    4.2312671    4.2312671    5163.7325    20062.528   -1075.6371   -3495.6936   -372.70069    3678.2595   -987.53866    75.755003 
   24800     495.2943   -107.65046    0.4481527   -107.20231   -741.42067    4.2359778    4.2359778    4.2359778   -741.42067    4002.3695    11545.124   -17771.756   -1318.5003   -17629.532   -8114.4387      76.0083 
   24900    515.87008   -107.66909   0.46677009   -107.20232   -6716.4945    4.2401492    4.2401492    4.2401492   -6716.4945    -2504.078    3129.4228   -20774.828   -6731.5759   -6909.0868    8864.9243     76.23307 
   25000     562.6622   -107.70993   0.50910858   -107.20082    3281.2805    4.2325544    4.2325544    4.2325544    3281.2805    13739.884   -1107.0099   -2789.0322   -1444.8372    8113.9751   -3594.3117    75.824167 
   25100    434.39097   -107.59634   0.39304608    -107.2033   -6067.5349    4.2384893    4.2384893    4.2384893   -6067.5349   -348.76032    6327.7651   -24181.609    640.97716   -17233.824   -12427.177    76.143575 
   25200    542.45824    -107.6927   0.49082762   -107.20187    366.52927     4.237661     4.237661     4.237661    366.52927   -2020.5713    18698.726   -15578.567    841.60386   -982.22111    5067.3572    76.098945 
   25300    541.57744   -107.69128   0.49003065   -107.20125    3961.4505     4.234181     4.234181     4.234181    3961.4505    15333.052    7272.4924   -10721.193    329.37206    8953.8718   -4843.3826    75.911619 
   25400    312.80482   -107.48846   0.28303237   -107.20543     -1553.12    4.2374878    4.2374878    4.2374878     -1553.12    11173.552    10544.109   -26377.021    4946.9591   -18089.749    -14524.31    76.089616 
   25500    571.53074   -107.71934   0.51713303   -107.20221    2067.3071    4.2384501    4.2384501    4.2384501    2067.3071    2137.9322    23325.235   -19261.246    6509.1845    680.03551    3795.5074    76.141465 
   25600    554.58495   -107.70309   0.50180011   -107.20129    5089.7716    4.2349646    4.2349646    4.2349646    5089.7716    15497.777    10544.878   -10773.339   -820.27808    5836.4463   -4465.8208    75.953772 
   25700    277.05843   -107.45709   0.25068829    -107.2064   -5848.7822    4.2371826    4.2371826    4.2371826   -5848.7822    5110.1699    1815.1834     -24471.7     3045.995   -19205.776   -13380.383    76.073175 
   25800    594.79261   -107.74092   0.53818085   -107.20274   -2515.6767    4.2373508    4.2373508    4.2373508   -2515.6767   -9270.4204    15787.669   -14064.278    1868.0771   -1041.4211     3853.104    76.082236 
   25900    650.15127    -107.7902   0.58827053   -107.20192   -60.707454     4.235872     4.235872     4.235872   -60.707454    7998.8289    255.99543   -8436.9467   -5583.3629    6201.0041    -3621.303    76.002606 
   26000    306.87253   -107.48462   0.27766471   -107.20696   -13378.699     4.237587     4.237587     4.237587   -13378.699   -8021.8226   -11822.425   -20291.848   -2675.1325   -19231.925    -14841.14    76.094956 
   26100    609.36581   -107.75553   0.55136699   -107.20417   -5135.2434    4.2373398    4.2373398    4.2373398   -5135.2434   -12004.244    8239.3467   -11640.833    273.21868   -146.50417    4314.9064    76.081643 
   26200    714.06657   -107.84735   0.64610244   -107.20125   -2721.1336    4.2378406    4.2378406    4.2378406   -2721.1336    3043.4739    260.29056   -11467.165   -4272.1402    8444.2884   -3975.1376     76.10862 
   26300    278.74752   -107.45932   0.25221661    -107.2071    -2054.626    4.2327299    4.2327299    4.2327299    -2054.626    3272.8212    1891.1791   -11327.878   -2918.1305    -18860.15   -14314.033    75.833599 
   26400    515.01934   -107.67224   0.46600032   -107.20624   -3808.8727      4.24237      4.24237      4.24237   -3808.8727   -7638.9894    13478.638   -17266.267    8060.3841    1700.5321    3250.5102    76.352915 
   26500    642.22007   -107.78282   0.58109422   -107.20172    10678.222      4.23425      4.23425      4.23425    10678.222    13830.874    21016.887   -2813.0966   -697.08728    6704.2413   -2302.7049    75.915328 
   26600    244.92601   -107.42991    0.2216142    -107.2083       1666.2    4.2329824    4.2329824    4.2329824       1666.2   -2262.8772    19025.317    -11763.84   -1016.6886   -17686.901   -12277.276     75.84717 
   26700    444.19842    -107.6078   0.40192007   -107.20588   -5584.9556    4.2441516    4.2441516    4.2441516   -5584.9556    -13296.51    11458.621   -14916.978    5789.4548   -1255.0193    60.200623    76.449153 
   26800    727.17288   -107.85799    0.6579613   -107.20003    11857.253    4.2282333    4.2282333    4.2282333    11857.253    16365.114    19143.168    63.478085    5.5461692    4755.9156    4679.7682    75.592172 
   26900    301.79441    -107.4811   0.27306993   -107.20803    -12590.91    4.2412786    4.2412786    4.2412786    -12590.91   -20599.357   -522.47576   -16650.896   -7825.1905   -18653.456   -7893.5386    76.294001 
   27000    561.48884   -107.71197    0.5080469   -107.20392   -4348.6567    4.2364769    4.2364769    4.2364769   -4348.6567   -11583.014    3526.4137   -4989.3702    2412.3706   -6481.8523   -57.338731    76.035173 
   27100    737.72704   -107.86782   0.66751093   -107.20031    1890.9704    4.2354871    4.2354871    4.2354871    1890.9704    4265.5221     6180.747   -4773.3581   -1510.1477    3254.9608    9797.9751     75.98189 
   27200    351.49956   -107.52398   0.31804419   -107.20594   -10568.491    4.2385656    4.2385656    4.2385656   -10568.491    -20540.99    6427.9298   -17592.414   -6773.1009   -21488.148   -4613.4424    76.147687 
   27300    468.53115    -107.6289   0.42393683   -107.20497    4791.2511    4.2338449    4.2338449    4.2338449    4791.2511   -5015.0254    16392.126    2996.6527    2847.6215   -5711.7819    -2714.668    75.893542 
   27400     663.0653   -107.80042   0.59995542   -107.20046   -4893.2055     4.242848     4.242848     4.242848   -4893.2055   -740.81527    1406.5557   -15345.357    826.01011    3240.5982     12185.09    76.378727 
   27500    295.42241   -107.47154    0.2673044   -107.20423    8059.6756    4.2293132    4.2293132    4.2293132    8059.6756    -5626.011    34932.443   -5127.4047   -316.51095   -23575.582   -3156.6907    75.650105 
   27600    489.37815   -107.64664   0.44279964   -107.20385   -6112.8471    4.2416687    4.2416687    4.2416687   -6112.8471   -7306.9717   -5030.4324   -6001.1373   -1552.4447   -1671.5694   -5900.2286    76.315056 
   27700    571.55965    -107.7187   0.51715918   -107.20154     2652.936    4.2343621    4.2343621    4.2343621     2652.936    15470.843    2488.2706   -10000.306    6021.4802    876.18907    19356.271    75.921359 
   27800    410.98594   -107.57631   0.37186871   -107.20444   -1588.5767    4.2340947    4.2340947    4.2340947   -1588.5767   -5989.0263    13095.446    -11872.15   -4464.3129   -23044.051   -1600.8039    75.906976 
   27900    531.63035    -107.6827   0.48103032   -107.20167   -9816.8434    4.2423439    4.2423439    4.2423439   -9816.8434   -6667.6281   -15127.269   -7655.6327   -3193.0292   -72.453683   -3770.5344    76.351508 
   28000    513.92565   -107.66558   0.46501073   -107.20057    1815.6418     4.230241     4.230241     4.230241    1815.6418    11715.356   -1634.9897   -4633.4412     3650.444   -3448.8846    17750.047    75.699903 
   28100    426.56727   -107.58984   0.38596703   -107.20388    -7915.198    4.2396608    4.2396608    4.2396608    -7915.198   -21592.093    20292.419    -22445.92   -5945.2508   -24036.663   -931.50402    76.206732 
   28200    618.92206   -107.76042   0.56001368   -107.20041    2546.7052    4.2347786    4.2347786    4.2347786    2546.7052   -3051.4057    6114.6679    4576.8534   -781.52304     870.9208   -660.15984    75.943765 
   28300    405.47272    -107.5711   0.36688024   -107.20422   -6064.1026    4.2379077    4.2379077    4.2379077   -6064.1026   -5192.6452    5643.9587   -18643.621    967.63421   -5698.3029    11415.348    76.112238 
   28400    404.73148   -107.57164   0.36620955   -107.20543   -2090.1102    4.2355466    4.2355466    4.2355466   -2090.1102   -16871.993    28643.111   -18041.448    1922.8357    -24154.73    3701.7077    75.985092 
   28500    756.42972   -107.88473   0.68443351    -107.2003    4803.0208    4.2346987    4.2346987    4.2346987    4803.0208    3253.1229    11444.174   -288.23433    -3026.036    2646.4988   -3579.0489    75.939469 
   28600    343.42991   -107.51784    0.3107426    -107.2071   -5389.1241    4.2409341    4.2409341    4.2409341   -5389.1241    -102.1084    2809.2539   -18874.518     2445.324    -7717.795    13090.391    76.275416 
   28700    416.80458   -107.58271   0.37713355   -107.20558   -889.08342     4.233765     4.233765     4.233765   -889.08342   -2820.0861    20972.216    -20819.38    3757.7813   -24374.484    6791.6318    75.889245 
   28800     758.9239   -107.88571    0.6866903   -107.19902     4549.608    4.2390495    4.2390495    4.2390495     4549.608    10081.957    2945.1243    621.74269   -5597.9658    4974.9947   -3576.5327    76.173773 
   28900    383.38866    -107.5542   0.34689812   -107.20731   -2293.2505    4.2340442    4.2340442    4.2340442   -2293.2505    4350.3018      4441.05   -15671.103    592.69474   -12052.756    14991.197    75.904261 
   29000    277.40446   -107.46211   0.25100139   -107.21111   -1151.4644    4.2359072    4.2359072    4.2359072   -1151.4644   -7627.2107    26042.896   -21870.078    1118.4283   -26809.277    5129.3261    76.004502 
   29100    820.84737   -107.94531   0.74271995   -107.20259    6404.1399    4.2370644    4.2370644    4.2370644    6404.1399    2930.9325    15375.092    906.39551   -2163.4038    7885.6642   -4228.8288    76.066808 
   29200    341.60052    -107.5183   0.30908733   -107.20922    3757.9196    4.2357538    4.2357538    4.2357538    3757.9196   -6951.9476    27808.168   -9582.4615   -3699.6489   -15121.698     8414.905    75.996245 
   29300    321.61167   -107.49954     0.291001   -107.20854   -8588.3946     4.239824     4.239824     4.239824   -8588.3946   -15285.841    13620.001   -24099.344    5129.8215   -24691.447    5996.5868    76.215531 
   29400    806.56946   -107.92964     0.729801   -107.19984    14042.824    4.2309651    4.2309651    4.2309651    14042.824    6380.7784    22624.341    13123.353   -1282.6633    11757.337   -6923.5821    75.738783 
   29500     441.4541   -107.60716   0.39943694   -107.20772   -8711.0385    4.2404787    4.2404787    4.2404787   -8711.0385    -15178.74    9754.9604   -20709.336   -1858.5974   -17515.669    7508.0427    76.250846 
   29600    311.00978   -107.49181   0.28140819    -107.2104   -6919.2135     4.233542     4.233542     4.233542   -6919.2135   -8134.4481     4120.431   -16743.623    6750.6276   -21428.968    10795.833    75.877257 
   29700    787.20954   -107.91519   0.71228373   -107.20291     4252.499    4.2355173    4.2355173    4.2355173     4252.499    5604.9587    2252.2676    4900.2708   -234.60633    9809.5023   -4869.5095    75.983514 
   29800    464.57421   -107.62724   0.42035651   -107.20688   -10756.416    4.2415752    4.2415752    4.2415752   -10756.416   -17809.063    4282.6657    -18742.85   -419.49629   -18082.165    5297.6993     76.31001 
   29900    284.22398   -107.46509   0.25717183   -107.20791    997.37862    4.2295977    4.2295977    4.2295977    997.37862    1254.4443    6503.1463   -4765.4548    2150.9154   -19152.628    11875.344    75.665377 
   30000    712.51042   -107.84619    0.6446944   -107.20149   -2042.2837    4.2417751    4.2417751    4.2417751   -2042.2837    -6953.678    -2451.564    3278.3909    3960.0991      5891.83    -2298.311    76.320801 
   30100    441.26928   -107.60484   0.39926972   -107.20557     3608.919    4.2336177    4.2336177    4.2336177     3608.919   -8158.4689    22718.628   -3733.4021   -3543.8388   -17104.381   -3334.9693    75.881329 
   30200    278.72158   -107.46001   0.25219314   -107.20782   -5269.6401    4.2372136    4.2372136    4.2372136   -5269.6401   -13652.365    2306.0763   -4462.6315    2420.5357   -17250.607    14178.049    76.074842 
   30300    649.68676   -107.78924   0.58785024   -107.20139    3642.6429    4.2374989    4.2374989    4.2374989    3642.6429   -153.75312    3266.4455    7815.2364    5297.4266    6018.8602   -1121.9597    76.090213 
   30400    503.70993   -107.65934   0.45576733   -107.20357     3744.755    4.2333939    4.2333939    4.2333939     3744.755   -14402.394    28444.584   -2807.9253   -5496.2007   -15687.292   -4768.9856    75.869292 
   30500    317.53216   -107.49274   0.28730977   -107.20543   -11200.638    4.2413507    4.2413507    4.2413507   -11200.638   -13413.679   -3467.7443    -16720.49    4828.1019    -13517.45     19761.53    76.297892 
   30600     633.8721   -107.77445   0.57354079   -107.20091    7772.0248    4.2303921    4.2303921    4.2303921    7772.0248    4476.7655    4249.6152    14589.694    4778.9576    8738.5312    4452.3658    75.708018 
   30700    558.30597   -107.70699   0.50516698   -107.20183   -7751.8519    4.2413512    4.2413512    4.2413512   -7751.8519   -21544.298    9282.4682   -10993.726   -2412.8144   -19824.024   -1091.4219    76.297921 
   30800    335.22184   -107.50891   0.30331576    -107.2056   -3126.2484    4.2338006    4.2338006    4.2338006   -3126.2484   -6465.2748   -4520.6187    1607.1482     5431.492   -9923.5781    19258.609    75.891163 
   30900    606.90775   -107.75167   0.54914288   -107.20253    3019.4819     4.233286     4.233286     4.233286    3019.4819    2485.6956   -5777.9904    12350.741    7323.7617    6755.6401    9471.6829    75.863492 
   31000    583.13906   -107.72882   0.52763647   -107.20118   -4292.7175    4.2423331    4.2423331    4.2423331   -4292.7175   -19034.382    4920.4928    1235.7369    107.98793   -21067.894   -4513.0432    76.350926 
   31100    396.80405   -107.56326   0.35903665   -107.20422   -2435.1139    4.2298437    4.2298437    4.2298437   -2435.1139    2399.4495   -4446.4174   -5258.3737    4417.9379   -6497.9245    16298.872    75.678575 
   31200    485.80406   -107.64361   0.43956572   -107.20405   -1307.3908    4.2368989    4.2368989    4.2368989   -1307.3908   -655.80982   -8882.8169    5616.4542    8204.8621    5457.1927    11345.052    76.057894 
   31300     710.5075     -107.844   0.64288212   -107.20112   -3742.5271     4.238622     4.238622     4.238622   -3742.5271   -15941.784    6641.0283   -1926.8259     179.6838   -14779.488   -9890.8232     76.15073 
   31400    329.57394   -107.50362   0.29820543   -107.20541    1151.6903      4.23196      4.23196      4.23196    1151.6903    6767.8894    383.17374   -3695.9923    1828.9448   -4381.2516     18085.44    75.792225 
   31500    446.90032   -107.61059    0.4043648   -107.20623    -4813.982    4.2352507    4.2352507    4.2352507    -4813.982   -5138.0456   -6755.9074    -2547.993    8086.6643    7580.3815    10728.798     75.96917 
   31600    637.30768   -107.77816   0.57664938   -107.20151    3076.2667    4.2397314    4.2397314    4.2397314    3076.2667    -6639.771    4831.8938    11036.677   -1282.1048   -6008.7222   -5398.4169    76.210537 
   31700    456.99087   -107.61878   0.41349494   -107.20528   -778.49305    4.2303281    4.2303281    4.2303281   -778.49305    7133.5911   -5985.5528   -3483.5175    56.498488   -4794.9179    19819.212    75.704582 
   31800    275.73798   -107.45893   0.24949352   -107.20944   -2525.7867    4.2359938    4.2359938    4.2359938   -2525.7867   -4566.9109   -11188.099    8177.6501    9476.5618    10586.982    8744.8461    76.009162 
   31900    769.68906   -107.89787   0.69643084   -107.20144   -4110.4057    4.2404501    4.2404501    4.2404501   -4110.4057   -14492.235   -255.29763    2416.3161   -3097.9401    2957.1831   -1154.6016    76.249301 
   32000    455.09951   -107.61695    0.4117836   -107.20517    7449.7725    4.2283174    4.2283174    4.2283174    7449.7725    17381.826    -2614.437    7581.9279    1676.6974   -5805.9808    13276.915    75.596684 
   32100    314.80285   -107.49331   0.28484023   -107.20847   -15212.061    4.2395737    4.2395737    4.2395737   -15212.061   -17401.696   -21814.774   -6419.7128    9451.4059    14657.898    10088.892    76.202037 
   32200    669.87914   -107.80915   0.60612072   -107.20303    4869.1548     4.236459     4.236459     4.236459    4869.1548   -4073.7821    4015.9292    14665.317   -968.32229    9851.8125   -6098.0269     76.03421 
   32300    615.91589   -107.76124   0.55729364   -107.20394    2476.7014    4.2297283    4.2297283    4.2297283    2476.7014    11360.637     -9270.89    5340.3572    2343.2402   -7074.5855     9515.985    75.672386 
   32400    185.76265   -107.37786   0.16808195   -107.20978    -9806.891    4.2398884    4.2398884    4.2398884    -9806.891   -15327.711   -20423.496    6330.5336    8570.0677    15905.111    10862.105    76.219005 
   32500    669.03207   -107.80948   0.60535428   -107.20413    543.26328    4.2348891    4.2348891    4.2348891    543.26328   -11954.389    6392.7175    7191.4613    3227.8715    10227.709   -7945.5675    75.949709 
   32600    617.73732   -107.76184   0.55894171    -107.2029    4786.2814     4.231932     4.231932     4.231932    4786.2814    11822.985   -7552.8408      10088.7    -1768.798   -7423.0133    14599.652     75.79072 
   32700    263.62677   -107.44718   0.23853504   -107.20864   -8947.5382     4.237931     4.237931     4.237931   -8947.5382   -13123.178   -18191.457    4472.0205    10441.099    14613.151    7900.3668    76.113493 
   32800    572.32639   -107.72302   0.51785295   -107.20517    90.665674    4.2357318    4.2357318    4.2357318    90.665674    -12152.54    9074.9963    3349.5411    3370.0299    9585.0491   -2776.1018    75.995061 
   32900    657.03596   -107.79673   0.59449994   -107.20223    6590.4964    4.2315932    4.2315932    4.2315932    6590.4964    9802.6499    -1943.235    11912.074   -4064.7287   -7452.5308    12097.805    75.772518 
   33000    324.03483   -107.50108   0.29319352   -107.20788   -7788.5684    4.2380398    4.2380398    4.2380398   -7788.5684   -11669.169   -14897.573    3201.0368    11073.566    12923.673    4653.5778    76.119353 
   33100    506.85616    -107.6636   0.45861411   -107.20499   -1224.5087    4.2352304    4.2352304    4.2352304   -1224.5087   -15221.126    10251.722     1295.878    1726.1846    11768.734   -2491.4414    75.968077 
   33200    635.87047   -107.77646   0.57534897   -107.20111    4471.3536    4.2334839    4.2334839    4.2334839    4471.3536    3599.4776    574.55387    9240.0294   -2801.1259   -10674.734    3450.5674    75.874134 
   33300    376.93969   -107.54666   0.34106295    -107.2056   -5415.4638    4.2370506    4.2370506    4.2370506   -5415.4638   -7357.5416   -12359.569    3470.7188    9306.4644    13484.028    6263.1827    76.066065 
   33400    460.91294   -107.62177   0.41704372   -107.20472   -1591.6482    4.2334582    4.2334582    4.2334582   -1591.6482   -15768.979    10416.761    577.27273    4486.3409    12908.105   -4362.9182     75.87275 
   33500    602.26749   -107.74677   0.54494428   -107.20182    163.57359    4.2370154    4.2370154    4.2370154    163.57359   -2658.2944    1646.7071    1502.3081   -2583.8179   -18797.366    2234.8418    76.064172 
   33600    489.86541   -107.64711   0.44324052   -107.20387   -4583.1484     4.233993     4.233993     4.233993   -4583.1484   -4904.2999   -9547.5221    702.37678    9310.6099    13270.608    8246.1029    75.901508 
   33700    368.06221   -107.53855   0.33303042   -107.20552   -2749.1383    4.2350199    4.2350199    4.2350199   -2749.1383   -14600.987      7159.89   -806.31746    7582.9788    7799.9314   -3299.4301    75.956749 
   33800    638.65297   -107.77985   0.57786662   -107.20199   -2859.8424    4.2381364    4.2381364    4.2381364   -2859.8424   -5002.3692    1462.4404   -5039.5984   -3882.4043   -24771.848    4534.1635    76.124557 
   33900    535.34425   -107.68731   0.48439073   -107.20292    1906.4565    4.2317407    4.2317407    4.2317407    1906.4565    1040.2493   -6761.7544    11440.875    10660.918    12498.184    5578.9436    75.780443 
   34000    325.05402   -107.50093   0.29411571   -107.20681   -8558.7912    4.2368865    4.2368865    4.2368865   -8558.7912   -19283.846    1301.4132   -7693.9409    6229.0603    4986.4132   -2607.5923     76.05723 
   34100    595.35709   -107.74121   0.53869161   -107.20252   -2142.8869    4.2373121    4.2373121    4.2373121   -2142.8869   -6278.9612    4098.0927   -4247.7921   -4672.5479   -19869.146    2463.8023     76.08015 
   34200    593.87555   -107.73919   0.53735107   -107.20184    2466.5713    4.2319699    4.2319699    4.2319699    2466.5713    861.92566   -6036.0895    12573.878    10234.534    11508.617    1209.3818     75.79276 
   34300    299.24955   -107.47756   0.27076728    -107.2068    -7583.559    4.2373811    4.2373811    4.2373811    -7583.559   -17183.744   -2092.2824   -3474.6509    3908.2573    6581.3575    -1373.751    76.083867 
   34400    566.09092   -107.71599   0.51221097   -107.20378    592.42365      4.23677      4.23677      4.23677    592.42365    777.94176    3485.7533   -2486.4241   -2279.3969   -15198.353   -2885.4143    76.050953 
   34500    647.65743   -107.78807   0.58601405   -107.20206    4231.4676    4.2317133    4.2317133    4.2317133    4231.4676    2497.7875   -7796.0901    17992.705    8054.3108    4393.5584    -1007.138    75.778972 
   34600    315.34025   -107.49213   0.28532648   -107.20681   -5280.8696    4.2382994    4.2382994    4.2382994   -5280.8696   -7378.3953   -5002.2524    -3461.961    5779.3913    8408.7129    400.19005    76.133342 
   34700    588.82154   -107.73591    0.5327781   -107.20313   -257.09835    4.2361961    4.2361961    4.2361961   -257.09835   -302.90932   -579.47556    111.08982   -1331.4811   -15447.841   -4788.2978    76.020055 
   34800    586.03759   -107.73211   0.53025912   -107.20186    7843.7085    4.2310436    4.2310436    4.2310436    7843.7085    14853.092    -7791.859    16469.892    8271.6594    2025.7122    -1592.036       75.743 
   34900     387.5759   -107.55671   0.35068682   -107.20602   -7812.4787    4.2388594    4.2388594    4.2388594   -7812.4787   -16834.873   -10964.631    4362.0679    7960.2675    13373.406     848.5773    76.163525 
   35000    540.15136    -107.6921    0.4887403   -107.20336    6345.5646    4.2346918    4.2346918    4.2346918    6345.5646    14903.102    789.48072    3344.1108   -3293.2332   -13193.882   -3821.5394    75.939095 
   35100    580.14017   -107.72767   0.52492301   -107.20274    -1614.807    4.2344617    4.2344617    4.2344617    -1614.807    2199.4495   -18462.533    11418.663    10610.033    5560.6104   -165.14454    75.926719 
   35200    318.30508   -107.49465   0.28800912   -107.20664   -179.53628    4.2351251    4.2351251    4.2351251   -179.53628   -6030.5883   -9898.3331    15390.313    5292.8417     10954.74    1480.7448    75.962412 
[...]
   91200    274.82337   -107.45936   0.24866596   -107.21069   -6609.1337    4.2396452    4.2396452    4.2396452   -6609.1337    3973.4459   -17186.994   -6613.8529   -9939.1413      1164.33    22421.065    76.205889 
   91300    788.12266   -107.91435   0.71310995   -107.20124    5649.6267    4.2373414    4.2373414    4.2373414    5649.6267   -2737.1969     19842.15   -156.07327    4842.3824    -433.6791   -6035.9121    76.081729 
   91400    440.04986   -107.60559   0.39816636   -107.20742    7496.2815    4.2298706    4.2298706    4.2298706    7496.2815    4665.1993     13549.93    4273.7151   -6546.3658   -4029.3339    8327.5539    75.680022 
   91500    243.50253   -107.43174   0.22032621   -107.21142   -10725.244    4.2425515    4.2425515    4.2425515   -10725.244   -2463.5698   -8264.4909   -21447.672   -13745.025    838.20044    24331.309    76.362714 
   91600    802.22903   -107.92864   0.72587369   -107.20277    6552.7089    4.2347143    4.2347143    4.2347143    6552.7089    -3224.887    19214.308    3668.7053    870.88782   -1055.3046   -2456.2828    75.940305 
   91700    569.65819    -107.7223    0.5154387   -107.20686    2794.5252    4.2315358    4.2315358    4.2315358    2794.5252    99.183121    6830.7999    1453.5927   -4597.1319   -7439.9822     9291.758    75.769436 
   91800    267.79083   -107.45123   0.24230277   -107.20893    -13973.43    4.2453978    4.2453978    4.2453978    -13973.43   -7749.9934   -18365.627   -15804.669   -16614.237    2487.9956    25101.312    76.516513 
   91900    788.60491   -107.91455   0.71354629     -107.201    10012.484    4.2306342    4.2306342    4.2306342    10012.484    1740.4524    14052.478    14244.523    3364.6208   -4589.3973   -6928.0696    75.721018 
   92000    468.92141   -107.62926   0.42428995   -107.20497    4430.9307    4.2357283    4.2357283    4.2357283    4430.9307   -2686.9584    14153.806    1825.9441    230.24025   -3297.3413    5988.8254    75.994872 
   92100    224.88278   -107.41328   0.20347867    -107.2098   -9547.2494    4.2412216    4.2412216    4.2412216   -9547.2494   -2272.8604   -14629.366   -11739.522   -14340.125     1656.437    25085.297     76.29093 
   92200    654.53162    -107.7951   0.59223397   -107.20287    12369.867    4.2303433    4.2303433    4.2303433    12369.867    4545.2008    12181.288    20383.111    5446.1891    515.38314   -8480.3376    75.705398 
   92300    562.86199   -107.71468   0.50928935   -107.20539   -2450.2736     4.238418     4.238418     4.238418   -2450.2736   -3861.8271    1721.4438   -5210.4376    4116.7959   -284.89137    9773.8314    76.139735 
   92400    271.48447    -107.4547   0.24564485   -107.20905   -11145.816     4.240135     4.240135     4.240135   -11145.816     4126.708   -27881.659   -9682.4968   -15959.384     477.6783    26042.048    76.232305 
   92500    757.83294   -107.88735   0.68570317   -107.20164    7419.9178    4.2299144    4.2299144    4.2299144    7419.9178    6291.7019    3716.6592    12251.392    117.93157    3602.0581   -3025.6864    75.682374 
   92600    576.26566   -107.72625   0.52141728   -107.20483   -3107.2741     4.240482     4.240482     4.240482   -3107.2741   -3530.0132    1231.7135   -7023.5227    3582.2573   -3640.9258    7458.4785    76.251021 
   92700    198.78397   -107.39012   0.17986391   -107.21025   -4041.3841    4.2361349    4.2361349    4.2361349   -4041.3841    7603.4002   -13480.985   -6246.5673   -19944.863    713.49903    22474.524    76.016757 
   92800    632.65942   -107.77683   0.57244354   -107.20438    9652.2955    4.2347482    4.2347482    4.2347482    9652.2955     582.4525    14630.336    13744.098   -4601.3547    260.84569   -2961.6839    75.942131 
   92900    563.16413   -107.71431   0.50956274   -107.20475    4278.9671    4.2388165    4.2388165    4.2388165    4278.9671    2155.8982    12760.616   -2079.6132    3946.3352   -6382.2059    1777.8496    76.161213 
   93000    180.56545    -107.3729   0.16337941   -107.20952   -2095.7866    4.2353772    4.2353772    4.2353772   -2095.7866    10717.516   -19609.919    2605.0439   -19011.922    411.65665    21734.599    75.975975 
   93100    699.40479   -107.83672   0.63283615   -107.20388   -242.80006    4.2395993    4.2395993    4.2395993   -242.80006   -4261.1361    -1685.955    5218.6909   -4340.0425   -3615.4904   -4331.0092    76.203416 
   93200    709.71445   -107.84601   0.64216455   -107.20385    8182.0449    4.2319324    4.2319324    4.2319324    8182.0449    12715.639    3038.4615    8792.0347    7670.0561   -2952.2744    4501.3639    75.790742 
   93300    204.53615   -107.39678   0.18506861   -107.21171   -7716.5466    4.2391141    4.2391141    4.2391141   -7716.5466   -2119.4356   -17908.235   -3121.9687    -15803.13   -164.57813    24991.699    76.177253 
   93400    594.36434   -107.74439   0.53779334    -107.2066    2777.4207    4.2395694    4.2395694    4.2395694    2777.4207   -8119.2433    14114.814    2336.6915   -5527.0275   -1934.5971   -6170.6295    76.201802 
   93500    695.70932   -107.83188   0.62949241   -107.20238     11491.57     4.231014     4.231014     4.231014     11491.57    10782.428    19313.502    4378.7792    6003.1604    1962.4021    9595.9401    75.741412 
   93600    192.40278   -107.38356   0.17409008   -107.20947   -11342.192    4.2417118    4.2417118    4.2417118   -11342.192   -10298.429   -13130.555   -10597.593   -19366.729   -729.28164    22116.669    76.317382 
   93700     609.7433   -107.75592   0.55170855   -107.20421    -4503.602    4.2369029    4.2369029    4.2369029    -4503.602   -8167.7758   -6174.8003    831.77019   -14032.135    2485.2483   -7454.0745    76.058113 
   93800    757.66846   -107.88695   0.68555434   -107.20139    5478.7893    4.2322293    4.2322293    4.2322293    5478.7893     10666.25    4876.1451    893.97296     3924.154    2135.4329    6936.4573    75.806697 
   93900    311.77994   -107.49018   0.28210504   -107.20807   -12350.687    4.2430363    4.2430363    4.2430363   -12350.687   -8627.9764   -18870.605   -9553.4803   -19504.632   -684.84818     17228.04    76.388895 
   94000    527.76661   -107.68352   0.47753432   -107.20599    471.53043    4.2359104    4.2359104    4.2359104    471.53043   -23.989844    538.45449    900.12665   -12872.584    3314.4265    -9092.125    76.004671 
   94100    687.64057    -107.8232   0.62219164   -107.20101    13520.641    4.2316626    4.2316626    4.2316626    13520.641    19308.176    22690.926   -1437.1794    10757.752   -833.21942    1600.6235    75.776247 
   94200    246.50645   -107.43013   0.22304422   -107.20708   -7487.9795    4.2450101    4.2450101    4.2450101   -7487.9795   -2280.6211   -8088.3848   -12094.933   -15388.081    343.69034    17339.813    76.495554 
   94300    437.27948   -107.60052   0.39565966   -107.20486    3464.6381    4.2327182    4.2327182    4.2327182    3464.6381    6678.1502   -2265.3969    5981.1611    -11351.97    267.68061   -7894.0229     75.83297 
   94400    682.16243   -107.81802   0.61723491   -107.20079    9984.8575    4.2322306    4.2322306    4.2322306    9984.8575    24354.521    10581.819   -4981.7674    7855.2111   -700.56042    1619.6516    75.806763 
   94500     353.2448   -107.52614   0.31962332   -107.20651   -14349.864    4.2449778    4.2449778    4.2449778   -14349.864   -2233.4044   -30614.254   -10201.933   -19845.821    428.83823    18112.729    76.493805 
   94600    449.43624   -107.61179   0.40665935   -107.20513    4079.4822    4.2305327    4.2305327    4.2305327    4079.4822    2946.9889   -1062.6148    10354.072   -21760.105   -2002.5157   -7280.4629    75.715564 
   94700    754.50301   -107.88286   0.68269018   -107.20017     204.7478    4.2388344    4.2388344    4.2388344     204.7478    2778.0697    10005.376   -12169.202    4807.4099     2413.963    1139.2158    76.162175 
   94800    318.85898   -107.49469    0.2885103   -107.20618   -3974.6581    4.2398313    4.2398313    4.2398313   -3974.6581   -5716.1817   -2611.3008   -3596.4917   -19937.733   -2356.7812    12526.653    76.215928 
   94900    464.67992   -107.62507   0.42045216   -107.20462    1444.4729    4.2325334    4.2325334    4.2325334    1444.4729    -11598.96    10860.274    5072.1044   -17755.551    941.07476   -5512.1491    75.823037 
   95000    723.91176   -107.85487   0.65501058   -107.19985    971.69483    4.2393061    4.2393061    4.2393061    971.69483    3137.6645    10421.836   -10644.416    12030.792    1059.4082   -1552.3053    76.187608 
   95100    346.29467   -107.51914   0.31333469   -107.20581   -8364.9916     4.237785     4.237785     4.237785   -8364.9916   -3918.0702   -22399.663    1222.7586   -21050.186   -804.34892    11322.206    76.105627 
   95200    447.22689   -107.60983   0.40466029   -107.20517   -5057.1965    4.2362755    4.2362755    4.2362755   -5057.1965    -7925.586   -7288.5665    42.563007   -15333.723    1049.1896   -1643.4758    76.024328 
   95300     727.6894   -107.85893   0.65842866    -107.2005    6244.6768     4.234198     4.234198     4.234198    6244.6768      8897.24    16915.447    -7078.656    8483.2205    108.43804   -2416.7568    75.912535 
   95400    314.58356   -107.49179   0.28464182   -107.20715   -981.85385    4.2380187    4.2380187    4.2380187   -981.85385   -595.76848   -2923.3186    573.52557    -26185.14    1170.7951    13938.868    76.118219 
   95500    408.06155   -107.57648   0.36922267   -107.20726      651.585    4.2376509    4.2376509    4.2376509      651.585   -17452.414    21361.211   -1954.0419   -13875.361   -1005.8192    1178.3475    76.098399 
   95600    683.15795   -107.81839   0.61813567   -107.20025     13150.67    4.2322264    4.2322264    4.2322264     13150.67    8662.7371    32467.559   -1678.2871    4379.5964     2730.247    566.02353    75.806538 
   95700    384.43997   -107.55445   0.34784936    -107.2066    -6759.308    4.2403157    4.2403157    4.2403157    -6759.308    -12367.87   -7631.9177   -278.13694   -23456.702    -86.56045    10759.991    76.242051 
   95800     460.3249   -107.62102   0.41651165    -107.2045    -2111.742     4.235258     4.235258     4.235258    -2111.742   -9114.2844    2561.9545    217.10379   -10021.312    2021.0105    2637.3473    75.969562 
   95900    700.86159    -107.8347    0.6341543   -107.20055    3270.2016    4.2339404    4.2339404    4.2339404    3270.2016   -3433.3295    14903.929   -1659.9946    7167.9034    4231.1248   -1950.0224    75.898678 
   96000    427.05561      -107.59   0.38640889   -107.20359   -9621.1843    4.2426204    4.2426204    4.2426204   -9621.1843    -11936.46   -17317.966    390.87343   -20582.677   -885.01152    5325.4625    76.366434 
   96100    458.37332     -107.617   0.41474582   -107.20226    932.34756    4.2326253    4.2326253    4.2326253    932.34756   -12087.024    12583.793    2300.2732   -8288.9624    2814.4222    4461.0922    75.827977 
   96200     531.8011   -107.68299   0.48118481    -107.2018    4424.4896    4.2360136    4.2360136    4.2360136    4424.4896    -7208.363    26096.153   -5614.3212    8911.1732   -471.15652   -7304.7909     76.01023 
   96300    477.06415   -107.63401   0.43165767   -107.20235    1048.8715    4.2393544    4.2393544    4.2393544    1048.8715   -10677.125    8548.4778    5275.2621   -20317.075   -1706.2554    5645.1583     76.19021 
   96400    438.64168   -107.59964   0.39689221   -107.20275     2735.406    4.2355606    4.2355606    4.2355606     2735.406   -4760.0005    11934.979    1031.2392   -7683.1293   -217.42458    4196.4541    75.985844 
   96500    454.11753    -107.6139   0.41089508   -107.20301   -441.57288    4.2347026    4.2347026    4.2347026   -441.57288   -11243.746     14563.54   -4644.5125    9644.0404   -2930.5053   -4401.2197    75.939675 
   96600    565.68059   -107.71413   0.51183968   -107.20229   -1149.8975    4.2386675    4.2386675    4.2386675   -1149.8975    897.77996   -13134.746    8787.2736   -14448.453   -1362.9232    4067.2972    76.153183 
   96700    553.08604    -107.7035   0.50044387   -107.20306   -6094.8738     4.236889     4.236889     4.236889   -6094.8738   -7056.3009   -8808.1539   -2420.1665   -2470.6498    713.54461    1640.5418     76.05736 
   96800    316.05156   -107.49237    0.2859701    -107.2064   -1303.8047    4.2326033    4.2326033    4.2326033   -1303.8047   -9473.8485    8986.9116   -3424.4773    13828.515    1197.5116    91.273448    75.826797 
   96900    694.64662   -107.83028   0.62853086   -107.20175   -10080.174    4.2437104    4.2437104    4.2437104   -10080.174   -13575.922   -16269.533   -395.06569   -4101.9042    421.75523    211.81752    76.425309 
   97000     595.4633    -107.7412    0.5387877   -107.20241    2791.5868     4.232266     4.232266     4.232266    2791.5868   -5449.6618    8795.0499    5029.3723   -660.34658    1116.1219    2802.1335    75.808668 
   97100    240.89962   -107.42676   0.21797104   -107.20879   -9665.3605    4.2359033    4.2359033    4.2359033   -9665.3605   -30259.517    10976.447   -9713.0118    13858.777     1663.229   -1916.8445    76.004292 
   97200    632.25319   -107.77693   0.57207597   -107.20486   -2406.4402    4.2422456    4.2422456    4.2422456   -2406.4402   -11536.111    2515.0184    1801.7716   -1538.0492    -1700.461   -1559.3157    76.346199 
   97300    658.87044   -107.79898   0.59615982   -107.20282    9484.4796    4.2315118    4.2315118    4.2315118    9484.4796   -555.00161    21238.624    7769.8169   -5538.0519     1854.161    2240.4195    75.768149 
   97400    107.95173   -107.30851   0.09767699   -107.21084   -6541.2706    4.2401035    4.2401035    4.2401035   -6541.2706    -24641.83    15337.354   -10319.336     10401.78    -1646.519   -4807.2111    76.230605 
   97500    585.80771   -107.73591   0.53005113   -107.20585    5789.1081    4.2367933    4.2367933    4.2367933    5789.1081      1722.72    7061.9305     8582.674    -708.1095   -2832.2508   -3093.5982    76.052207 
   97600    653.88738   -107.79504   0.59165104   -107.20339    10007.098    4.2350626    4.2350626    4.2350626    10007.098    6733.9014    14761.584    8525.8077   -5946.9968    1475.3698   -2056.6105    75.959044 
   97700    162.85186     -107.358   0.14735179   -107.21064   -8357.1621    4.2403279    4.2403279    4.2403279   -8357.1621   -25910.665     5988.804   -5149.6256     11458.15   -2331.1589   -540.87864    76.242708 
   97800    573.04628   -107.72306   0.51850431   -107.20456    2881.5686    4.2348377    4.2348377    4.2348377    2881.5686    -3880.069    4523.1172    8001.6575    6290.6873   -512.34871   -5833.5851    75.946947 
   97900    744.63351   -107.87517   0.67376004   -107.20141   -1519.5439    4.2387552    4.2387552    4.2387552   -1519.5439   -7341.7665   -117.57132     2900.706   -3508.7031    942.99558    1398.3822    76.157909 
   98000    334.58403   -107.50956   0.30273866   -107.20682   -11025.972    4.2381168    4.2381168    4.2381168   -11025.972    -31930.42    2268.3822   -3415.8791     14035.99   -263.25186    2171.2482    76.123503 
   98100    595.84434   -107.74255   0.53913248   -107.20342   -2823.1489    4.2358747    4.2358747    4.2358747   -2823.1489     -11819.1   -4049.2966    7398.9499    9599.8352    -955.9682   -5264.9494    76.002751 
   98200    750.34035   -107.87925   0.67892372   -107.20033   -3786.0442    4.2399351    4.2399351    4.2399351   -3786.0442   -6686.6733    -6771.654    2100.1947   -6531.9757    49.232166    7595.0229    76.221525 
   98300    411.18271   -107.57639   0.37204676   -107.20434   -2527.2971    4.2349381    4.2349381    4.2349381   -2527.2971    -16386.12    6604.8466    2199.3823    11412.341   -1513.4425   -1344.7808    75.952347 
   98400    468.16426   -107.62776   0.42360486   -107.20415   -2792.1309    4.2390361    4.2390361    4.2390361   -2792.1309   -6479.9431    907.24071   -2803.6905    4322.2344   -2432.8852   -1559.5865    76.173052 
   98500    579.98057   -107.72517    0.5247786    -107.2004    2206.9085    4.2387686    4.2387686    4.2387686    2206.9085    4747.7174   -1496.2375    3369.2456   -15328.915   -268.14703    4249.6986    76.158632 
   98600    404.27602   -107.56772   0.36579744   -107.20192    3867.7885    4.2350572    4.2350572    4.2350572    3867.7885   -7121.7009    17319.424    1405.6419    6442.7999   -5287.7677   -4540.8316    75.958756 
   98700    337.17602   -107.50887   0.30508394   -107.20379    1500.5399    4.2392731    4.2392731    4.2392731    1500.5399   -7968.3835    9300.4819    3169.5213    1126.2514   -1939.0185   -1741.4223    76.185828 
   98800    507.71742   -107.66111   0.45939339   -107.20172    7229.0468    4.2347819    4.2347819    4.2347819    7229.0468    1342.1353    5243.9024    15101.103   -21086.025   -718.32438   -2983.7036    75.943943 
   98900    533.77097    -107.6848   0.48296719   -107.20183     2715.125    4.2388267    4.2388267    4.2388267     2715.125   -15308.021    17615.446    5837.9495    7092.5522   -3482.6116   -2085.6791     76.16176 
   99000    390.92093   -107.55742   0.35371347   -107.20371   -5451.0668    4.2385157    4.2385157    4.2385157   -5451.0668   -18373.357   -4067.9121    6088.0685    4590.7504   -333.34072    -6199.883    76.145001 
   99100    541.54944   -107.69218   0.49000531   -107.20217    977.29034    4.2336561    4.2336561    4.2336561    977.29034   -9104.9725   -6905.0536    18941.897   -19467.691   -498.16691    1862.6091    75.883392 
   99200    731.31864   -107.86166   0.66171247   -107.19995   -7395.4007    4.2419098    4.2419098    4.2419098   -7395.4007   -21112.078    -2558.865    1484.7404    10239.319   -1475.6072    3711.3826    76.328073 
   99300    364.05812   -107.53521   0.32940744    -107.2058   -3771.5904    4.2335863    4.2335863    4.2335863   -3771.5904   -17055.391   -5065.3736    10805.993    5383.2634    1241.1502   -2682.2348    75.879639 
   99400    434.23466   -107.59961   0.39290465   -107.20671   -6389.4606    4.2389736    4.2389736    4.2389736   -6389.4606    -19500.73   -6958.9756    7291.3239   -24076.429    2272.1039    7059.0398    76.169678 
   99500    720.76958   -107.85164   0.65216746   -107.19948   -817.39109    4.2417993    4.2417993    4.2417993   -817.39109   -11221.548    11806.362   -3036.9867    6907.1865    246.71125    1018.8751    76.322105 
   99600    264.25282   -107.44423    0.2391015   -107.20512    969.58248     4.231681     4.231681     4.231681    969.58248   -10022.838    6839.7641    6091.8213   -4497.4264    2756.7687   -769.14864    75.777236 
   99700     317.9651   -107.49609    0.2877015   -107.20838   -6413.1629    4.2403217    4.2403217    4.2403217   -6413.1629    -16734.36   -1646.0793   -859.04934   -27718.691    2890.2644    1881.3839    76.242375 
   99800      811.249   -107.93444   0.73403514   -107.20041    7701.4352    4.2370853    4.2370853    4.2370853    7701.4352    7311.0176    16727.624   -934.33595    3459.1167    1126.2389   -3082.5246    76.067933 
   99900    341.93718   -107.51828   0.30939194   -107.20889   -5373.8231    4.2382666    4.2382666    4.2382666   -5373.8231   -3828.3274   -11062.004   -1231.1383   -8260.2014    58.666701   -2867.7197    76.131575 
  100000    363.86085   -107.53755   0.32922895   -107.20832   -6375.3753    4.2373881    4.2373881    4.2373881   -6375.3753   -13643.141   -8197.5995    2714.6149   -21859.021     827.4487    -743.9002    76.084246 
Loop time of 22.5609 on 1 procs for 100000 steps with 8 atoms

Pair  time (%) = 7.51626 (33.3155)
Kspce time (%) = 5.29361 (23.4637)
Neigh time (%) = 0 (0)
Comm  time (%) = 1.06135 (4.70439)
Outpt time (%) = 0.0252407 (0.111878)
Other time (%) = 8.6644 (38.4046)

Nlocal:    8 ave 8 max 8 min
Histogram: 1 0 0 0 0 0 0 0 0 0
Nghost:    2189 ave 2189 max 2189 min
Histogram: 1 0 0 0 0 0 0 0 0 0
Neighs:    2472 ave 2472 max 2472 min
Histogram: 1 0 0 0 0 0 0 0 0 0

Total # of neighbors = 2472
Ave neighs/atom = 309
Neighbor list builds = 0
Dangerous builds = 0
seeds:2540725
