   2   2   0   0
  0.9639684E+01  0.3009788E-09  0.3009788E-09  0.3009788E-09  0.5000000E-15
  1.000000000000000E-004
  CAR 
 automatically generated by pyflamestk   
     43.86252829    -16.58952878  301      3.58634527      1.00000000
    -16.590  0.0000E+00  0.0000E+00
    -16.388  0.0000E+00  0.0000E+00
    -16.187  0.0000E+00  0.0000E+00
    -15.985  0.0000E+00  0.0000E+00
    -15.784  0.0000E+00  0.0000E+00
    -15.582  0.0000E+00  0.0000E+00
    -15.380  0.0000E+00  0.0000E+00
    -15.179  0.0000E+00  0.0000E+00
    -14.977  0.0000E+00  0.0000E+00
    -14.776  0.0000E+00  0.0000E+00
    -14.574  0.0000E+00  0.0000E+00
    -14.373  0.0000E+00  0.0000E+00
    -14.171  0.0000E+00  0.0000E+00
    -13.970  0.4448E-04  0.8963E-05
    -13.768  0.3042E+00  0.6131E-01
    -13.567  0.1962E-01  0.6526E-01
    -13.365  0.9166E+00  0.2500E+00
    -13.164  0.8468E+00  0.4206E+00
    -12.962  0.1063E+01  0.6349E+00
    -12.761  0.2859E+01  0.1211E+01
    -12.559  0.3533E+01  0.1923E+01
    -12.358  0.3830E+00  0.2000E+01
    -12.156  0.0000E+00  0.2000E+01
    -11.955  0.0000E+00  0.2000E+01
    -11.753  0.0000E+00  0.2000E+01
    -11.552  0.0000E+00  0.2000E+01
    -11.350  0.0000E+00  0.2000E+01
    -11.149  0.0000E+00  0.2000E+01
    -10.947  0.0000E+00  0.2000E+01
    -10.746  0.0000E+00  0.2000E+01
    -10.544  0.0000E+00  0.2000E+01
    -10.343  0.0000E+00  0.2000E+01
    -10.141  0.0000E+00  0.2000E+01
     -9.940  0.0000E+00  0.2000E+01
     -9.738  0.0000E+00  0.2000E+01
     -9.537  0.0000E+00  0.2000E+01
     -9.335  0.0000E+00  0.2000E+01
     -9.134  0.0000E+00  0.2000E+01
     -8.932  0.0000E+00  0.2000E+01
     -8.731  0.0000E+00  0.2000E+01
     -8.529  0.0000E+00  0.2000E+01
     -8.328  0.0000E+00  0.2000E+01
     -8.126  0.0000E+00  0.2000E+01
     -7.925  0.0000E+00  0.2000E+01
     -7.723  0.0000E+00  0.2000E+01
     -7.522  0.0000E+00  0.2000E+01
     -7.320  0.0000E+00  0.2000E+01
     -7.119  0.0000E+00  0.2000E+01
     -6.917  0.0000E+00  0.2000E+01
     -6.716  0.0000E+00  0.2000E+01
     -6.514  0.0000E+00  0.2000E+01
     -6.313  0.0000E+00  0.2000E+01
     -6.111  0.0000E+00  0.2000E+01
     -5.910  0.0000E+00  0.2000E+01
     -5.708  0.0000E+00  0.2000E+01
     -5.507  0.0000E+00  0.2000E+01
     -5.305  0.0000E+00  0.2000E+01
     -5.104  0.0000E+00  0.2000E+01
     -4.902  0.0000E+00  0.2000E+01
     -4.701  0.0000E+00  0.2000E+01
     -4.499  0.0000E+00  0.2000E+01
     -4.298  0.0000E+00  0.2000E+01
     -4.096  0.0000E+00  0.2000E+01
     -3.895  0.0000E+00  0.2000E+01
     -3.693  0.0000E+00  0.2000E+01
     -3.492  0.0000E+00  0.2000E+01
     -3.290  0.0000E+00  0.2000E+01
     -3.089  0.0000E+00  0.2000E+01
     -2.887  0.0000E+00  0.2000E+01
     -2.686  0.0000E+00  0.2000E+01
     -2.484  0.0000E+00  0.2000E+01
     -2.283  0.0000E+00  0.2000E+01
     -2.081  0.0000E+00  0.2000E+01
     -1.880  0.0000E+00  0.2000E+01
     -1.678  0.0000E+00  0.2000E+01
     -1.477  0.0000E+00  0.2000E+01
     -1.275  0.0000E+00  0.2000E+01
     -1.074  0.1507E-10  0.2000E+01
     -0.872  0.1626E+00  0.2033E+01
     -0.670  0.7681E+00  0.2188E+01
     -0.469  0.3078E+00  0.2250E+01
     -0.267  0.1180E+01  0.2487E+01
     -0.066  0.2568E+01  0.3005E+01
      0.136  0.2591E+01  0.3527E+01
      0.337  0.9883E+00  0.3726E+01
      0.539  0.1185E+00  0.3750E+01
      0.740  0.6436E-13  0.3750E+01
      0.942  0.6837E-01  0.3764E+01
      1.143  0.3002E+01  0.4369E+01
      1.345  0.6514E+00  0.4500E+01
      1.546  0.1046E-06  0.4500E+01
      1.748  0.1597E+01  0.4822E+01
      1.949  0.1195E+01  0.5063E+01
      2.151  0.1923E+01  0.5450E+01
      2.352  0.2679E+01  0.5990E+01
      2.554  0.3424E+01  0.6680E+01
      2.755  0.2504E+01  0.7184E+01
      2.957  0.2013E+01  0.7590E+01
      3.158  0.1414E+01  0.7875E+01
      3.360  0.6018E+00  0.7996E+01
      3.561  0.1848E-01  0.8000E+01
      3.763  0.0000E+00  0.8000E+01
      3.964  0.0000E+00  0.8000E+01
      4.166  0.0000E+00  0.8000E+01
      4.367  0.0000E+00  0.8000E+01
      4.569  0.0000E+00  0.8000E+01
      4.770  0.0000E+00  0.8000E+01
      4.972  0.0000E+00  0.8000E+01
      5.173  0.0000E+00  0.8000E+01
      5.375  0.0000E+00  0.8000E+01
      5.576  0.0000E+00  0.8000E+01
      5.778  0.0000E+00  0.8000E+01
      5.979  0.0000E+00  0.8000E+01
      6.181  0.0000E+00  0.8000E+01
      6.382  0.0000E+00  0.8000E+01
      6.584  0.0000E+00  0.8000E+01
      6.785  0.0000E+00  0.8000E+01
      6.987  0.0000E+00  0.8000E+01
      7.188  0.0000E+00  0.8000E+01
      7.390  0.0000E+00  0.8000E+01
      7.591  0.0000E+00  0.8000E+01
      7.793  0.0000E+00  0.8000E+01
      7.994  0.0000E+00  0.8000E+01
      8.196  0.0000E+00  0.8000E+01
      8.397  0.1658E-09  0.8000E+01
      8.599  0.1070E+00  0.8022E+01
      8.800  0.2032E+00  0.8062E+01
      9.002  0.1794E-07  0.8062E+01
      9.203  0.0000E+00  0.8062E+01
      9.405  0.0000E+00  0.8062E+01
      9.606  0.0000E+00  0.8062E+01
      9.808  0.0000E+00  0.8062E+01
     10.009  0.1036E-10  0.8063E+01
     10.211  0.1497E+00  0.8093E+01
     10.412  0.7808E+00  0.8250E+01
     10.614  0.1161E-05  0.8250E+01
     10.815  0.8569E-02  0.8252E+01
     11.017  0.3102E+00  0.8314E+01
     11.218  0.9215E+00  0.8500E+01
     11.420  0.3820E-03  0.8500E+01
     11.621  0.2485E-01  0.8505E+01
     11.823  0.9056E+00  0.8687E+01
     12.024  0.7661E-04  0.8688E+01
     12.226  0.5177E+00  0.8792E+01
     12.427  0.4128E+00  0.8875E+01
     12.629  0.1676E+01  0.9213E+01
     12.830  0.3893E+00  0.9291E+01
     13.032  0.8567E+00  0.9464E+01
     13.233  0.8000E+00  0.9625E+01
     13.435  0.1962E-01  0.9629E+01
     13.636  0.9108E+00  0.9812E+01
     13.838  0.1726E+01  0.1016E+02
     14.040  0.1065E+01  0.1037E+02
     14.241  0.6892E-03  0.1038E+02
     14.443  0.0000E+00  0.1038E+02
     14.644  0.3446E-08  0.1038E+02
     14.846  0.1159E+01  0.1061E+02
     15.047  0.2563E+01  0.1112E+02
     15.249  0.8085E-01  0.1114E+02
     15.450  0.1824E+01  0.1151E+02
     15.652  0.3445E+01  0.1220E+02
     15.853  0.5430E+00  0.1231E+02
     16.055  0.9707E-02  0.1231E+02
     16.256  0.1847E+01  0.1269E+02
     16.458  0.4147E-02  0.1269E+02
     16.659  0.0000E+00  0.1269E+02
     16.861  0.3629E-02  0.1269E+02
     17.062  0.1853E+01  0.1306E+02
     17.264  0.9241E+00  0.1325E+02
     17.465  0.3210E+00  0.1331E+02
     17.667  0.6004E-05  0.1331E+02
     17.868  0.3721E-01  0.1332E+02
     18.070  0.8932E+00  0.1350E+02
     18.271  0.3655E-04  0.1350E+02
     18.473  0.1409E-06  0.1350E+02
     18.674  0.6684E+00  0.1363E+02
     18.876  0.2621E+00  0.1369E+02
     19.077  0.4578E-12  0.1369E+02
     19.279  0.5225E-01  0.1370E+02
     19.480  0.1443E+01  0.1399E+02
     19.682  0.2568E+01  0.1451E+02
     19.883  0.9726E+00  0.1470E+02
     20.085  0.8947E+00  0.1488E+02
     20.286  0.2100E+01  0.1531E+02
     20.488  0.1322E+01  0.1557E+02
     20.689  0.2618E+00  0.1563E+02
     20.891  0.8763E+00  0.1580E+02
     21.092  0.4742E+00  0.1590E+02
     21.294  0.8891E+00  0.1608E+02
     21.495  0.6462E+00  0.1621E+02
     21.697  0.1766E+01  0.1656E+02
     21.898  0.1771E-03  0.1656E+02
     22.100  0.1671E+00  0.1660E+02
     22.301  0.7634E+00  0.1675E+02
     22.503  0.5876E+00  0.1687E+02
     22.704  0.7782E+00  0.1703E+02
     22.906  0.1426E+01  0.1731E+02
     23.107  0.1809E+01  0.1768E+02
     23.309  0.5221E-01  0.1769E+02
     23.510  0.9864E-01  0.1771E+02
     23.712  0.8784E+00  0.1788E+02
     23.913  0.5738E+00  0.1800E+02
     24.115  0.2316E+00  0.1805E+02
     24.316  0.1313E+00  0.1807E+02
     24.518  0.1406E+01  0.1836E+02
     24.719  0.9231E-01  0.1838E+02
     24.921  0.6651E+00  0.1851E+02
     25.122  0.5756E+00  0.1862E+02
     25.324  0.8749E-01  0.1864E+02
     25.525  0.1881E+01  0.1902E+02
     25.727  0.8225E+00  0.1919E+02
     25.928  0.1025E-01  0.1919E+02
     26.130  0.1845E+01  0.1956E+02
     26.331  0.6797E-02  0.1956E+02
     26.533  0.2706E+01  0.2011E+02
     26.734  0.8442E-01  0.2013E+02
     26.936  0.8247E+00  0.2029E+02
     27.137  0.8060E+00  0.2045E+02
     27.339  0.5228E+00  0.2056E+02
     27.540  0.1769E-01  0.2056E+02
     27.742  0.0000E+00  0.2056E+02
     27.943  0.0000E+00  0.2056E+02
     28.145  0.0000E+00  0.2056E+02
     28.347  0.0000E+00  0.2056E+02
     28.548  0.1251E-06  0.2056E+02
     28.750  0.4569E+00  0.2065E+02
     28.951  0.2842E+01  0.2123E+02
     29.153  0.9613E+00  0.2142E+02
     29.354  0.1002E+00  0.2144E+02
     29.556  0.9126E+00  0.2162E+02
     29.757  0.1339E-03  0.2163E+02
     29.959  0.4550E+00  0.2172E+02
     30.160  0.2688E+01  0.2226E+02
     30.362  0.1518E+01  0.2256E+02
     30.563  0.9212E+00  0.2275E+02
     30.765  0.1258E-03  0.2275E+02
     30.966  0.3521E-02  0.2275E+02
     31.168  0.1809E+01  0.2312E+02
     31.369  0.4943E-01  0.2313E+02
     31.571  0.1841E+01  0.2350E+02
     31.772  0.2744E+01  0.2405E+02
     31.974  0.8096E+00  0.2421E+02
     32.175  0.1266E+01  0.2447E+02
     32.377  0.3706E+01  0.2521E+02
     32.578  0.1111E+01  0.2544E+02
     32.780  0.2773E+01  0.2600E+02
     32.981  0.7123E+00  0.2614E+02
     33.183  0.3823E+00  0.2622E+02
     33.384  0.2323E+01  0.2669E+02
     33.586  0.9602E-02  0.2669E+02
     33.787  0.0000E+00  0.2669E+02
     33.989  0.0000E+00  0.2669E+02
     34.190  0.0000E+00  0.2669E+02
     34.392  0.0000E+00  0.2669E+02
     34.593  0.1171E-11  0.2669E+02
     34.795  0.9052E-01  0.2671E+02
     34.996  0.2686E+01  0.2725E+02
     35.198  0.1530E-01  0.2725E+02
     35.399  0.3654E+00  0.2732E+02
     35.601  0.2929E+01  0.2791E+02
     35.802  0.4946E+00  0.2801E+02
     36.004  0.8637E+00  0.2819E+02
     36.205  0.2981E-04  0.2819E+02
     36.407  0.1727E+01  0.2854E+02
     36.608  0.1063E+01  0.2875E+02
     36.810  0.7452E-01  0.2876E+02
     37.011  0.5465E+00  0.2887E+02
     37.213  0.6103E+00  0.2900E+02
     37.414  0.1251E+01  0.2925E+02
     37.616  0.9242E+00  0.2944E+02
     37.817  0.5372E+00  0.2954E+02
     38.019  0.1329E+01  0.2981E+02
     38.220  0.7956E+00  0.2997E+02
     38.422  0.1350E+00  0.3000E+02
     38.623  0.2686E-14  0.3000E+02
     38.825  0.3425E-01  0.3001E+02
     39.026  0.3274E+01  0.3067E+02
     39.228  0.7235E+00  0.3081E+02
     39.429  0.9404E-07  0.3081E+02
     39.631  0.0000E+00  0.3081E+02
     39.832  0.0000E+00  0.3081E+02
     40.034  0.3274E-02  0.3081E+02
     40.235  0.9260E+00  0.3100E+02
     40.437  0.1238E-02  0.3100E+02
     40.638  0.0000E+00  0.3100E+02
     40.840  0.2660E-03  0.3100E+02
     41.041  0.1737E+01  0.3135E+02
     41.243  0.3225E+01  0.3200E+02
     41.444  0.3393E-03  0.3200E+02
     41.646  0.0000E+00  0.3200E+02
     41.847  0.0000E+00  0.3200E+02
     42.049  0.0000E+00  0.3200E+02
     42.250  0.0000E+00  0.3200E+02
     42.452  0.0000E+00  0.3200E+02
     42.653  0.0000E+00  0.3200E+02
     42.855  0.0000E+00  0.3200E+02
     43.057  0.0000E+00  0.3200E+02
     43.258  0.0000E+00  0.3200E+02
     43.460  0.0000E+00  0.3200E+02
     43.661  0.0000E+00  0.3200E+02
     43.863  0.0000E+00  0.3200E+02
