# ['Ni']

10 atoms
1 atom types

    0.0000     3.4057 xlo xhi
    0.0000     2.4379 ylo yhi
    0.0000    24.3793 zlo zhi

    0.0000     0.0000     0.0000 xy xz yz

Atoms

1 1     0.0000     0.0000     0.0000
2 1     1.7028     1.2190     1.2190
3 1     0.0000     0.0000     2.4379
4 1     1.7028     1.2190     3.6569
5 1     0.0000     0.0000     4.8759
6 1     1.7028     1.2190     6.0948
7 1     0.0000     0.0000     7.3138
8 1     1.7028     1.2190     8.5328
9 1     0.0000     0.0000     9.7517
10 1     1.7028     1.2190    10.9707
