LAMMPS (11 Aug 2017)
# ---- initialize simulations
clear
units metal
dimension 3
boundary p p p
atom_style atomic
atom_modify map array
# ---- create atoms
read_data /home/sullberg/repos/pypospack/dev/cluster_sampling/dev__cluster_sampling/rank_12/Ni_fcc_100_unit.lmps_min_all/lammps.structure
  triclinic box = (0 0 0) to (3.5167 3.5167 3.5167) with tilt (0 -0 0)
  1 by 1 by 1 MPI processor grid
  reading atoms ...
  4 atoms
# ---- define interatomic potential
include potential.mod
mass 1 58.6934

group Ni type 1
4 atoms in group Ni

pair_style eam/alloy
pair_coeff * * /home/sullberg/repos/pypospack/dev/cluster_sampling/dev__cluster_sampling/rank_12/Ni_fcc_100_unit.lmps_min_all/Ni.eam.alloy Ni

neighbor 1.0 bin
neigh_modify every 1 delay 0 check yes
# ---- define settings
compute eng all pe/atom
compute eatoms all reduce sum c_eng
# ---- run minimization
reset_timestep 0
fix 1 all box/relax aniso 0.0 vmax 0.001
thermo 10
thermo_style custom step pe xhi xlo yhi ylo zhi xy xz yz press pxx pyy pzz pxy pxz pyz c_eatoms
min_style cg
minimize 1e-25 1e-25 5000 10000
Neighbor list info ...
  update every 1 steps, delay 0 steps, check yes
  max neighbors/atom: 2000, page size: 100000
  master list distance cutoff = 5.64464
  ghost atom cutoff = 5.64464
  binsize = 2.82232, bins = 2 2 2
  1 neighbor lists, perpetual/occasional/extra = 1 0 0
  (1) pair eam/alloy, perpetual
      attributes: half, newton on
      pair build: half/bin/newton/tri
      stencil: half/bin/3d/newton/tri
      bin: standard
Per MPI rank memory allocation (min/avg/max) = 4.211 | 4.211 | 4.211 Mbytes
Step PotEng Xhi Xlo Yhi Ylo Zhi Xy Xz Yz Press Pxx Pyy Pzz Pxy Pxz Pyz c_eatoms 
       0   -5.4627201       3.5167            0       3.5167            0       3.5167            0           -0            0     139872.6     139872.6     139872.6     139872.6 -5.3680176e-12 1.5465003e-11 1.9043682e-11   -5.4627201 
      10   -5.5625373    3.5342835   -0.0175835    3.5342835   -0.0175835    3.5342835            0           -0            0    103923.95    103923.95    103923.95    103923.95 7.3190133e-12 -1.9848172e-12 -4.2177365e-12   -5.5625373 
      20   -5.6365291     3.551867    -0.035167     3.551867    -0.035167     3.551867            0           -0            0    73402.328    73402.328    73402.328    73402.328 1.2164255e-11 9.1533005e-12 5.0584029e-12   -5.6365291 
      30   -5.6879399    3.5694505   -0.0527505    3.5694505   -0.0527505    3.5694505            0           -0            0    47586.496    47586.496    47586.496    47586.496 -1.5790168e-12 5.8482102e-13 -5.2633892e-13   -5.6879399 
      40   -5.7196655     3.587034    -0.070334     3.587034    -0.070334     3.587034            0           -0            0    25849.783    25849.783    25849.783    25849.783 2.8064776e-11 2.0792931e-11 2.1758723e-11   -5.7196655 
      50   -5.7342909    3.6046175   -0.0879175    3.6046175   -0.0879175    3.6046175            0           -0            0    7647.6105    7647.6105    7647.6105    7647.6105 2.5393618e-12 -3.8642462e-13 1.0488668e-12   -5.7342909 
      60   -5.7359247    3.6130861 -0.096386075    3.6130861 -0.096386075    3.6130861            0           -0            0 -6.5077782e-11 -7.2719044e-11 -6.2945125e-11 -5.9569176e-11 -2.0555177e-11 -3.539302e-13 -1.1979176e-12   -5.7359247 
      64   -5.7359247    3.6130861 -0.096386075    3.6130861 -0.096386075    3.6130861            0           -0            0 -1.0358357e-10 -8.5950589e-11 -1.0283034e-10 -1.2196979e-10 -3.267048e-13            0 -2.3413844e-12   -5.7359247 
Loop time of 0.00128102 on 1 procs for 64 steps with 4 atoms

100.1% CPU use with 1 MPI tasks x no OpenMP threads

Minimization stats:
  Stopping criterion = energy tolerance
  Energy initial, next-to-last, final = 
        -5.46272012872     -5.73592467757     -5.73592467757
  Force two-norm initial, final = 6.57641 6.12003e-15
  Force max component initial, final = 3.79689 3.68385e-15
  Final line search alpha, max atom move = 1 3.68385e-15
  Iterations, force evaluations = 64 74

MPI task timing breakdown:
Section |  min time  |  avg time  |  max time  |%varavg| %total
---------------------------------------------------------------
Pair    | 0.00064659 | 0.00064659 | 0.00064659 |   0.0 | 50.47
Neigh   | 0          | 0          | 0          |   0.0 |  0.00
Comm    | 0.00012326 | 0.00012326 | 0.00012326 |   0.0 |  9.62
Output  | 5.7936e-05 | 5.7936e-05 | 5.7936e-05 |   0.0 |  4.52
Modify  | 0          | 0          | 0          |   0.0 |  0.00
Other   |            | 0.0004532  |            |       | 35.38

Nlocal:    4 ave 4 max 4 min
Histogram: 1 0 0 0 0 0 0 0 0 0
Nghost:    360 ave 360 max 360 min
Histogram: 1 0 0 0 0 0 0 0 0 0
Neighs:    156 ave 156 max 156 min
Histogram: 1 0 0 0 0 0 0 0 0 0

Total # of neighbors = 156
Ave neighs/atom = 39
Neighbor list builds = 0
Dangerous builds = 0
# ---- define output variables ----
variable natoms equal "count(all)"
variable tot_energy equal "c_eatoms"
variable a11 equal "xhi-xlo"
variable a22 equal "yhi-ylo"
variable a33 equal "zhi-zlo"
variable tilt_xy equal "xy"
variable tilt_xz equal "xz"
variable tilt_yz equal "yz"
variable tot_press equal "press"
variable press_xx equal "pxx"
variable press_yy equal "pyy"
variable press_zz equal "pzz"
variable press_xy equal "pxy"
variable press_xz equal "pxz"
variable press_yz equal "pyz"

# ---- output ----
print "pypospack:output_section:begin"
pypospack:output_section:begin
print "tot_energy = ${tot_energy}"
tot_energy = -5.73592467757124
print "num_atoms = ${natoms}"
num_atoms = 4
print "a11 = ${a11}"
a11 = 3.70947214940826
print "a22 = ${a22}"
a22 = 3.70947214940826
print "a33 = ${a33}"
a33 = 3.70947214940826
print "a12 = ${tilt_xy}"
a12 = 0
print "a13 = ${tilt_xz}"
a13 = -0
print "a23 = ${tilt_yz}"
a23 = 0
print "tot_press = ${tot_press}"
tot_press = -1.03583572842383e-10
print "pxx = ${press_xx}"
pxx = -8.59505886096209e-11
print "pyy = ${press_yy}"
pyy = -1.02830336768622e-10
print "pzz = ${press_zz}"
pzz = -1.21969793148908e-10
print "pxy = ${press_xy}"
pxy = -3.26704803077432e-13
print "pxz = ${press_xz}"
pxz = 0
print "pyz = ${press_yz}"
pyz = -2.34138442205493e-12
print "pypospack:output_section:done"
pypospack:output_section:done
print "pypospack:lammps_sim:done"
pypospack:lammps_sim:done
Total wall time: 0:00:00
