LAMMPS (10 Feb 2015)
# ---- initialize simulations
clear
units metal
dimension 3
boundary p p p
atom_style charge
atom_modify map array
# ---- create atoms
read_data /Users/eugeneragasa/pyflamestk_git/pypospack/tests/tests_integration/workflow/WorkflowLammpsThermalExpansion/param_1256/MgO_NaCl_unit.npt.T100/lammps.structure
  triclinic box = (0 0 0) to (4.2565 4.2565 4.2565) with tilt (0 0 0)
  1 by 1 by 1 MPI processor grid
  reading atoms ...
  8 atoms
# ---- define interatomic potential
include potential.mod
mass 1 24.305
mass 2 15.999

group Mg type 1
4 atoms in group Mg
group O type 2
4 atoms in group O

set group Mg charge 1.66039996869
  4 settings made for charge
set group O charge -1.66039996869
  4 settings made for charge

variable R_cut equal 10.0

pair_style buck/coul/long ${R_cut}
pair_style buck/coul/long 10
pair_coeff 1 1 0.0 0.5 0.0 ${R_cut}
pair_coeff 1 1 0.0 0.5 0.0 10
pair_coeff 1 2 1528.2261267 0.282600919639 0.0 ${R_cut}
pair_coeff 1 2 1528.2261267 0.282600919639 0.0 10
pair_coeff 2 2 6677.06285722 0.138925130231 8.13419383626 ${R_cut}
pair_coeff 2 2 6677.06285722 0.138925130231 8.13419383626 10

kspace_style pppm 1.0e-5

neighbor 1.0 bin
neigh_modify every 1 delay 0 check yes
# ---- define settings
compute eng all pe/atom
compute eatoms all reduce sum c_eng
# ---- run minimization
reset_timestep 0
fix 1 all box/relax iso 0.0 vmax 0.001
thermo 10
thermo_style custom step pe lx ly lz xy xz yz press pxx pyy pzz pxy pxz pyz c_eatoms
min_style cg
minimize 1e-25 1e-25 5000 10000
PPPM initialization ...
  G vector (1/distance) = 0.352851
  grid = 8 8 8
  stencil order = 5
  estimated absolute RMS force accuracy = 3.9608e-05
  estimated relative force accuracy = 2.75062e-06
  using double precision FFTs
  3d grid and FFT values/proc = 3375 512
Neighbor list info ...
  1 neighbor list requests
  update every 1 steps, delay 0 steps, check yes
  master list distance cutoff = 11
Memory usage per processor = 4.06549 Mbytes
Step PotEng Lx Ly Lz Xy Xz Yz Press Pxx Pyy Pzz Pxy Pxz Pyz eatoms 
       0   -110.92329       4.2565       4.2565       4.2565            0            0            0    120138.29    120138.29    120138.29    120138.29 1.5343687e-10 -1.0407196e-10 -1.3145771e-10   -110.92329 
      10   -111.05478     4.299065     4.299065     4.299065            0            0            0    61836.089    61836.089    61836.089    61836.089 1.0666232e-10 -5.0344756e-11 -1.3613158e-10   -111.05478 
      20   -111.10767      4.34163      4.34163      4.34163            0            0            0    10591.608    10591.608    10591.608    10591.608 -1.2465538e-10 -9.1160209e-12 2.8254225e-10   -111.10767 
      25   -111.10952     4.351169     4.351169     4.351169            0            0            0   -6.6622077   -6.6622077   -6.6622077   -6.6622077 -1.5540302e-10 -3.5403029e-11 3.0098099e-10   -111.10952 
Loop time of 0.0145471 on 1 procs for 25 steps with 8 atoms

Minimization stats:
  Stopping criterion = linesearch alpha is zero
  Energy initial, next-to-last, final = 
        -110.923293971     -111.109518965     -111.109518965
  Force two-norm initial, final = 17.348 0.0010058
  Force max component initial, final = 17.348 0.0010053
  Final line search alpha, max atom move = 0.00777135 7.8125e-06
  Iterations, force evaluations = 25 41

Pair  time (%) = 0.0040307 (27.7079)
Kspce time (%) = 0.00234842 (16.1436)
Neigh time (%) = 0 (0)
Comm  time (%) = 0.000465155 (3.19757)
Outpt time (%) = 2.38419e-05 (0.163894)
Other time (%) = 0.00767899 (52.787)

Nlocal:    8 ave 8 max 8 min
Histogram: 1 0 0 0 0 0 0 0 0 0
Nghost:    2189 ave 2189 max 2189 min
Histogram: 1 0 0 0 0 0 0 0 0 0
Neighs:    2344 ave 2344 max 2344 min
Histogram: 1 0 0 0 0 0 0 0 0 0

Total # of neighbors = 2344
Ave neighs/atom = 293
Neighbor list builds = 0
Dangerous builds = 0
unfix 1
# ---- define output variables ----
variable natoms equal "count(all)"
variable tot_energy equal "c_eatoms"
variable length_x equal "lx"
variable length_y equal "ly"
variable length_z equal "lz"
variable tilt_xy equal "xy"
variable tilt_xz equal "xz"
variable tilt_yz equal "yz"
variable tot_press equal "press"
variable press_xx equal "pxx"
variable press_yy equal "pyy"
variable press_zz equal "pzz"
variable press_xy equal "pxy"
variable press_xz equal "pxz"
variable press_yz equal "pyz"

# ---- output ----
print "pypospack:output_section:begin"
pypospack:output_section:begin
print "tot_energy = ${tot_energy}"
tot_energy = -111.109518965105
print "num_atoms = ${natoms}"
num_atoms = 8
print "xx = ${length_x}"
xx = 4.35116899821938
print "yy = ${length_y}"
yy = 4.35116899821938
print "zz = ${length_z}"
zz = 4.35116899821938
print "xy = ${tilt_xy}"
xy = 0
print "xz = ${tilt_xz}"
xz = 0
print "yz = ${tilt_yz}"
yz = 0
print "tot_press = ${tot_press}"
tot_press = -6.66220766530753
print "pxx = ${press_xx}"
pxx = -6.66220766529406
print "pyy = ${press_yy}"
pyy = -6.66220766581444
print "pzz = ${press_zz}"
pzz = -6.6622076648141
print "pxy = ${press_xy}"
pxy = -1.55403020158447e-10
print "pxz = ${press_xz}"
pxz = -3.54030294322521e-11
print "pyz = ${press_yz}"
pyz = 3.00980987063428e-10
print "pypospack:output_section:done"
pypospack:output_section:done
print "pypospack:lammps_sim:done"
pypospack:lammps_sim:done
#------------------------------------------------------------------------------
# RUN THERMOSTAT
# running using an NPT Nose-Hoover style thermostat
#------------------------------------------------------------------------------
variable tempdamp equal 0.1
variable pressdamp equal 1.0
# set initial velocities
velocity all create 100 309434 mom yes dist gaussian loop all
# fix for Nose-Hoover style thermostat
fix 20 all npt temp 100 100 0.1 aniso 0.0 0.0 1.0 drag 1.0 couple xyz
variable boxx equal lx
variable boxy equal ly
variable boxz equal lz
variable boxp equal press
variable boxt equal temp
# calculate averages every 10000 steps
reset_timestep 0
fix 21 all ave/time 10 10 100 v_boxx v_boxy v_boxz v_boxp v_boxt file lattice.out
thermo_style custom step temp pe ke etotal press lx ly lz press pxx pyy pzz pxy pxz pyz vol
thermo_modify flush yes
thermo 100
run 100000
PPPM initialization ...
  G vector (1/distance) = 0.351894
  grid = 8 8 8
  stencil order = 5
  estimated absolute RMS force accuracy = 4.14019e-05
  estimated relative force accuracy = 2.8752e-06
  using double precision FFTs
  3d grid and FFT values/proc = 3375 512
Memory usage per processor = 3.06549 Mbytes
Step Temp PotEng KinEng TotEng Press Lx Ly Lz Press Pxx Pyy Pzz Pxy Pxz Pyz Volume 
       0          100   -111.10953  0.090482101   -111.01905    1164.3325     4.351169     4.351169     4.351169    1164.3325    2350.0782    713.37295    429.54642   -488.54605    269.15815   -121.01559    82.379254 
     100    34.492318   -111.03677  0.031209375   -111.00556    3655.8147    4.3527633    4.3527633    4.3527633    3655.8147    7416.3565    2671.1241    879.96357    1032.2378    351.14366    40.872128    82.469838 
     200    81.241717   -111.05514  0.073509213   -110.98163   -383.11623    4.3536269    4.3536269    4.3536269   -383.11623    1435.1049   -699.84995   -1884.6036   -701.07329    158.21281    36.571536    82.518937 
     300    47.589046   -111.00343  0.043059569   -110.96037    2454.8851    4.3535977    4.3535977    4.3535977    2454.8851     3333.873    2709.5958    1321.1863    1420.5329    -190.2542   -28.682889    82.517274 
     400     83.84655   -111.01941  0.075866121   -110.94354   -1461.1051    4.3572299    4.3572299    4.3572299   -1461.1051    1235.6833   -1640.9463   -3978.0524   -257.30559    487.07194    219.23824    82.723979 
     500     113.3168   -111.03531   0.10253143   -110.93278   -334.57426    4.3556663    4.3556663    4.3556663   -334.57426    3510.6274    -1801.609   -2712.7412    524.67338    101.55934    76.273876    82.634957 
     600    102.26232    -111.0208  0.092529101   -110.92827    1777.0879    4.3565427    4.3565427    4.3565427    1777.0879    7032.8507    328.06429   -2029.6513    737.64387    4.9380591    4.2365487    82.684848 
     700    136.07808   -111.05027   0.12312631   -110.92714   -4009.4482    4.3584583    4.3584583    4.3584583   -4009.4482    1976.4281   -6506.2221   -7498.5504    287.29414    1464.4978    20.530947    82.793963 
     800    74.069449   -110.99465  0.067019594   -110.92763    410.69166     4.356054     4.356054     4.356054    410.69166    9.7331652     2036.001    -813.6592    1096.6168    334.88043   -134.61758    82.657024 
     900    127.44429   -111.04299   0.11531427   -110.92767   -3716.3468     4.358318     4.358318     4.358318   -3716.3468   -338.70047   -5137.2337   -5673.1062   -1229.3522   -290.53567   -131.98656    82.785971 
    1000    38.103787   -110.96299  0.034477107   -110.92851    512.01521    4.3572406    4.3572406    4.3572406    512.01521    4145.3485   -81.238354   -2528.0646    1642.8227    1063.7072   -136.40795    82.724592 
    1100    99.682452   -111.01853  0.090194777   -110.92833   -1193.0823    4.3562453    4.3562453    4.3562453   -1193.0823    2286.4107   -2165.9772   -3699.6806   -1355.8497    7.3145407   -30.316566    82.667916 
    1200    129.22911   -111.04504   0.11692921   -110.92811   -1566.2139    4.3577792    4.3577792    4.3577792   -1566.2139    1141.1411   -2087.0602   -3752.7225    1966.5532    -592.9354   -82.203923    82.755271 
    1300    117.36425   -111.03463   0.10619364   -110.92844   -344.85172    4.3562483    4.3562483    4.3562483   -344.85172    2997.8831   -552.81263   -3479.6257   -723.66885    1250.9663    136.56946    82.668085 
    1400    119.59851   -111.03652   0.10821524    -110.9283    859.47752    4.3557629    4.3557629    4.3557629    859.47752    5990.7605   -814.32115   -2598.0068    1026.9544    532.79063    44.488002    82.640452 
    1500    72.211671   -110.99364  0.065338638    -110.9283    1747.4516    4.3567902    4.3567902    4.3567902    1747.4516    6533.1344    805.12288   -2095.9026   -1270.5487   -289.19989   -23.938314    82.698942 
    1600    74.170591   -110.99548   0.06711111   -110.92837   -926.97043    4.3554443    4.3554443    4.3554443   -926.97043    816.45913   -1027.8482   -2569.5222    727.52591    855.99294    163.91176    82.622319 
    1700    98.854706   -111.01756  0.089445815   -110.92811   -699.73735    4.3561212    4.3561212    4.3561212   -699.73735   -4576.5796    3383.4243   -906.05677   -493.60582     259.6355   -133.41007    82.660851 
    1800    112.63127   -111.03015   0.10191114   -110.92824    955.71214    4.3565868    4.3565868    4.3565868    955.71214    9870.7526    -3096.073   -3907.5432   -816.30267   -462.45998   -55.024962     82.68736 
    1900    111.13274   -111.02913   0.10055524   -110.92857    1831.3173    4.3550133    4.3550133    4.3550133    1831.3173    4213.8745    2956.5584   -1676.4809     316.2629    553.89176   -15.424374    82.597795 
    2000    109.71408   -111.02754  0.099271603   -110.92827    1009.8346    4.3567011    4.3567011    4.3567011    1009.8346     9531.826   -2694.3486   -3807.9734   -252.07794     605.2552    5.3046596    82.693868 
    2100    120.99058    -111.0375   0.10947482   -110.92802   -2305.2808     4.356851     4.356851     4.356851   -2305.2808   -3994.0756   -256.79505   -2664.9717     990.1266    158.86346   -53.986281      82.7024 
    2200    57.764412   -110.98068  0.052266454   -110.92841   -340.00245    4.3555751    4.3555751    4.3555751   -340.00245    -340.4003     1162.765    -1842.372   -1463.7895    754.07639    389.57521    82.629766 
    2300    87.250894   -111.00706  0.078946442   -110.92811   -507.44214    4.3576505    4.3576505    4.3576505   -507.44214    5509.7233   -2897.9173   -4134.1324    885.32227    205.30659    18.561407    82.747942 
    2400    90.690887   -111.01029  0.082059021   -110.92824    1452.1553    4.3559875    4.3559875    4.3559875    1452.1553    5629.0138    568.98433   -1841.5321    -2288.629    66.934367    144.92635    82.653239 
    2500    125.37295   -111.04169   0.11344008   -110.92825   -1929.0524    4.3566552    4.3566552    4.3566552   -1929.0524    2916.3893   -3786.8454   -4916.7012     781.8854    273.88281    301.98802    82.691252 
    2600     133.6662   -111.04915   0.12094398    -110.9282   -1959.9469    4.3581673    4.3581673    4.3581673   -1959.9469    361.65001   -2305.6557    -3935.835   -905.24452   -134.78809   -298.15928    82.777381 
    2700    100.49054    -111.0193  0.090925955   -110.92838   -109.30224    4.3556579    4.3556579    4.3556579   -109.30224     5147.261   -2200.2145   -3274.9532     547.5512    727.99299    148.20691    82.634479 
    2800    56.052054   -110.97929  0.050717077   -110.92858    357.65633    4.3570194    4.3570194    4.3570194    357.65633    5354.9386   -1228.7015   -3053.2681   -1259.4124    922.04321   -289.23362    82.711991 
    2900    102.98272   -111.02145  0.093180934   -110.92827   -1614.0037    4.3573461    4.3573461    4.3573461   -1614.0037    1447.1658    -2525.681   -3763.4957    98.279898   -179.94065    23.476853    82.730598 
    3000    89.599472   -111.00967  0.081071485    -110.9286   -583.93277    4.3554898    4.3554898    4.3554898   -583.93277    99.647802   -386.41726   -1465.0289    63.711732    470.10347   -157.67913     82.62491 
    3100    110.90036   -111.02893   0.10034498   -110.92859   -2043.3602    4.3578394    4.3578394    4.3578394   -2043.3602    2209.8266    -2932.348   -5407.5591   -1079.9879    763.06606    142.72866    82.758698 
    3200    125.21429   -111.04155   0.11329652   -110.92825    1396.6077     4.355866     4.355866     4.355866    1396.6077    8517.7538   -1533.2422   -2794.6884   -10.617629   -787.55364     142.8423     82.64632 
    3300    102.32631   -111.02092  0.092586999   -110.92834    1698.3844    4.3554602    4.3554602    4.3554602    1698.3844    5714.6637    893.77439   -1513.2849   -1414.9812    472.77844   -49.980976    82.623227 
    3400    109.88138   -111.02751  0.099422978   -110.92809    -2615.195    4.3578939    4.3578939    4.3578939    -2615.195   -169.03313   -2327.0969   -5349.4549    901.30653    1111.8297    245.09852    82.761805 
    3500    57.158868      -110.98  0.051718545   -110.92828    1855.3385    4.3550125    4.3550125    4.3550125    1855.3385    2715.2502    2176.1941    674.57122   -1281.0317   -267.13017   -384.00431    82.597752 
    3600    101.94206   -111.02045  0.092239321   -110.92821   -2054.2312    4.3564381    4.3564381    4.3564381   -2054.2312   -920.80712    -989.0018   -4252.8848     1178.949    746.89551    193.27641    82.678889 
    3700     71.33235    -110.9931  0.064543009   -110.92856    2113.1455    4.3568092    4.3568092    4.3568092    2113.1455    8612.4151    133.18797   -2406.1666   -1745.3904    1003.0847   -324.14282    82.700022 
    3800    167.01158   -111.07909   0.15111559   -110.92797   -10.851468     4.355077     4.355077     4.355077   -10.851468     1136.108    1198.5044   -2367.1668    235.49488   -553.32119    115.58066    82.601418 
    3900    95.288262   -111.01464  0.086218822   -110.92842    1200.8342    4.3569411    4.3569411    4.3569411    1200.8342    8094.4703   -1170.3332   -3321.6345   -119.56325     -80.5176    47.104563    82.707534 
    4000    96.733368   -111.01583  0.087526384    -110.9283   -953.52794    4.3565951    4.3565951    4.3565951   -953.52794    584.79855    50.552853   -3495.9352    736.13691    784.39115    230.76554    82.687828 
    4100    88.499723   -111.00826  0.080076409   -110.92818    284.66073    4.3552284    4.3552284    4.3552284    284.66073    2382.3894   -280.80211   -1247.6051   -898.20898   -78.534774    151.95762    82.610033 
    4200    68.343425   -110.99024  0.061838567    -110.9284    -181.0529    4.3578652    4.3578652    4.3578652    -181.0529    2335.4041    648.01474   -3526.5775   -637.33202    407.47557    217.60636    82.760171 
    4300     116.1818   -111.03341   0.10512373   -110.92829   -570.44026    4.3558295    4.3558295    4.3558295   -570.44026    2658.5228   -994.75825   -3375.0854    650.33658    841.26168    413.79633    82.644245 
    4400    97.771974   -111.01682  0.088466137   -110.92835    2202.0879    4.3557576    4.3557576    4.3557576    2202.0879    7298.8952    859.32275   -1551.9543   -933.94856    108.64243   -380.85996    82.640155 
    4500    130.01157   -111.04598    0.1176372   -110.92834   -2625.0919    4.3579497    4.3579497    4.3579497   -2625.0919    2551.9161   -4157.1797   -6270.0121    599.74769    171.94374    589.06485    82.764985 
    4600    107.12538    -111.0253  0.096929297   -110.92837   -135.64471    4.3552141    4.3552141    4.3552141   -135.64471    1401.3209   -78.079387   -1730.1757     -785.731    291.82417   -479.06547    82.609222 
    4700    95.065639   -111.01427  0.086017388   -110.92826   -242.19573    4.3571056    4.3571056    4.3571056   -242.19573    2985.5985   -516.94986   -3195.2358    1756.6787   -93.492283    266.79757    82.716902 
    4800     70.13165   -110.99192  0.063456591   -110.92846   -1101.9582    4.3569331    4.3569331    4.3569331   -1101.9582    3059.8105   -2114.7152   -4250.9697   -603.41371    724.34183   -40.307611    82.707075 
    4900    65.934767   -110.98819  0.059659163   -110.92853    707.02422    4.3551336    4.3551336    4.3551336    707.02422    1698.5244    1756.5142   -1333.9659    1827.4522    537.56044    26.023074    82.604641 
    5000    141.17832   -111.05565   0.12774111   -110.92791   -2914.9699    4.3579437    4.3579437    4.3579437   -2914.9699    1136.0226   -4788.3269   -5092.6054   -997.88432    408.36338    230.04427    82.764644 
    5100    114.61904   -111.03196   0.10370972   -110.92825    22.817641    4.3560582    4.3560582    4.3560582    22.817641    3241.9837    210.92397   -3384.4548    -403.8875    1249.8859   -80.938279    82.657265 
    5200    115.77097   -111.03294     0.104752   -110.92819    1129.4776     4.355766     4.355766     4.355766    1129.4776    6869.0881   -720.31348   -2760.3417    31.617405   -293.00878    500.16556     82.64063 
    5300    92.836597   -111.01206  0.084000504   -110.92806    106.69371    4.3574174    4.3574174    4.3574174    106.69371    5255.8639   -772.06735   -4163.7154    1177.5147   -157.40029   -444.46429    82.734658 
    5400    54.999812   -110.97821  0.049764986   -110.92844    78.801597    4.3555069    4.3555069    4.3555069    78.801597    520.76134     1284.073   -1568.4295    831.61051    966.31471    453.63069    82.625884 
    5500    121.05415   -111.03754   0.10953234   -110.92801   -3114.6468    4.3569651    4.3569651    4.3569651   -3114.6468   -4389.1722   -1474.8629   -3479.9054   -295.39708    -48.49729   -561.31326    82.708902 
    5600    77.569502   -110.99857  0.070186515   -110.92838    2605.3664    4.3568326    4.3568326    4.3568326    2605.3664     9895.856    327.62215   -2407.3789    1684.1329    16.944431    268.92172    82.701352 
    5700    135.51804   -111.05103   0.12261957   -110.92841    297.00244    4.3554358    4.3554358    4.3554358    297.00244    4526.2396   -190.17128    -3445.061   -483.17654    1308.5172   -121.43348    82.621838 
    5800    96.806825   -111.01608   0.08759285   -110.92849    1961.0179    4.3568669    4.3568669    4.3568669    1961.0179    8655.1387    95.884366   -2867.9693    624.95725    110.52506    247.71615     82.70331 
    5900    128.44805   -111.04447    0.1162225   -110.92825    -2091.545    4.3567918    4.3567918    4.3567918    -2091.545   -1784.4256   -935.06117   -3555.1483   -964.90903    -533.4803    268.15152     82.69903 
    6000    77.486403   -110.99859  0.070111326   -110.92848    -607.6452      4.35575      4.35575      4.35575    -607.6452    -235.2794    220.23782    -1807.894    825.62597    839.81332    121.35501    82.639718 
    6100    60.802698   -110.98342  0.055015559    -110.9284    1268.1661    4.3573159    4.3573159    4.3573159    1268.1661    8122.8986   -880.81935   -3437.5811   -351.27498   -49.766621    470.33987    82.728879 
    6200    111.77494   -111.02935   0.10113631   -110.92822   -342.35948    4.3561205    4.3561205    4.3561205   -342.35948    2365.1427   -628.53767   -2763.6835    1988.5506   -471.87691   -195.15902    82.660809 
    6300    90.433373   -111.01034  0.081826017   -110.92851    235.47237    4.3561323    4.3561323    4.3561323    235.47237    2704.2224    822.50354   -2820.3088    757.34207    1139.4612    723.86288    82.661479 
    6400    156.04499   -111.06929   0.14119278   -110.92809   -3279.3807    4.3579608    4.3579608    4.3579608   -3279.3807    176.31511   -4239.5704   -5774.8869   -497.65679    688.98891   -602.69579    82.765615 
    6500    90.452248   -111.01035  0.081843095    -110.9285    1475.7031    4.3554907    4.3554907    4.3554907    1475.7031    5596.8162     382.6058   -1552.3126    52.671053   -248.90347    570.38725    82.624965 
    6600    89.953802    -111.0097  0.081392091   -110.92831   -1215.7929    4.3568906    4.3568906    4.3568906   -1215.7929    4041.1339   -2832.1804   -4856.3323    374.70732    797.39158   -111.30416    82.704658 
    6700    76.890036   -110.99778   0.06957172   -110.92821   -381.45568    4.3572133    4.3572133    4.3572133   -381.45568    905.92583    558.84146   -2609.1343     1427.743   -49.704994    182.85969    82.723036 
    6800     90.21704   -111.00979  0.081630273   -110.92816   -1051.3611    4.3554512    4.3554512    4.3554512   -1051.3611   -1551.0146    582.54563   -2185.6145   -1223.7902    53.700271     336.7662    82.622717 
    6900    104.13029   -111.02245  0.094219275   -110.92824   -1874.6726    4.3576441    4.3576441    4.3576441   -1874.6726    2097.8623    -2622.538   -5099.3423    1289.5617    605.29106    16.185857    82.747574 
    7000    118.68513   -111.03548    0.1073888   -110.92809    1390.7586    4.3562932    4.3562932    4.3562932    1390.7586     7741.633   -752.42455   -2816.9325    -517.9539    166.38512    377.47407    82.670641 
    7100    130.75656   -111.04646   0.11831129   -110.92815    546.54429    4.3554448    4.3554448    4.3554448    546.54429    5625.8021   -887.69569   -3098.4736    1058.3951    704.72222    -223.1917    82.622348 
    7200    87.803093   -111.00783  0.079446084   -110.92838   -534.51061    4.3578296    4.3578296    4.3578296   -534.51061    1252.2619     1326.194   -4181.9877   -145.32376    314.24829    442.17124    82.758142 
    7300    78.283325   -110.99927  0.070832397   -110.92844    257.90066    4.3553303    4.3553303    4.3553303    257.90066    1745.0075    604.11864   -1575.4242    437.65621    -290.0928   -343.83381    82.615834 
    7400    82.792332   -111.00343  0.074912242   -110.92852   -859.96483    4.3564023    4.3564023    4.3564023   -859.96483   -1488.5652    1444.1904   -2535.5196   -627.25531    393.95607    399.70365    82.676853 
    7500    87.060039   -111.00736  0.078773753   -110.92859    598.46558     4.357213     4.357213     4.357213    598.46558    8628.6519   -2841.5963   -3991.6588    835.09007    378.80872   -313.49743    82.723018 
    7600    143.84904   -111.05841   0.13015764   -110.92825    899.42378    4.3550002    4.3550002    4.3550002    899.42378    766.19401    3420.3604   -1488.2831    643.99763   -697.04552    293.81995    82.597051 
    7700    109.38029   -111.02739  0.098969584   -110.92842    274.98412    4.3572751    4.3572751    4.3572751    274.98412    6458.2499   -1330.1026   -4303.1949   -1443.8706    1019.1897     85.24243    82.726556 
    7800    91.858879   -111.01147  0.083115844   -110.92836   -419.82405    4.3564857    4.3564857    4.3564857   -419.82405    980.89447    1303.2169   -3543.5836   -389.36867    833.92869    243.48527    82.681604 
    7900    96.062568   -111.01506   0.08691943   -110.92814   -242.62329    4.3555135    4.3555135    4.3555135   -242.62329    147.47991   -47.883103   -827.46668   -245.75169   -508.58738    322.73625    82.626258 
    8000    76.410929   -110.99737  0.069138214   -110.92824   -654.43058    4.3575988    4.3575988    4.3575988   -654.43058    4042.8408   -1929.1242   -4077.0083    1585.8553      448.962    53.567318    82.744995 
    8100    95.584146   -111.01469  0.086486544   -110.92821    36.326627    4.3559411    4.3559411    4.3559411    36.326627    234.58657    1631.8537   -1757.4604   -1050.3724    490.98471    434.42125      82.6506 
    8200    104.14607   -111.02236  0.094233557   -110.92813    1254.4091    4.3558674    4.3558674    4.3558674    1254.4091    7264.6204   -559.26544   -2942.1276    1160.7465   -889.14803   -236.93601    82.646399 
    8300    121.24697   -111.03786   0.10970681   -110.92815    -1312.395     4.357405     4.357405     4.357405    -1312.395    1091.9078   -1040.7889   -3988.3038   -1278.7955    387.48367    594.40821    82.733955 
    8400     117.1063   -111.03417   0.10596024    -110.9282   -175.19897    4.3555857    4.3555857    4.3555857   -175.19897    4677.9311   -2484.5587   -2718.9692    606.46072    1161.9971   -372.20016    82.630368 
    8500    101.60577    -111.0202  0.091935037   -110.92826    134.61708    4.3566769    4.3566769    4.3566769    134.61708    2895.1945   -321.14857   -2170.1947   -712.51802   -414.61804     425.2086     82.69249 
    8600     66.99264   -110.98904  0.060616348   -110.92843   -160.18731    4.3569871    4.3569871    4.3569871   -160.18731    5139.5793   -2059.1687   -3560.9726   -334.49647    613.93688    139.05299    82.710152 
    8700    68.684406   -110.99057  0.062147094   -110.92842    531.25758    4.3551762    4.3551762    4.3551762    531.25758    390.87835    3050.4143   -1847.5199   -1015.2558    660.97821    221.59487    82.607067 
    8800    119.82763   -111.03649   0.10842255   -110.92807    -1629.043    4.3574929    4.3574929    4.3574929    -1629.043    2252.6449   -3729.3432   -3410.4307    8.6284874   -410.91218    357.94294    82.738961 
    8900    132.70962   -111.04828   0.12007845    -110.9282   -766.39702    4.3565837    4.3565837    4.3565837   -766.39702    4239.2336   -1754.9644   -4783.4603    1382.0065   -103.09218     132.7804     82.68718 
    9000    101.92389    -111.0207  0.092222873   -110.92848    2457.1015    4.3553095    4.3553095    4.3553095    2457.1015    9148.4978   -679.34187   -1097.8515   -1137.6361    381.21779    69.421018    82.614651 
    9100    123.30916   -111.03974   0.11157272   -110.92817    -1805.266     4.357801     4.357801     4.357801    -1805.266    2904.8425   -2423.3155    -5897.325   -248.22488    1.9003537   -252.78153     82.75651 
    9200    33.093555   -110.95879  0.029943744   -110.92885    1598.7678    4.3553608    4.3553608    4.3553608    1598.7678    1905.7697    3300.3864   -409.85259   -1589.8271    966.13183    389.40693    82.617569 
    9300    126.40882   -111.04252   0.11437735   -110.92814   -4135.1146    4.3570863    4.3570863    4.3570863   -4135.1146   -5249.4695   -2630.8346   -4525.0398    734.16556    311.17269   -277.58598    82.715803 
    9400    67.599911   -110.98966   0.06116582    -110.9285    2284.9456     4.357099     4.357099     4.357099    2284.9456    10253.365   -1083.4381   -2315.0905   -1145.3903       34.661     354.2844    82.716527 
    9500    138.14238   -111.05327   0.12499413   -110.92828   -549.66857    4.3553877    4.3553877    4.3553877   -549.66857    3281.2926   -1692.2099   -3238.0884     351.1388    596.83421   -168.59705    82.619099 
    9600    108.48483   -111.02648  0.098159356   -110.92832    615.98096    4.3572878    4.3572878    4.3572878    615.98096    6175.9057   -366.43238   -3961.5304   -1224.8799   -477.75479    245.57235    82.727279 
    9700     107.0862   -111.02507  0.096893844   -110.92817   -493.95592    4.3565204    4.3565204    4.3565204   -493.95592    664.18323    352.97162   -2499.0226   -31.276134    214.46396     76.47143    82.683578 
    9800    95.356157   -111.01443  0.086280255   -110.92815   -1253.1782    4.3556989    4.3556989    4.3556989   -1253.1782   -842.19301    2.0078978   -2919.3496    476.77112    801.73662    209.95111    82.636809 
    9900    50.310517   -110.97374  0.045522013   -110.92822    1740.8516    4.3575264    4.3575264    4.3575264    1740.8516    8847.8384   -2024.3984   -1600.8854   -228.97263   -162.90932    150.32756    82.740869 
   10000    133.14604   -111.04848   0.12047333     -110.928     -1925.12    4.3560708    4.3560708    4.3560708     -1925.12    62.860192   -2095.5332   -3742.6871   -570.05771   -11.849888   -133.46951    82.657981 
   10100    68.203521   -110.99032  0.061711979   -110.92861    2276.6581    4.3559379    4.3559379    4.3559379    2276.6581    5628.0136    1909.3314   -707.37067   -1124.0692    1138.5779    212.81203    82.650412 
   10200    157.69364   -111.07094   0.14268452   -110.92825   -2786.0446    4.3576374    4.3576374    4.3576374   -2786.0446   -214.86881   -2258.9689    -5884.296     1195.344   -534.53718   -185.52913    82.747192 
   10300     84.16086    -111.0049  0.076150515   -110.92875    2774.6497     4.355011     4.355011     4.355011    2774.6497    8277.8979    541.87379   -495.82259   -1018.3377   -440.10722    677.33142    82.597667 
   10400    108.14859   -111.02631  0.097855113   -110.92845     -1503.79    4.3572902    4.3572902    4.3572902     -1503.79      2591.97    -3292.232    -3811.108    45.237886    1028.1693   -208.68303    82.727415 
   10500    81.022129   -111.00164  0.073310525   -110.92833   -317.30908    4.3567693    4.3567693    4.3567693   -317.30908    2626.4038   -838.83893   -2739.4921   -1418.7039   -106.85517    221.37826    82.697752 
   10600    77.611309   -110.99847  0.070224343   -110.92825   -93.782648    4.3553775    4.3553775    4.3553775   -93.782648   -1987.1003    2285.1417   -579.38931    736.02505    32.441233    74.491699     82.61852 
   10700    96.942805   -111.01595  0.087715887   -110.92824   -1147.2423    4.3575311    4.3575311    4.3575311   -1147.2423    2833.6241    -558.5576   -5716.7934   -249.79069    1226.0084    200.43123    82.741139 
   10800    122.59612   -111.03908   0.11092755   -110.92816    839.82913    4.3561659    4.3561659    4.3561659    839.82913      5375.85   -1204.4286   -1651.9341    652.62906   -241.14014    254.23559    82.663394 
   10900    131.39374   -111.04716   0.11888782   -110.92827    229.08086    4.3559021    4.3559021    4.3559021    229.08086    6466.3886   -2092.2109    -3686.935   -608.58041    -402.6782    88.227634    82.648378 
   11000    101.82756   -111.02047  0.092135718   -110.92834   -1072.1735    4.3574981    4.3574981    4.3574981   -1072.1735    1233.8028   -866.93287   -3583.3906   -617.02122    795.71244   -34.145662    82.739258 
   11100    64.644911    -110.9869  0.058492074   -110.92841    931.69902    4.3555125    4.3555125    4.3555125    931.69902    2767.7183    1889.8693   -1862.4905    487.50921   -90.871707   -347.38324    82.626204 
   11200    85.552083   -111.00572  0.077409323   -110.92831   -1261.7073     4.356422     4.356422     4.356422   -1261.7073   -2562.9233    1827.1833   -3049.3818   -352.77351    177.16325    354.47517    82.677972 
   11300    82.787914   -111.00338  0.074908245   -110.92847    587.37847    4.3571093    4.3571093    4.3571093    587.37847    8005.7134   -2901.5152   -3342.0627   -83.545394    603.65758   -300.34712    82.717111 
   11400    148.47165   -111.06253   0.13434027   -110.92819   -248.62121     4.355487     4.355487     4.355487   -248.62121    2308.0292   -490.81342   -2563.0794   -913.44401    268.80187    311.20701     82.62475 
   11500    105.46116   -111.02384  0.095423477   -110.92842    527.30416    4.3570304    4.3570304    4.3570304    527.30416    6882.4381   -1805.3785   -3495.1471    1427.4618    93.726782   -253.09644    82.712617 
   11600    97.197274    -111.0163  0.087946136   -110.92835   -314.83186    4.3566319    4.3566319    4.3566319   -314.83186    1819.1007    1539.1137     -4302.71    180.59808     41.88735    151.69459    82.689926 
   11700    99.252675   -111.01799  0.089805906   -110.92818    -485.0381     4.355371     4.355371     4.355371    -485.0381   -2212.6648    1263.9789   -506.42842    223.37867   -600.26765   -88.944727     82.61815 
   11800    61.133567   -110.98366  0.055314936   -110.92835    341.81665    4.3574092    4.3574092    4.3574092    341.81665    7631.6107   -2520.6575   -4085.5032   -1249.7405    349.30615    117.40178    82.734192 
   11900    117.08561   -111.03405   0.10594152   -110.92811   -1577.4709    4.3563292    4.3563292    4.3563292   -1577.4709   -797.44845   -2150.1095   -1784.8547    36.663359    295.17473   -15.874014    82.672694 
   12000      83.3882   -111.00387  0.075451396   -110.92841    1972.6354     4.355711     4.355711     4.355711    1972.6354    8220.7123   -94.239268   -2208.5669   -278.71575    93.894655    -370.7708      82.6375 
   12100    139.19784   -111.05423   0.12594913   -110.92828   -2262.5905     4.357624     4.357624     4.357624   -2262.5905   -1192.0213   -820.94998   -4774.8001    781.22726    866.87358     306.4825    82.746429 
   12200    98.077415   -111.01731  0.088742506   -110.92856    1758.2295     4.355316     4.355316     4.355316    1758.2295    6196.0287    294.82746   -1216.1676   -138.13808    -15.82786   -239.79823    82.615022 
   12300    109.02578   -111.02683  0.098648819   -110.92819    -549.9828    4.3569629    4.3569629    4.3569629    -549.9828    3969.0832   -1849.9392   -3769.0923    -554.4319   -727.18437    650.33871    82.708774 
   12400    70.904355   -110.99236  0.064155751   -110.92821   -339.62739      4.35715      4.35715      4.35715   -339.62739    4597.2818   -3624.5265   -1991.6375    504.67072    640.84764   -177.94785    82.719427 
   12500    82.532151   -111.00281  0.074676825   -110.92813   -271.60758    4.3553259    4.3553259    4.3553259   -271.60758   -1360.7464     2840.745   -2294.8213    157.01898    94.101329    90.726039    82.615583 
   12600    104.17628   -111.02232  0.094260889   -110.92806   -704.99396    4.3574228    4.3574228    4.3574228   -704.99396    2095.0073   -1491.4796   -2718.5096    39.480912   -761.79975    6.6061812    82.734967 
   12700    114.34222    -111.0316   0.10345924   -110.92814    900.48231    4.3564133    4.3564133    4.3564133    900.48231    6327.2054    730.73843   -4356.4969   -1264.9304    1265.3304    51.495469    82.677479 
   12800    124.68632   -111.04098   0.11281881   -110.92816    1212.6228    4.3555149    4.3555149    4.3555149    1212.6228    7775.7754   -2485.8538   -1652.0532    900.54056    402.65457   -94.865487    82.626337 
   12900    111.65812    -111.0292   0.10103061   -110.92817   -1156.8847     4.357881     4.357881     4.357881   -1156.8847    3506.2463   -2240.5077   -4736.3926    108.44704   -556.66294    33.684031     82.76107 
   13000    70.171049     -110.992   0.06349224   -110.92851   -281.23711    4.3555997    4.3555997    4.3555997   -281.23711   -315.58039    1240.1489   -1768.2798    580.18139    431.02146    19.512358    82.631163 
   13100     85.81856   -111.00598  0.077650437   -110.92833    -1189.337    4.3564925    4.3564925    4.3564925    -1189.337   -2205.9756    1601.1015   -2963.1371   -562.20681    140.91846   -492.66678    82.681988 
   13200     74.15024   -110.99557  0.067092696   -110.92848    1273.0883    4.3574078    4.3574078    4.3574078    1273.0883    8770.3027   -596.59212   -4354.4456   -433.44453   -918.64945    468.24961    82.734116 
   13300    135.88287   -111.05132   0.12294968   -110.92837   -453.17251    4.3550627    4.3550627    4.3550627   -453.17251    3282.1256   -2407.3776   -2234.2655   -185.92003    931.51256    -382.8225    82.600607 
   13400    125.33771   -111.04183   0.11340819   -110.92842   -1119.1408    4.3576462    4.3576462    4.3576462   -1119.1408    3059.6894   -1022.3816   -5394.7303    1043.5665    571.15211    112.34298    82.747694 
   13500    102.54489   -111.02114   0.09278477   -110.92836   -733.21624    4.3567586    4.3567586    4.3567586   -733.21624     2375.233     -1523.24   -3051.6417    162.37948   -206.54547   -393.62506    82.697138 
   13600    85.001931   -111.00526  0.076911533   -110.92835   -127.20514     4.355237     4.355237     4.355237   -127.20514   -1219.3473    4055.3994   -3217.6675   -933.97446    538.24966   -11.367413    82.610527 
   13700    58.008887   -110.98071   0.05248766   -110.92823    802.80881    4.3579634    4.3579634    4.3579634    802.80881    7648.3273   -2430.5362   -2809.3647    167.22724   -81.166498    -104.4817    82.765766 
   13800    121.42791   -111.03788   0.10987052   -110.92801   -1856.3701    4.3558073    4.3558073    4.3558073   -1856.3701   -994.80713   -1194.2344   -3380.0688    454.01904     35.90037   -98.894047    82.642984 
   13900    90.438694   -111.01024  0.081830831   -110.92841     780.0504    4.3560998    4.3560998    4.3560998     780.0504    5756.2685    -1535.779   -1880.3383    68.064798   -25.880905    134.34559    82.659629 
   14000    133.73643   -111.04921   0.12100753    -110.9282   -1206.3086    4.3576984    4.3576984    4.3576984   -1206.3086     1799.468   -298.07873    -5120.315   -822.99126    172.07756   -436.98751    82.750666 
   14100    95.280154   -111.01462  0.086211486   -110.92841    2680.2976    4.3546032    4.3546032    4.3546032    2680.2976    7548.0231    1973.4239   -1480.5543    912.30199    179.72515    247.10839    82.574463 
   14200     104.7397   -111.02292  0.094770679   -110.92815   -344.91107    4.3572731    4.3572731    4.3572731   -344.91107    2760.1089   -827.85856   -2966.9835    135.76168    721.68855   -280.49892     82.72644 
   14300    88.282627    -111.0079  0.079879976   -110.92802   -689.12339    4.3568321    4.3568321    4.3568321   -689.12339    3503.0995   -2256.7014   -3313.7682    756.75091   -524.03189    408.28208    82.701328 
   14400     75.54012   -110.99653  0.068350288   -110.92818    372.24023    4.3551338    4.3551338    4.3551338    372.24023    742.76903    645.35659   -271.40493   -212.75015    263.85196   -154.59311    82.604654 
   14500    99.492775   -111.01822  0.090023154    -110.9282    -802.2524    4.3575957    4.3575957    4.3575957    -802.2524    1192.9433    1253.0318   -4852.7323   -566.71171    276.42799   -47.321552    82.744816 
   14600     112.6678   -111.03026   0.10194419   -110.92831     1586.861    4.3557908    4.3557908    4.3557908     1586.861    6735.3215    436.19338   -2410.9318   -682.41382   -789.19173   -227.60778    82.642044 
   14700    129.83853   -111.04577   0.11748063   -110.92829    767.21314    4.3558522    4.3558522    4.3558522    767.21314    4028.4725    781.84846   -2508.6815     1353.336    602.42022   -70.543526    82.645538 
   14800    109.76506   -111.02765  0.099317737   -110.92833   -1276.4867    4.3575115    4.3575115    4.3575115   -1276.4867    5029.0507   -4069.7855   -4788.7253    876.11681    959.20074   -117.93846    82.740019 
   14900     65.14214   -110.98741  0.058941978   -110.92847    503.27781     4.355583     4.355583     4.355583    503.27781    445.67934    2343.3411    -1279.187   -529.87431   -460.46683   -186.58707    82.630216 
   15000    93.384143   -111.01276  0.084495935   -110.92827   -1960.7392    4.3566399    4.3566399    4.3566399   -1960.7392    -2677.176    588.85986   -3793.9016   -16.385955    123.38645    261.30463    82.690381 
   15100    73.416807     -110.995   0.06642907   -110.92858    1172.8708    4.3568953    4.3568953    4.3568953    1172.8708    6136.6142     819.3345   -3437.3364    724.40657    1243.1763   -643.63406    82.704925 
   15200    130.97531   -111.04689   0.11850921   -110.92838    253.34195    4.3556375    4.3556375    4.3556375    253.34195    4873.5857   -1073.1935   -3040.3663    -127.6447   -1157.3015    411.79513    82.633318 
   15300    123.24312   -111.03985   0.11151296   -110.92834   -723.52472    4.3567946    4.3567946    4.3567946   -723.52472    5706.5879   -3400.6857   -4476.4764   -642.03759    516.33154   -285.38285     82.69919 
   15400    100.91723    -111.0196  0.091312027   -110.92828   -466.51002    4.3570436    4.3570436    4.3570436   -466.51002    2636.5817   -56.440952   -3979.6707    702.94584    685.64122   -143.63817    82.713372 
   15500    109.25329   -111.02686   0.09885467   -110.92801   -992.60165    4.3555089    4.3555089    4.3555089   -992.60165   -1403.5853    1038.2953    -2612.515    213.46246   -123.92688   -287.23562    82.625999 
   15600    42.102504   -110.96642   0.03809523   -110.92833    2147.3838    4.3568981    4.3568981    4.3568981    2147.3838    8699.0418    543.48433   -2800.3749    1156.4576    195.67489    -275.0911    82.705086 
   15700    118.30342   -111.03504   0.10704342     -110.928   -1871.9956    4.3568619    4.3568619    4.3568619   -1871.9956    1487.1141   -2793.2556   -4309.8453     499.9209    701.03701   -121.60655    82.703024 
   15800    82.645183   -111.00313  0.074779099   -110.92835    1419.8161    4.3553656    4.3553656    4.3553656    1419.8161    6682.8091    -1363.692   -1059.6688   -95.534864   -554.57339   -169.99127    82.617844 
   15900    153.10023   -111.06658   0.13852831   -110.92805   -3298.6304    4.3582756    4.3582756    4.3582756   -3298.6304   -800.12703   -2436.1334   -6659.6307   -1067.8541   -544.06345    336.04428    82.783552 
   16000    94.088409   -111.01357  0.085133169   -110.92844     2409.564    4.3552585    4.3552585    4.3552585     2409.564    6831.5399    1490.9534   -1093.8014    947.05821    233.11169   -285.06033    82.611747 
   16100    93.112733   -111.01247  0.084250358   -110.92822    831.37183    4.3562916    4.3562916    4.3562916    831.37183    5576.3178    392.28782   -3474.4902    1196.7919   -480.91013    77.555108    82.670551 
   16200    90.830637    -111.0103   0.08218547   -110.92811   -1684.5769    4.3580915    4.3580915    4.3580915   -1684.5769    2407.1449    -3418.686   -4042.1895   -273.97135    941.36779   -343.07197    82.773063 
   16300    69.934262   -110.99154   0.06327799   -110.92826   -22.814058    4.3547254    4.3547254    4.3547254   -22.814058   -1083.2704    1129.7441   -114.91588    117.23281   -286.07762    106.21611    82.581413 
   16400    125.41616   -111.04177   0.11347918   -110.92829   -3031.4872    4.3579904    4.3579904    4.3579904   -3031.4872   -1055.9084   -2587.8338   -5450.7195    484.83226    -5.317827    -52.73396    82.767302 
   16500     84.09915   -111.00483  0.076094679   -110.92873    3105.4764    4.3562265    4.3562265    4.3562265    3105.4764    9394.5331    1742.3384   -1820.4424    962.53591    139.03152   -253.24381    82.666843 
   16600      134.001    -111.0497   0.12124692   -110.92845    781.94608    4.3552461    4.3552461    4.3552461    781.94608    5618.3472   -181.31388   -3091.1951   -527.57146    -393.8442   -24.647916    82.611042 
   16700     107.6306   -111.02579  0.097386427    -110.9284   -1110.9678    4.3583646    4.3583646    4.3583646   -1110.9678    2979.9364   -2432.4894   -3880.3503    445.78024   -578.77264   -201.24019    82.788629 
   16800    88.425907   -111.00838  0.080009619   -110.92837   -904.81848    4.3553159    4.3553159    4.3553159   -904.81848    -976.9107    -72.02025   -1665.5245   -727.91226    812.23903     160.1794    82.615017 
   16900    78.342214   -110.99922  0.070885682   -110.92833   -506.42219    4.3565267    4.3565267    4.3565267   -506.42219    1683.8014   -302.35129   -2900.7166    512.23739   -375.83009   -260.55813    82.683936 
   17000    71.228123   -110.99276  0.064448703   -110.92831    1579.8152    4.3574376    4.3574376    4.3574376    1579.8152    7143.3145    1126.6488   -3530.5176    526.75139   -135.82738    317.34254    82.735814 
   17100    130.10608   -111.04584   0.11772272   -110.92811     616.1013    4.3548726    4.3548726    4.3548726     616.1013    4796.2807   -613.37856   -2334.5982      179.143    1281.6614   -459.08588     82.58979 
   17200    123.80271   -111.04014   0.11201929   -110.92812   -727.44933    4.3575613    4.3575613    4.3575613   -727.44933    3139.0058    -1551.365   -3769.9887   -928.71713    -829.7647   -40.913492    82.742857 
   17300    112.02926    -111.0296   0.10136643   -110.92824   -994.17422    4.3566621    4.3566621    4.3566621   -994.17422    4299.2981   -3018.7136   -4263.1071    175.64752   -836.69269    136.77803    82.691645 
   17400    88.429621    -111.0083  0.080012979   -110.92828    415.47126    4.3553368    4.3553368    4.3553368    415.47126    906.32494     2059.264   -1719.1752    1167.2696     239.2246   -344.11184    82.616206 
   17500    59.589947    -110.9822  0.053918236   -110.92828    645.45733     4.357568     4.357568     4.357568    645.45733    6109.5625    1.8061166   -4174.9966   -92.133971   -26.063878    3.5923657    82.743238 
   17600    112.23249   -111.02959   0.10155032   -110.92804    -1641.393    4.3560229    4.3560229    4.3560229    -1641.393   -1709.5293   -527.47364   -2687.1761   -29.975153   -927.92567   -435.24612    82.655256 
   17700    85.146819   -111.00551  0.077042631   -110.92847    817.25455    4.3559408    4.3559408    4.3559408    817.25455    5853.7614   -1121.2881   -2280.7097   -683.66897     1123.435     108.0711    82.650578 
   17800    138.32521   -111.05346   0.12515955    -110.9283   -2623.7815    4.3577664    4.3577664    4.3577664   -2623.7815    1114.2534   -3537.9001   -5447.6979    562.38046   -516.67331   -197.50206    82.754543 
   17900    100.26913    -111.0192  0.090725614   -110.92848    1982.0939    4.3551481    4.3551481    4.3551481    1982.0939    5855.4254    1847.6231   -1756.7668   -894.38407   -698.89822    462.69293    82.605468 
   18000    108.42629   -111.02642  0.098106384   -110.92831   -44.241153     4.356676     4.356676     4.356676   -44.241153    2994.2113    590.92238   -3717.8572    357.18702    441.00637   -200.59215    82.692438 
   18100     82.09918    -111.0026  0.074285064   -110.92831   -908.17045    4.3571793    4.3571793    4.3571793   -908.17045    1188.6919   -1170.9406   -2742.2626   -849.30514   -592.92632   -152.02101    82.721098 
   18200    67.582489   -110.98954  0.061150056   -110.92839    521.89024     4.355172     4.355172     4.355172    521.89024    3080.4319    405.08524   -1919.8465    305.38051    -417.6508   -69.031536    82.606827 
   18300    110.22078   -111.02795  0.099730079   -110.92822   -1413.0357    4.3571949    4.3571949    4.3571949   -1413.0357    218.94624   -2184.5817   -2273.4716    462.92093    146.10594   -307.70736     82.72199 
   18400    109.04251   -111.02699  0.098663955   -110.92833    1433.9999    4.3563193    4.3563193    4.3563193    1433.9999    7328.6957    748.89602   -3775.5921    438.97927    234.18559    261.00255    82.672128 
   18500    130.87556   -111.04673   0.11841896   -110.92831    1617.4397    4.3552583    4.3552583    4.3552583    1617.4397    4952.6879    1011.9431   -1112.3117   -1200.2545   -10.613192   -458.37027    82.611737 
   18600    97.320975   -111.01648  0.088058064   -110.92842    626.19174    4.3572961    4.3572961    4.3572961    626.19174    7762.0755   -1957.4852   -3926.0151   -1576.9953    62.757123    299.27797    82.727753 
   18700    85.488159   -111.00561  0.077351482   -110.92826   -763.77904    4.3559624    4.3559624    4.3559624   -763.77904     65.96531   -388.10736   -1969.1951    464.85168    -1076.693   -247.54408     82.65181 
   18800    83.065894   -111.00328  0.075159766   -110.92812   -663.57414    4.3560599    4.3560599    4.3560599   -663.57414   -293.66074   -868.39303   -828.66864   -682.31123    361.33723    445.48078    82.657361 
   18900    92.520449   -111.01195  0.083714447   -110.92823   -52.378848    4.3575247    4.3575247    4.3575247   -52.378848    5390.5501    -938.6075   -4609.0792    268.12824    7.7061276   -133.58312     82.74077 
   19000    99.093733   -111.01804  0.089662092   -110.92838    1993.2146    4.3551584    4.3551584    4.3551584    1993.2146    6083.9337    608.19083   -712.48084   -705.36106   -158.56091    145.70275    82.606052 
   19100    128.29507   -111.04418   0.11608408    -110.9281   -641.28317    4.3568612    4.3568612    4.3568612   -641.28317    5726.3696   -2497.6829   -5152.5362    809.36956    622.00759   -270.89657    82.702981 
   19200     113.4446   -111.03076   0.10264705   -110.92811   -1440.8326    4.3573567    4.3573567    4.3573567   -1440.8326    1768.5538   -3190.9526   -2900.0989    -725.2134    41.697087    -492.3172    82.731202 
   19300    110.93985   -111.02847    0.1003807   -110.92809   -1839.8207    4.3555778    4.3555778    4.3555778   -1839.8207   -2883.1394    418.48338   -3054.8059    160.38554   -1029.7862    570.51065    82.629916 
   19400    47.910156   -110.97192  0.043350116   -110.92857    1846.3068    4.3570842    4.3570842    4.3570842    1846.3068    10286.792   -2258.2521   -2489.6189   -1268.8468    500.92391   -522.14567    82.715684 
   19500    99.216194   -111.01817  0.089772898   -110.92839   -923.60284    4.3564733    4.3564733    4.3564733   -923.60284    40.783816    912.13908   -3723.7314   -1042.4525    139.11335    397.51305    82.680894 
   19600    85.271927   -111.00566  0.077155832    -110.9285    295.35891    4.3558403    4.3558403    4.3558403    295.35891    5131.5216   -2115.0031   -2130.4418    46.062826   -1331.4715     -412.727    82.644858 
   19700     148.4387   -111.06243   0.13431046   -110.92811    -2866.382    4.3578995    4.3578995    4.3578995    -2866.382   -904.86384   -2859.0034   -4835.2786    541.10619     1159.128    218.51064    82.762124 
   19800    114.41179   -111.03185   0.10352219   -110.92833    1070.2763    4.3556219    4.3556219    4.3556219    1070.2763    6809.8019   -759.71754   -2839.2555    476.91276    678.47786   -247.41222     82.63243 
   19900    77.850836   -110.99883  0.070441072   -110.92839     1836.574    4.3562797    4.3562797    4.3562797     1836.574    7962.4667   -385.07328   -2067.6715   -1752.6407   -655.82334    150.57823     82.66987 
   20000    98.986726   -111.01766   0.08956527    -110.9281   -1471.8728    4.3575057    4.3575057    4.3575057   -1471.8728    1017.2741   -525.43972   -4907.4527    1007.8246   -62.140127    53.989444    82.739689 
   20100    68.614069   -110.99032  0.062083451   -110.92823   -143.69096    4.3555948    4.3555948    4.3555948   -143.69096    -784.8975    55.146035     298.6786   -751.18557    58.302898   -552.58681    82.630889 
   20200    113.60955     -111.031   0.10279631    -110.9282    -2583.999    4.3573928    4.3573928    4.3573928    -2583.999   -589.65138   -1873.6383   -5288.7075     895.7888   -1340.3961    339.55588     82.73326 
   20300    97.981572   -111.01699  0.088655786   -110.92833    2123.9442     4.356631     4.356631     4.356631    2123.9442    10314.103   -2080.3033   -1861.9666   -1205.4071    559.50374   -429.75049    82.689873 
   20400    124.70753   -111.04103     0.112838   -110.92819    1168.9599    4.3555814    4.3555814    4.3555814    1168.9599    4252.5377    1951.5515   -2697.2095    769.48676    570.80257    485.87061    82.630125 
   20500    115.37508   -111.03262    0.1043938   -110.92823   -1331.5481    4.3576722    4.3576722    4.3576722   -1331.5481    3165.6948   -2697.2771   -4463.0622    -801.6517   -395.34559   -281.75511    82.749177 
   20600    84.605051   -111.00488  0.076552428   -110.92833   -320.39697    4.3560047    4.3560047    4.3560047   -320.39697   -1596.3763    1334.2682   -699.08277    634.55339    134.07357    304.60822    82.654215 
   20700    84.699052     -111.005  0.076637482   -110.92836   -1286.8985    4.3562225    4.3562225    4.3562225   -1286.8985     1583.655   -1920.0263   -3524.3241    346.28602    24.337411   -104.70948    82.666615 
   20800    64.561032    -110.9869  0.058416178   -110.92848    1201.1688    4.3574642    4.3574642    4.3574642    1201.1688    6675.1158   -1135.3655   -1936.2439   -754.34998   -268.34746    363.66189    82.737327 
   20900    131.07654   -111.04673   0.11860081   -110.92812    324.37244    4.3552549    4.3552549    4.3552549    324.37244    2866.2185    918.59046   -2811.6916    748.14339   -311.27792    112.98994    82.611545 
   21000    124.22156   -111.04062   0.11239828   -110.92822   -683.84324    4.3569622    4.3569622    4.3569622   -683.84324    2269.8813   -1462.1443   -2859.2667    449.67217   -342.25896   -222.67704    82.708736 
   21100    97.476402   -111.01657  0.088198697   -110.92837    86.625679     4.356921     4.356921     4.356921    86.625679    5877.3221    -1224.355     -4393.09    1502.7961    71.547846    215.42976    82.706386 
   21200    118.20906   -111.03519   0.10695804   -110.92823   -830.83173    4.3553566    4.3553566    4.3553566   -830.83173    537.16367   -1406.7987   -1622.8601     -1986.89    930.23543    -713.8062    82.617333 
   21300    44.225927   -110.96857  0.040016548   -110.92855    1678.7749    4.3573758    4.3573758    4.3573758    1678.7749    7344.4284     400.3272   -2708.4309     1136.102   -563.86686    817.19849    82.732293 
   21400    123.78063   -111.04008   0.11199932   -110.92808   -2707.7333    4.3562256    4.3562256    4.3562256   -2707.7333   -2783.3745   -1969.8916   -3369.9338    -940.8511   -104.29242   -447.68208    82.666793 
   21500    65.202212   -110.98751  0.058996332   -110.92851    2655.3547    4.3555103    4.3555103    4.3555103    2655.3547    6490.7129     2091.662   -616.31058    1419.3398   -66.704093     396.3317    82.626077 
   21600    140.85695   -111.05564   0.12745032   -110.92819   -2652.9163    4.3578878    4.3578878    4.3578878   -2652.9163     3075.973   -4506.3415   -6528.3804   -148.97037   -1071.5416   -27.272841    82.761461 
   21700    106.16459   -111.02433  0.096059954   -110.92827    1660.1506    4.3551472    4.3551472    4.3551472    1660.1506     5625.363   -54.223139   -590.68813    1520.8689   -168.54464    40.543711    82.605412 
   21800    116.83995   -111.03378   0.10571924   -110.92806   -216.16278    4.3568401    4.3568401    4.3568401   -216.16278     3826.484   -445.26821   -4029.7041    240.43594    1014.7718     52.22413    82.701783 
   21900    83.771011   -111.00403  0.075797771   -110.92823   -1198.0819    4.3570466    4.3570466    4.3570466   -1198.0819    1734.1481    -3004.658   -2323.7357    270.37683   -1199.8562   -217.81797    82.713539 
   22000    44.897734    -110.9691  0.040624413   -110.92847    1756.6661    4.3549926    4.3549926    4.3549926    1756.6661    3263.8455    3576.1616   -1570.0088    1347.1834   -413.57719    245.22472    82.596617 
   22100    131.14605   -111.04678    0.1186637   -110.92812   -2930.1194    4.3575384    4.3575384    4.3575384   -2930.1194   -676.35013   -4824.4681   -3289.5399    -1325.594    957.08969   -658.54252    82.741555 
   22200     90.72023   -111.01054   0.08208557   -110.92846    1803.5285    4.3560115    4.3560115    4.3560115    1803.5285    6380.1788    1174.9466     -2144.54    878.17627   -1323.1889    571.87847    82.654603 
   22300    150.90964   -111.06497   0.13654621   -110.92842   -351.40645    4.3558335    4.3558335    4.3558335   -351.40645    4139.4416   -2241.2363   -2952.4247   -586.04516   -772.95127     -223.194    82.644471 
   22400    85.521918   -111.00603  0.077382028   -110.92865    1770.8382    4.3569091    4.3569091    4.3569091    1770.8382    7810.9586   -667.36657   -1831.0775    2502.2669    400.18476    540.80735     82.70571 
   22500    85.634252   -111.00592  0.077483671   -110.92844   -787.41139    4.3557969    4.3557969    4.3557969   -787.41139    514.75819    349.10387   -3226.0962   -919.77027   -367.96245   -73.776826    82.642389 
   22600    89.769015   -111.00932  0.081224892    -110.9281   -1013.0083    4.3564156    4.3564156    4.3564156   -1013.0083   -1592.3125   -1045.4892   -401.22306     1477.478   -192.01721    282.73451     82.67761 
   22700    88.325964   -111.00807  0.079919188   -110.92815    371.13584    4.3571245    4.3571245    4.3571245    371.13584    5614.9743   -520.40936   -3981.1575   -755.18248     746.5388   -79.933918    82.717979 
   22800    102.49618   -111.02114  0.092740696    -110.9284     1072.309    4.3554207    4.3554207    4.3554207     1072.309     6289.022   -1955.4818   -1116.6132    614.27413   -958.81746    176.71897    82.620977 
   22900    113.15562    -111.0307   0.10238558   -110.92831    608.51064    4.3566888    4.3566888    4.3566888    608.51064    4693.9863    995.80181   -3864.2562   -56.412862   -750.62411    286.16665    82.693168 
   23000    130.54171    -111.0463   0.11811688   -110.92818   -1443.8547      4.35699      4.35699      4.35699   -1443.8547    2906.1155   -3975.7022   -3261.9774    156.48627   -116.32793   -296.34979     82.71032 
   23100    99.386003   -111.01824  0.089926544   -110.92832   -759.71541    4.3557592    4.3557592    4.3557592   -759.71541   -2912.0068    2748.2784   -2115.4178    121.68577    -7.444567    604.09158    82.640243 
   23200    67.666477   -110.98956   0.06122605   -110.92834    667.45781    4.3572354    4.3572354    4.3572354    667.45781    9734.2823   -4192.8232   -3539.0857   -854.87379   -18.455691   -586.67555    82.724293 
   23300    83.847392   -111.00412  0.075866882   -110.92825   -115.00358    4.3563073    4.3563073    4.3563073   -115.00358    476.22748    1095.0894   -1916.3276    1725.3521   -142.49148    741.50739    82.671443 
   23400    86.668986   -111.00671   0.07841992   -110.92829   -512.08871    4.3561713    4.3561713    4.3561713   -512.08871    2152.6383   -330.02477   -3358.8797    -1124.676   -359.71975   -48.811291    82.663699 
   23500     144.4106   -111.05874   0.13066575   -110.92808   -2324.3249    4.3577637    4.3577637    4.3577637   -2324.3249   -968.71948   -2114.3852   -3889.8698    1045.7445    162.66398    275.11116    82.754385 
   23600    115.07316   -111.03247   0.10412062   -110.92835    1380.9633    4.3554671    4.3554671    4.3554671    1380.9633    6127.7113    1222.0345    -3206.856   -1415.2538   -520.20689    46.503875    82.623618 
   23700    88.388705   -111.00846  0.079975958   -110.92849    731.02732    4.3567284    4.3567284    4.3567284    731.02732    7673.8173   -2686.7772   -2793.9581    1654.5942   -1149.7428    102.99656     82.69542 
   23800    90.687534   -111.01035  0.082055986   -110.92829   -926.60565    4.3572712    4.3572712    4.3572712   -926.60565      796.903     436.6743   -4013.3942    -1329.426     559.1218   -73.629472    82.726334 
   23900    80.699851   -111.00129  0.073018921   -110.92827   -1066.3398    4.3556526    4.3556526    4.3556526   -1066.3398   -1828.8582    -833.7176   -536.44373    687.49972   -349.70725   -59.354363    82.634174 
   24000    92.345711   -111.01188   0.08355634   -110.92832   -1447.3081    4.3574948    4.3574948    4.3574948   -1447.3081   -919.21776    754.67864   -4177.3851   -1234.8873   -207.73335    336.31731    82.739068 
   24100    112.93143   -111.03046   0.10218273   -110.92827    1545.4751     4.356277     4.356277     4.356277    1545.4751    11020.702   -3213.8395    -3170.437   -177.97787    851.78199   -439.97016     82.66972 
   24200    116.84726   -111.03404   0.10572586   -110.92832    1618.2503    4.3557903    4.3557903    4.3557903    1618.2503    5088.4301    1116.6688    -1350.348    57.094029   -485.79908    675.64037    82.642015 
   24300    124.04204   -111.04047   0.11223585   -110.92824   -2306.0948    4.3578582    4.3578582    4.3578582   -2306.0948    2536.6706   -3716.1673   -5738.7875   -84.883633   -1724.6199   -40.504088    82.759774 
   24400    85.657137   -111.00578  0.077504378   -110.92828    80.311298    4.3557383    4.3557383    4.3557383    80.311298    -556.2645    317.61914    479.57926    344.12336    696.06605    658.42626    82.639051 
   24500    74.499877   -110.99568  0.067409054   -110.92827   -498.15475    4.3564332    4.3564332    4.3564332   -498.15475     2027.065   -26.649512   -3494.8797   -1697.1386   -70.113371   -102.85847    82.678612 
   24600    71.303886   -110.99284  0.064517254   -110.92833    432.01924    4.3573576    4.3573576    4.3573576    432.01924    7236.3272   -3248.0814    -2692.188    1041.3609   -902.63008    472.69422    82.731255 
   24700    123.23849   -111.03956   0.11150878   -110.92805     471.4615    4.3554479    4.3554479    4.3554479     471.4615    1958.5747    1001.7346   -1545.9248    -1980.896    867.18789   -213.69878    82.622529 
   24800    136.90871   -111.05205   0.12387788   -110.92817   -2265.7707    4.3573069    4.3573069    4.3573069   -2265.7707    1768.9166   -3995.9404   -4570.2882    496.76707    235.49221     181.2267    82.728368 
   24900    84.180099    -111.0047  0.076167922   -110.92853    771.34378    4.3567504    4.3567504    4.3567504    771.34378    5415.2673   -469.18172   -2632.0542   -1549.0956    -705.8642    541.61424    82.696671 
   25000    125.08001   -111.04136   0.11317502   -110.92818   -800.21297    4.3554863    4.3554863    4.3554863   -800.21297     2061.632   -1452.9584   -3009.3125    931.40421    31.895957   -252.59173    82.624709 
   25100    44.990179   -110.96921  0.040708059    -110.9285    1619.7578    4.3572842    4.3572842    4.3572842    1619.7578    7079.0331   -439.32565   -1780.4339   -997.00655   -167.93248    1062.1509    82.727074 
   25200    123.79168   -111.04013   0.11200931   -110.92812   -3197.0977    4.3564903    4.3564903    4.3564903   -3197.0977   -3550.9199   -1788.1647   -4252.2085    543.57637   -1166.3585   -382.35618    82.681863 
   25300    72.319737   -110.99415  0.065436418   -110.92871    2001.2997    4.3553287    4.3553287    4.3553287    2001.2997    6029.6731    242.19325   -267.96735   -343.67559    509.01926    812.15655    82.615745 
   25400    121.17316    -111.0381   0.10964002   -110.92846   -1277.1894    4.3578106    4.3578106    4.3578106   -1277.1894    4017.2619   -1780.8011   -6068.0289    -1156.591    345.85114   -153.83514    82.757059 
   25500    120.19844   -111.03711   0.10875807   -110.92836    1456.4453    4.3551266    4.3551266    4.3551266    1456.4453    6334.3187   -463.86093    -1501.122   -244.10747    155.18394    375.49186    82.604243 
   25600    108.79641   -111.02655  0.098441275    -110.9281    1248.5659     4.356325     4.356325     4.356325    1248.5659    4906.4725    1409.0969   -2569.8718    -523.8537   -356.12139   -52.947742    82.672451 
   25700    100.58452   -111.01911  0.091010985    -110.9281   -2205.6945    4.3575694    4.3575694    4.3575694   -2205.6945    1565.1453   -3697.6202   -4484.6086    983.54911   -717.33924    134.47166    82.743319 
   25800    36.316028   -110.96136  0.032859506    -110.9285    2453.2078    4.3544391    4.3544391    4.3544391    2453.2078     3902.223    3090.6807    366.71969   -1420.6738   -358.93208    171.46228    82.565129 
   25900    128.25587   -111.04412   0.11604861   -110.92807   -2551.8019    4.3575911    4.3575911    4.3575911   -2551.8019   -72.724895   -2810.7305   -4771.9503     1276.126    69.375663   -196.41943    82.744554 
   26000    89.199708   -111.00915   0.08070977   -110.92844    1922.9459    4.3562438    4.3562438    4.3562438    1922.9459    6220.7293    854.70108   -1306.5927   -1272.8078   -886.30696    883.70714     82.66783 
   26100    145.71343   -111.06008   0.13184457   -110.92823    68.649716     4.355225     4.355225     4.355225    68.649716    3751.4217   -56.422088   -3489.0504    556.32519    79.077729   -625.40005    82.609841 
   26200    100.41062   -111.01917  0.090853644   -110.92832    442.30797    4.3577809    4.3577809    4.3577809    442.30797    7273.6985   -3197.4668   -2749.3078   -892.37683    414.77235    869.80695    82.755367 
   26300    76.693693   -110.99778  0.069394065   -110.92839   -548.94984    4.3555208    4.3555208    4.3555208   -548.94984    653.04178    455.55917   -2755.4505    837.62891   -1250.6923   -250.35557    82.626674 
   26400    100.51405     -111.019  0.090947223   -110.92805   -1990.8889    4.3564415    4.3564415    4.3564415   -1990.8889   -2460.0064   -1951.3709   -1561.2895   -701.62253    222.11586    564.12144    82.679083 
   26500    75.105048   -110.99626  0.067956626    -110.9283    1038.7761    4.3574883    4.3574883    4.3574883    1038.7761    5508.4102    294.28737   -2686.3693    533.27061   -174.36786   -13.940348    82.738702 
   26600    108.05891   -111.02626   0.09777397   -110.92848    442.48073    4.3548652    4.3548652    4.3548652    442.48073    5300.3582   -1446.1589   -2526.7571    1010.0622   -1322.5795    415.34615     82.58937 
   26700    109.47707   -111.02744  0.099057151   -110.92839    300.99727    4.3571704    4.3571704    4.3571704    300.99727    4732.1363   -1263.1876   -2565.9569   -923.01282    44.150703    173.62712     82.72059 
   26800    132.27622   -111.04788    0.1196863   -110.92819   -1570.3101    4.3569605    4.3569605    4.3569605   -1570.3101    3131.1367   -3201.8488   -4640.2181   -47.305842    1180.8649   -222.47534    82.708635 
   26900    105.87609   -111.02407  0.095798911   -110.92827   -574.29127    4.3553582    4.3553582    4.3553582   -574.29127   -997.09142    69.779232   -795.56162   -188.57366   -1120.1563    1180.1899    82.617419 
   27000    59.806274    -110.9825  0.054113973   -110.92839    1661.8701    4.3575318    4.3575318    4.3575318    1661.8701    10398.246   -1361.5475   -4051.0881    1420.6099   -434.96424   -531.68795    82.741177 
   27100    90.936875   -111.01058  0.082281595    -110.9283   -248.12354     4.355892     4.355892     4.355892   -248.12354    2169.1973   -921.69055   -1991.8774   -844.83628   -51.422521    1289.2897    82.647803 
   27200    78.532703   -110.99944   0.07105804   -110.92838   -213.77339    4.3561927    4.3561927    4.3561927   -213.77339    2301.0602   -309.08061   -2633.2997    1683.0082   -1009.4562   -202.97428    82.664919 
   27300    148.15268   -111.06215   0.13405166    -110.9281   -2755.8204    4.3579773    4.3579773    4.3579773   -2755.8204    95.853789   -2845.3534   -5517.9615   -384.13727   -438.81446    615.63458     82.76656 
   27400    110.73303   -111.02851   0.10019357   -110.92832    2067.4881    4.3552374    4.3552374    4.3552374    2067.4881    8036.2996   -162.35364   -1671.4817    167.84857    493.33161    112.35203    82.610546 
   27500    91.284311   -111.01095  0.082595963   -110.92835    862.89744    4.3568613    4.3568613    4.3568613    862.89744     7993.427   -560.06218   -4844.6725   -373.13313   -519.30383    11.503257    82.702989 
   27600    97.052095   -111.01587  0.087814775   -110.92806   -1244.1723      4.35732      4.35732      4.35732   -1244.1723    1055.1133   -1653.2069   -3134.4233    1100.3013   -496.93725    361.76597    82.729115 
   27700    78.682489   -110.99937  0.071193569   -110.92818     -1276.05     4.355641     4.355641     4.355641     -1276.05   -2036.7344    463.46758   -2254.8832   -152.59905    149.33828   -266.25551    82.633514 
   27800    94.334836   -111.01372  0.085356142   -110.92836   -2354.3251    4.3576879    4.3576879    4.3576879   -2354.3251   -1166.2695   -1857.2186    -4039.487    124.02477   -1164.9371    701.33774    82.750069 
   27900    99.488648   -111.01843   0.09001942   -110.92841    1940.4991    4.3563513    4.3563513    4.3563513    1940.4991    10711.863   -1187.2523   -3703.1131    1498.6495   -451.36618   -466.83793    82.673952 
   28000    121.39642   -111.03829   0.10984203   -110.92845    1238.0512    4.3556995    4.3556995    4.3556995    1238.0512    5009.7053    249.49074   -1545.0425   -45.129445   -1090.1518    1176.8775    82.636845 
   28100    124.16517   -111.04073   0.11234725   -110.92838   -2288.6868    4.3579189    4.3579189    4.3579189   -2288.6868    1008.1614   -2739.1375   -5135.0844   -46.985255    33.692071   -480.46806    82.763232 
   28200     92.19572   -111.01185  0.083420625   -110.92843    51.128679    4.3557697    4.3557697    4.3557697    51.128679    1285.8425   -188.79871   -943.65772   -658.71512    701.58882     510.5549    82.640838 
   28300     78.07707   -110.99909  0.070645774   -110.92845   -351.63074    4.3562909    4.3562909    4.3562909   -351.63074    2226.2673   -1522.5603   -1758.5992    1113.3628   -139.70112    8.7174617    82.670509 
   28400     68.05564   -110.98997  0.061578173   -110.92839    609.57224    4.3575124    4.3575124    4.3575124    609.57224    7639.6271   -1436.3562   -4374.5542   -353.04568   -800.57257   -134.02356    82.740075 
   28500    116.75449   -111.03375   0.10564192   -110.92811    832.21849    4.3554114    4.3554114    4.3554114    832.21849      1702.95   -26.092326     819.7978    1425.7174    228.85416    473.44362    82.620449 
   28600    132.68596   -111.04818   0.12005705   -110.92812    -1865.765    4.3570687    4.3570687    4.3570687    -1865.765    1457.9451   -1984.2474   -5070.9927    33.318493   -1189.0889     6.319906    82.714802 
   28700    89.475405   -111.00943  0.080959227   -110.92847    839.96682    4.3569938    4.3569938    4.3569938    839.96682    7013.1574   -2764.6686   -1728.5883   -155.18148   -706.93673    845.48183    82.710533 
   28800    127.58526   -111.04354   0.11544182   -110.92809   -259.66641    4.3553158    4.3553158    4.3553158   -259.66641    2571.6976   -904.46426   -2446.2326   -901.72902    1045.1646   -489.32561    82.615009 
   28900    56.174098   -110.97917  0.050827504   -110.92834     1052.149    4.3572551    4.3572551    4.3572551     1052.149    7488.1355   -2052.1751   -2279.5135    380.87656   -659.61722    1298.4113    82.725416 
   29000    110.47929   -111.02801  0.099963985   -110.92805   -2676.5193    4.3567516    4.3567516    4.3567516   -2676.5193   -4540.5255   -582.67659   -2906.3558   -99.655158   -387.35016   -334.95751    82.696741 
   29100    72.309886   -110.99386  0.065427504   -110.92843    1541.2504    4.3551373    4.3551373    4.3551373    1541.2504    5510.9503    333.04017   -1220.2391   -753.86722    854.10919    738.86917    82.604849 
   29200    114.47406   -111.03187   0.10357854   -110.92829   -1674.4317    4.3579793    4.3579793    4.3579793   -1674.4317    3204.4643   -3753.7167   -4474.0428    995.27678   -234.16838    472.35688    82.766672 
   29300    124.97297   -111.04129   0.11307817   -110.92821    582.33151    4.3555585    4.3555585    4.3555585    582.33151    5355.1678   -168.49131   -3439.6819     413.4445   -1844.0033   -150.32282    82.628823 
   29400    114.24747   -111.03153   0.10337351   -110.92816    892.47096     4.355975     4.355975     4.355975    892.47096    5540.9853   -1404.8315   -1458.7409   -36.658514    668.90394    711.66965    82.652524 
   29500    100.34284   -111.01902  0.090792311   -110.92823   -2406.3328    4.3579633    4.3579633    4.3579633   -2406.3328    154.53188   -1441.7185   -5931.8119   -1246.0167   -518.68645   -224.09175    82.765761 
   29600    39.885532   -110.96465  0.036089267   -110.92856    2116.6923    4.3544739    4.3544739    4.3544739    2116.6923    4034.9511    1891.1321    423.99376    149.85732   -250.98668    705.18465    82.567108 
   29700    117.76608   -111.03475   0.10655722   -110.92819   -2106.6723    4.3572807    4.3572807    4.3572807   -2106.6723    477.63738   -2453.3392    -4344.315   -1186.2549    554.39068   -285.24425    82.726875 
   29800    97.156478   -111.01637  0.087909223   -110.92846    849.61854    4.3568026    4.3568026    4.3568026    849.61854    5582.8152   -372.02748   -2661.9321    454.42821   -292.70049    715.55524    82.699645 
   29900    129.21567   -111.04535   0.11691706   -110.92843     1248.227    4.3547363    4.3547363    4.3547363     1248.227    6188.9479   -397.62615   -2046.6406    102.73957   -1000.6181   -218.39763    82.582035 
   30000    114.73751   -111.03216   0.10381691   -110.92834      159.764    4.3577143    4.3577143    4.3577143      159.764    6709.9641   -1889.6042   -4341.0679    247.80099   -9.5320844    601.11949    82.751573 
   30100    76.794278   -110.99793  0.069485077   -110.92845    492.51859    4.3556941    4.3556941    4.3556941    492.51859    2651.9345   -116.76512   -1057.6136   -964.46559   -7.0074825    235.17046     82.63654 
   30200    103.91897   -111.02203  0.094028069     -110.928   -1237.4967    4.3559226    4.3559226    4.3559226   -1237.4967   -599.64003   -819.99859   -2292.8513   -48.760035   -517.32405   -257.45386    82.649546 
   30300    77.721952   -110.99842  0.070324456    -110.9281    724.72297       4.3578       4.3578       4.3578    724.72297    5692.3506   -2246.6953   -1271.4863    77.900087    49.357611    477.10192    82.756458 
   30400    94.714807   -111.01398  0.085699947   -110.92828    752.92695    4.3548965    4.3548965    4.3548965    752.92695    4956.3107   -94.542419   -2602.9874   -1359.6978    -765.6814   -575.18094    82.591149 
   30500    113.86979   -111.03113   0.10303178   -110.92809   -79.711106    4.3569043    4.3569043    4.3569043   -79.711106    3404.7718   -2046.0836   -1597.8215   -97.002172    662.11494    543.86407     82.70544 
   30600    124.20983   -111.04041   0.11238767   -110.92803   -809.33825    4.3572775    4.3572775    4.3572775   -809.33825    3477.4214    -2388.177   -3517.2592   -356.00305   -674.58513    65.035736    82.726689 
   30700    117.69994   -111.03464   0.10649738   -110.92815   -937.19788    4.3552459    4.3552459    4.3552459   -937.19788   -979.47144   -777.82844   -1054.2938    560.99031   -814.38652    806.08485     82.61103 
   30800    58.181504   -110.98103  0.052643848   -110.92838    1664.2886    4.3574809    4.3574809    4.3574809    1664.2886    10172.138   -3225.0428   -1954.2295   -884.39503   -229.89984   -36.473262    82.738279 
   30900     100.1092   -111.01882  0.090580908   -110.92823      -1490.7    4.3562562    4.3562562    4.3562562      -1490.7   -590.11572      -759.12   -3122.8643    392.66668    296.12699     664.3436    82.668534 
   31000    70.772395   -110.99254   0.06403635    -110.9285   -145.26022    4.3559621    4.3559621    4.3559621   -145.26022    1086.3448    -1195.191   -326.93446   -927.15354   -661.67393     268.0415    82.651794 
   31100    135.11485   -111.05051   0.12225476   -110.92825    -2245.104    4.3580019    4.3580019    4.3580019    -2245.104    82.858042   -1209.9884   -5608.1817   -115.59123    594.23974   -135.47835    82.767958 
   31200    115.93533   -111.03333   0.10490072   -110.92843    1836.2408     4.355239     4.355239     4.355239    1836.2408    8136.8171   -2225.0554   -403.03932    319.47466    -336.4347     878.2972    82.610636 
   31300     93.21852   -111.01286  0.084346076   -110.92851    891.34565    4.3568057    4.3568057    4.3568057    891.34565    8253.3504   -1068.1805   -4511.1329    332.78365    -1855.106   -478.85873    82.699823 
   31400     107.2553   -111.02521  0.097046851   -110.92817   -1810.2496     4.357333     4.357333     4.357333   -1810.2496    713.68203   -2907.8962   -3236.5346   -862.98596    120.91113    555.21645    82.729855 
   31500    79.574375   -111.00022  0.072000567   -110.92822   -723.81879    4.3558195    4.3558195    4.3558195   -723.81879   -1664.4051    1331.6939   -1838.7451   -547.86009    133.87984    229.08415    82.643676 
   31600      85.8658   -111.00609   0.07769318    -110.9284   -1465.7044    4.3574019    4.3574019    4.3574019   -1465.7044    288.88358   -811.07996   -3874.9167    1033.4374   -1186.1929    536.03234    82.733778 
   31700    96.056812    -111.0152  0.086914222   -110.92829    1528.6245    4.3563948    4.3563948    4.3563948    1528.6245     9324.679   -2010.1584   -2728.6472   -767.13633   -337.58629    103.70994    82.676426 
   31800    122.85521   -111.03935   0.11116198   -110.92819    585.69584    4.3560528    4.3560528    4.3560528    585.69584     4417.129   -218.08125   -2441.9602    280.52012    885.21272    248.50045    82.656954 
   31900    124.80172   -111.04113   0.11292322   -110.92821   -2297.6089    4.3575032    4.3575032    4.3575032   -2297.6089    1426.1604   -4100.0282   -4218.9588   -187.46336   -1640.4678    28.762038    82.739549 
   32000    97.319308   -111.01636  0.088056555   -110.92831   -104.67562     4.356163     4.356163     4.356163   -104.67562    694.94043    1363.4959   -2372.4632    1322.8204   -121.40072   -190.04906     82.66323 
   32100    79.831855   -111.00056   0.07223354   -110.92833    154.16393    4.3561733    4.3561733    4.3561733    154.16393    2901.3087   -1843.6337   -595.18322   -603.11889   -802.71072    569.97388    82.663818 
   32200    65.701599    -110.9878  0.059448187   -110.92835    237.05709    4.3572878    4.3572878    4.3572878    237.05709    5512.5911   -670.22835   -4131.1915    760.16707    -1315.247   -310.50596     82.72728 
   32300    112.53985    -111.0299   0.10182842   -110.92807   -74.826687    4.3559411    4.3559411    4.3559411   -74.826687    620.25896   -1925.0852    1080.3462   -572.43898   -76.939999    355.34736    82.650597 
   32400    132.60463   -111.04802   0.11998346   -110.92804   -1906.8857    4.3566439    4.3566439    4.3566439   -1906.8857    339.20083    -2104.228   -3955.6299   -620.73606     580.7604   -185.23821    82.690611 
   32500    84.562972   -111.00508  0.076514354   -110.92857    1257.2825    4.3570108    4.3570108    4.3570108    1257.2825    7703.1898   -2155.0848   -1776.2574    618.26295   -255.17554    203.55246    82.711501 
   32600    135.30176   -111.05067   0.12242388   -110.92825   -217.03241    4.3556464    4.3556464    4.3556464   -217.03241    1996.8441    -1487.768   -1160.1733    974.24923    -543.8371    346.00078    82.633825 
   32700    55.662421   -110.97895  0.050364529   -110.92859     2045.766    4.3567973    4.3567973    4.3567973     2045.766    8965.1598   -1432.3021   -1395.5597    983.12291    -657.8506    412.52486    82.699342 
   32800    114.70046     -111.032   0.10378338   -110.92821   -3234.8585    4.3570022    4.3570022    4.3570022   -3234.8585   -5026.0828   -3446.2496   -1232.2431   -471.05611   -633.42444    183.61353    82.711014 
   32900    70.832288   -110.99262  0.064090542   -110.92853    1549.5008    4.3552432    4.3552432    4.3552432    1549.5008    5230.1528       761.48   -1343.1303    1415.2871    152.96747    97.315961    82.610878 
   33000    111.53369   -111.02924   0.10091803   -110.92832   -761.02798    4.3575971    4.3575971    4.3575971   -761.02798    4782.8305   -4347.2735    -2718.641   -485.33392   -1102.4983    483.71021    82.744895 
   33100     118.9157   -111.03595   0.10759743   -110.92835    921.18344     4.355827     4.355827     4.355827    921.18344    5459.2505    413.31316   -3109.0133    405.57954   -17.575772   -358.85114    82.644103 
   33200    113.23918   -111.03055   0.10246119   -110.92808    1145.1164    4.3559353    4.3559353    4.3559353    1145.1164    6136.4865   -2182.9685   -518.16878   -662.88096    163.48107    789.46587    82.650265 
   33300    109.01283   -111.02667  0.098637101   -110.92804   -2535.7907    4.3577577    4.3577577    4.3577577   -2535.7907    867.47948   -3893.0235    -4581.828     752.0108   -232.95937   -148.32581    82.754044 
   33400    46.593995   -110.97056  0.042159226    -110.9284    1171.7825    4.3550228    4.3550228    4.3550228    1171.7825    2246.3955    1869.7007   -600.74868    212.84939   -995.65637    3.7734796    82.598339 
   33500    117.25421   -111.03399   0.10609408    -110.9279   -2123.1315    4.3570589    4.3570589    4.3570589   -2123.1315    582.19465   -3392.5729   -3559.0163    1056.7226    113.38463    585.36402    82.714244 
[...]
   91300    50.674521   -110.97445  0.045851371    -110.9286    1837.8306    4.3569763    4.3569763    4.3569763    1837.8306    7637.4919   -2842.7384    718.73828    306.06167   -245.74515    201.47458    82.709536 
   91400     98.95765   -111.01786  0.089538961   -110.92832   -719.48282    4.3555127    4.3555127    4.3555127   -719.48282   -2499.9085    986.84972   -645.38964   -723.72502   -504.32378   -819.83087    82.626216 
   91500    89.528458   -111.00934  0.081007231   -110.92834    -199.7032    4.3571541    4.3571541    4.3571541    -199.7032    3767.2704   -2554.4968   -1811.8832    124.96131     938.3888    385.63605    82.719661 
   91600    129.31711   -111.04509   0.11700884   -110.92808   -1318.5309    4.3568104    4.3568104    4.3568104   -1318.5309    3712.7075   -4430.0944   -3238.2059    534.10655   -543.47863    802.22879    82.700091 
   91700    114.26664   -111.03169   0.10339086    -110.9283    2068.2279    4.3556629    4.3556629    4.3556629    2068.2279    6950.0452   -1129.8325     384.4709    149.00534    102.02265   -121.61198    82.634761 
   91800    100.81812   -111.01955  0.091222352   -110.92832    1000.4793    4.3568665    4.3568665    4.3568665    1000.4793    6803.5483   -2845.7593   -956.35113   -703.35253   -734.46667   -101.94323    82.703283 
   91900     77.90919   -110.99896  0.070493872   -110.92847     297.1551    4.3561286    4.3561286    4.3561286     297.1551    1579.7701    389.58027   -1077.8851    81.851787    334.00921    284.25587    82.661272 
   92000     94.41581   -111.01378  0.085429409   -110.92835   -1192.0331    4.3565752    4.3565752    4.3565752   -1192.0331    1208.3584   -2669.2858   -2115.1718    103.27886   -184.28573    285.39408    82.686699 
   92100    96.621187   -111.01586   0.08742488   -110.92843   -754.94905    4.3569514    4.3569514    4.3569514   -754.94905    3153.9939   -3009.2562   -2409.5848    201.66373    672.86155     729.1275    82.708122 
   92200    101.88908   -111.02054  0.092191376   -110.92835    990.29996    4.3561408    4.3561408    4.3561408    990.29996    8547.6201   -4156.9099   -1419.8104    221.49531   -620.30097     761.5051    82.661966 
   92300    121.38055   -111.03798   0.10982768   -110.92815    79.516805    4.3565386    4.3565386    4.3565386    79.516805    2000.8627   -974.45325   -787.85901   -84.322871   -707.38495   -916.22892    82.684611 
   92400    96.073901   -111.01513  0.086929685    -110.9282   -249.46633     4.356964     4.356964     4.356964   -249.46633    4635.2841   -3320.6067   -2063.0764    216.32707    506.75529    238.02246    82.708835 
   92500     116.9947   -111.03386   0.10585926     -110.928   -2741.4394    4.3563402    4.3563402    4.3563402   -2741.4394   -2971.2836   -1698.1591   -3554.8755    102.06195    182.40466    386.39403    82.673316 
   92600    60.466227   -110.98306  0.054711113   -110.92835    646.75916    4.3566755    4.3566755    4.3566755    646.75916    5069.7219   -2782.9586   -346.48582    507.40421    211.26527    382.07393    82.692409 
   92700     118.3018   -111.03504   0.10704196     -110.928   -2741.1374    4.3574112    4.3574112    4.3574112   -2741.1374     48.82382     -4988.87    -3283.366   -606.53674     -372.391    550.03028    82.734308 
   92800    55.320603   -110.97868  0.050055244   -110.92862    2914.5814    4.3554256    4.3554256    4.3554256    2914.5814    5657.3088    1031.2847    2055.1508    143.10532    548.42234   -268.04447    82.621256 
   92900    160.75943    -111.0735   0.14545851   -110.92804   -3535.6256    4.3575691    4.3575691    4.3575691   -3535.6256   -2681.2139   -4445.3905   -3480.2725    475.65854   -319.87649   -251.68673    82.743299 
   93000    77.256941   -110.99863  0.069903704   -110.92873    2499.1131    4.3558949    4.3558949    4.3558949    2499.1131     9957.622   -910.08746   -1550.1952     1072.252    555.06606    515.59861    82.647965 
   93100     134.6282   -111.05021   0.12181442    -110.9284   -1720.0275    4.3564381    4.3564381    4.3564381   -1720.0275   -84.622889   -3392.1798   -1683.2798   -79.992964   -813.62163    676.13741    82.678894 
   93200    69.797677   -110.99164  0.063154405   -110.92849    1321.4396     4.357259     4.357259     4.357259    1321.4396    7399.2288    -2719.599   -715.31092   -412.48966    322.32202   -251.08272    82.725639 
   93300    78.550317   -110.99934  0.071073978   -110.92826    648.07098    4.3553715    4.3553715    4.3553715    648.07098   -569.69797    404.63956    2109.2714    210.50975    525.93164    147.71573    82.618176 
   93400     97.82312   -111.01653  0.088512415   -110.92802   -79.247227     4.356768     4.356768     4.356768   -79.247227    3655.2298   -1628.9071   -2264.0643   -161.95645    1009.5599   -475.99215    82.697673 
   93500     104.0147   -111.02215  0.094114683   -110.92804    1408.7824    4.3568274    4.3568274    4.3568274    1408.7824    7793.5608   -2280.8481   -1286.3655    509.34142    19.806677     192.7145    82.701059 
   93600    147.01639   -111.06099   0.13302352   -110.92797   -531.92067    4.3556293    4.3556293    4.3556293   -531.92067    4786.7582   -3676.1914   -2706.3288   -76.043148   -495.39133    925.49359    82.632851 
   93700    86.194583   -111.00631   0.07799067   -110.92832    1562.8071    4.3572093    4.3572093    4.3572093    1562.8071    7342.0845   -2121.6147   -532.04841    682.17327   -353.59366    98.764189     82.72281 
   93800    105.05702   -111.02319  0.095057801   -110.92813   -1172.2122    4.3562363    4.3562363    4.3562363   -1172.2122   -679.77056   -2501.5215   -335.34461   -311.13689    3.6026112   -313.39267    82.667399 
   93900    51.978883   -110.97538  0.047031586   -110.92835    1035.9006    4.3558135    4.3558135    4.3558135    1035.9006    2957.1192    624.04668   -473.46404    719.03712    776.48389    429.46086    82.643335 
   94000    107.58898   -111.02544  0.097348766   -110.92809   -2085.3838    4.3577447    4.3577447    4.3577447   -2085.3838    1902.8166   -4079.7223   -4079.2456   -357.16921   -198.26157    407.07198    82.753305 
   94100    117.47832   -111.03443   0.10629685   -110.92813   -290.20477    4.3557395    4.3557395    4.3557395   -290.20477    3972.7859   -3415.5398   -1427.8604   -444.97045    677.43535    376.69858    82.639122 
   94200     109.1048   -111.02722  0.098720315    -110.9285   -286.77847    4.3568413    4.3568413    4.3568413   -286.77847     4480.457   -2864.0052   -2476.7871   -61.057785     339.6533    884.02698     82.70185 
   94300    115.37784   -111.03277   0.10439629   -110.92837   -1456.3487    4.3573468    4.3573468    4.3573468   -1456.3487    1422.2658   -3731.1075   -2060.2042    688.38791     743.2526   -841.09309    82.730642 
   94400    80.341345   -111.00102  0.072694537   -110.92832    573.56164      4.35531      4.35531      4.35531    573.56164    266.52231    1214.9078    239.25483    773.59215   -393.30669   -54.460386    82.614679 
   94500    91.760574   -111.01112  0.083026896   -110.92809   -1636.1396    4.3575073    4.3575073    4.3575073   -1636.1396    3352.4955   -3674.4097   -4586.5045   -702.69872    130.80834    623.53197    82.739783 
   94600    96.679234   -111.01556  0.087477403   -110.92809   -815.45941    4.3566655    4.3566655    4.3566655   -815.45941    514.27685   -1930.3894   -1030.2657    383.46536   -848.01635    377.68141     82.69184 
   94700     87.58886   -111.00769  0.079252241   -110.92844    961.11989    4.3555786    4.3555786    4.3555786    961.11989    6992.8685    -3211.045   -898.46384   -522.66023    1146.9144    382.47404    82.629966 
   94800    119.13655   -111.03627   0.10779726   -110.92848    -633.7633    4.3573904    4.3573904    4.3573904    -633.7633    754.60171   -607.72692   -2048.1647    560.83845    576.77308    8.8447716    82.733122 
   94900    106.53386   -111.02493  0.096394075   -110.92853    2064.2818    4.3555844    4.3555844    4.3555844    2064.2818    7364.7484    -1077.309   -94.593876   -184.26413    -267.1863   -221.40194    82.630295 
   95000     119.6928   -111.03653   0.10830056   -110.92823   -94.352056     4.356333     4.356333     4.356333   -94.352056    2799.0941   -542.41054   -2539.7397    386.00459   -548.20537    261.21862     82.67291 
   95100    76.269748   -110.99723  0.069010471   -110.92822    536.73489    4.3572966    4.3572966    4.3572966    536.73489    6325.8153    -2792.984   -1922.6267   -925.33164    208.33752    708.43243     82.72778 
   95200    93.470939   -111.01256   0.08457447   -110.92798    -350.8848    4.3555801    4.3555801    4.3555801    -350.8848    166.21604   -1852.0595    633.18911    272.09412    484.67504   -419.04066    82.630052 
   95300    73.802025   -110.99493  0.066777623   -110.92816     966.4595    4.3566375    4.3566375    4.3566375     966.4595    2513.7381     337.3255    48.314935   -40.078789    -498.3237   -67.255891    82.690242 
   95400    125.98842   -111.04201   0.11399697   -110.92802    -586.1967    4.3571213    4.3571213    4.3571213    -586.1967     4098.689   -3203.2324   -2654.0468   -704.80109    393.88612   -110.65402    82.717798 
   95500    110.80173    -111.0284   0.10025573   -110.92815    1946.5389     4.355314     4.355314     4.355314    1946.5389    6420.0633    267.41965   -847.86625   -172.67094   -841.46398    307.01625    82.614907 
   95600    124.15105   -111.04029   0.11233448   -110.92796   -1927.1813     4.357727     4.357727     4.357727   -1927.1813    3707.4553   -5746.0693   -3742.9298    423.34097    245.08981    795.11673    82.752298 
   95700    78.372787   -110.99906  0.070913345   -110.92814   -407.71816    4.3565498    4.3565498    4.3565498   -407.71816    691.62641   -687.15523   -1227.6257    662.81901   -270.18396    403.17097    82.685249 
   95800     90.13161   -111.00958  0.081552975   -110.92803   -1445.8959    4.3559919    4.3559919    4.3559919   -1445.8959   -3072.0937   -1965.4125    699.81835   -1027.1476    537.11079   -519.20746    82.653487 
   95900    68.726983   -110.99058  0.062185618    -110.9284      261.313    4.3575142    4.3575142    4.3575142      261.313    5162.3029   -585.04805   -3793.3159   -33.923373   -946.39773    372.13177    82.740177 
   96000    120.38122   -111.03738   0.10892346   -110.92845   -427.59282    4.3557454    4.3557454    4.3557454   -427.59282     3750.421   -2886.2474    -2146.952   -1366.3523    668.89112    577.94935     82.63946 
   96100    120.36052   -111.03731   0.10890472    -110.9284   -776.15187    4.3568169    4.3568169    4.3568169   -776.15187    4674.5495   -3392.4665   -3610.5386   -82.090554    348.86901    11.017544    82.700459 
   96200    111.91472   -111.02953   0.10126279   -110.92827   -1465.1626    4.3575154    4.3575154    4.3575154   -1465.1626    1161.8507    -2867.763   -2689.5756    535.83264     118.0289    811.38741    82.740246 
   96300    106.56907   -111.02457  0.096425939   -110.92815   -217.97561    4.3554362    4.3554362    4.3554362   -217.97561    686.27493   -600.69899   -739.50277    485.84834   -1412.5495   -456.66389    82.621858 
   96400     47.18903   -110.97111  0.042697626   -110.92841    2379.0662    4.3568884    4.3568884    4.3568884    2379.0662    7750.2939     753.6225   -1366.7177   -906.49219   -1243.8252   -225.46004    82.704532 
   96500    120.03451   -111.03677   0.10860975   -110.92816   -2630.9073    4.3570378    4.3570378    4.3570378   -2630.9073    311.33815   -3809.3471   -4394.7128    114.48778    315.61091    637.70242    82.713039 
   96600    74.280386    -110.9957  0.067210454   -110.92849    1673.9527    4.3557263    4.3557263    4.3557263    1673.9527    6398.0353   -262.87283   -1113.3043    169.95183   -744.52994    502.57866     82.63837 
   96700    152.48189   -111.06615   0.13796882   -110.92818   -3189.0379     4.357694     4.357694     4.357694   -3189.0379   -961.31837   -5028.6427   -3577.1525   -1043.7079    952.72546   -109.06666    82.750416 
   96800    74.596495    -110.9962  0.067496477    -110.9287    3495.9345     4.355746     4.355746     4.355746    3495.9345    9985.5713    1614.8649   -1112.6327   -192.93898   -829.72457    110.40601    82.639492 
   96900    123.87469   -111.04021   0.11208443   -110.92812  -0.45628803    4.3562311    4.3562311    4.3562311  -0.45628803    1672.8667   -1215.8114   -458.42421    96.146003    193.88599   -71.186916    82.667107 
   97000     81.35005    -111.0018  0.073607235   -110.92819   -167.47321    4.3572551    4.3572551    4.3572551   -167.47321    5039.4343   -1419.5104   -4122.3434    379.97648    -863.8461    31.450586    82.725417 
   97100    92.011966   -111.01133  0.083254361   -110.92808   -1617.5974    4.3560336    4.3560336    4.3560336   -1617.5974   -3347.0605   -1598.2357    92.504021   -333.96203    761.32962    722.07216    82.655862 
   97200    94.977296   -111.01411  0.085937453   -110.92817    -798.5248     4.356647     4.356647     4.356647    -798.5248    4129.2796   -3066.9021   -3457.9519    559.38845    -1234.107     -287.666    82.690785 
   97300    88.032403   -111.00791  0.079653568   -110.92826    1319.2676    4.3570817    4.3570817    4.3570817    1319.2676    3556.7582     64.44327    336.60141   -1207.3499   -793.04213   -266.50878    82.715538 
   97400    126.77713   -111.04278   0.11471061   -110.92807    607.77389    4.3554762    4.3554762    4.3554762    607.77389    5584.2763   -1665.2417   -2095.7129   -528.41359    500.19897    128.44412    82.624138 
   97500     116.7716   -111.03374    0.1056574   -110.92808   -478.46058    4.3571207    4.3571207    4.3571207   -478.46058    2046.3613   -1502.1529   -1979.5901     667.2352    282.96062    350.93775    82.717763 
   97600    98.806321   -111.01768  0.089402035   -110.92828   -1689.3159    4.3568021    4.3568021    4.3568021   -1689.3159    1005.0073   -3371.6223   -2701.3327    445.44569    499.25197    666.38193    82.699617 
   97700    81.550269   -111.00229  0.073788397    -110.9285   -606.26603    4.3558072    4.3558072    4.3558072   -606.26603    621.73719   -1385.1764   -1055.3588   -865.33521   -729.58223    684.01218    82.642977 
   97800    70.882979   -110.99273  0.064136409    -110.9286     1169.551    4.3573546    4.3573546    4.3573546     1169.551    5196.6158   -890.62044   -797.34225   -288.10894    345.43337   -633.71354    82.731084 
   97900    114.14126   -111.03166   0.10327741   -110.92838    -101.9153    4.3558061    4.3558061    4.3558061    -101.9153    2376.1655   -911.15996   -1770.7515     330.8763   -1222.8778    72.568018    82.642914 
   98000    111.10302   -111.02883   0.10052835    -110.9283    224.39778     4.356418     4.356418     4.356418    224.39778    4261.4807   -2411.8094    -1176.478   -374.18131     1427.569    584.59859    82.677746 
   98100    129.35891   -111.04509   0.11704666   -110.92804    -1538.189    4.3574544    4.3574544    4.3574544    -1538.189     4672.852   -4072.8819   -5214.5371    368.95357   -1048.1822   -232.58103     82.73677 
   98200    94.857741   -111.01399  0.085829277   -110.92816    182.65817    4.3554859    4.3554859    4.3554859    182.65817   -778.31177   -156.49596    1482.7822    423.13863     124.4386    438.56606     82.62469 
   98300     70.49971   -110.99196  0.063789619   -110.92817    886.63368     4.356999     4.356999     4.356999    886.63368    6607.1811   -1339.0542   -2608.2259    7.0313668   -688.59406    25.788626    82.710832 
   98400    101.33834   -111.01965  0.091693059   -110.92795   -906.12087      4.35664      4.35664      4.35664   -906.12087   -2602.5651    94.060819   -209.85832   -151.14455    1109.6479   -271.82337    82.690388 
   98500    69.510081   -110.99127  0.062894182   -110.92837    1163.4821    4.3556994    4.3556994    4.3556994    1163.4821    7385.8775   -2139.1036   -1756.3277    856.10046    129.86462    590.76941    82.636841 
   98600    148.87701   -111.06266   0.13470704   -110.92795   -3235.3611    4.3576161    4.3576161    4.3576161   -3235.3611   -878.28893   -4622.4187   -4205.3756   -994.78985   -152.43257    661.16396    82.745977 
   98700    93.151762   -111.01258  0.084285672    -110.9283    2323.6245    4.3557077    4.3557077    4.3557077    2323.6245    7364.8874    105.99142    -500.0054   -523.65189    546.52391   -484.61386    82.637314 
   98800    126.58953   -111.04268   0.11454087   -110.92814   -1016.4494    4.3567222    4.3567222    4.3567222   -1016.4494    415.26888   -1847.1409   -1617.4763    878.37169   -146.00443   -204.47352    82.695069 
   98900    62.341912   -110.98494  0.056408272   -110.92853    1780.2306    4.3565334    4.3565334    4.3565334    1780.2306    6435.7204    158.79169   -1253.8203    1041.1758    1500.5405    174.34794    82.684317 
   99000    98.525079    -111.0174  0.089147562   -110.92825   -1416.8012    4.3560303    4.3560303    4.3560303   -1416.8012   -568.03725    -1944.013   -1738.3535   -228.14363   -731.54976     3.918438    82.655676 
   99100    85.739823    -111.0059  0.077579194   -110.92832   -1167.4151    4.3569084    4.3569084    4.3569084   -1167.4151    1673.9458   -3264.9791   -1911.2121   -58.936577    864.28532    671.91688    82.705673 
   99200    118.69117   -111.03546   0.10739427   -110.92807   -355.30587    4.3566382    4.3566382    4.3566382   -355.30587    4978.1296   -2866.3859   -3177.6613   -57.888868   -815.50205    169.28834    82.690285 
   99300    109.75748   -111.02758  0.099310874   -110.92827    2041.9311    4.3560587    4.3560587    4.3560587    2041.9311    5804.5956    222.17887    99.018739   -442.25987    1627.0858   -407.53733    82.657292 
   99400    103.14328   -111.02178  0.093326211   -110.92845    178.41083    4.3565199    4.3565199    4.3565199    178.41083     6027.819    -2843.936   -2648.6505    479.13757    658.60486    267.41275    82.683547 
   99500    103.55888   -111.02198  0.093702255   -110.92828   -1120.0042    4.3565965    4.3565965    4.3565965   -1120.0042     1004.007   -1768.1896     -2595.83    379.38636    637.75743    469.62689    82.687911 
   99600    89.770638   -111.00941   0.08122636   -110.92819   -1309.4022    4.3566907    4.3566907    4.3566907   -1309.4022    239.12652   -2476.9482   -1690.3849   -454.84012   -310.10863    278.20964    82.693275 
   99700     87.85269   -111.00775   0.07949096   -110.92826   -1126.9216    4.3568501    4.3568501    4.3568501   -1126.9216    4239.7622   -4386.3571   -3234.1698    22.413598    288.21895    663.21588    82.702351 
   99800    79.549666    -111.0002  0.071978209   -110.92823     2304.885    4.3562644    4.3562644    4.3562644     2304.885    6955.0068    783.04064   -823.39258    1127.1879    888.96736   -326.37457    82.669001 
   99900    133.38621   -111.04861   0.12069065   -110.92792   -1140.4248    4.3564678    4.3564678    4.3564678   -1140.4248    2115.3332    -3444.349   -2092.2586    -575.3422   -418.88442   -218.05921    82.680583 
  100000    100.59848   -111.01922  0.091023621    -110.9282   -411.59666    4.3570818    4.3570818    4.3570818   -411.59666    4759.0935   -2758.8669   -3235.0166    -187.0069    549.69859    778.24308    82.715548 
Loop time of 21.8566 on 1 procs for 100000 steps with 8 atoms

Pair  time (%) = 6.80364 (31.1286)
Kspce time (%) = 5.31288 (24.3079)
Neigh time (%) = 0 (0)
Comm  time (%) = 1.07899 (4.93668)
Outpt time (%) = 0.0238099 (0.108937)
Other time (%) = 8.63724 (39.5178)

Nlocal:    8 ave 8 max 8 min
Histogram: 1 0 0 0 0 0 0 0 0 0
Nghost:    2189 ave 2189 max 2189 min
Histogram: 1 0 0 0 0 0 0 0 0 0
Neighs:    2056 ave 2056 max 2056 min
Histogram: 1 0 0 0 0 0 0 0 0 0

Total # of neighbors = 2056
Ave neighs/atom = 257
Neighbor list builds = 0
Dangerous builds = 0
unfix 20
unfix 21
print "seeds:309434"
seeds:309434
