# ['Ni']

28 atoms
1 atom types

    0.0000     2.2768 xlo xhi
    0.0000     3.9435 ylo yhi
    0.0000    26.0261 zlo zhi

    0.0000     0.0000     0.0000 xy xz yz

Atoms

1 1     0.0000     0.0000     0.0000
2 1     1.1384     1.9718     0.0000
3 1     1.1384     0.6573     1.8590
4 1     0.0000     2.6290     1.8590
5 1     0.0000     1.3145     3.7180
6 1     1.1384     3.2863     3.7180
7 1     0.0000     0.0000     5.5770
8 1     1.1384     1.9718     5.5770
9 1     1.1384     0.6573     7.4360
10 1     0.0000     2.6290     7.4360
11 1     0.0000     1.3145     9.2950
12 1     1.1384     3.2863     9.2950
13 1     0.0000     0.0000    11.1540
14 1     1.1384     1.9718    11.1540
15 1     0.0000     1.3145    13.0130
16 1     1.1384     3.2863    13.0130
17 1     0.0000     0.0000    14.8721
18 1     1.1384     1.9718    14.8721
19 1     1.1384     0.6573    16.7310
20 1     0.0000     2.6290    16.7310
21 1     0.0000     1.3145    18.5901
22 1     1.1384     3.2863    18.5901
23 1     0.0000     0.0000    20.4491
24 1     1.1384     1.9718    20.4491
25 1     1.1384     0.6573    22.3081
26 1     0.0000     2.6290    22.3081
27 1     0.0000     1.3145    24.1671
28 1     1.1384     3.2863    24.1671
