# ['Al']

10 atoms
1 atom types

    0.0000     3.7336 xlo xhi
    0.0000     2.6727 ylo yhi
    0.0000    26.7267 zlo zhi

    0.0000     0.0000     0.0000 xy xz yz

Atoms

1 1     0.0000     0.0000     0.0000
2 1     1.8668     1.3363     1.3363
3 1     0.0000     0.0000     2.6727
4 1     1.8668     1.3363     4.0090
5 1     0.0000     0.0000     5.3453
6 1     1.8668     1.3363     6.6817
7 1     0.0000     0.0000     8.0180
8 1     1.8668     1.3363     9.3543
9 1     0.0000     0.0000    10.6907
10 1     1.8668     1.3363    12.0270
