   2   2   0   0
  0.9639684E+01  0.3009788E-09  0.3009788E-09  0.3009788E-09  0.5000000E-15
  1.000000000000000E-004
  CAR 
 automatically generated by pyflamestk   
     43.83095411    -16.34910193  301      3.53539159      1.00000000
    -16.349  0.0000E+00  0.0000E+00
    -16.149  0.0000E+00  0.0000E+00
    -15.948  0.0000E+00  0.0000E+00
    -15.747  0.0000E+00  0.0000E+00
    -15.547  0.0000E+00  0.0000E+00
    -15.346  0.0000E+00  0.0000E+00
    -15.146  0.0000E+00  0.0000E+00
    -14.945  0.0000E+00  0.0000E+00
    -14.744  0.0000E+00  0.0000E+00
    -14.544  0.0000E+00  0.0000E+00
    -14.343  0.0000E+00  0.0000E+00
    -14.142  0.0000E+00  0.0000E+00
    -13.942  0.0000E+00  0.0000E+00
    -13.741  0.4759E-04  0.9546E-05
    -13.541  0.3054E+00  0.6128E-01
    -13.340  0.1238E-01  0.6376E-01
    -13.139  0.9278E+00  0.2499E+00
    -12.939  0.7268E+00  0.3957E+00
    -12.738  0.8574E+00  0.5676E+00
    -12.538  0.2648E+01  0.1099E+01
    -12.337  0.3009E+01  0.1702E+01
    -12.136  0.1484E+01  0.2000E+01
    -11.936  0.1134E-06  0.2000E+01
    -11.735  0.0000E+00  0.2000E+01
    -11.535  0.0000E+00  0.2000E+01
    -11.334  0.0000E+00  0.2000E+01
    -11.133  0.0000E+00  0.2000E+01
    -10.933  0.0000E+00  0.2000E+01
    -10.732  0.0000E+00  0.2000E+01
    -10.532  0.0000E+00  0.2000E+01
    -10.331  0.0000E+00  0.2000E+01
    -10.130  0.0000E+00  0.2000E+01
     -9.930  0.0000E+00  0.2000E+01
     -9.729  0.0000E+00  0.2000E+01
     -9.529  0.0000E+00  0.2000E+01
     -9.328  0.0000E+00  0.2000E+01
     -9.127  0.0000E+00  0.2000E+01
     -8.927  0.0000E+00  0.2000E+01
     -8.726  0.0000E+00  0.2000E+01
     -8.526  0.0000E+00  0.2000E+01
     -8.325  0.0000E+00  0.2000E+01
     -8.124  0.0000E+00  0.2000E+01
     -7.924  0.0000E+00  0.2000E+01
     -7.723  0.0000E+00  0.2000E+01
     -7.523  0.0000E+00  0.2000E+01
     -7.322  0.0000E+00  0.2000E+01
     -7.121  0.0000E+00  0.2000E+01
     -6.921  0.0000E+00  0.2000E+01
     -6.720  0.0000E+00  0.2000E+01
     -6.520  0.0000E+00  0.2000E+01
     -6.319  0.0000E+00  0.2000E+01
     -6.118  0.0000E+00  0.2000E+01
     -5.918  0.0000E+00  0.2000E+01
     -5.717  0.0000E+00  0.2000E+01
     -5.517  0.0000E+00  0.2000E+01
     -5.316  0.0000E+00  0.2000E+01
     -5.115  0.0000E+00  0.2000E+01
     -4.915  0.0000E+00  0.2000E+01
     -4.714  0.0000E+00  0.2000E+01
     -4.514  0.0000E+00  0.2000E+01
     -4.313  0.0000E+00  0.2000E+01
     -4.112  0.0000E+00  0.2000E+01
     -3.912  0.0000E+00  0.2000E+01
     -3.711  0.0000E+00  0.2000E+01
     -3.511  0.0000E+00  0.2000E+01
     -3.310  0.0000E+00  0.2000E+01
     -3.109  0.0000E+00  0.2000E+01
     -2.909  0.0000E+00  0.2000E+01
     -2.708  0.0000E+00  0.2000E+01
     -2.508  0.0000E+00  0.2000E+01
     -2.307  0.0000E+00  0.2000E+01
     -2.106  0.0000E+00  0.2000E+01
     -1.906  0.0000E+00  0.2000E+01
     -1.705  0.0000E+00  0.2000E+01
     -1.505  0.0000E+00  0.2000E+01
     -1.304  0.0000E+00  0.2000E+01
     -1.103  0.5765E-11  0.2000E+01
     -0.903  0.1263E+00  0.2025E+01
     -0.702  0.8089E+00  0.2188E+01
     -0.502  0.3122E+00  0.2250E+01
     -0.301  0.1299E+01  0.2511E+01
     -0.100  0.2516E+01  0.3015E+01
      0.100  0.2513E+01  0.3519E+01
      0.301  0.1051E+01  0.3730E+01
      0.501  0.9850E-01  0.3750E+01
      0.702  0.9723E-12  0.3750E+01
      0.903  0.1371E+00  0.3778E+01
      1.103  0.2724E+01  0.4324E+01
      1.304  0.8776E+00  0.4500E+01
      1.504  0.1314E-05  0.4500E+01
      1.705  0.1837E+01  0.4868E+01
      1.906  0.9677E+00  0.5063E+01
      2.106  0.1967E+01  0.5457E+01
      2.307  0.2638E+01  0.5986E+01
      2.507  0.3369E+01  0.6662E+01
      2.708  0.2609E+01  0.7186E+01
      2.909  0.2001E+01  0.7587E+01
      3.109  0.1436E+01  0.7875E+01
      3.310  0.5892E+00  0.7993E+01
      3.510  0.3394E-01  0.8000E+01
      3.711  0.0000E+00  0.8000E+01
      3.912  0.0000E+00  0.8000E+01
      4.112  0.0000E+00  0.8000E+01
      4.313  0.0000E+00  0.8000E+01
      4.513  0.0000E+00  0.8000E+01
      4.714  0.0000E+00  0.8000E+01
      4.915  0.0000E+00  0.8000E+01
      5.115  0.0000E+00  0.8000E+01
      5.316  0.0000E+00  0.8000E+01
      5.516  0.0000E+00  0.8000E+01
      5.717  0.0000E+00  0.8000E+01
      5.918  0.0000E+00  0.8000E+01
      6.118  0.0000E+00  0.8000E+01
      6.319  0.0000E+00  0.8000E+01
      6.519  0.0000E+00  0.8000E+01
      6.720  0.0000E+00  0.8000E+01
      6.921  0.0000E+00  0.8000E+01
      7.121  0.0000E+00  0.8000E+01
      7.322  0.0000E+00  0.8000E+01
      7.522  0.0000E+00  0.8000E+01
      7.723  0.0000E+00  0.8000E+01
      7.924  0.0000E+00  0.8000E+01
      8.124  0.0000E+00  0.8000E+01
      8.325  0.0000E+00  0.8000E+01
      8.525  0.4014E-06  0.8000E+01
      8.726  0.2600E+00  0.8052E+01
      8.927  0.5158E-01  0.8062E+01
      9.127  0.0000E+00  0.8062E+01
      9.328  0.0000E+00  0.8062E+01
      9.528  0.0000E+00  0.8062E+01
      9.729  0.0000E+00  0.8062E+01
      9.930  0.0000E+00  0.8062E+01
     10.130  0.7517E-05  0.8063E+01
     10.331  0.8535E+00  0.8234E+01
     10.531  0.8116E-01  0.8250E+01
     10.732  0.6744E-08  0.8250E+01
     10.933  0.1801E+00  0.8286E+01
     11.133  0.7773E+00  0.8442E+01
     11.334  0.2888E+00  0.8500E+01
     11.534  0.6430E-07  0.8500E+01
     11.735  0.6145E+00  0.8623E+01
     11.936  0.3202E+00  0.8687E+01
     12.136  0.1343E-01  0.8690E+01
     12.337  0.9210E+00  0.8875E+01
     12.537  0.1857E+00  0.8912E+01
     12.738  0.1684E+01  0.9250E+01
     12.939  0.9267E+00  0.9436E+01
     13.139  0.9135E+00  0.9619E+01
     13.340  0.2868E-01  0.9625E+01
     13.540  0.8775E+00  0.9801E+01
     13.741  0.6173E+00  0.9925E+01
     13.942  0.2078E+01  0.1034E+02
     14.142  0.1663E+00  0.1037E+02
     14.343  0.0000E+00  0.1038E+02
     14.543  0.1138E-09  0.1038E+02
     14.744  0.5695E+00  0.1049E+02
     14.945  0.3169E+01  0.1112E+02
     15.145  0.6302E-02  0.1113E+02
     15.346  0.1871E+01  0.1150E+02
     15.546  0.2672E+01  0.1204E+02
     15.747  0.1370E+01  0.1231E+02
     15.948  0.2649E-01  0.1232E+02
     16.148  0.1621E+01  0.1264E+02
     16.349  0.2218E+00  0.1269E+02
     16.549  0.0000E+00  0.1269E+02
     16.750  0.2471E-06  0.1269E+02
     16.951  0.1310E+01  0.1295E+02
     17.151  0.9205E+00  0.1313E+02
     17.352  0.8493E+00  0.1331E+02
     17.552  0.3582E-01  0.1331E+02
     17.753  0.3972E-05  0.1331E+02
     17.954  0.8310E+00  0.1348E+02
     18.154  0.1037E+00  0.1350E+02
     18.355  0.4831E-13  0.1350E+02
     18.555  0.3643E-01  0.1351E+02
     18.756  0.8982E+00  0.1369E+02
     18.957  0.4292E-04  0.1369E+02
     19.157  0.1954E-05  0.1369E+02
     19.358  0.5878E+00  0.1381E+02
     19.558  0.2698E+01  0.1435E+02
     19.759  0.1567E+01  0.1466E+02
     19.960  0.1010E+01  0.1486E+02
     20.160  0.1705E+01  0.1521E+02
     20.361  0.1162E+01  0.1544E+02
     20.561  0.9287E+00  0.1562E+02
     20.762  0.2715E+00  0.1568E+02
     20.963  0.6644E+00  0.1581E+02
     21.163  0.9465E+00  0.1600E+02
     21.364  0.9227E+00  0.1619E+02
     21.564  0.1848E+01  0.1656E+02
     21.765  0.2091E-01  0.1656E+02
     21.966  0.1265E-04  0.1656E+02
     22.166  0.8694E+00  0.1674E+02
     22.367  0.6532E-01  0.1675E+02
     22.567  0.8938E+00  0.1693E+02
     22.768  0.1871E+01  0.1730E+02
     22.969  0.5150E+00  0.1741E+02
     23.169  0.1394E+01  0.1769E+02
     23.370  0.2625E-05  0.1769E+02
     23.570  0.5484E+00  0.1780E+02
     23.771  0.9912E+00  0.1800E+02
     23.972  0.1890E-01  0.1800E+02
     24.172  0.3101E+00  0.1806E+02
     24.373  0.8416E+00  0.1823E+02
     24.573  0.7168E+00  0.1837E+02
     24.774  0.1599E-02  0.1838E+02
     24.975  0.1213E+01  0.1862E+02
     25.175  0.3180E-01  0.1863E+02
     25.376  0.1357E+01  0.1890E+02
     25.576  0.1245E+01  0.1915E+02
     25.777  0.2023E+00  0.1919E+02
     25.978  0.8270E+00  0.1935E+02
     26.178  0.1042E+01  0.1956E+02
     26.379  0.2383E+00  0.1961E+02
     26.579  0.2566E+01  0.2012E+02
     26.780  0.4882E-02  0.2013E+02
     26.981  0.9308E+00  0.2031E+02
     27.181  0.9356E+00  0.2050E+02
     27.382  0.3098E+00  0.2056E+02
     27.582  0.8053E-04  0.2056E+02
     27.783  0.0000E+00  0.2056E+02
     27.984  0.0000E+00  0.2056E+02
     28.184  0.0000E+00  0.2056E+02
     28.385  0.3459E-16  0.2056E+02
     28.585  0.2299E-02  0.2056E+02
     28.786  0.6463E+00  0.2069E+02
     28.987  0.2770E+01  0.2125E+02
     29.187  0.9424E+00  0.2144E+02
     29.388  0.4236E+00  0.2152E+02
     29.588  0.5119E+00  0.2162E+02
     29.789  0.2346E-05  0.2163E+02
     29.990  0.2085E+01  0.2204E+02
     30.190  0.1578E+01  0.2236E+02
     30.391  0.1397E+01  0.2264E+02
     30.591  0.5488E+00  0.2275E+02
     30.792  0.5045E-07  0.2275E+02
     30.993  0.5843E+00  0.2287E+02
     31.193  0.1285E+01  0.2312E+02
     31.394  0.7546E+00  0.2328E+02
     31.594  0.1638E+01  0.2360E+02
     31.795  0.2282E+01  0.2406E+02
     31.996  0.1170E+01  0.2430E+02
     32.196  0.1278E+01  0.2455E+02
     32.397  0.4370E+01  0.2543E+02
     32.597  0.1099E+00  0.2545E+02
     32.798  0.2745E+01  0.2600E+02
     32.999  0.9205E+00  0.2619E+02
     33.199  0.7141E+00  0.2633E+02
     33.400  0.1779E+01  0.2669E+02
     33.600  0.2819E-05  0.2669E+02
     33.801  0.0000E+00  0.2669E+02
     34.002  0.0000E+00  0.2669E+02
     34.202  0.0000E+00  0.2669E+02
     34.403  0.0000E+00  0.2669E+02
     34.603  0.3678E-09  0.2669E+02
     34.804  0.3243E+00  0.2675E+02
     35.005  0.2479E+01  0.2725E+02
     35.205  0.4521E-03  0.2725E+02
     35.406  0.8160E+00  0.2741E+02
     35.606  0.2737E+01  0.2796E+02
     35.807  0.7773E+00  0.2812E+02
     36.008  0.3433E+00  0.2819E+02
     36.208  0.3259E-03  0.2819E+02
     36.409  0.1885E+01  0.2857E+02
     36.609  0.9185E+00  0.2875E+02
     36.810  0.1271E+00  0.2878E+02
     37.011  0.4961E+00  0.2888E+02
     37.211  0.9781E+00  0.2907E+02
     37.412  0.8962E+00  0.2925E+02
     37.612  0.9289E+00  0.2944E+02
     37.813  0.7074E+00  0.2958E+02
     38.014  0.1163E+01  0.2981E+02
     38.214  0.8443E+00  0.2998E+02
     38.415  0.9041E-01  0.3000E+02
     38.615  0.1884E-10  0.3000E+02
     38.816  0.2313E+00  0.3005E+02
     39.017  0.3785E+01  0.3081E+02
     39.217  0.3358E-01  0.3081E+02
     39.418  0.0000E+00  0.3081E+02
     39.618  0.0000E+00  0.3081E+02
     39.819  0.1038E-15  0.3081E+02
     40.020  0.4805E-02  0.3081E+02
     40.220  0.9290E+00  0.3100E+02
     40.421  0.8814E-03  0.3100E+02
     40.621  0.3201E-07  0.3100E+02
     40.822  0.2132E+00  0.3104E+02
     41.023  0.1438E+01  0.3133E+02
     41.223  0.3334E+01  0.3200E+02
     41.424  0.2393E-03  0.3200E+02
     41.624  0.0000E+00  0.3200E+02
     41.825  0.0000E+00  0.3200E+02
     42.026  0.0000E+00  0.3200E+02
     42.226  0.0000E+00  0.3200E+02
     42.427  0.0000E+00  0.3200E+02
     42.627  0.0000E+00  0.3200E+02
     42.828  0.0000E+00  0.3200E+02
     43.029  0.0000E+00  0.3200E+02
     43.229  0.0000E+00  0.3200E+02
     43.430  0.0000E+00  0.3200E+02
     43.630  0.0000E+00  0.3200E+02
     43.831  0.0000E+00  0.3200E+02
