# ['Mg', 'O']

216 atoms
2 atom types

    0.0000    12.6321 xlo xhi
    0.0000    12.6321 ylo yhi
    0.0000    12.6321 zlo zhi

    0.0000     0.0000     0.0000 xy xz yz

Atoms

1 1     1.0000     2.1053     2.1053     0.0000
2 1     1.0000     2.1053     0.0000     2.1053
3 1     1.0000     0.0000     0.0000     0.0000
4 1     1.0000     0.0000     2.1053     2.1053
5 1     1.0000     2.1053     2.1053     4.2107
6 1     1.0000     2.1053     0.0000     6.3160
7 1     1.0000     0.0000     0.0000     4.2107
8 1     1.0000     0.0000     2.1053     6.3160
9 1     1.0000     2.1053     2.1053     8.4214
10 1     1.0000     2.1053     0.0000    10.5267
11 1     1.0000     0.0000     0.0000     8.4214
12 1     1.0000     0.0000     2.1053    10.5267
13 1     1.0000     2.1053     6.3160     0.0000
14 1     1.0000     2.1053     4.2107     2.1053
15 1     1.0000     0.0000     4.2107     0.0000
16 1     1.0000     0.0000     6.3160     2.1053
17 1     1.0000     2.1053     6.3160     4.2107
18 1     1.0000     2.1053     4.2107     6.3160
19 1     1.0000     0.0000     4.2107     4.2107
20 1     1.0000     0.0000     6.3160     6.3160
21 1     1.0000     2.1053     6.3160     8.4214
22 1     1.0000     2.1053     4.2107    10.5267
23 1     1.0000     0.0000     4.2107     8.4214
24 1     1.0000     0.0000     6.3160    10.5267
25 1     1.0000     2.1053    10.5267     0.0000
26 1     1.0000     2.1053     8.4214     2.1053
27 1     1.0000     0.0000     8.4214     0.0000
28 1     1.0000     0.0000    10.5267     2.1053
29 1     1.0000     2.1053    10.5267     4.2107
30 1     1.0000     2.1053     8.4214     6.3160
31 1     1.0000     0.0000     8.4214     4.2107
32 1     1.0000     0.0000    10.5267     6.3160
33 1     1.0000     2.1053    10.5267     8.4214
34 1     1.0000     2.1053     8.4214    10.5267
35 1     1.0000     0.0000     8.4214     8.4214
36 1     1.0000     0.0000    10.5267    10.5267
37 1     1.0000     6.3160     2.1053     0.0000
38 1     1.0000     6.3160     0.0000     2.1053
39 1     1.0000     4.2107     0.0000     0.0000
40 1     1.0000     4.2107     2.1053     2.1053
41 1     1.0000     6.3160     2.1053     4.2107
42 1     1.0000     6.3160     0.0000     6.3160
43 1     1.0000     4.2107     0.0000     4.2107
44 1     1.0000     4.2107     2.1053     6.3160
45 1     1.0000     6.3160     2.1053     8.4214
46 1     1.0000     6.3160     0.0000    10.5267
47 1     1.0000     4.2107     0.0000     8.4214
48 1     1.0000     4.2107     2.1053    10.5267
49 1     1.0000     6.3160     6.3160     0.0000
50 1     1.0000     6.3160     4.2107     2.1053
51 1     1.0000     4.2107     4.2107     0.0000
52 1     1.0000     4.2107     6.3160     2.1053
53 1     1.0000     6.3160     6.3160     4.2107
54 1     1.0000     6.3160     4.2107     6.3160
55 1     1.0000     4.2107     4.2107     4.2107
56 1     1.0000     4.2107     6.3160     6.3160
57 1     1.0000     6.3160     6.3160     8.4214
58 1     1.0000     6.3160     4.2107    10.5267
59 1     1.0000     4.2107     4.2107     8.4214
60 1     1.0000     4.2107     6.3160    10.5267
61 1     1.0000     6.3160    10.5267     0.0000
62 1     1.0000     6.3160     8.4214     2.1053
63 1     1.0000     4.2107     8.4214     0.0000
64 1     1.0000     4.2107    10.5267     2.1053
65 1     1.0000     6.3160    10.5267     4.2107
66 1     1.0000     6.3160     8.4214     6.3160
67 1     1.0000     4.2107     8.4214     4.2107
68 1     1.0000     4.2107    10.5267     6.3160
69 1     1.0000     6.3160    10.5267     8.4214
70 1     1.0000     6.3160     8.4214    10.5267
71 1     1.0000     4.2107     8.4214     8.4214
72 1     1.0000     4.2107    10.5267    10.5267
73 1     1.0000    10.5267     2.1053     0.0000
74 1     1.0000    10.5267     0.0000     2.1053
75 1     1.0000     8.4214     0.0000     0.0000
76 1     1.0000     8.4214     2.1053     2.1053
77 1     1.0000    10.5267     2.1053     4.2107
78 1     1.0000    10.5267     0.0000     6.3160
79 1     1.0000     8.4214     0.0000     4.2107
80 1     1.0000     8.4214     2.1053     6.3160
81 1     1.0000    10.5267     2.1053     8.4214
82 1     1.0000    10.5267     0.0000    10.5267
83 1     1.0000     8.4214     0.0000     8.4214
84 1     1.0000     8.4214     2.1053    10.5267
85 1     1.0000    10.5267     6.3160     0.0000
86 1     1.0000    10.5267     4.2107     2.1053
87 1     1.0000     8.4214     4.2107     0.0000
88 1     1.0000     8.4214     6.3160     2.1053
89 1     1.0000    10.5267     6.3160     4.2107
90 1     1.0000    10.5267     4.2107     6.3160
91 1     1.0000     8.4214     4.2107     4.2107
92 1     1.0000     8.4214     6.3160     6.3160
93 1     1.0000    10.5267     6.3160     8.4214
94 1     1.0000    10.5267     4.2107    10.5267
95 1     1.0000     8.4214     4.2107     8.4214
96 1     1.0000     8.4214     6.3160    10.5267
97 1     1.0000    10.5267    10.5267     0.0000
98 1     1.0000    10.5267     8.4214     2.1053
99 1     1.0000     8.4214     8.4214     0.0000
100 1     1.0000     8.4214    10.5267     2.1053
101 1     1.0000    10.5267    10.5267     4.2107
102 1     1.0000    10.5267     8.4214     6.3160
103 1     1.0000     8.4214     8.4214     4.2107
104 1     1.0000     8.4214    10.5267     6.3160
105 1     1.0000    10.5267    10.5267     8.4214
106 1     1.0000    10.5267     8.4214    10.5267
107 1     1.0000     8.4214     8.4214     8.4214
108 1     1.0000     8.4214    10.5267    10.5267
109 2     1.0000     0.0000     2.1053     0.0000
110 2     1.0000     2.1053     0.0000     0.0000
111 2     1.0000     2.1053     2.1053     2.1053
112 2     1.0000     0.0000     0.0000     2.1053
113 2     1.0000     0.0000     2.1053     4.2107
114 2     1.0000     2.1053     0.0000     4.2107
115 2     1.0000     2.1053     2.1053     6.3160
116 2     1.0000     0.0000     0.0000     6.3160
117 2     1.0000     0.0000     2.1053     8.4214
118 2     1.0000     2.1053     0.0000     8.4214
119 2     1.0000     2.1053     2.1053    10.5267
120 2     1.0000     0.0000     0.0000    10.5267
121 2     1.0000     0.0000     6.3160     0.0000
122 2     1.0000     2.1053     4.2107     0.0000
123 2     1.0000     2.1053     6.3160     2.1053
124 2     1.0000     0.0000     4.2107     2.1053
125 2     1.0000     0.0000     6.3160     4.2107
126 2     1.0000     2.1053     4.2107     4.2107
127 2     1.0000     2.1053     6.3160     6.3160
128 2     1.0000     0.0000     4.2107     6.3160
129 2     1.0000     0.0000     6.3160     8.4214
130 2     1.0000     2.1053     4.2107     8.4214
131 2     1.0000     2.1053     6.3160    10.5267
132 2     1.0000     0.0000     4.2107    10.5267
133 2     1.0000     0.0000    10.5267     0.0000
134 2     1.0000     2.1053     8.4214     0.0000
135 2     1.0000     2.1053    10.5267     2.1053
136 2     1.0000     0.0000     8.4214     2.1053
137 2     1.0000     0.0000    10.5267     4.2107
138 2     1.0000     2.1053     8.4214     4.2107
139 2     1.0000     2.1053    10.5267     6.3160
140 2     1.0000     0.0000     8.4214     6.3160
141 2     1.0000     0.0000    10.5267     8.4214
142 2     1.0000     2.1053     8.4214     8.4214
143 2     1.0000     2.1053    10.5267    10.5267
144 2     1.0000     0.0000     8.4214    10.5267
145 2     1.0000     4.2107     2.1053     0.0000
146 2     1.0000     6.3160     0.0000     0.0000
147 2     1.0000     6.3160     2.1053     2.1053
148 2     1.0000     4.2107     0.0000     2.1053
149 2     1.0000     4.2107     2.1053     4.2107
150 2     1.0000     6.3160     0.0000     4.2107
151 2     1.0000     6.3160     2.1053     6.3160
152 2     1.0000     4.2107     0.0000     6.3160
153 2     1.0000     4.2107     2.1053     8.4214
154 2     1.0000     6.3160     0.0000     8.4214
155 2     1.0000     6.3160     2.1053    10.5267
156 2     1.0000     4.2107     0.0000    10.5267
157 2     1.0000     4.2107     6.3160     0.0000
158 2     1.0000     6.3160     4.2107     0.0000
159 2     1.0000     6.3160     6.3160     2.1053
160 2     1.0000     4.2107     4.2107     2.1053
161 2     1.0000     4.2107     6.3160     4.2107
162 2     1.0000     6.3160     4.2107     4.2107
163 2     1.0000     4.2107     4.2107     6.3160
164 2     1.0000     4.2107     6.3160     8.4214
165 2     1.0000     6.3160     4.2107     8.4214
166 2     1.0000     6.3160     6.3160    10.5267
167 2     1.0000     4.2107     4.2107    10.5267
168 2     1.0000     4.2107    10.5267     0.0000
169 2     1.0000     6.3160     8.4214     0.0000
170 2     1.0000     6.3160    10.5267     2.1053
171 2     1.0000     4.2107     8.4214     2.1053
172 2     1.0000     4.2107    10.5267     4.2107
173 2     1.0000     6.3160     8.4214     4.2107
174 2     1.0000     6.3160    10.5267     6.3160
175 2     1.0000     4.2107     8.4214     6.3160
176 2     1.0000     4.2107    10.5267     8.4214
177 2     1.0000     6.3160     8.4214     8.4214
178 2     1.0000     6.3160    10.5267    10.5267
179 2     1.0000     4.2107     8.4214    10.5267
180 2     1.0000     8.4214     2.1053     0.0000
181 2     1.0000    10.5267     0.0000     0.0000
182 2     1.0000    10.5267     2.1053     2.1053
183 2     1.0000     8.4214     0.0000     2.1053
184 2     1.0000     8.4214     2.1053     4.2107
185 2     1.0000    10.5267     0.0000     4.2107
186 2     1.0000    10.5267     2.1053     6.3160
187 2     1.0000     8.4214     0.0000     6.3160
188 2     1.0000     8.4214     2.1053     8.4214
189 2     1.0000    10.5267     0.0000     8.4214
190 2     1.0000    10.5267     2.1053    10.5267
191 2     1.0000     8.4214     0.0000    10.5267
192 2     1.0000     8.4214     6.3160     0.0000
193 2     1.0000    10.5267     4.2107     0.0000
194 2     1.0000    10.5267     6.3160     2.1053
195 2     1.0000     8.4214     4.2107     2.1053
196 2     1.0000     8.4214     6.3160     4.2107
197 2     1.0000    10.5267     4.2107     4.2107
198 2     1.0000    10.5267     6.3160     6.3160
199 2     1.0000     8.4214     4.2107     6.3160
200 2     1.0000     8.4214     6.3160     8.4214
201 2     1.0000    10.5267     4.2107     8.4214
202 2     1.0000    10.5267     6.3160    10.5267
203 2     1.0000     8.4214     4.2107    10.5267
204 2     1.0000     8.4214    10.5267     0.0000
205 2     1.0000    10.5267     8.4214     0.0000
206 2     1.0000    10.5267    10.5267     2.1053
207 2     1.0000     8.4214     8.4214     2.1053
208 2     1.0000     8.4214    10.5267     4.2107
209 2     1.0000    10.5267     8.4214     4.2107
210 2     1.0000    10.5267    10.5267     6.3160
211 2     1.0000     8.4214     8.4214     6.3160
212 2     1.0000     8.4214    10.5267     8.4214
213 2     1.0000    10.5267     8.4214     8.4214
214 2     1.0000    10.5267    10.5267    10.5267
215 2     1.0000     8.4214     8.4214    10.5267
216 2     1.0000     9.4741     9.4741     9.4741
