# ['Ni']

20 atoms
1 atom types

    0.0000     3.4992 xlo xhi
    0.0000     3.4992 ylo yhi
    0.0000    34.9925 zlo zhi

    0.0000    -0.0000     0.0000 xy xz yz

Atoms

1 1     0.0000     0.0000     0.0000
2 1     1.7496     1.7496     0.0000
3 1     1.7496     0.0000     1.7496
4 1     0.0000     1.7496     1.7496
5 1     0.0000     0.0000     3.4992
6 1     1.7496     1.7496     3.4992
7 1     1.7496     0.0000     5.2489
8 1     0.0000     1.7496     5.2489
9 1     0.0000     0.0000     6.9985
10 1     1.7496     1.7496     6.9985
11 1     1.7496     0.0000     8.7481
12 1     0.0000     1.7496     8.7481
13 1     0.0000     0.0000    10.4977
14 1     1.7496     1.7496    10.4977
15 1     1.7496     0.0000    12.2474
16 1     0.0000     1.7496    12.2474
17 1     0.0000     0.0000    13.9970
18 1     1.7496     1.7496    13.9970
19 1     1.7496     0.0000    15.7466
20 1     0.0000     1.7496    15.7466
