# ['Ni']

107 atoms
1 atom types

    0.0000    10.5316 xlo xhi
    0.0000    10.5316 ylo yhi
    0.0000    10.5316 zlo zhi

    0.0000    -0.0000    -0.0000 xy xz yz

Atoms

1 1     1.7553     1.7553     0.0000
2 1     1.7553     0.0000     1.7553
3 1     0.0000     1.7553     1.7553
4 1     0.0000     0.0000     3.5105
5 1     1.7553     1.7553     3.5105
6 1     1.7553     0.0000     5.2658
7 1     0.0000     1.7553     5.2658
8 1     0.0000     0.0000     7.0210
9 1     1.7553     1.7553     7.0210
10 1     1.7553     0.0000     8.7763
11 1     0.0000     1.7553     8.7763
12 1     0.0000     3.5105     0.0000
13 1     1.7553     5.2658     0.0000
14 1     1.7553     3.5105     1.7553
15 1     0.0000     5.2658     1.7553
16 1     0.0000     3.5105     3.5105
17 1     1.7553     5.2658     3.5105
18 1     1.7553     3.5105     5.2658
19 1     0.0000     5.2658     5.2658
20 1     0.0000     3.5105     7.0210
21 1     1.7553     5.2658     7.0210
22 1     1.7553     3.5105     8.7763
23 1     0.0000     5.2658     8.7763
24 1     0.0000     7.0210     0.0000
25 1     1.7553     8.7763     0.0000
26 1     1.7553     7.0210     1.7553
27 1     0.0000     8.7763     1.7553
28 1     0.0000     7.0210     3.5105
29 1     1.7553     8.7763     3.5105
30 1     1.7553     7.0210     5.2658
31 1     0.0000     8.7763     5.2658
32 1     0.0000     7.0210     7.0210
33 1     1.7553     8.7763     7.0210
34 1     1.7553     7.0210     8.7763
35 1     0.0000     8.7763     8.7763
36 1     3.5105     0.0000     0.0000
37 1     5.2658     1.7553     0.0000
38 1     5.2658     0.0000     1.7553
39 1     3.5105     1.7553     1.7553
40 1     3.5105     0.0000     3.5105
41 1     5.2658     1.7553     3.5105
42 1     5.2658     0.0000     5.2658
43 1     3.5105     1.7553     5.2658
44 1     3.5105     0.0000     7.0210
45 1     5.2658     1.7553     7.0210
46 1     5.2658     0.0000     8.7763
47 1     3.5105     1.7553     8.7763
48 1     3.5105     3.5105     0.0000
49 1     5.2658     5.2658     0.0000
50 1     5.2658     3.5105     1.7553
51 1     3.5105     5.2658     1.7553
52 1     3.5105     3.5105     3.5105
53 1     5.2658     5.2658     3.5105
54 1     5.2658     3.5105     5.2658
55 1     3.5105     5.2658     5.2658
56 1     3.5105     3.5105     7.0210
57 1     5.2658     5.2658     7.0210
58 1     5.2658     3.5105     8.7763
59 1     3.5105     5.2658     8.7763
60 1     3.5105     7.0210     0.0000
61 1     5.2658     8.7763     0.0000
62 1     5.2658     7.0210     1.7553
63 1     3.5105     8.7763     1.7553
64 1     3.5105     7.0210     3.5105
65 1     5.2658     8.7763     3.5105
66 1     5.2658     7.0210     5.2658
67 1     3.5105     8.7763     5.2658
68 1     3.5105     7.0210     7.0210
69 1     5.2658     8.7763     7.0210
70 1     5.2658     7.0210     8.7763
71 1     3.5105     8.7763     8.7763
72 1     7.0210     0.0000     0.0000
73 1     8.7763     1.7553     0.0000
74 1     8.7763     0.0000     1.7553
75 1     7.0210     1.7553     1.7553
76 1     7.0210     0.0000     3.5105
77 1     8.7763     1.7553     3.5105
78 1     8.7763     0.0000     5.2658
79 1     7.0210     1.7553     5.2658
80 1     7.0210     0.0000     7.0210
81 1     8.7763     1.7553     7.0210
82 1     8.7763     0.0000     8.7763
83 1     7.0210     1.7553     8.7763
84 1     7.0210     3.5105     0.0000
85 1     8.7763     5.2658     0.0000
86 1     8.7763     3.5105     1.7553
87 1     7.0210     5.2658     1.7553
88 1     7.0210     3.5105     3.5105
89 1     8.7763     5.2658     3.5105
90 1     8.7763     3.5105     5.2658
91 1     7.0210     5.2658     5.2658
92 1     7.0210     3.5105     7.0210
93 1     8.7763     5.2658     7.0210
94 1     8.7763     3.5105     8.7763
95 1     7.0210     5.2658     8.7763
96 1     7.0210     7.0210     0.0000
97 1     8.7763     8.7763     0.0000
98 1     8.7763     7.0210     1.7553
99 1     7.0210     8.7763     1.7553
100 1     7.0210     7.0210     3.5105
101 1     8.7763     8.7763     3.5105
102 1     8.7763     7.0210     5.2658
103 1     7.0210     8.7763     5.2658
104 1     7.0210     7.0210     7.0210
105 1     8.7763     8.7763     7.0210
106 1     8.7763     7.0210     8.7763
107 1     7.0210     8.7763     8.7763
