# ['Ni']

18 atoms
1 atom types

    0.0000     2.3039 xlo xhi
    0.0000     3.9906 ylo yhi
    0.0000    33.8554 zlo zhi

    0.0000     0.0000    -0.0004 xy xz yz

Atoms

1 1     0.0000     0.0000     0.0000
2 1     1.1520     0.6651     1.8809
3 1     0.0000     1.3302     3.7617
4 1     1.1520     1.9953     0.0000
5 1     0.0000     2.6604     1.8809
6 1     1.1520     3.3255     3.7617
7 1     0.0000     0.0000     5.6426
8 1     1.1520     0.6651     7.5234
9 1     0.0000     1.3302     9.4043
10 1     1.1520     1.9953     5.6426
11 1     0.0000     2.6604     7.5234
12 1     1.1520     3.3255     9.4043
13 1     0.0000     0.0000    11.2851
14 1     1.1520     0.6651    13.1660
15 1     0.0000     1.3302    15.0469
16 1     1.1520     1.9953    11.2851
17 1     0.0000     2.6604    13.1660
18 1     1.1520     3.3255    15.0469
