# ['Ni']

28 atoms
1 atom types

    0.0000     2.5439 xlo xhi
    0.0000     4.4062 ylo yhi
    0.0000    29.0797 zlo zhi

    0.0000     0.0000     0.0000 xy xz yz

Atoms

1 1     0.0000     0.0000     0.0000
2 1     1.2720     2.2031     0.0000
3 1     1.2720     0.7344     2.0771
4 1     0.0000     2.9375     2.0771
5 1     0.0000     1.4687     4.1542
6 1     1.2720     3.6719     4.1542
7 1     0.0000     0.0000     6.2314
8 1     1.2720     2.2031     6.2314
9 1     1.2720     0.7344     8.3085
10 1     0.0000     2.9375     8.3085
11 1     0.0000     1.4687    10.3856
12 1     1.2720     3.6719    10.3856
13 1     0.0000     0.0000    12.4627
14 1     1.2720     2.2031    12.4627
15 1     0.0000     1.4687    14.5399
16 1     1.2720     3.6719    14.5399
17 1     0.0000     0.0000    16.6170
18 1     1.2720     2.2031    16.6170
19 1     1.2720     0.7344    18.6941
20 1     0.0000     2.9375    18.6941
21 1     0.0000     1.4687    20.7713
22 1     1.2720     3.6719    20.7713
23 1     0.0000     0.0000    22.8484
24 1     1.2720     2.2031    22.8484
25 1     1.2720     0.7344    24.9255
26 1     0.0000     2.9375    24.9255
27 1     0.0000     1.4687    27.0026
28 1     1.2720     3.6719    27.0026
