# ['Ni']

2 atoms
1 atom types

    0.0000     2.8005 xlo xhi
    0.0000     2.8005 ylo yhi
    0.0000     2.8005 zlo zhi

    0.0000     0.0000     0.0000 xy xz yz

Atoms

1 1    -0.0000    -0.0000    -0.0000
2 1     1.4002     1.4002     1.4002
