   4   4   0   0
  0.1064635E+02  0.3492102E-09  0.3492102E-09  0.3492102E-09  0.5000000E-15
  1.000000000000000E-004
  CAR 
 automatically generated by pyflamestk   
     33.72272375     -0.88480580  301      9.69541472      1.00000000
     -0.885  0.0000E+00  0.0000E+00  0.0000E+00  0.0000E+00
     -0.769  0.0000E+00  0.0000E+00  0.0000E+00  0.0000E+00
     -0.654  0.0000E+00  0.0000E+00  0.0000E+00  0.0000E+00
     -0.539 -0.5044E-29 -0.1846E-29 -0.5819E-30 -0.2129E-30
     -0.423 -0.4676E-25 -0.1837E-25 -0.5395E-26 -0.2119E-26
     -0.308 -0.2216E-21 -0.9346E-22 -0.2557E-22 -0.1078E-22
     -0.193 -0.5363E-18 -0.2429E-18 -0.6189E-19 -0.2803E-19
     -0.077 -0.6619E-15 -0.3219E-15 -0.7642E-16 -0.3716E-16
      0.038 -0.4017E-12 -0.2100E-12 -0.4642E-13 -0.2426E-13
      0.153 -0.1270E-09 -0.7138E-10 -0.1470E-10 -0.8259E-11
      0.269 -0.2025E-07 -0.1224E-07 -0.2350E-08 -0.1420E-08
      0.384 -0.1612E-05 -0.1049E-05 -0.1884E-06 -0.1224E-06
      0.499 -0.6318E-04 -0.4436E-04 -0.7477E-05 -0.5239E-05
      0.615 -0.1180E-02 -0.8984E-03 -0.1436E-03 -0.1089E-03
      0.730 -0.9712E-02 -0.8120E-02 -0.1264E-02 -0.1046E-02
      0.846 -0.2533E-01 -0.2500E-01 -0.4186E-02 -0.3929E-02
      0.961  0.5542E-01  0.3638E-01  0.2207E-02  0.2672E-03
      1.076  0.3480E+00  0.3134E+00  0.4235E-01  0.3642E-01
      1.192  0.4985E+00  0.5045E+00  0.9985E-01  0.9462E-01
      1.307  0.2401E+00  0.2754E+00  0.1275E+00  0.1264E+00
      1.422  0.6165E-02  0.1918E-01  0.1283E+00  0.1286E+00
      1.538 -0.2228E-01 -0.2386E-01  0.1257E+00  0.1258E+00
      1.653 -0.5403E-02 -0.6612E-02  0.1251E+00  0.1251E+00
      1.768 -0.4954E-03 -0.6629E-03  0.1250E+00  0.1250E+00
      1.884 -0.2273E-04 -0.3228E-04  0.1250E+00  0.1250E+00
      1.999 -0.9217E-04 -0.1015E-03  0.1250E+00  0.1250E+00
      2.115 -0.2018E-02 -0.2173E-02  0.1248E+00  0.1247E+00
      2.230 -0.2003E-01 -0.2107E-01  0.1224E+00  0.1223E+00
      2.345 -0.7177E-01 -0.7276E-01  0.1142E+00  0.1139E+00
      2.461  0.5972E-01  0.7133E-01  0.1211E+00  0.1221E+00
      2.576  0.8314E+00  0.8590E+00  0.2170E+00  0.2212E+00
      2.691  0.1514E+01  0.1516E+01  0.3916E+00  0.3961E+00
      2.807  0.9349E+00  0.9076E+00  0.4995E+00  0.5008E+00
      2.922  0.1065E+00  0.9326E-01  0.5117E+00  0.5115E+00
      3.037 -0.7488E-01 -0.7422E-01  0.5031E+00  0.5030E+00
      3.153 -0.2413E-01 -0.2300E-01  0.5003E+00  0.5003E+00
      3.268 -0.2697E-02 -0.2758E-02  0.5000E+00  0.5000E+00
      3.383 -0.1162E-02 -0.4961E-02  0.4999E+00  0.4994E+00
      3.499 -0.1251E-01 -0.3551E-01  0.4984E+00  0.4953E+00
      3.614 -0.5991E-01 -0.7342E-01  0.4915E+00  0.4868E+00
      3.730 -0.1829E-01  0.2459E+00  0.4894E+00  0.5152E+00
      3.845  0.5950E+00  0.1160E+01  0.5581E+00  0.6490E+00
      3.960  0.1451E+01  0.1446E+01  0.7254E+00  0.8158E+00
      4.076  0.1163E+01  0.5739E+00  0.8596E+00  0.8820E+00
      4.191  0.2443E+00 -0.5797E-02  0.8877E+00  0.8813E+00
      4.306 -0.9262E-01  0.1763E+00  0.8771E+00  0.9017E+00
      4.422 -0.6286E-01  0.4146E+00  0.8698E+00  0.9495E+00
      4.537  0.1000E+00  0.4889E+00  0.8813E+00  0.1006E+01
      4.652  0.4651E+00  0.1052E+01  0.9350E+00  0.1127E+01
      4.768  0.1070E+01  0.1341E+01  0.1058E+01  0.1282E+01
      4.883  0.1581E+01  0.8751E+00  0.1241E+01  0.1383E+01
      4.998  0.1077E+01  0.1540E+01  0.1365E+01  0.1561E+01
      5.114  0.1322E+00  0.2620E+01  0.1380E+01  0.1863E+01
      5.229 -0.2525E+00  0.2438E+01  0.1351E+01  0.2144E+01
      5.345  0.1872E+00  0.2721E+01  0.1373E+01  0.2458E+01
      5.460  0.2048E+01  0.3031E+01  0.1609E+01  0.2808E+01
      5.575  0.4175E+01  0.2673E+01  0.2091E+01  0.3116E+01
      5.691  0.4335E+01  0.3698E+01  0.2591E+01  0.3543E+01
      5.806  0.2274E+01  0.4647E+01  0.2853E+01  0.4079E+01
      5.921  0.9036E-01  0.4130E+01  0.2863E+01  0.4555E+01
      6.037  0.1802E+00  0.4299E+01  0.2884E+01  0.5051E+01
      6.152  0.3218E+01  0.3118E+01  0.3255E+01  0.5411E+01
      6.267  0.5616E+01  0.1292E+01  0.3903E+01  0.5560E+01
      6.383  0.3472E+01  0.2716E+01  0.4304E+01  0.5873E+01
      6.498  0.1254E+01  0.4637E+01  0.4448E+01  0.6408E+01
      6.613  0.3036E+01  0.4168E+01  0.4799E+01  0.6889E+01
      6.729  0.4559E+01  0.3455E+01  0.5325E+01  0.7287E+01
      6.844  0.3526E+01  0.4514E+01  0.5731E+01  0.7808E+01
      6.960  0.3244E+01  0.6631E+01  0.6106E+01  0.8573E+01
      7.075  0.3004E+01  0.6597E+01  0.6452E+01  0.9334E+01
      7.190  0.1715E+01  0.4516E+01  0.6650E+01  0.9855E+01
      7.306  0.2307E+01  0.4029E+01  0.6916E+01  0.1032E+02
      7.421  0.4679E+01  0.5495E+01  0.7456E+01  0.1095E+02
      7.536  0.6563E+01  0.7255E+01  0.8213E+01  0.1179E+02
      7.652  0.6694E+01  0.6722E+01  0.8985E+01  0.1257E+02
      7.767  0.4653E+01  0.3508E+01  0.9522E+01  0.1297E+02
      7.882  0.2831E+01  0.2547E+01  0.9849E+01  0.1326E+02
      7.998  0.4508E+01  0.4183E+01  0.1037E+02  0.1375E+02
      8.113  0.7480E+01  0.4682E+01  0.1123E+02  0.1429E+02
      8.229  0.7332E+01  0.5836E+01  0.1208E+02  0.1496E+02
      8.344  0.4729E+01  0.7296E+01  0.1262E+02  0.1580E+02
      8.459  0.2649E+01  0.5548E+01  0.1293E+02  0.1644E+02
      8.575  0.2874E+01  0.2888E+01  0.1326E+02  0.1678E+02
      8.690  0.4122E+01  0.4250E+01  0.1374E+02  0.1727E+02
      8.805  0.3573E+01  0.6817E+01  0.1415E+02  0.1805E+02
      8.921  0.5063E+01  0.6505E+01  0.1473E+02  0.1880E+02
      9.036  0.8480E+01  0.6801E+01  0.1571E+02  0.1959E+02
      9.151  0.6686E+01  0.7788E+01  0.1648E+02  0.2049E+02
      9.267  0.2187E+01  0.5675E+01  0.1673E+02  0.2114E+02
      9.382  0.1499E+01  0.2157E+01  0.1691E+02  0.2139E+02
      9.497  0.4200E+01  0.1594E+00  0.1739E+02  0.2141E+02
      9.613  0.6482E+01 -0.1955E+00  0.1814E+02  0.2138E+02
      9.728  0.5680E+01 -0.7237E-01  0.1879E+02  0.2138E+02
      9.844  0.6212E+01 -0.1019E-01  0.1951E+02  0.2138E+02
      9.959  0.8801E+01 -0.6675E-03  0.2053E+02  0.2138E+02
     10.074  0.6482E+01 -0.3010E-04  0.2127E+02  0.2137E+02
     10.190  0.1485E+01 -0.3528E-03  0.2145E+02  0.2137E+02
     10.305 -0.3584E+00 -0.6829E-02  0.2140E+02  0.2137E+02
     10.420 -0.2135E+00 -0.5965E-01  0.2138E+02  0.2137E+02
     10.536 -0.3490E-01 -0.1829E+00  0.2138E+02  0.2135E+02
     10.651 -0.2627E-02  0.2261E+00  0.2138E+02  0.2137E+02
     10.766 -0.1670E-02  0.2225E+01  0.2137E+02  0.2163E+02
     10.882 -0.2164E-01  0.4083E+01  0.2137E+02  0.2210E+02
     10.997 -0.1273E+00  0.2979E+01  0.2136E+02  0.2244E+02
     11.112 -0.1641E+00  0.7378E+00  0.2134E+02  0.2253E+02
     11.228  0.1045E+01 -0.1299E+00  0.2146E+02  0.2251E+02
     11.343  0.3701E+01 -0.9906E-01  0.2189E+02  0.2250E+02
     11.459  0.4088E+01 -0.1824E-01  0.2236E+02  0.2250E+02
     11.574  0.1515E+01 -0.1556E-02  0.2253E+02  0.2250E+02
     11.689 -0.8696E-01 -0.1936E-02  0.2252E+02  0.2250E+02
     11.805 -0.1598E+00 -0.1908E-01  0.2250E+02  0.2250E+02
     11.920 -0.3299E-01 -0.7074E-01  0.2250E+02  0.2249E+02
     12.035 -0.1333E-01  0.4921E-01  0.2250E+02  0.2250E+02
     12.151 -0.5569E-01  0.8052E+00  0.2249E+02  0.2259E+02
     12.266 -0.3461E-01  0.1511E+01  0.2249E+02  0.2276E+02
     12.381  0.5260E+00  0.9609E+00  0.2255E+02  0.2287E+02
     12.497  0.1415E+01  0.1196E+00  0.2271E+02  0.2289E+02
     12.612  0.1227E+01 -0.7552E-01  0.2285E+02  0.2288E+02
     12.727  0.3004E+00 -0.2814E-01  0.2289E+02  0.2287E+02
     12.843 -0.6936E-01 -0.2836E-01  0.2288E+02  0.2287E+02
     12.958 -0.3984E-01 -0.7561E-01  0.2288E+02  0.2286E+02
     13.074 -0.8672E-02  0.1227E+00  0.2287E+02  0.2288E+02
     13.189 -0.2566E-01  0.9667E+00  0.2287E+02  0.2299E+02
     13.304 -0.7540E-01  0.1510E+01  0.2286E+02  0.2316E+02
     13.420  0.1201E+00  0.7993E+00  0.2288E+02  0.2326E+02
     13.535  0.9617E+00  0.4692E-01  0.2299E+02  0.2326E+02
     13.650  0.1511E+01 -0.7050E-01  0.2316E+02  0.2325E+02
     13.766  0.8043E+00 -0.1888E-01  0.2325E+02  0.2325E+02
     13.881  0.4887E-01 -0.2028E-02  0.2326E+02  0.2325E+02
     13.996 -0.7070E-01 -0.4033E-02  0.2325E+02  0.2325E+02
     14.112 -0.1908E-01 -0.3949E-01  0.2325E+02  0.2324E+02
     14.227 -0.2818E-02 -0.1429E+00  0.2325E+02  0.2323E+02
     14.343 -0.1420E-01  0.1131E+00  0.2325E+02  0.2324E+02
     14.458 -0.8888E-01  0.1647E+01  0.2324E+02  0.2343E+02
     14.573 -0.1248E+00  0.3026E+01  0.2322E+02  0.2378E+02
     14.689  0.7285E+00  0.1885E+01  0.2331E+02  0.2400E+02
     14.804  0.2585E+01  0.2207E+00  0.2361E+02  0.2402E+02
     14.919  0.2732E+01 -0.1501E+00  0.2392E+02  0.2401E+02
     15.035  0.9040E+00 -0.4893E-01  0.2403E+02  0.2400E+02
     15.150 -0.9822E-01 -0.5425E-02  0.2401E+02  0.2400E+02
     15.265 -0.1013E+00 -0.2684E-03  0.2400E+02  0.2400E+02
     15.381 -0.1789E-01 -0.1187E-04  0.2400E+02  0.2400E+02
     15.496 -0.1299E-02 -0.2110E-03  0.2400E+02  0.2400E+02
     15.611 -0.4402E-04 -0.3843E-02  0.2400E+02  0.2400E+02
     15.727 -0.2217E-05 -0.3071E-01  0.2400E+02  0.2400E+02
     15.842 -0.7166E-04 -0.7575E-01  0.2400E+02  0.2399E+02
     15.958 -0.1662E-02  0.1856E+00  0.2400E+02  0.2401E+02
     16.073 -0.1752E-01  0.1075E+01  0.2400E+02  0.2413E+02
     16.188 -0.6878E-01  0.1486E+01  0.2399E+02  0.2430E+02
     16.304  0.3236E-01  0.6843E+00  0.2399E+02  0.2438E+02
     16.419  0.7603E+00 -0.2264E-01  0.2408E+02  0.2438E+02
     16.534  0.1504E+01 -0.1409E+00  0.2425E+02  0.2436E+02
     16.650  0.9953E+00  0.1714E+00  0.2437E+02  0.2438E+02
     16.765  0.9096E-01  0.1075E+01  0.2438E+02  0.2451E+02
     16.880 -0.1200E+00  0.1486E+01  0.2437E+02  0.2468E+02
     16.996  0.4522E+00  0.6864E+00  0.2442E+02  0.2476E+02
     17.111  0.1382E+01  0.7608E-02  0.2458E+02  0.2476E+02
     17.226  0.1268E+01 -0.6532E-01  0.2472E+02  0.2475E+02
     17.342  0.3396E+00 -0.1970E-01  0.2476E+02  0.2475E+02
     17.457 -0.6565E-01 -0.4478E-01  0.2476E+02  0.2474E+02
     17.573 -0.4836E-01 -0.1467E+00  0.2475E+02  0.2473E+02
     17.688 -0.5734E-01  0.1573E+00  0.2474E+02  0.2475E+02
     17.803 -0.1513E+00  0.1751E+01  0.2473E+02  0.2495E+02
     17.919  0.2424E+00  0.3032E+01  0.2475E+02  0.2530E+02
     18.034  0.1928E+01  0.1782E+01  0.2498E+02  0.2550E+02
     18.149  0.3022E+01  0.1675E+00  0.2532E+02  0.2552E+02
     18.265  0.1604E+01 -0.1660E+00  0.2551E+02  0.2550E+02
     18.380  0.9489E-01 -0.5637E-01  0.2552E+02  0.2550E+02
     18.495 -0.1510E+00  0.1697E+00  0.2550E+02  0.2552E+02
     18.611 -0.6327E-01  0.4708E+00  0.2550E+02  0.2557E+02
     18.726  0.5202E-01  0.4097E+00  0.2550E+02  0.2562E+02
     18.841  0.3483E+00  0.1009E+00  0.2554E+02  0.2563E+02
     18.957  0.4983E+00 -0.2308E-01  0.2560E+02  0.2563E+02
     19.072  0.2395E+00 -0.1405E-01  0.2563E+02  0.2563E+02
     19.188  0.5951E-02 -0.1404E-01  0.2563E+02  0.2562E+02
     19.303 -0.2313E-01 -0.8131E-01  0.2563E+02  0.2561E+02
     19.418 -0.1868E-01 -0.1365E+00  0.2562E+02  0.2560E+02
     19.534 -0.8633E-01  0.6247E+00  0.2561E+02  0.2567E+02
     19.649 -0.1298E+00  0.2480E+01  0.2560E+02  0.2596E+02
     19.764  0.6871E+00  0.2812E+01  0.2568E+02  0.2628E+02
     19.880  0.2545E+01  0.1023E+01  0.2597E+02  0.2640E+02
     19.995  0.2764E+01 -0.7604E-01  0.2629E+02  0.2639E+02
     20.110  0.9498E+00 -0.1181E+00  0.2640E+02  0.2638E+02
     20.226 -0.9060E-01 -0.7105E-01  0.2639E+02  0.2637E+02
     20.341 -0.1142E+00 -0.5146E-01  0.2638E+02  0.2636E+02
     20.457 -0.7190E-01  0.4476E+00  0.2637E+02  0.2641E+02
     20.572 -0.4424E-01  0.1363E+01  0.2636E+02  0.2657E+02
     20.687  0.4859E+00  0.1296E+01  0.2642E+02  0.2672E+02
     20.803  0.1390E+01  0.3683E+00  0.2658E+02  0.2676E+02
     20.918  0.1263E+01 -0.6192E-01  0.2672E+02  0.2676E+02
     21.033  0.3339E+00 -0.4617E-01  0.2676E+02  0.2675E+02
     21.149 -0.6619E-01 -0.2645E-01  0.2676E+02  0.2675E+02
     21.264 -0.4662E-01 -0.1060E+00  0.2675E+02  0.2674E+02
     21.379 -0.4904E-01 -0.8776E-01  0.2674E+02  0.2673E+02
     21.495 -0.1469E+00  0.9548E+00  0.2673E+02  0.2684E+02
     21.610  0.1387E+00  0.2720E+01  0.2674E+02  0.2715E+02
     21.725  0.1679E+01  0.2494E+01  0.2694E+02  0.2744E+02
     21.841  0.2980E+01  0.1188E+01  0.2728E+02  0.2757E+02
     21.956  0.2246E+01  0.1277E+01  0.2754E+02  0.2772E+02
     22.072  0.1540E+01  0.1152E+01  0.2772E+02  0.2785E+02
     22.187  0.1153E+01  0.2930E+00  0.2785E+02  0.2789E+02
     22.302  0.3276E+00 -0.1007E+00  0.2789E+02  0.2788E+02
     22.418 -0.7538E-01 -0.1358E+00  0.2788E+02  0.2786E+02
     22.533 -0.1043E+00  0.9238E-01  0.2787E+02  0.2787E+02
     22.648 -0.1096E+00  0.1101E+01  0.2786E+02  0.2800E+02
     22.764  0.3922E+00  0.2308E+01  0.2790E+02  0.2826E+02
     22.879  0.1817E+01  0.2227E+01  0.2811E+02  0.2852E+02
     22.994  0.2675E+01  0.9692E+00  0.2842E+02  0.2863E+02
     23.110  0.1660E+01  0.4855E-01  0.2861E+02  0.2864E+02
     23.225  0.2954E+00 -0.9528E-01  0.2864E+02  0.2863E+02
     23.340 -0.1107E+00 -0.5898E-01  0.2863E+02  0.2862E+02
     23.456 -0.7269E-01 -0.9612E-01  0.2862E+02  0.2861E+02
     23.571 -0.9367E-01  0.9267E-01  0.2861E+02  0.2862E+02
     23.687 -0.2261E-01  0.9873E+00  0.2861E+02  0.2873E+02
     23.802  0.7209E+00  0.2378E+01  0.2869E+02  0.2901E+02
     23.917  0.2235E+01  0.3401E+01  0.2895E+02  0.2940E+02
     24.033  0.3496E+01  0.2597E+01  0.2935E+02  0.2970E+02
     24.148  0.2838E+01  0.6720E+00  0.2968E+02  0.2978E+02
     24.263  0.8388E+00 -0.1386E+00  0.2978E+02  0.2976E+02
     24.379 -0.1201E+00 -0.9077E-01  0.2976E+02  0.2975E+02
     24.494 -0.1045E+00 -0.1433E-01  0.2975E+02  0.2975E+02
     24.609 -0.1822E-01 -0.9749E-03  0.2975E+02  0.2975E+02
     24.725 -0.1337E-02 -0.6037E-03  0.2975E+02  0.2975E+02
     24.840 -0.5588E-03 -0.9716E-02  0.2975E+02  0.2975E+02
     24.955 -0.8940E-02 -0.7117E-01  0.2975E+02  0.2974E+02
     25.071 -0.6768E-01 -0.1473E+00  0.2974E+02  0.2972E+02
     25.186 -0.1515E+00  0.4864E+00  0.2972E+02  0.2978E+02
     25.302  0.4280E+00  0.2287E+01  0.2977E+02  0.3004E+02
     25.417  0.2212E+01  0.2880E+01  0.3003E+02  0.3038E+02
     25.532  0.3047E+01  0.1545E+01  0.3038E+02  0.3055E+02
     25.648  0.1962E+01  0.9082E+00  0.3061E+02  0.3066E+02
     25.763  0.9763E+00  0.6963E+00  0.3072E+02  0.3074E+02
     25.878  0.3481E+00  0.1738E+00  0.3076E+02  0.3076E+02
     25.994 -0.1729E-01 -0.4843E-01  0.3076E+02  0.3075E+02
     26.109 -0.4644E-01 -0.2645E-01  0.3075E+02  0.3075E+02
     26.224 -0.1064E-01 -0.4055E-02  0.3075E+02  0.3075E+02
     26.340 -0.1099E-02 -0.3916E-02  0.3075E+02  0.3075E+02
     26.455 -0.2854E-02 -0.2985E-01  0.3075E+02  0.3075E+02
     26.571 -0.2507E-01 -0.7591E-01  0.3075E+02  0.3074E+02
     26.686 -0.7530E-01  0.1749E+00  0.3074E+02  0.3076E+02
     26.801  0.1175E+00  0.1058E+01  0.3075E+02  0.3088E+02
     26.917  0.9567E+00  0.1491E+01  0.3086E+02  0.3105E+02
     27.032  0.1512E+01  0.7057E+00  0.3104E+02  0.3113E+02
     27.147  0.8094E+00  0.1371E-01  0.3113E+02  0.3113E+02
     27.263  0.5088E-01 -0.6611E-01  0.3114E+02  0.3113E+02
     27.378 -0.7091E-01 -0.1575E-01  0.3113E+02  0.3113E+02
     27.493 -0.1923E-01 -0.1433E-02  0.3113E+02  0.3113E+02
     27.609 -0.1915E-02 -0.3111E-03  0.3113E+02  0.3112E+02
     27.724 -0.5386E-03 -0.4405E-02  0.3112E+02  0.3112E+02
     27.839 -0.6859E-02 -0.3347E-01  0.3112E+02  0.3112E+02
     27.955 -0.4370E-01 -0.7471E-01  0.3112E+02  0.3111E+02
     28.070 -0.6364E-01  0.2200E+00  0.3111E+02  0.3114E+02
     28.186  0.3542E+00  0.1126E+01  0.3115E+02  0.3127E+02
     28.301  0.1283E+01  0.1468E+01  0.3130E+02  0.3144E+02
     28.416  0.1374E+01  0.6347E+00  0.3146E+02  0.3151E+02
     28.532  0.4630E+00 -0.7656E-02  0.3151E+02  0.3151E+02
     28.647 -0.4718E-01 -0.6238E-01  0.3151E+02  0.3150E+02
     28.762 -0.5247E-01 -0.1632E-01  0.3150E+02  0.3150E+02
     28.878 -0.2199E-01 -0.2556E-01  0.3150E+02  0.3150E+02
     28.993 -0.6121E-01 -0.7506E-01  0.3149E+02  0.3149E+02
     29.108 -0.1561E-01  0.1096E+00  0.3149E+02  0.3150E+02
     29.224  0.6055E+00  0.9412E+00  0.3156E+02  0.3161E+02
     29.339  0.1456E+01  0.1513E+01  0.3173E+02  0.3178E+02
     29.454  0.1153E+01  0.8251E+00  0.3186E+02  0.3188E+02
     29.570  0.2403E+00  0.5715E-01  0.3189E+02  0.3189E+02
     29.685 -0.7374E-01 -0.7153E-01  0.3188E+02  0.3188E+02
     29.801 -0.3506E-01 -0.1980E-01  0.3188E+02  0.3188E+02
     29.916 -0.4745E-02 -0.1984E-02  0.3188E+02  0.3188E+02
     30.031 -0.2781E-03 -0.8978E-04  0.3188E+02  0.3188E+02
     30.147 -0.7726E-05 -0.1956E-05  0.3188E+02  0.3188E+02
     30.262 -0.1053E-06 -0.2105E-07  0.3188E+02  0.3188E+02
     30.377 -0.7167E-09 -0.1135E-09  0.3188E+02  0.3188E+02
     30.493 -0.2456E-11 -0.3407E-12  0.3188E+02  0.3187E+02
     30.608 -0.5760E-13 -0.1327E-10  0.3187E+02  0.3187E+02
     30.723 -0.2103E-10 -0.2796E-08  0.3187E+02  0.3187E+02
     30.839 -0.4192E-08 -0.2957E-06  0.3187E+02  0.3187E+02
     30.954 -0.4189E-06 -0.1550E-04  0.3187E+02  0.3187E+02
     31.069 -0.2073E-04 -0.3936E-03  0.3187E+02  0.3187E+02
     31.185 -0.4954E-03 -0.4594E-02  0.3187E+02  0.3187E+02
     31.300 -0.5403E-02 -0.2086E-01  0.3187E+02  0.3187E+02
     31.416 -0.2228E-01 -0.2028E-02  0.3187E+02  0.3187E+02
     31.531  0.6165E-02  0.2134E+00  0.3187E+02  0.3190E+02
     31.646  0.2401E+00  0.4900E+00  0.3190E+02  0.3195E+02
     31.762  0.4985E+00  0.3735E+00  0.3196E+02  0.3200E+02
     31.877  0.3480E+00  0.7210E-01  0.3200E+02  0.3200E+02
     31.992  0.5542E-01 -0.2495E-01  0.3200E+02  0.3200E+02
     32.108 -0.2533E-01 -0.1106E-01  0.3200E+02  0.3200E+02
     32.223 -0.9712E-02 -0.1447E-02  0.3200E+02  0.3200E+02
     32.338 -0.1180E-02 -0.8247E-04  0.3200E+02  0.3200E+02
     32.454 -0.6318E-04 -0.2232E-05  0.3200E+02  0.3200E+02
     32.569 -0.1612E-05 -0.2967E-07  0.3200E+02  0.3200E+02
     32.684 -0.2025E-07 -0.1969E-09  0.3200E+02  0.3200E+02
     32.800 -0.1270E-09 -0.6580E-12  0.3200E+02  0.3200E+02
     32.915 -0.4016E-12 -0.1203E-14  0.3200E+02  0.3200E+02
     33.031 -0.7218E-15  0.0000E+00  0.3200E+02  0.3200E+02
     33.146  0.0000E+00  0.0000E+00  0.3200E+02  0.3200E+02
     33.261  0.0000E+00  0.0000E+00  0.3200E+02  0.3200E+02
     33.377  0.0000E+00  0.0000E+00  0.3200E+02  0.3200E+02
     33.492  0.0000E+00  0.0000E+00  0.3200E+02  0.3200E+02
     33.607  0.0000E+00  0.0000E+00  0.3200E+02  0.3200E+02
     33.723  0.0000E+00  0.0000E+00  0.3200E+02  0.3200E+02
