    4    4    1    2
  0.1064635E+02  0.3492102E-09  0.3492102E-09  0.3492102E-09  0.5000000E-15
  1.000000000000000E-004
  CAR 
 automatically generated by pyflamestk   
     40      4     32
 
  0.1250000E+00  0.1250000E+00  0.1250000E+00  0.1250000E+00
    1        1.115194      1.127395   1.000000   1.000000
    2        5.508921      5.106139   1.000000   1.000000
    3        5.508921      5.106139   1.000000   1.000000
    4        5.508921      5.106139   1.000000   1.000000
    5        6.195814      5.554249   1.000000   1.000000
    6        6.195814      5.554249   1.000000   1.000000
    7        6.195814      5.554249   1.000000   1.000000
    8        7.790244      7.028779   1.000000   1.000000
    9        8.085411      7.299472   1.000000   1.000000
   10        8.085411      7.299472   1.000000   1.000000
   11        9.010622      8.322270   1.000007   1.000000
   12        9.010622      8.322270   1.000007   1.000000
   13        9.029599      8.347145   1.000013   1.000000
   14        9.029599      8.347145   1.000013   1.000000
   15        9.029599      8.347145   1.000013   1.000000
   16        9.533099      8.796161   0.992950   1.000000
   17        9.533099      8.796161   0.992950   1.000000
   18        9.533099      8.796161   0.992950   1.000000
   19       10.001018      9.147046  -0.026387   1.000368
   20       10.001018      9.147046  -0.026387   1.000368
   21       10.001018      9.147046  -0.026387   1.000368
   22       12.481198     12.217345  -0.000000  -0.000000
   23       12.481198     12.217345  -0.000000  -0.000000
   24       12.481198     12.217345  -0.000000  -0.000000
   25       20.792103     20.566402   0.000000   0.000000
   26       20.792103     20.566402   0.000000   0.000000
   27       20.792103     20.566402   0.000000   0.000000
   28       22.066846     21.942019   0.000000   0.000000
   29       22.066846     21.942019   0.000000   0.000000
   30       22.066846     21.942019   0.000000   0.000000
   31       25.685108     25.631746   0.000000   0.000000
   32       25.685108     25.631746   0.000000   0.000000
 
  0.3750000E+00  0.1250000E+00  0.1250000E+00  0.3750000E+00
    1        2.639584      2.636421   1.000000   1.000000
    2        4.851874      4.690059   1.000000   1.000000
    3        6.195454      5.740135   1.000000   1.000000
    4        6.195454      5.740135   1.000000   1.000000
    5        6.635360      5.986714   1.000000   1.000000
    6        6.635360      6.031816   1.000000   1.000000
    7        6.655038      6.031816   1.000000   1.000000
    8        7.329330      6.609927   1.000000   1.000000
    9        7.685899      7.053084   1.000000   1.000000
   10        7.685899      7.053084   1.000000   1.000000
   11        8.076244      7.481331   1.000000   1.000000
   12        8.205782      7.483562   1.000000   1.000000
   13        8.387164      7.610599   1.000000   1.000000
   14        8.879080      8.159500   1.000000   1.000000
   15        8.967359      8.196673   1.000002   1.000000
   16        9.054561      8.376475   1.000028   1.000000
   17        9.054561      8.376475   1.000028   1.000000
   18        9.335733      8.613577   1.014493   1.000000
   19        9.753196      8.979057   0.266451   1.000003
   20        9.923467      9.048711  -0.034227   1.000024
   21        9.923467      9.048711  -0.034227   1.000024
   22        9.930473      9.270360  -0.035055   1.005224
   23       14.809981     14.522398  -0.000000  -0.000000
   24       14.809981     14.522398  -0.000000  -0.000000
   25       18.082342     17.861816   0.000000   0.000000
   26       18.082342     17.861816   0.000000   0.000000
   27       21.785294     21.600039   0.000000   0.000000
   28       21.785294     21.600039   0.000000   0.000000
   29       23.863774     23.720212   0.000000   0.000000
   30       24.039274     23.911789   0.000000   0.000000
   31       24.039274     23.911789   0.000000   0.000000
   32       26.965774     26.838428   0.000000   0.000000
 
  0.3750000E+00  0.3750000E+00  0.1250000E+00  0.3750000E+00
    1        3.936160      3.869284   1.000000   1.000000
    2        5.666075      5.358416   1.000000   1.000000
    3        5.666075      5.358416   1.000000   1.000000
    4        6.284555      5.751221   1.000000   1.000000
    5        6.840305      6.380301   1.000000   1.000000
    6        7.001461      6.443333   1.000000   1.000000
    7        7.001461      6.443333   1.000000   1.000000
    8        7.322065      6.670954   1.000000   1.000000
    9        7.504276      6.851364   1.000000   1.000000
   10        7.504276      6.851364   1.000000   1.000000
   11        7.617280      6.982073   1.000000   1.000000
   12        7.957287      7.272080   1.000000   1.000000
   13        8.305802      7.586651   1.000000   1.000000
   14        8.639476      7.950632   1.000000   1.000000
   15        8.646740      7.950632   1.000000   1.000000
   16        8.646740      7.955998   1.000000   1.000000
   17        8.987856      8.228238   1.000003   1.000000
   18        9.538500      8.734818   0.985994   1.000000
   19        9.538500      8.734818   0.985994   1.000000
   20        9.622970      8.783547   0.785384   1.000000
   21        9.923796      9.176257  -0.034277   1.000747
   22       11.372524     10.808396  -0.000000  -0.000000
   23       11.372524     10.808396  -0.000000  -0.000000
   24       13.583607     13.236957  -0.000000  -0.000000
   25       17.101471     16.799999   0.000000   0.000000
   26       19.888764     19.662732   0.000000   0.000000
   27       19.888764     19.662732   0.000000   0.000000
   28       22.874549     22.686589   0.000000   0.000000
   29       22.987228     22.829351   0.000000   0.000000
   30       25.445099     25.325804   0.000000   0.000000
   31       25.445099     25.325804   0.000000   0.000000
   32       28.308371     28.214379   0.000000   0.000000
 
  0.3750000E+00  0.3750000E+00  0.3750000E+00  0.1250000E+00
    1        4.639490      4.373787   1.000000   1.000000
    2        5.488468      5.025062   1.000000   1.000000
    3        5.488468      5.025062   1.000000   1.000000
    4        5.488468      5.025062   1.000000   1.000000
    5        7.489267      6.925065   1.000000   1.000000
    6        7.489267      6.925065   1.000000   1.000000
    7        7.489267      6.925065   1.000000   1.000000
    8        7.966443      7.268140   1.000000   1.000000
    9        7.966443      7.268140   1.000000   1.000000
   10        8.018823      7.427500   1.000000   1.000000
   11        8.121048      7.427500   1.000000   1.000000
   12        8.121048      7.427500   1.000000   1.000000
   13        8.121048      7.611173   1.000000   1.000000
   14        8.139462      7.611173   1.000000   1.000000
   15        8.139462      7.611173   1.000000   1.000000
   16        8.139462      7.701680   1.000000   1.000000
   17        9.640451      8.843742   0.723119   1.000000
   18        9.640451      8.843742   0.723119   1.000000
   19        9.890448      9.070158  -0.022354   1.000045
   20        9.890448      9.070158  -0.022354   1.000045
   21        9.890448      9.070158  -0.022354   1.000045
   22       11.317308     10.916269  -0.000000  -0.000000
   23       11.317308     10.916269  -0.000000  -0.000000
   24       11.317308     10.916269  -0.000000  -0.000000
   25       16.490774     16.108052   0.000000   0.000000
   26       16.490774     16.108052   0.000000   0.000000
   27       16.490774     16.108052   0.000000   0.000000
   28       18.880196     18.595529   0.000000   0.000000
   29       29.313752     29.274743   0.000000   0.000000
   30       29.313752     29.274743   0.000000   0.000000
   31       29.313752     29.274743   0.000000   0.000000
   32       31.722724     31.616748   0.000000   0.000000
