       N       E                     dE             d eps       ncg     rms          rms(c)
DAV:   1    -0.818224827057E+03   -0.81822E+03   -0.32326E+04   512   0.298E+03
DAV:   2    -0.100201939056E+04   -0.18379E+03   -0.18114E+03   736   0.397E+02
DAV:   3    -0.100437937494E+04   -0.23600E+01   -0.23079E+01   528   0.427E+01
DAV:   4    -0.100443539061E+04   -0.56016E-01   -0.55939E-01   704   0.624E+00
DAV:   5    -0.100443744833E+04   -0.20577E-02   -0.20575E-02   688   0.100E+00    0.139E+02
DAV:   6    -0.127387057106E+03    0.87705E+03   -0.60296E+02   768   0.181E+02    0.711E+01
DAV:   7    -0.285051673096E+03   -0.15766E+03   -0.34594E+03   640   0.387E+02    0.110E+02
DAV:   8    -0.269140116911E+02    0.25814E+03   -0.15120E+03   528   0.518E+02    0.286E+01
DAV:   9    -0.221591135161E+02    0.47549E+01   -0.71922E+01   656   0.859E+01    0.743E+00
DAV:  10    -0.287627073330E+02   -0.66036E+01   -0.10189E+01   592   0.439E+01    0.202E+01
DAV:  11    -0.219335602043E+02    0.68291E+01   -0.33395E+01   512   0.657E+01    0.667E+00
DAV:  12    -0.218832147211E+02    0.50345E-01   -0.24967E-01   688   0.594E+00    0.569E+00
DAV:  13    -0.219689186526E+02   -0.85704E-01   -0.43126E-02   688   0.258E+00    0.221E+00
DAV:  14    -0.219202354592E+02    0.48683E-01   -0.10131E-01   608   0.441E+00    0.102E+00
DAV:  15    -0.219223915524E+02   -0.21561E-02   -0.58012E-03   624   0.790E-01    0.508E-01
DAV:  16    -0.219219461412E+02    0.44541E-03   -0.14650E-03   720   0.436E-01    0.451E-01
DAV:  17    -0.219225211176E+02   -0.57498E-03   -0.29899E-04   640   0.227E-01    0.404E-01
DAV:  18    -0.219228862006E+02   -0.36508E-03   -0.17402E-04   704   0.153E-01    0.155E-01
DAV:  19    -0.219228861597E+02    0.40948E-07   -0.20034E-04   688   0.183E-01    0.185E-02
DAV:  20    -0.219228809097E+02    0.52500E-05   -0.11239E-05   704   0.377E-02    0.216E-02
DAV:  21    -0.219228824169E+02   -0.15071E-05   -0.43719E-07   448   0.706E-03    0.135E-02
DAV:  22    -0.219228825572E+02   -0.14039E-06   -0.13538E-06   432   0.160E-02
   1 F= -.21922883E+02 E0= -.21927329E+02  d E =0.133394E-01  mag=    -2.7550
