<?xml version="1.0" encoding="ISO-8859-1"?>
<modeling>
 <generator>
  <i name="program" type="string">vasp </i>
  <i name="version" type="string">5.4.1  </i>
  <i name="subversion" type="string">24Jun15 (build Jun 05 2017 10:38:15) complex                          parallel </i>
  <i name="platform" type="string">IFC91_ompi </i>
  <i name="date" type="string">2017 08 15 </i>
  <i name="time" type="string">16:43:42 </i>
 </generator>
 <incar>
  <i type="string" name="SYSTEM"> automatically generated by pyflamestk</i>
  <i type="int" name="ISTART">     0</i>
  <i type="string" name="PREC">high                   ! avoid wrap aro</i>
  <i type="string" name="ALGO"> Normal                 ! blocked Davids</i>
  <i type="int" name="ISPIN">     2</i>
  <i type="int" name="ICHARG">     0</i>
  <i type="int" name="NELM">    40</i>
  <i name="EDIFF">      0.00000100</i>
  <i name="ENCUT">    575.00000000</i>
  <v name="MAGMOM">      1.00000000      1.00000000      1.00000000      1.00000000</v>
  <i type="logical" name="LREAL"> F  </i>
  <i type="int" name="ISMEAR">     1</i>
  <i name="SIGMA">      0.20000000</i>
  <i type="logical" name="LWAVE"> F  </i>
  <i type="logical" name="LCHARG"> F  </i>
  <i type="logical" name="LVTOT"> F  </i>
  <v type="int" name="KPOINT_BSE">    -1     0     0     0</v>
  <i type="int" name="NELM">    40</i>
 </incar>
 <kpoints>
  <generation param="Monkhorst-Pack">
   <v type="int" name="divisions">       4        4        4 </v>
   <v name="usershift">      0.00000000       0.00000000       0.00000000 </v>
   <v name="genvec1">      0.25000000       0.00000000       0.00000000 </v>
   <v name="genvec2">      0.00000000       0.25000000       0.00000000 </v>
   <v name="genvec3">      0.00000000       0.00000000       0.25000000 </v>
   <v name="shift">      0.50000000       0.50000000       0.50000000 </v>
  </generation>
  <varray name="kpointlist" >
   <v>       0.12500000       0.12500000       0.12500000 </v>
   <v>       0.37500000       0.12500000       0.12500000 </v>
   <v>       0.37500000       0.37500000       0.12500000 </v>
   <v>       0.37500000       0.37500000       0.37500000 </v>
  </varray>
  <varray name="weights" >
   <v>       0.12500000 </v>
   <v>       0.37500000 </v>
   <v>       0.37500000 </v>
   <v>       0.12500000 </v>
  </varray>
 </kpoints>
 <parameters>
  <separator name="general" >
   <i type="string" name="SYSTEM">automatically generated by pyflamestk</i>
   <i type="logical" name="LCOMPAT"> F  </i>
  </separator>
  <separator name="electronic" >
   <i type="string" name="PREC">high</i>
   <i name="ENMAX">    575.00000000</i>
   <i name="ENAUG">    544.56500000</i>
   <i name="EDIFF">      0.00000100</i>
   <i type="int" name="IALGO">    38</i>
   <i type="int" name="IWAVPR">    10</i>
   <i type="int" name="NBANDS">    32</i>
   <i name="NELECT">     40.00000000</i>
   <i type="int" name="TURBO">     0</i>
   <i type="int" name="IRESTART">     0</i>
   <i type="int" name="NREBOOT">     0</i>
   <i type="int" name="NMIN">     0</i>
   <i name="EREF">      0.00000000</i>
   <separator name="electronic smearing" >
    <i type="int" name="ISMEAR">     1</i>
    <i name="SIGMA">      0.20000000</i>
    <i name="KSPACING">      0.50000000</i>
    <i type="logical" name="KGAMMA"> T  </i>
   </separator>
   <separator name="electronic projectors" >
    <i type="logical" name="LREAL"> F  </i>
    <v name="ROPT">      0.00000000</v>
    <i type="int" name="LMAXPAW">  -100</i>
    <i type="int" name="LMAXMIX">     2</i>
    <i type="logical" name="NLSPLINE"> F  </i>
   </separator>
   <separator name="electronic startup" >
    <i type="int" name="ISTART">     0</i>
    <i type="int" name="ICHARG">     0</i>
    <i type="int" name="INIWAV">     1</i>
   </separator>
   <separator name="electronic spin" >
    <i type="int" name="ISPIN">     2</i>
    <i type="logical" name="LNONCOLLINEAR"> F  </i>
    <v name="MAGMOM">      1.00000000      1.00000000      1.00000000      1.00000000</v>
    <i name="NUPDOWN">     -1.00000000</i>
    <i type="logical" name="LSORBIT"> F  </i>
    <v name="SAXIS">      0.00000000      0.00000000      1.00000000</v>
    <i type="logical" name="LSPIRAL"> F  </i>
    <v name="QSPIRAL">      0.00000000      0.00000000      0.00000000</v>
    <i type="logical" name="LZEROZ"> F  </i>
   </separator>
   <separator name="electronic exchange-correlation" >
    <i type="logical" name="LASPH"> F  </i>
    <i type="logical" name="LMETAGGA"> F  </i>
   </separator>
   <separator name="electronic convergence" >
    <i type="int" name="NELM">    40</i>
    <i type="int" name="NELMDL">    -5</i>
    <i type="int" name="NELMIN">     2</i>
    <i name="ENINI">    575.00000000</i>
    <separator name="electronic convergence detail" >
     <i type="logical" name="LDIAG"> T  </i>
     <i type="logical" name="LSUBROT"> F  </i>
     <i name="WEIMIN">      0.00000000</i>
     <i name="EBREAK">      0.00000001</i>
     <i name="DEPER">      0.30000000</i>
     <i type="int" name="NRMM">     4</i>
     <i name="TIME">      0.40000000</i>
    </separator>
   </separator>
   <separator name="electronic mixer" >
    <i name="AMIX">      0.40000000</i>
    <i name="BMIX">      1.00000000</i>
    <i name="AMIN">      0.10000000</i>
    <i name="AMIX_MAG">      1.60000000</i>
    <i name="BMIX_MAG">      1.00000000</i>
    <separator name="electronic mixer details" >
     <i type="int" name="IMIX">     4</i>
     <i type="logical" name="MIXFIRST"> F  </i>
     <i type="int" name="MAXMIX">   -45</i>
     <i name="WC">    100.00000000</i>
     <i type="int" name="INIMIX">     1</i>
     <i type="int" name="MIXPRE">     1</i>
     <i type="int" name="MREMOVE">     5</i>
    </separator>
   </separator>
   <separator name="electronic dipolcorrection" >
    <i type="logical" name="LDIPOL"> F  </i>
    <i type="logical" name="LMONO"> F  </i>
    <i type="int" name="IDIPOL">     0</i>
    <i name="EPSILON">      1.00000000</i>
    <v name="DIPOL">   -100.00000000   -100.00000000   -100.00000000</v>
    <i name="EFIELD">      0.00000000</i>
   </separator>
  </separator>
  <separator name="grids" >
   <i type="int" name="NGX">    28</i>
   <i type="int" name="NGY">    28</i>
   <i type="int" name="NGZ">    28</i>
   <i type="int" name="NGXF">    36</i>
   <i type="int" name="NGYF">    36</i>
   <i type="int" name="NGZF">    36</i>
   <i type="logical" name="ADDGRID"> F  </i>
  </separator>
  <separator name="ionic" >
   <i type="int" name="NSW">     0</i>
   <i type="int" name="IBRION">    -1</i>
   <i type="int" name="ISIF">     2</i>
   <i name="PSTRESS">      0.00000000</i>
   <i name="EDIFFG">      0.00001000</i>
   <i type="int" name="NFREE">     0</i>
   <i name="POTIM">      0.50000000</i>
   <i name="SMASS">     -3.00000000</i>
   <i name="SCALEE">      1.00000000</i>
  </separator>
  <separator name="ionic md" >
   <i name="TEBEG">      0.00010000</i>
   <i name="TEEND">      0.00010000</i>
   <i type="int" name="NBLOCK">     1</i>
   <i type="int" name="KBLOCK">     1</i>
   <i type="int" name="NPACO">   256</i>
   <i name="APACO">     16.00000000</i>
  </separator>
  <separator name="symmetry" >
   <i type="int" name="ISYM">     2</i>
   <i name="SYMPREC">      0.00001000</i>
  </separator>
  <separator name="dos" >
   <i type="logical" name="LORBIT"> F  </i>
   <v name="RWIGS">     -1.00000000</v>
   <i type="int" name="NEDOS">   301</i>
   <i name="EMIN">     10.00000000</i>
   <i name="EMAX">    -10.00000000</i>
   <i name="EFERMI">      0.00000000</i>
  </separator>
  <separator name="writing" >
   <i type="int" name="NWRITE">     2</i>
   <i type="logical" name="LWAVE"> F  </i>
   <i type="logical" name="LCHARG"> F  </i>
   <i type="logical" name="LPARD"> F  </i>
   <i type="logical" name="LVTOT"> F  </i>
   <i type="logical" name="LVHAR"> F  </i>
   <i type="logical" name="LELF"> F  </i>
   <i type="logical" name="LOPTICS"> F  </i>
   <v name="STM">      0.00000000      0.00000000      0.00000000      0.00000000      0.00000000      0.00000000      0.00000000</v>
  </separator>
  <separator name="performance" >
   <i type="int" name="NPAR">    16</i>
   <i type="int" name="NSIM">     4</i>
   <i type="int" name="NBLK">    -1</i>
   <i type="logical" name="LPLANE"> T  </i>
   <i type="logical" name="LSCALAPACK"> T  </i>
   <i type="logical" name="LSCAAWARE"> F  </i>
   <i type="logical" name="LSCALU"> F  </i>
   <i type="logical" name="LASYNC"> F  </i>
   <i type="logical" name="LORBITALREAL"> F  </i>
  </separator>
  <separator name="miscellaneous" >
   <i type="int" name="IDIOT">     3</i>
   <i type="logical" name="LMUSIC"> F  </i>
   <v name="POMASS">     58.69000000</v>
   <v name="DARWINR">      0.00000000</v>
   <v name="DARWINV">      1.00000000</v>
   <i type="logical" name="LCORR"> T  </i>
  </separator>
  <i type="logical" name="GGA_COMPAT"> T  </i>
  <i type="logical" name="LBERRY"> F  </i>
  <i type="int" name="ICORELEVEL">     0</i>
  <i type="logical" name="LDAU"> F  </i>
  <i type="int" name="I_CONSTRAINED_M">     0</i>
  <separator name="electronic exchange-correlation" >
   <i type="string" name="GGA">--</i>
   <i type="int" name="VOSKOWN">     0</i>
   <i type="logical" name="LHFCALC"> F  </i>
   <i type="string" name="PRECFOCK"></i>
   <i type="logical" name="LSYMGRAD"> F  </i>
   <i type="logical" name="LHFONE"> F  </i>
   <i type="logical" name="LRHFCALC"> F  </i>
   <i type="logical" name="LTHOMAS"> F  </i>
   <i type="logical" name="LMODELHF"> F  </i>
   <i name="ENCUT4O">     -1.00000000</i>
   <i type="int" name="EXXOEP">     0</i>
   <i type="int" name="FOURORBIT">     0</i>
   <i name="AEXX">      0.00000000</i>
   <i name="HFALPHA">      0.00000000</i>
   <i name="MCALPHA">      0.00000000</i>
   <i name="ALDAX">      1.00000000</i>
   <i name="AGGAX">      1.00000000</i>
   <i name="ALDAC">      1.00000000</i>
   <i name="AGGAC">      1.00000000</i>
   <i type="int" name="NKREDX">     1</i>
   <i type="int" name="NKREDY">     1</i>
   <i type="int" name="NKREDZ">     1</i>
   <i type="logical" name="SHIFTRED"> F  </i>
   <i type="logical" name="ODDONLY"> F  </i>
   <i type="logical" name="EVENONLY"> F  </i>
   <i type="int" name="LMAXFOCK">     0</i>
   <i type="int" name="NMAXFOCKAE">     0</i>
   <i type="logical" name="LFOCKAEDFT"> F  </i>
   <i name="HFSCREEN">      0.00000000</i>
   <i name="HFSCREENC">      0.00000000</i>
   <i type="int" name="NBANDSGWLOW">     0</i>
  </separator>
  <separator name="vdW DFT" >
   <i type="logical" name="LUSE_VDW"> F  </i>
   <i name="Zab_VDW">     -0.84910000</i>
   <i name="PARAM1">      0.12340000</i>
   <i name="PARAM2">      1.00000000</i>
   <i name="PARAM3">      0.00000000</i>
  </separator>
  <separator name="model GW" >
   <i type="int" name="MODEL_GW">     0</i>
   <i name="MODEL_EPS0">      6.38781045</i>
   <i name="MODEL_ALPHA">      1.00000000</i>
  </separator>
  <separator name="linear response parameters" >
   <i type="logical" name="LEPSILON"> F  </i>
   <i type="logical" name="LRPA"> F  </i>
   <i type="logical" name="LNABLA"> F  </i>
   <i type="logical" name="LVEL"> F  </i>
   <i type="int" name="KINTER">     0</i>
   <i name="CSHIFT">      0.10000000</i>
   <i name="OMEGAMAX">     -1.00000000</i>
   <i name="DEG_THRESHOLD">      0.00200000</i>
  </separator>
  <separator name="orbital magnetization" >
   <i type="logical" name="NUCIND"> F  </i>
   <v name="MAGPOS">      0.00000000      0.00000000      0.00000000</v>
   <i type="logical" name="LNICSALL"> T  </i>
   <i type="logical" name="ORBITALMAG"> F  </i>
   <i type="logical" name="LMAGBLOCH"> F  </i>
   <i type="logical" name="LCHIMAG"> F  </i>
   <i type="logical" name="LGAUGE"> T  </i>
   <i type="int" name="MAGATOM">     0</i>
   <v name="MAGDIPOL">      0.00000000      0.00000000      0.00000000</v>
   <v name="AVECCONST">      0.00000000      0.00000000      0.00000000</v>
  </separator>
  <separator name="response functions" >
   <i type="logical" name="LADDER"> F  </i>
   <i type="logical" name="LFXC"> F  </i>
   <i type="logical" name="LHARTREE"> T  </i>
   <i type="int" name="IBSE">     0</i>
   <v type="int" name="KPOINT">    -1     0     0     0</v>
   <i type="logical" name="LTCTE"> F  </i>
   <i type="logical" name="LTETE"> F  </i>
   <i type="logical" name="LTRIPLET"> F  </i>
   <i type="logical" name="LFXCEPS"> F  </i>
   <i type="logical" name="LFXHEG"> F  </i>
   <i type="int" name="NATURALO">     0</i>
   <i type="logical" name="L2ORDER"> F  </i>
   <i type="logical" name="LUSEW"> F  </i>
   <i name="ENCUTGW">     -2.00000000</i>
   <i name="ENCUTGWSOFT">     -2.00000000</i>
   <i name="ENCUTLF">     -1.00000000</i>
   <i type="int" name="LMAXMP2">    -1</i>
   <i name="SCISSOR">      0.00000000</i>
   <i type="int" name="NOMEGA">     0</i>
   <i type="int" name="NOMEGAR">     0</i>
   <i type="int" name="NBANDSGW">    -1</i>
   <i type="int" name="NBANDSO">    -1</i>
   <i type="int" name="NBANDSV">    -1</i>
   <i type="int" name="NELM">    40</i>
   <i type="int" name="NELMHF">     1</i>
   <i type="int" name="DIM">     3</i>
   <i type="int" name="ANTIRES">     0</i>
   <i name="OMEGAMAX">    -30.00000000</i>
   <i name="OMEGAMIN">    -30.00000000</i>
   <i name="OMEGATL">   -200.00000000</i>
   <i type="int" name="OMEGAGRID">     0</i>
   <i name="CSHIFT">     -0.10000000</i>
   <i type="logical" name="SELFENERGY"> F  </i>
   <i type="logical" name="LSPECTRAL"> F  </i>
   <i type="logical" name="LSPECTRALGW"> F  </i>
   <i type="logical" name="LSINGLES"> F  </i>
   <i type="logical" name="LFERMIGW"> F  </i>
   <i type="logical" name="ODDONLYGW"> F  </i>
   <i type="logical" name="EVENONLYGW"> F  </i>
   <i type="int" name="NKREDLFX">     1</i>
   <i type="int" name="NKREDLFY">     1</i>
   <i type="int" name="NKREDLFZ">     1</i>
   <i type="int" name="MAXMEM">  1800</i>
   <i type="int" name="TELESCOPE">     0</i>
   <i type="int" name="TAUPAR">     1</i>
   <i type="int" name="OMEGAPAR">    -1</i>
   <i name="LAMBDA">      1.00000000</i>
  </separator>
  <separator name="External order field" >
   <i name="OFIELD_KAPPA">      0.00000000</i>
   <v name="OFIELD_K">      0.00000000      0.00000000      0.00000000</v>
   <i name="OFIELD_Q6_NEAR">      0.00000000</i>
   <i name="OFIELD_Q6_FAR">      0.00000000</i>
   <i name="OFIELD_A">      0.00000000</i>
  </separator>
 </parameters>
 <atominfo>
  <atoms>       4 </atoms>
  <types>       1 </types>
  <array name="atoms" >
   <dimension dim="1">ion</dimension>
   <field type="string">element</field>
   <field type="int">atomtype</field>
   <set>
    <rc><c>Ni</c><c>   1</c></rc>
    <rc><c>Ni</c><c>   1</c></rc>
    <rc><c>Ni</c><c>   1</c></rc>
    <rc><c>Ni</c><c>   1</c></rc>
   </set>
  </array>
  <array name="atomtypes" >
   <dimension dim="1">type</dimension>
   <field type="int">atomspertype</field>
   <field type="string">element</field>
   <field>mass</field>
   <field>valence</field>
   <field type="string">pseudopotential</field>
   <set>
    <rc><c>   4</c><c>Ni</c><c>     58.69000000</c><c>     10.00000000</c><c>  PAW_PBE Ni 02Aug2007                  </c></rc>
   </set>
  </array>
 </atominfo>
 <structure name="initialpos" >
  <crystal>
   <varray name="basis" >
    <v>       3.49210200       0.00000000       0.00000000 </v>
    <v>       0.00000000       3.49210200       0.00000000 </v>
    <v>       0.00000000       0.00000000       3.49210200 </v>
   </varray>
   <i name="volume">     42.58540298 </i>
   <varray name="rec_basis" >
    <v>       0.28636048       0.00000000       0.00000000 </v>
    <v>       0.00000000       0.28636048       0.00000000 </v>
    <v>       0.00000000       0.00000000       0.28636048 </v>
   </varray>
  </crystal>
  <varray name="positions" >
   <v>       0.00000000       0.00000000       0.00000000 </v>
   <v>       0.00000000       0.50000000       0.50000000 </v>
   <v>       0.50000000       0.00000000       0.50000000 </v>
   <v>       0.50000000       0.50000000       0.00000000 </v>
  </varray>
 </structure>
 <calculation>
  <scstep>
   <time name="dav">    0.11    0.11</time>
   <time name="total">    0.13    0.14</time>
   <energy>
    <i name="alphaZ">    191.61485929 </i>
    <i name="ewald">  -3781.16325108 </i>
    <i name="hartreedc">    -90.01235542 </i>
    <i name="XCdc">     86.36192668 </i>
    <i name="pawpsdc">  84009.70461913 </i>
    <i name="pawaedc"> -84060.65793356 </i>
    <i name="eentropy">     -0.00426977 </i>
    <i name="bandstr">  -1484.75246188 </i>
    <i name="atom">   4310.68403955 </i>
    <i name="e_fr_energy">   -818.22482706 </i>
    <i name="e_wo_entrp">   -818.22055729 </i>
    <i name="e_0_energy">   -818.22340380 </i>
   </energy>
  </scstep>
  <scstep>
   <time name="dav">    0.17    0.17</time>
   <time name="total">    0.17    0.18</time>
   <energy>
    <i name="e_fr_energy">  -1002.01939057 </i>
    <i name="e_wo_entrp">  -1002.27269681 </i>
    <i name="e_0_energy">  -1002.10382598 </i>
   </energy>
  </scstep>
  <scstep>
   <time name="dav">    0.12    0.12</time>
   <time name="total">    0.12    0.12</time>
   <energy>
    <i name="e_fr_energy">  -1004.37937494 </i>
    <i name="e_wo_entrp">  -1004.65444340 </i>
    <i name="e_0_energy">  -1004.47106443 </i>
   </energy>
  </scstep>
  <scstep>
   <time name="dav">    0.16    0.16</time>
   <time name="total">    0.16    0.16</time>
   <energy>
    <i name="e_fr_energy">  -1004.43539061 </i>
    <i name="e_wo_entrp">  -1004.71032513 </i>
    <i name="e_0_energy">  -1004.52703545 </i>
   </energy>
  </scstep>
  <scstep>
   <time name="dav">    0.16    0.16</time>
   <time name="total">    0.18    0.18</time>
   <energy>
    <i name="e_fr_energy">  -1004.43744832 </i>
    <i name="e_wo_entrp">  -1004.71237431 </i>
    <i name="e_0_energy">  -1004.52909032 </i>
   </energy>
  </scstep>
  <scstep>
   <time name="dav">    0.18    0.18</time>
   <time name="total">    0.22    0.22</time>
   <energy>
    <i name="e_fr_energy">   -127.38705711 </i>
    <i name="e_wo_entrp">   -127.42996117 </i>
    <i name="e_0_energy">   -127.40135846 </i>
   </energy>
  </scstep>
  <scstep>
   <time name="dav">    0.14    0.14</time>
   <time name="total">    0.18    0.18</time>
   <energy>
    <i name="e_fr_energy">   -285.05167309 </i>
    <i name="e_wo_entrp">   -285.03820296 </i>
    <i name="e_0_energy">   -285.04718305 </i>
   </energy>
  </scstep>
  <scstep>
   <time name="dav">    0.12    0.12</time>
   <time name="total">    0.15    0.16</time>
   <energy>
    <i name="e_fr_energy">    -26.91401169 </i>
    <i name="e_wo_entrp">    -26.89650669 </i>
    <i name="e_0_energy">    -26.90817669 </i>
   </energy>
  </scstep>
  <scstep>
   <time name="dav">    0.15    0.15</time>
   <time name="total">    0.18    0.19</time>
   <energy>
    <i name="e_fr_energy">    -22.15911352 </i>
    <i name="e_wo_entrp">    -22.13356459 </i>
    <i name="e_0_energy">    -22.15059721 </i>
   </energy>
  </scstep>
  <scstep>
   <time name="dav">    0.13    0.13</time>
   <time name="total">    0.16    0.17</time>
   <energy>
    <i name="e_fr_energy">    -28.76270733 </i>
    <i name="e_wo_entrp">    -28.77469004 </i>
    <i name="e_0_energy">    -28.76670156 </i>
   </energy>
  </scstep>
  <scstep>
   <time name="dav">    0.11    0.11</time>
   <time name="total">    0.15    0.15</time>
   <energy>
    <i name="e_fr_energy">    -21.93356021 </i>
    <i name="e_wo_entrp">    -21.95230352 </i>
    <i name="e_0_energy">    -21.93980798 </i>
   </energy>
  </scstep>
  <scstep>
   <time name="dav">    0.15    0.15</time>
   <time name="total">    0.19    0.19</time>
   <energy>
    <i name="e_fr_energy">    -21.88321472 </i>
    <i name="e_wo_entrp">    -21.91893966 </i>
    <i name="e_0_energy">    -21.89512303 </i>
   </energy>
  </scstep>
  <scstep>
   <time name="dav">    0.15    0.15</time>
   <time name="total">    0.19    0.19</time>
   <energy>
    <i name="e_fr_energy">    -21.96891865 </i>
    <i name="e_wo_entrp">    -21.98368026 </i>
    <i name="e_0_energy">    -21.97383919 </i>
   </energy>
  </scstep>
  <scstep>
   <time name="dav">    0.14    0.14</time>
   <time name="total">    0.17    0.17</time>
   <energy>
    <i name="e_fr_energy">    -21.92023546 </i>
    <i name="e_wo_entrp">    -21.93314143 </i>
    <i name="e_0_energy">    -21.92453745 </i>
   </energy>
  </scstep>
  <scstep>
   <time name="dav">    0.14    0.14</time>
   <time name="total">    0.17    0.18</time>
   <energy>
    <i name="e_fr_energy">    -21.92239155 </i>
    <i name="e_wo_entrp">    -21.93612268 </i>
    <i name="e_0_energy">    -21.92696859 </i>
   </energy>
  </scstep>
  <scstep>
   <time name="dav">    0.16    0.16</time>
   <time name="total">    0.20    0.20</time>
   <energy>
    <i name="e_fr_energy">    -21.92194614 </i>
    <i name="e_wo_entrp">    -21.93600741 </i>
    <i name="e_0_energy">    -21.92663323 </i>
   </energy>
  </scstep>
  <scstep>
   <time name="dav">    0.14    0.14</time>
   <time name="total">    0.18    0.18</time>
   <energy>
    <i name="e_fr_energy">    -21.92252112 </i>
    <i name="e_wo_entrp">    -21.93638007 </i>
    <i name="e_0_energy">    -21.92714077 </i>
   </energy>
  </scstep>
  <scstep>
   <time name="dav">    0.16    0.16</time>
   <time name="total">    0.20    0.20</time>
   <energy>
    <i name="e_fr_energy">    -21.92288620 </i>
    <i name="e_wo_entrp">    -21.93642212 </i>
    <i name="e_0_energy">    -21.92739817 </i>
   </energy>
  </scstep>
  <scstep>
   <time name="dav">    0.16    0.16</time>
   <time name="total">    0.19    0.20</time>
   <energy>
    <i name="e_fr_energy">    -21.92288616 </i>
    <i name="e_wo_entrp">    -21.93621868 </i>
    <i name="e_0_energy">    -21.92733033 </i>
   </energy>
  </scstep>
  <scstep>
   <time name="dav">    0.16    0.16</time>
   <time name="total">    0.20    0.20</time>
   <energy>
    <i name="e_fr_energy">    -21.92288091 </i>
    <i name="e_wo_entrp">    -21.93619830 </i>
    <i name="e_0_energy">    -21.92732004 </i>
   </energy>
  </scstep>
  <scstep>
   <time name="dav">    0.12    0.12</time>
   <time name="total">    0.15    0.16</time>
   <energy>
    <i name="e_fr_energy">    -21.92288242 </i>
    <i name="e_wo_entrp">    -21.93620878 </i>
    <i name="e_0_energy">    -21.92732454 </i>
   </energy>
  </scstep>
  <scstep>
   <time name="dav">    0.11    0.11</time>
   <time name="total">    0.12    0.13</time>
   <energy>
    <i name="alphaZ">    191.61485929 </i>
    <i name="ewald">  -3781.16325108 </i>
    <i name="hartreedc">   -883.63915515 </i>
    <i name="XCdc">    123.14051754 </i>
    <i name="pawpsdc">   4304.82090862 </i>
    <i name="pawaedc">  -4579.80051837 </i>
    <i name="eentropy">      0.01333941 </i>
    <i name="bandstr">    292.40637764 </i>
    <i name="atom">   4310.68403955 </i>
    <i name="e_fr_energy">    -21.92288256 </i>
    <i name="e_wo_entrp">    -21.93622196 </i>
    <i name="e_0_energy">    -21.92732903 </i>
   </energy>
  </scstep>
  <structure>
   <crystal>
    <varray name="basis" >
     <v>       3.49210200       0.00000000       0.00000000 </v>
     <v>       0.00000000       3.49210200       0.00000000 </v>
     <v>       0.00000000       0.00000000       3.49210200 </v>
    </varray>
    <i name="volume">     42.58540298 </i>
    <varray name="rec_basis" >
     <v>       0.28636048       0.00000000       0.00000000 </v>
     <v>       0.00000000       0.28636048       0.00000000 </v>
     <v>       0.00000000       0.00000000       0.28636048 </v>
    </varray>
   </crystal>
   <varray name="positions" >
    <v>       0.00000000       0.00000000       0.00000000 </v>
    <v>       0.00000000       0.50000000       0.50000000 </v>
    <v>       0.50000000       0.00000000       0.50000000 </v>
    <v>       0.50000000       0.50000000       0.00000000 </v>
   </varray>
  </structure>
  <varray name="forces" >
   <v>      -0.00000000      -0.00000000       0.00000000 </v>
   <v>       0.00000000       0.00000000      -0.00000000 </v>
   <v>       0.00000000      -0.00000000       0.00000000 </v>
   <v>       0.00000000       0.00000000      -0.00000000 </v>
  </varray>
  <varray name="stress" >
   <v>      45.31803744       0.00000000       0.00000000 </v>
   <v>       0.00000000      45.31803744       0.00000000 </v>
   <v>       0.00000000       0.00000000      45.31803744 </v>
  </varray>
  <energy>
   <i name="e_fr_energy">    -21.92288256 </i>
   <i name="e_wo_entrp">    -21.92732903 </i>
   <i name="e_0_energy">      0.01333941 </i>
  </energy>
  <time name="totalsc">    3.88    3.96</time>
  <eigenvalues>
   <array>
    <dimension dim="1">band</dimension>
    <dimension dim="2">kpoint</dimension>
    <dimension dim="3">spin</dimension>
    <field>eigene</field>
    <field>occ</field>
    <set>
     <set comment="spin 1">
      <set comment="kpoint 1">
       <r>    1.1152    1.0000 </r>
       <r>    5.5089    1.0000 </r>
       <r>    5.5089    1.0000 </r>
       <r>    5.5089    1.0000 </r>
       <r>    6.1958    1.0000 </r>
       <r>    6.1958    1.0000 </r>
       <r>    6.1958    1.0000 </r>
       <r>    7.7902    1.0000 </r>
       <r>    8.0854    1.0000 </r>
       <r>    8.0854    1.0000 </r>
       <r>    9.0106    1.0000 </r>
       <r>    9.0106    1.0000 </r>
       <r>    9.0296    1.0000 </r>
       <r>    9.0296    1.0000 </r>
       <r>    9.0296    1.0000 </r>
       <r>    9.5331    0.9930 </r>
       <r>    9.5331    0.9930 </r>
       <r>    9.5331    0.9930 </r>
       <r>   10.0010   -0.0264 </r>
       <r>   10.0010   -0.0264 </r>
       <r>   10.0010   -0.0264 </r>
       <r>   12.4812   -0.0000 </r>
       <r>   12.4812   -0.0000 </r>
       <r>   12.4812   -0.0000 </r>
       <r>   20.7921    0.0000 </r>
       <r>   20.7921    0.0000 </r>
       <r>   20.7921    0.0000 </r>
       <r>   22.0668    0.0000 </r>
       <r>   22.0668    0.0000 </r>
       <r>   22.0668    0.0000 </r>
       <r>   25.6851    0.0000 </r>
       <r>   25.6851    0.0000 </r>
      </set>
      <set comment="kpoint 2">
       <r>    2.6396    1.0000 </r>
       <r>    4.8519    1.0000 </r>
       <r>    6.1955    1.0000 </r>
       <r>    6.1955    1.0000 </r>
       <r>    6.6354    1.0000 </r>
       <r>    6.6354    1.0000 </r>
       <r>    6.6550    1.0000 </r>
       <r>    7.3293    1.0000 </r>
       <r>    7.6859    1.0000 </r>
       <r>    7.6859    1.0000 </r>
       <r>    8.0762    1.0000 </r>
       <r>    8.2058    1.0000 </r>
       <r>    8.3872    1.0000 </r>
       <r>    8.8791    1.0000 </r>
       <r>    8.9674    1.0000 </r>
       <r>    9.0546    1.0000 </r>
       <r>    9.0546    1.0000 </r>
       <r>    9.3357    1.0145 </r>
       <r>    9.7532    0.2665 </r>
       <r>    9.9235   -0.0342 </r>
       <r>    9.9235   -0.0342 </r>
       <r>    9.9305   -0.0351 </r>
       <r>   14.8100   -0.0000 </r>
       <r>   14.8100   -0.0000 </r>
       <r>   18.0823    0.0000 </r>
       <r>   18.0823    0.0000 </r>
       <r>   21.7853    0.0000 </r>
       <r>   21.7853    0.0000 </r>
       <r>   23.8638    0.0000 </r>
       <r>   24.0393    0.0000 </r>
       <r>   24.0393    0.0000 </r>
       <r>   26.9658    0.0000 </r>
      </set>
      <set comment="kpoint 3">
       <r>    3.9362    1.0000 </r>
       <r>    5.6661    1.0000 </r>
       <r>    5.6661    1.0000 </r>
       <r>    6.2846    1.0000 </r>
       <r>    6.8403    1.0000 </r>
       <r>    7.0015    1.0000 </r>
       <r>    7.0015    1.0000 </r>
       <r>    7.3221    1.0000 </r>
       <r>    7.5043    1.0000 </r>
       <r>    7.5043    1.0000 </r>
       <r>    7.6173    1.0000 </r>
       <r>    7.9573    1.0000 </r>
       <r>    8.3058    1.0000 </r>
       <r>    8.6395    1.0000 </r>
       <r>    8.6467    1.0000 </r>
       <r>    8.6467    1.0000 </r>
       <r>    8.9879    1.0000 </r>
       <r>    9.5385    0.9860 </r>
       <r>    9.5385    0.9860 </r>
       <r>    9.6230    0.7854 </r>
       <r>    9.9238   -0.0343 </r>
       <r>   11.3725   -0.0000 </r>
       <r>   11.3725   -0.0000 </r>
       <r>   13.5836   -0.0000 </r>
       <r>   17.1015    0.0000 </r>
       <r>   19.8888    0.0000 </r>
       <r>   19.8888    0.0000 </r>
       <r>   22.8745    0.0000 </r>
       <r>   22.9872    0.0000 </r>
       <r>   25.4451    0.0000 </r>
       <r>   25.4451    0.0000 </r>
       <r>   28.3084    0.0000 </r>
      </set>
      <set comment="kpoint 4">
       <r>    4.6395    1.0000 </r>
       <r>    5.4885    1.0000 </r>
       <r>    5.4885    1.0000 </r>
       <r>    5.4885    1.0000 </r>
       <r>    7.4893    1.0000 </r>
       <r>    7.4893    1.0000 </r>
       <r>    7.4893    1.0000 </r>
       <r>    7.9664    1.0000 </r>
       <r>    7.9664    1.0000 </r>
       <r>    8.0188    1.0000 </r>
       <r>    8.1210    1.0000 </r>
       <r>    8.1210    1.0000 </r>
       <r>    8.1210    1.0000 </r>
       <r>    8.1395    1.0000 </r>
       <r>    8.1395    1.0000 </r>
       <r>    8.1395    1.0000 </r>
       <r>    9.6405    0.7231 </r>
       <r>    9.6405    0.7231 </r>
       <r>    9.8904   -0.0224 </r>
       <r>    9.8904   -0.0224 </r>
       <r>    9.8904   -0.0224 </r>
       <r>   11.3173   -0.0000 </r>
       <r>   11.3173   -0.0000 </r>
       <r>   11.3173   -0.0000 </r>
       <r>   16.4908    0.0000 </r>
       <r>   16.4908    0.0000 </r>
       <r>   16.4908    0.0000 </r>
       <r>   18.8802    0.0000 </r>
       <r>   29.3138    0.0000 </r>
       <r>   29.3138    0.0000 </r>
       <r>   29.3138    0.0000 </r>
       <r>   31.7227    0.0000 </r>
      </set>
     </set>
     <set comment="spin 2">
      <set comment="kpoint 1">
       <r>    1.1274    1.0000 </r>
       <r>    5.1061    1.0000 </r>
       <r>    5.1061    1.0000 </r>
       <r>    5.1061    1.0000 </r>
       <r>    5.5542    1.0000 </r>
       <r>    5.5542    1.0000 </r>
       <r>    5.5542    1.0000 </r>
       <r>    7.0288    1.0000 </r>
       <r>    7.2995    1.0000 </r>
       <r>    7.2995    1.0000 </r>
       <r>    8.3223    1.0000 </r>
       <r>    8.3223    1.0000 </r>
       <r>    8.3471    1.0000 </r>
       <r>    8.3471    1.0000 </r>
       <r>    8.3471    1.0000 </r>
       <r>    8.7962    1.0000 </r>
       <r>    8.7962    1.0000 </r>
       <r>    8.7962    1.0000 </r>
       <r>    9.1470    1.0004 </r>
       <r>    9.1470    1.0004 </r>
       <r>    9.1470    1.0004 </r>
       <r>   12.2173   -0.0000 </r>
       <r>   12.2173   -0.0000 </r>
       <r>   12.2173   -0.0000 </r>
       <r>   20.5664    0.0000 </r>
       <r>   20.5664    0.0000 </r>
       <r>   20.5664    0.0000 </r>
       <r>   21.9420    0.0000 </r>
       <r>   21.9420    0.0000 </r>
       <r>   21.9420    0.0000 </r>
       <r>   25.6317    0.0000 </r>
       <r>   25.6317    0.0000 </r>
      </set>
      <set comment="kpoint 2">
       <r>    2.6364    1.0000 </r>
       <r>    4.6901    1.0000 </r>
       <r>    5.7401    1.0000 </r>
       <r>    5.7401    1.0000 </r>
       <r>    5.9867    1.0000 </r>
       <r>    6.0318    1.0000 </r>
       <r>    6.0318    1.0000 </r>
       <r>    6.6099    1.0000 </r>
       <r>    7.0531    1.0000 </r>
       <r>    7.0531    1.0000 </r>
       <r>    7.4813    1.0000 </r>
       <r>    7.4836    1.0000 </r>
       <r>    7.6106    1.0000 </r>
       <r>    8.1595    1.0000 </r>
       <r>    8.1967    1.0000 </r>
       <r>    8.3765    1.0000 </r>
       <r>    8.3765    1.0000 </r>
       <r>    8.6136    1.0000 </r>
       <r>    8.9791    1.0000 </r>
       <r>    9.0487    1.0000 </r>
       <r>    9.0487    1.0000 </r>
       <r>    9.2704    1.0052 </r>
       <r>   14.5224   -0.0000 </r>
       <r>   14.5224   -0.0000 </r>
       <r>   17.8618    0.0000 </r>
       <r>   17.8618    0.0000 </r>
       <r>   21.6000    0.0000 </r>
       <r>   21.6000    0.0000 </r>
       <r>   23.7202    0.0000 </r>
       <r>   23.9118    0.0000 </r>
       <r>   23.9118    0.0000 </r>
       <r>   26.8384    0.0000 </r>
      </set>
      <set comment="kpoint 3">
       <r>    3.8693    1.0000 </r>
       <r>    5.3584    1.0000 </r>
       <r>    5.3584    1.0000 </r>
       <r>    5.7512    1.0000 </r>
       <r>    6.3803    1.0000 </r>
       <r>    6.4433    1.0000 </r>
       <r>    6.4433    1.0000 </r>
       <r>    6.6710    1.0000 </r>
       <r>    6.8514    1.0000 </r>
       <r>    6.8514    1.0000 </r>
       <r>    6.9821    1.0000 </r>
       <r>    7.2721    1.0000 </r>
       <r>    7.5867    1.0000 </r>
       <r>    7.9506    1.0000 </r>
       <r>    7.9506    1.0000 </r>
       <r>    7.9560    1.0000 </r>
       <r>    8.2282    1.0000 </r>
       <r>    8.7348    1.0000 </r>
       <r>    8.7348    1.0000 </r>
       <r>    8.7835    1.0000 </r>
       <r>    9.1763    1.0007 </r>
       <r>   10.8084   -0.0000 </r>
       <r>   10.8084   -0.0000 </r>
       <r>   13.2370   -0.0000 </r>
       <r>   16.8000    0.0000 </r>
       <r>   19.6627    0.0000 </r>
       <r>   19.6627    0.0000 </r>
       <r>   22.6866    0.0000 </r>
       <r>   22.8294    0.0000 </r>
       <r>   25.3258    0.0000 </r>
       <r>   25.3258    0.0000 </r>
       <r>   28.2144    0.0000 </r>
      </set>
      <set comment="kpoint 4">
       <r>    4.3738    1.0000 </r>
       <r>    5.0251    1.0000 </r>
       <r>    5.0251    1.0000 </r>
       <r>    5.0251    1.0000 </r>
       <r>    6.9251    1.0000 </r>
       <r>    6.9251    1.0000 </r>
       <r>    6.9251    1.0000 </r>
       <r>    7.2681    1.0000 </r>
       <r>    7.2681    1.0000 </r>
       <r>    7.4275    1.0000 </r>
       <r>    7.4275    1.0000 </r>
       <r>    7.4275    1.0000 </r>
       <r>    7.6112    1.0000 </r>
       <r>    7.6112    1.0000 </r>
       <r>    7.6112    1.0000 </r>
       <r>    7.7017    1.0000 </r>
       <r>    8.8437    1.0000 </r>
       <r>    8.8437    1.0000 </r>
       <r>    9.0702    1.0000 </r>
       <r>    9.0702    1.0000 </r>
       <r>    9.0702    1.0000 </r>
       <r>   10.9163   -0.0000 </r>
       <r>   10.9163   -0.0000 </r>
       <r>   10.9163   -0.0000 </r>
       <r>   16.1081    0.0000 </r>
       <r>   16.1081    0.0000 </r>
       <r>   16.1081    0.0000 </r>
       <r>   18.5955    0.0000 </r>
       <r>   29.2747    0.0000 </r>
       <r>   29.2747    0.0000 </r>
       <r>   29.2747    0.0000 </r>
       <r>   31.6167    0.0000 </r>
      </set>
     </set>
    </set>
   </array>
  </eigenvalues>
  <separator name="orbital magnetization" >
   <v name="MAGDIPOLOUT">      0.00000000      0.00000000      0.00000000</v>
  </separator>
  <dos>
   <i name="efermi">      9.69541472 </i>
   <total>
    <array>
     <dimension dim="1">gridpoints</dimension>
     <dimension dim="2">spin</dimension>
     <field>energy</field>
     <field>total</field>
     <field>integrated</field>
     <set>
      <set comment="spin 1">
       <r>    -0.8848     0.0000     0.0000 </r>
       <r>    -0.7694     0.0000     0.0000 </r>
       <r>    -0.6541     0.0000     0.0000 </r>
       <r>    -0.5387    -0.0000    -0.0000 </r>
       <r>    -0.4234    -0.0000    -0.0000 </r>
       <r>    -0.3080    -0.0000    -0.0000 </r>
       <r>    -0.1927    -0.0000    -0.0000 </r>
       <r>    -0.0773    -0.0000    -0.0000 </r>
       <r>     0.0381    -0.0000    -0.0000 </r>
       <r>     0.1534    -0.0000    -0.0000 </r>
       <r>     0.2688    -0.0000    -0.0000 </r>
       <r>     0.3841    -0.0000    -0.0000 </r>
       <r>     0.4995    -0.0001    -0.0000 </r>
       <r>     0.6149    -0.0012    -0.0001 </r>
       <r>     0.7302    -0.0097    -0.0013 </r>
       <r>     0.8456    -0.0253    -0.0042 </r>
       <r>     0.9609     0.0554     0.0022 </r>
       <r>     1.0763     0.3480     0.0423 </r>
       <r>     1.1916     0.4985     0.0998 </r>
       <r>     1.3070     0.2401     0.1275 </r>
       <r>     1.4224     0.0062     0.1283 </r>
       <r>     1.5377    -0.0223     0.1257 </r>
       <r>     1.6531    -0.0054     0.1251 </r>
       <r>     1.7684    -0.0005     0.1250 </r>
       <r>     1.8838    -0.0000     0.1250 </r>
       <r>     1.9992    -0.0001     0.1250 </r>
       <r>     2.1145    -0.0020     0.1248 </r>
       <r>     2.2299    -0.0200     0.1224 </r>
       <r>     2.3452    -0.0718     0.1142 </r>
       <r>     2.4606     0.0597     0.1211 </r>
       <r>     2.5759     0.8314     0.2170 </r>
       <r>     2.6913     1.5139     0.3916 </r>
       <r>     2.8067     0.9349     0.4995 </r>
       <r>     2.9220     0.1065     0.5117 </r>
       <r>     3.0374    -0.0749     0.5031 </r>
       <r>     3.1527    -0.0241     0.5003 </r>
       <r>     3.2681    -0.0027     0.5000 </r>
       <r>     3.3835    -0.0012     0.4999 </r>
       <r>     3.4988    -0.0125     0.4984 </r>
       <r>     3.6142    -0.0599     0.4915 </r>
       <r>     3.7295    -0.0183     0.4894 </r>
       <r>     3.8449     0.5950     0.5581 </r>
       <r>     3.9602     1.4508     0.7254 </r>
       <r>     4.0756     1.1628     0.8596 </r>
       <r>     4.1910     0.2443     0.8877 </r>
       <r>     4.3063    -0.0926     0.8771 </r>
       <r>     4.4217    -0.0629     0.8698 </r>
       <r>     4.5370     0.1000     0.8813 </r>
       <r>     4.6524     0.4651     0.9350 </r>
       <r>     4.7678     1.0700     1.0584 </r>
       <r>     4.8831     1.5808     1.2408 </r>
       <r>     4.9985     1.0768     1.3650 </r>
       <r>     5.1138     0.1322     1.3803 </r>
       <r>     5.2292    -0.2525     1.3511 </r>
       <r>     5.3445     0.1872     1.3727 </r>
       <r>     5.4599     2.0476     1.6089 </r>
       <r>     5.5753     4.1753     2.0906 </r>
       <r>     5.6906     4.3352     2.5907 </r>
       <r>     5.8060     2.2735     2.8530 </r>
       <r>     5.9213     0.0904     2.8634 </r>
       <r>     6.0367     0.1802     2.8842 </r>
       <r>     6.1521     3.2184     3.2554 </r>
       <r>     6.2674     5.6161     3.9033 </r>
       <r>     6.3828     3.4716     4.3038 </r>
       <r>     6.4981     1.2543     4.4485 </r>
       <r>     6.6135     3.0361     4.7987 </r>
       <r>     6.7289     4.5593     5.3247 </r>
       <r>     6.8442     3.5263     5.7315 </r>
       <r>     6.9596     3.2439     6.1057 </r>
       <r>     7.0749     3.0042     6.4522 </r>
       <r>     7.1903     1.7150     6.6501 </r>
       <r>     7.3056     2.3075     6.9163 </r>
       <r>     7.4210     4.6794     7.4561 </r>
       <r>     7.5364     6.5633     8.2132 </r>
       <r>     7.6517     6.6944     8.9855 </r>
       <r>     7.7671     4.6526     9.5222 </r>
       <r>     7.8824     2.8313     9.8488 </r>
       <r>     7.9978     4.5082    10.3689 </r>
       <r>     8.1132     7.4803    11.2318 </r>
       <r>     8.2285     7.3319    12.0776 </r>
       <r>     8.3439     4.7291    12.6231 </r>
       <r>     8.4592     2.6491    12.9287 </r>
       <r>     8.5746     2.8742    13.2603 </r>
       <r>     8.6899     4.1223    13.7358 </r>
       <r>     8.8053     3.5727    14.1480 </r>
       <r>     8.9207     5.0629    14.7320 </r>
       <r>     9.0360     8.4796    15.7102 </r>
       <r>     9.1514     6.6861    16.4815 </r>
       <r>     9.2667     2.1873    16.7338 </r>
       <r>     9.3821     1.4993    16.9068 </r>
       <r>     9.4975     4.2000    17.3913 </r>
       <r>     9.6128     6.4825    18.1391 </r>
       <r>     9.7282     5.6795    18.7943 </r>
       <r>     9.8435     6.2125    19.5109 </r>
       <r>     9.9589     8.8012    20.5262 </r>
       <r>    10.0742     6.4823    21.2740 </r>
       <r>    10.1896     1.4848    21.4453 </r>
       <r>    10.3050    -0.3584    21.4040 </r>
       <r>    10.4203    -0.2135    21.3793 </r>
       <r>    10.5357    -0.0349    21.3753 </r>
       <r>    10.6510    -0.0026    21.3750 </r>
       <r>    10.7664    -0.0017    21.3748 </r>
       <r>    10.8818    -0.0216    21.3723 </r>
       <r>    10.9971    -0.1273    21.3576 </r>
       <r>    11.1125    -0.1641    21.3387 </r>
       <r>    11.2278     1.0446    21.4592 </r>
       <r>    11.3432     3.7014    21.8862 </r>
       <r>    11.4585     4.0879    22.3578 </r>
       <r>    11.5739     1.5147    22.5325 </r>
       <r>    11.6893    -0.0870    22.5225 </r>
       <r>    11.8046    -0.1598    22.5040 </r>
       <r>    11.9200    -0.0330    22.5002 </r>
       <r>    12.0353    -0.0133    22.4987 </r>
       <r>    12.1507    -0.0557    22.4923 </r>
       <r>    12.2661    -0.0346    22.4883 </r>
       <r>    12.3814     0.5260    22.5489 </r>
       <r>    12.4968     1.4147    22.7121 </r>
       <r>    12.6121     1.2267    22.8536 </r>
       <r>    12.7275     0.3004    22.8883 </r>
       <r>    12.8428    -0.0694    22.8803 </r>
       <r>    12.9582    -0.0398    22.8757 </r>
       <r>    13.0736    -0.0087    22.8747 </r>
       <r>    13.1889    -0.0257    22.8717 </r>
       <r>    13.3043    -0.0754    22.8630 </r>
       <r>    13.4196     0.1201    22.8769 </r>
       <r>    13.5350     0.9617    22.9878 </r>
       <r>    13.6504     1.5111    23.1622 </r>
       <r>    13.7657     0.8043    23.2549 </r>
       <r>    13.8811     0.0489    23.2606 </r>
       <r>    13.9964    -0.0707    23.2524 </r>
       <r>    14.1118    -0.0191    23.2502 </r>
       <r>    14.2271    -0.0028    23.2499 </r>
       <r>    14.3425    -0.0142    23.2483 </r>
       <r>    14.4579    -0.0889    23.2380 </r>
       <r>    14.5732    -0.1248    23.2236 </r>
       <r>    14.6886     0.7285    23.3077 </r>
       <r>    14.8039     2.5849    23.6058 </r>
       <r>    14.9193     2.7316    23.9210 </r>
       <r>    15.0347     0.9040    24.0252 </r>
       <r>    15.1500    -0.0982    24.0139 </r>
       <r>    15.2654    -0.1013    24.0022 </r>
       <r>    15.3807    -0.0179    24.0002 </r>
       <r>    15.4961    -0.0013    24.0000 </r>
       <r>    15.6114    -0.0000    24.0000 </r>
       <r>    15.7268    -0.0000    24.0000 </r>
       <r>    15.8422    -0.0001    24.0000 </r>
       <r>    15.9575    -0.0017    23.9998 </r>
       <r>    16.0729    -0.0175    23.9978 </r>
       <r>    16.1882    -0.0688    23.9898 </r>
       <r>    16.3036     0.0324    23.9936 </r>
       <r>    16.4190     0.7603    24.0813 </r>
       <r>    16.5343     1.5035    24.2547 </r>
       <r>    16.6497     0.9953    24.3695 </r>
       <r>    16.7650     0.0910    24.3800 </r>
       <r>    16.8804    -0.1200    24.3662 </r>
       <r>    16.9958     0.4522    24.4184 </r>
       <r>    17.1111     1.3820    24.5778 </r>
       <r>    17.2265     1.2682    24.7241 </r>
       <r>    17.3418     0.3396    24.7633 </r>
       <r>    17.4572    -0.0656    24.7557 </r>
       <r>    17.5725    -0.0484    24.7501 </r>
       <r>    17.6879    -0.0573    24.7435 </r>
       <r>    17.8033    -0.1513    24.7260 </r>
       <r>    17.9186     0.2424    24.7540 </r>
       <r>    18.0340     1.9276    24.9764 </r>
       <r>    18.1493     3.0217    25.3250 </r>
       <r>    18.2647     1.6043    25.5100 </r>
       <r>    18.3801     0.0949    25.5210 </r>
       <r>    18.4954    -0.1510    25.5036 </r>
       <r>    18.6108    -0.0633    25.4963 </r>
       <r>    18.7261     0.0520    25.5023 </r>
       <r>    18.8415     0.3483    25.5424 </r>
       <r>    18.9568     0.4983    25.5999 </r>
       <r>    19.0722     0.2395    25.6276 </r>
       <r>    19.1876     0.0060    25.6282 </r>
       <r>    19.3029    -0.0231    25.6256 </r>
       <r>    19.4183    -0.0187    25.6234 </r>
       <r>    19.5336    -0.0863    25.6135 </r>
       <r>    19.6490    -0.1298    25.5985 </r>
       <r>    19.7644     0.6871    25.6778 </r>
       <r>    19.8797     2.5447    25.9713 </r>
       <r>    19.9951     2.7643    26.2902 </r>
       <r>    20.1104     0.9498    26.3998 </r>
       <r>    20.2258    -0.0906    26.3893 </r>
       <r>    20.3411    -0.1142    26.3761 </r>
       <r>    20.4565    -0.0719    26.3678 </r>
       <r>    20.5719    -0.0442    26.3627 </r>
       <r>    20.6872     0.4859    26.4188 </r>
       <r>    20.8026     1.3896    26.5791 </r>
       <r>    20.9179     1.2626    26.7248 </r>
       <r>    21.0333     0.3339    26.7633 </r>
       <r>    21.1487    -0.0662    26.7556 </r>
       <r>    21.2640    -0.0466    26.7503 </r>
       <r>    21.3794    -0.0490    26.7446 </r>
       <r>    21.4947    -0.1469    26.7277 </r>
       <r>    21.6101     0.1387    26.7437 </r>
       <r>    21.7254     1.6789    26.9373 </r>
       <r>    21.8408     2.9805    27.2812 </r>
       <r>    21.9562     2.2460    27.5403 </r>
       <r>    22.0715     1.5396    27.7179 </r>
       <r>    22.1869     1.1531    27.8509 </r>
       <r>    22.3022     0.3276    27.8887 </r>
       <r>    22.4176    -0.0754    27.8800 </r>
       <r>    22.5330    -0.1043    27.8679 </r>
       <r>    22.6483    -0.1096    27.8553 </r>
       <r>    22.7637     0.3922    27.9005 </r>
       <r>    22.8790     1.8175    28.1102 </r>
       <r>    22.9944     2.6745    28.4187 </r>
       <r>    23.1097     1.6602    28.6102 </r>
       <r>    23.2251     0.2954    28.6443 </r>
       <r>    23.3405    -0.1107    28.6316 </r>
       <r>    23.4558    -0.0727    28.6232 </r>
       <r>    23.5712    -0.0937    28.6124 </r>
       <r>    23.6865    -0.0226    28.6098 </r>
       <r>    23.8019     0.7209    28.6929 </r>
       <r>    23.9173     2.2349    28.9507 </r>
       <r>    24.0326     3.4964    29.3541 </r>
       <r>    24.1480     2.8375    29.6814 </r>
       <r>    24.2633     0.8388    29.7782 </r>
       <r>    24.3787    -0.1201    29.7643 </r>
       <r>    24.4940    -0.1045    29.7523 </r>
       <r>    24.6094    -0.0182    29.7502 </r>
       <r>    24.7248    -0.0013    29.7500 </r>
       <r>    24.8401    -0.0006    29.7499 </r>
       <r>    24.9555    -0.0089    29.7489 </r>
       <r>    25.0708    -0.0677    29.7411 </r>
       <r>    25.1862    -0.1515    29.7236 </r>
       <r>    25.3016     0.4280    29.7730 </r>
       <r>    25.4169     2.2116    30.0281 </r>
       <r>    25.5323     3.0467    30.3796 </r>
       <r>    25.6476     1.9620    30.6059 </r>
       <r>    25.7630     0.9763    30.7185 </r>
       <r>    25.8784     0.3481    30.7587 </r>
       <r>    25.9937    -0.0173    30.7567 </r>
       <r>    26.1091    -0.0464    30.7513 </r>
       <r>    26.2244    -0.0106    30.7501 </r>
       <r>    26.3398    -0.0011    30.7500 </r>
       <r>    26.4551    -0.0029    30.7497 </r>
       <r>    26.5705    -0.0251    30.7468 </r>
       <r>    26.6859    -0.0753    30.7381 </r>
       <r>    26.8012     0.1175    30.7516 </r>
       <r>    26.9166     0.9567    30.8620 </r>
       <r>    27.0319     1.5117    31.0364 </r>
       <r>    27.1473     0.8094    31.1298 </r>
       <r>    27.2627     0.0509    31.1356 </r>
       <r>    27.3780    -0.0709    31.1274 </r>
       <r>    27.4934    -0.0192    31.1252 </r>
       <r>    27.6087    -0.0019    31.1250 </r>
       <r>    27.7241    -0.0005    31.1249 </r>
       <r>    27.8394    -0.0069    31.1242 </r>
       <r>    27.9548    -0.0437    31.1191 </r>
       <r>    28.0702    -0.0636    31.1118 </r>
       <r>    28.1855     0.3542    31.1526 </r>
       <r>    28.3009     1.2828    31.3006 </r>
       <r>    28.4162     1.3738    31.4591 </r>
       <r>    28.5316     0.4630    31.5125 </r>
       <r>    28.6470    -0.0472    31.5071 </r>
       <r>    28.7623    -0.0525    31.5010 </r>
       <r>    28.8777    -0.0220    31.4985 </r>
       <r>    28.9930    -0.0612    31.4914 </r>
       <r>    29.1084    -0.0156    31.4896 </r>
       <r>    29.2237     0.6055    31.5595 </r>
       <r>    29.3391     1.4555    31.7274 </r>
       <r>    29.4545     1.1533    31.8604 </r>
       <r>    29.5698     0.2403    31.8881 </r>
       <r>    29.6852    -0.0737    31.8796 </r>
       <r>    29.8005    -0.0351    31.8756 </r>
       <r>    29.9159    -0.0047    31.8750 </r>
       <r>    30.0313    -0.0003    31.8750 </r>
       <r>    30.1466    -0.0000    31.8750 </r>
       <r>    30.2620    -0.0000    31.8750 </r>
       <r>    30.3773    -0.0000    31.8750 </r>
       <r>    30.4927    -0.0000    31.8750 </r>
       <r>    30.6080    -0.0000    31.8750 </r>
       <r>    30.7234    -0.0000    31.8750 </r>
       <r>    30.8388    -0.0000    31.8750 </r>
       <r>    30.9541    -0.0000    31.8750 </r>
       <r>    31.0695    -0.0000    31.8750 </r>
       <r>    31.1848    -0.0005    31.8749 </r>
       <r>    31.3002    -0.0054    31.8743 </r>
       <r>    31.4156    -0.0223    31.8717 </r>
       <r>    31.5309     0.0062    31.8725 </r>
       <r>    31.6463     0.2401    31.9002 </r>
       <r>    31.7616     0.4985    31.9577 </r>
       <r>    31.8770     0.3480    31.9978 </r>
       <r>    31.9923     0.0554    32.0042 </r>
       <r>    32.1077    -0.0253    32.0013 </r>
       <r>    32.2231    -0.0097    32.0001 </r>
       <r>    32.3384    -0.0012    32.0000 </r>
       <r>    32.4538    -0.0001    32.0000 </r>
       <r>    32.5691    -0.0000    32.0000 </r>
       <r>    32.6845    -0.0000    32.0000 </r>
       <r>    32.7999    -0.0000    32.0000 </r>
       <r>    32.9152    -0.0000    32.0000 </r>
       <r>    33.0306    -0.0000    32.0000 </r>
       <r>    33.1459     0.0000    32.0000 </r>
       <r>    33.2613     0.0000    32.0000 </r>
       <r>    33.3766     0.0000    32.0000 </r>
       <r>    33.4920     0.0000    32.0000 </r>
       <r>    33.6074     0.0000    32.0000 </r>
       <r>    33.7227     0.0000    32.0000 </r>
      </set>
      <set comment="spin 2">
       <r>    -0.8848     0.0000     0.0000 </r>
       <r>    -0.7694     0.0000     0.0000 </r>
       <r>    -0.6541     0.0000     0.0000 </r>
       <r>    -0.5387    -0.0000    -0.0000 </r>
       <r>    -0.4234    -0.0000    -0.0000 </r>
       <r>    -0.3080    -0.0000    -0.0000 </r>
       <r>    -0.1927    -0.0000    -0.0000 </r>
       <r>    -0.0773    -0.0000    -0.0000 </r>
       <r>     0.0381    -0.0000    -0.0000 </r>
       <r>     0.1534    -0.0000    -0.0000 </r>
       <r>     0.2688    -0.0000    -0.0000 </r>
       <r>     0.3841    -0.0000    -0.0000 </r>
       <r>     0.4995    -0.0000    -0.0000 </r>
       <r>     0.6149    -0.0009    -0.0001 </r>
       <r>     0.7302    -0.0081    -0.0010 </r>
       <r>     0.8456    -0.0250    -0.0039 </r>
       <r>     0.9609     0.0364     0.0003 </r>
       <r>     1.0763     0.3134     0.0364 </r>
       <r>     1.1916     0.5045     0.0946 </r>
       <r>     1.3070     0.2754     0.1264 </r>
       <r>     1.4224     0.0192     0.1286 </r>
       <r>     1.5377    -0.0239     0.1258 </r>
       <r>     1.6531    -0.0066     0.1251 </r>
       <r>     1.7684    -0.0007     0.1250 </r>
       <r>     1.8838    -0.0000     0.1250 </r>
       <r>     1.9992    -0.0001     0.1250 </r>
       <r>     2.1145    -0.0022     0.1247 </r>
       <r>     2.2299    -0.0211     0.1223 </r>
       <r>     2.3452    -0.0728     0.1139 </r>
       <r>     2.4606     0.0713     0.1221 </r>
       <r>     2.5759     0.8590     0.2212 </r>
       <r>     2.6913     1.5155     0.3961 </r>
       <r>     2.8067     0.9076     0.5008 </r>
       <r>     2.9220     0.0933     0.5115 </r>
       <r>     3.0374    -0.0742     0.5030 </r>
       <r>     3.1527    -0.0230     0.5003 </r>
       <r>     3.2681    -0.0028     0.5000 </r>
       <r>     3.3835    -0.0050     0.4994 </r>
       <r>     3.4988    -0.0355     0.4953 </r>
       <r>     3.6142    -0.0734     0.4868 </r>
       <r>     3.7295     0.2459     0.5152 </r>
       <r>     3.8449     1.1601     0.6490 </r>
       <r>     3.9602     1.4457     0.8158 </r>
       <r>     4.0756     0.5739     0.8820 </r>
       <r>     4.1910    -0.0058     0.8813 </r>
       <r>     4.3063     0.1763     0.9017 </r>
       <r>     4.4217     0.4146     0.9495 </r>
       <r>     4.5370     0.4889     1.0059 </r>
       <r>     4.6524     1.0515     1.1272 </r>
       <r>     4.7678     1.3410     1.2819 </r>
       <r>     4.8831     0.8751     1.3829 </r>
       <r>     4.9985     1.5402     1.5605 </r>
       <r>     5.1138     2.6197     1.8627 </r>
       <r>     5.2292     2.4382     2.1440 </r>
       <r>     5.3445     2.7208     2.4579 </r>
       <r>     5.4599     3.0315     2.8076 </r>
       <r>     5.5753     2.6729     3.1159 </r>
       <r>     5.6906     3.6982     3.5425 </r>
       <r>     5.8060     4.6474     4.0787 </r>
       <r>     5.9213     4.1302     4.5551 </r>
       <r>     6.0367     4.2985     5.0510 </r>
       <r>     6.1521     3.1183     5.4107 </r>
       <r>     6.2674     1.2916     5.5597 </r>
       <r>     6.3828     2.7163     5.8731 </r>
       <r>     6.4981     4.6372     6.4080 </r>
       <r>     6.6135     4.1675     6.8887 </r>
       <r>     6.7289     3.4547     7.2873 </r>
       <r>     6.8442     4.5139     7.8080 </r>
       <r>     6.9596     6.6314     8.5730 </r>
       <r>     7.0749     6.5972     9.3340 </r>
       <r>     7.1903     4.5162     9.8550 </r>
       <r>     7.3056     4.0291    10.3198 </r>
       <r>     7.4210     5.4951    10.9537 </r>
       <r>     7.5364     7.2554    11.7907 </r>
       <r>     7.6517     6.7219    12.5661 </r>
       <r>     7.7671     3.5081    12.9708 </r>
       <r>     7.8824     2.5471    13.2646 </r>
       <r>     7.9978     4.1833    13.7472 </r>
       <r>     8.1132     4.6821    14.2873 </r>
       <r>     8.2285     5.8357    14.9605 </r>
       <r>     8.3439     7.2961    15.8022 </r>
       <r>     8.4592     5.5476    16.4421 </r>
       <r>     8.5746     2.8881    16.7753 </r>
       <r>     8.6899     4.2498    17.2656 </r>
       <r>     8.8053     6.8169    18.0519 </r>
       <r>     8.9207     6.5053    18.8024 </r>
       <r>     9.0360     6.8006    19.5869 </r>
       <r>     9.1514     7.7883    20.4853 </r>
       <r>     9.2667     5.6747    21.1400 </r>
       <r>     9.3821     2.1568    21.3888 </r>
       <r>     9.4975     0.1594    21.4072 </r>
       <r>     9.6128    -0.1955    21.3846 </r>
       <r>     9.7282    -0.0724    21.3763 </r>
       <r>     9.8435    -0.0102    21.3751 </r>
       <r>     9.9589    -0.0007    21.3750 </r>
       <r>    10.0742    -0.0000    21.3750 </r>
       <r>    10.1896    -0.0004    21.3750 </r>
       <r>    10.3050    -0.0068    21.3742 </r>
       <r>    10.4203    -0.0596    21.3673 </r>
       <r>    10.5357    -0.1829    21.3462 </r>
       <r>    10.6510     0.2261    21.3723 </r>
       <r>    10.7664     2.2249    21.6289 </r>
       <r>    10.8818     4.0833    22.1000 </r>
       <r>    10.9971     2.9785    22.4436 </r>
       <r>    11.1125     0.7378    22.5287 </r>
       <r>    11.2278    -0.1299    22.5137 </r>
       <r>    11.3432    -0.0991    22.5023 </r>
       <r>    11.4585    -0.0182    22.5002 </r>
       <r>    11.5739    -0.0016    22.5000 </r>
       <r>    11.6893    -0.0019    22.4998 </r>
       <r>    11.8046    -0.0191    22.4976 </r>
       <r>    11.9200    -0.0707    22.4894 </r>
       <r>    12.0353     0.0492    22.4951 </r>
       <r>    12.1507     0.8052    22.5880 </r>
       <r>    12.2661     1.5112    22.7623 </r>
       <r>    12.3814     0.9609    22.8732 </r>
       <r>    12.4968     0.1196    22.8870 </r>
       <r>    12.6121    -0.0755    22.8782 </r>
       <r>    12.7275    -0.0281    22.8750 </r>
       <r>    12.8428    -0.0284    22.8717 </r>
       <r>    12.9582    -0.0756    22.8630 </r>
       <r>    13.0736     0.1227    22.8772 </r>
       <r>    13.1889     0.9667    22.9887 </r>
       <r>    13.3043     1.5105    23.1629 </r>
       <r>    13.4196     0.7993    23.2551 </r>
       <r>    13.5350     0.0469    23.2605 </r>
       <r>    13.6504    -0.0705    23.2524 </r>
       <r>    13.7657    -0.0189    23.2502 </r>
       <r>    13.8811    -0.0020    23.2500 </r>
       <r>    13.9964    -0.0040    23.2495 </r>
       <r>    14.1118    -0.0395    23.2450 </r>
       <r>    14.2271    -0.1429    23.2285 </r>
       <r>    14.3425     0.1131    23.2415 </r>
       <r>    14.4579     1.6472    23.4315 </r>
       <r>    14.5732     3.0264    23.7807 </r>
       <r>    14.6886     1.8853    23.9982 </r>
       <r>    14.8039     0.2207    24.0236 </r>
       <r>    14.9193    -0.1501    24.0063 </r>
       <r>    15.0347    -0.0489    24.0007 </r>
       <r>    15.1500    -0.0054    24.0000 </r>
       <r>    15.2654    -0.0003    24.0000 </r>
       <r>    15.3807    -0.0000    24.0000 </r>
       <r>    15.4961    -0.0002    24.0000 </r>
       <r>    15.6114    -0.0038    23.9995 </r>
       <r>    15.7268    -0.0307    23.9960 </r>
       <r>    15.8422    -0.0758    23.9873 </r>
       <r>    15.9575     0.1856    24.0087 </r>
       <r>    16.0729     1.0748    24.1326 </r>
       <r>    16.1882     1.4862    24.3041 </r>
       <r>    16.3036     0.6843    24.3830 </r>
       <r>    16.4190    -0.0226    24.3804 </r>
       <r>    16.5343    -0.1409    24.3642 </r>
       <r>    16.6497     0.1714    24.3839 </r>
       <r>    16.7650     1.0751    24.5080 </r>
       <r>    16.8804     1.4858    24.6794 </r>
       <r>    16.9958     0.6864    24.7585 </r>
       <r>    17.1111     0.0076    24.7594 </r>
       <r>    17.2265    -0.0653    24.7519 </r>
       <r>    17.3418    -0.0197    24.7496 </r>
       <r>    17.4572    -0.0448    24.7444 </r>
       <r>    17.5725    -0.1467    24.7275 </r>
       <r>    17.6879     0.1573    24.7457 </r>
       <r>    17.8033     1.7514    24.9477 </r>
       <r>    17.9186     3.0318    25.2975 </r>
       <r>    18.0340     1.7816    25.5030 </r>
       <r>    18.1493     0.1675    25.5223 </r>
       <r>    18.2647    -0.1660    25.5031 </r>
       <r>    18.3801    -0.0564    25.4966 </r>
       <r>    18.4954     0.1697    25.5162 </r>
       <r>    18.6108     0.4708    25.5705 </r>
       <r>    18.7261     0.4097    25.6178 </r>
       <r>    18.8415     0.1009    25.6294 </r>
       <r>    18.9568    -0.0231    25.6268 </r>
       <r>    19.0722    -0.0141    25.6251 </r>
       <r>    19.1876    -0.0140    25.6235 </r>
       <r>    19.3029    -0.0813    25.6141 </r>
       <r>    19.4183    -0.1365    25.5984 </r>
       <r>    19.5336     0.6247    25.6705 </r>
       <r>    19.6490     2.4797    25.9565 </r>
       <r>    19.7644     2.8118    26.2809 </r>
       <r>    19.8797     1.0228    26.3989 </r>
       <r>    19.9951    -0.0760    26.3901 </r>
       <r>    20.1104    -0.1181    26.3765 </r>
       <r>    20.2258    -0.0710    26.3683 </r>
       <r>    20.3411    -0.0515    26.3623 </r>
       <r>    20.4565     0.4476    26.4140 </r>
       <r>    20.5719     1.3626    26.5712 </r>
       <r>    20.6872     1.2962    26.7207 </r>
       <r>    20.8026     0.3683    26.7632 </r>
       <r>    20.9179    -0.0619    26.7560 </r>
       <r>    21.0333    -0.0462    26.7507 </r>
       <r>    21.1487    -0.0264    26.7477 </r>
       <r>    21.2640    -0.1060    26.7354 </r>
       <r>    21.3794    -0.0878    26.7253 </r>
       <r>    21.4947     0.9548    26.8355 </r>
       <r>    21.6101     2.7199    27.1492 </r>
       <r>    21.7254     2.4941    27.4369 </r>
       <r>    21.8408     1.1883    27.5740 </r>
       <r>    21.9562     1.2765    27.7213 </r>
       <r>    22.0715     1.1519    27.8542 </r>
       <r>    22.1869     0.2930    27.8880 </r>
       <r>    22.3022    -0.1007    27.8763 </r>
       <r>    22.4176    -0.1358    27.8607 </r>
       <r>    22.5330     0.0924    27.8713 </r>
       <r>    22.6483     1.1013    27.9984 </r>
       <r>    22.7637     2.3076    28.2646 </r>
       <r>    22.8790     2.2270    28.5215 </r>
       <r>    22.9944     0.9692    28.6333 </r>
       <r>    23.1097     0.0485    28.6389 </r>
       <r>    23.2251    -0.0953    28.6279 </r>
       <r>    23.3405    -0.0590    28.6211 </r>
       <r>    23.4558    -0.0961    28.6100 </r>
       <r>    23.5712     0.0927    28.6207 </r>
       <r>    23.6865     0.9873    28.7346 </r>
       <r>    23.8019     2.3777    29.0089 </r>
       <r>    23.9173     3.4006    29.4012 </r>
       <r>    24.0326     2.5966    29.7007 </r>
       <r>    24.1480     0.6720    29.7782 </r>
       <r>    24.2633    -0.1386    29.7622 </r>
       <r>    24.3787    -0.0908    29.7518 </r>
       <r>    24.4940    -0.0143    29.7501 </r>
       <r>    24.6094    -0.0010    29.7500 </r>
       <r>    24.7248    -0.0006    29.7499 </r>
       <r>    24.8401    -0.0097    29.7488 </r>
       <r>    24.9555    -0.0712    29.7406 </r>
       <r>    25.0708    -0.1473    29.7236 </r>
       <r>    25.1862     0.4864    29.7797 </r>
       <r>    25.3016     2.2866    30.0435 </r>
       <r>    25.4169     2.8801    30.3757 </r>
       <r>    25.5323     1.5450    30.5540 </r>
       <r>    25.6476     0.9082    30.6587 </r>
       <r>    25.7630     0.6963    30.7391 </r>
       <r>    25.8784     0.1738    30.7591 </r>
       <r>    25.9937    -0.0484    30.7535 </r>
       <r>    26.1091    -0.0264    30.7505 </r>
       <r>    26.2244    -0.0041    30.7500 </r>
       <r>    26.3398    -0.0039    30.7496 </r>
       <r>    26.4551    -0.0299    30.7461 </r>
       <r>    26.5705    -0.0759    30.7374 </r>
       <r>    26.6859     0.1749    30.7575 </r>
       <r>    26.8012     1.0580    30.8796 </r>
       <r>    26.9166     1.4915    31.0516 </r>
       <r>    27.0319     0.7057    31.1330 </r>
       <r>    27.1473     0.0137    31.1346 </r>
       <r>    27.2627    -0.0661    31.1270 </r>
       <r>    27.3780    -0.0157    31.1252 </r>
       <r>    27.4934    -0.0014    31.1250 </r>
       <r>    27.6087    -0.0003    31.1250 </r>
       <r>    27.7241    -0.0044    31.1245 </r>
       <r>    27.8394    -0.0335    31.1206 </r>
       <r>    27.9548    -0.0747    31.1120 </r>
       <r>    28.0702     0.2200    31.1374 </r>
       <r>    28.1855     1.1257    31.2672 </r>
       <r>    28.3009     1.4678    31.4366 </r>
       <r>    28.4162     0.6347    31.5098 </r>
       <r>    28.5316    -0.0077    31.5089 </r>
       <r>    28.6470    -0.0624    31.5017 </r>
       <r>    28.7623    -0.0163    31.4998 </r>
       <r>    28.8777    -0.0256    31.4969 </r>
       <r>    28.9930    -0.0751    31.4882 </r>
       <r>    29.1084     0.1096    31.5008 </r>
       <r>    29.2237     0.9412    31.6094 </r>
       <r>    29.3391     1.5133    31.7840 </r>
       <r>    29.4545     0.8251    31.8792 </r>
       <r>    29.5698     0.0572    31.8858 </r>
       <r>    29.6852    -0.0715    31.8775 </r>
       <r>    29.8005    -0.0198    31.8752 </r>
       <r>    29.9159    -0.0020    31.8750 </r>
       <r>    30.0313    -0.0001    31.8750 </r>
       <r>    30.1466    -0.0000    31.8750 </r>
       <r>    30.2620    -0.0000    31.8750 </r>
       <r>    30.3773    -0.0000    31.8750 </r>
       <r>    30.4927    -0.0000    31.8750 </r>
       <r>    30.6080    -0.0000    31.8750 </r>
       <r>    30.7234    -0.0000    31.8750 </r>
       <r>    30.8388    -0.0000    31.8750 </r>
       <r>    30.9541    -0.0000    31.8750 </r>
       <r>    31.0695    -0.0004    31.8750 </r>
       <r>    31.1848    -0.0046    31.8744 </r>
       <r>    31.3002    -0.0209    31.8720 </r>
       <r>    31.4156    -0.0020    31.8718 </r>
       <r>    31.5309     0.2134    31.8964 </r>
       <r>    31.6463     0.4900    31.9529 </r>
       <r>    31.7616     0.3735    31.9960 </r>
       <r>    31.8770     0.0721    32.0043 </r>
       <r>    31.9923    -0.0250    32.0015 </r>
       <r>    32.1077    -0.0111    32.0002 </r>
       <r>    32.2231    -0.0014    32.0000 </r>
       <r>    32.3384    -0.0001    32.0000 </r>
       <r>    32.4538    -0.0000    32.0000 </r>
       <r>    32.5691    -0.0000    32.0000 </r>
       <r>    32.6845    -0.0000    32.0000 </r>
       <r>    32.7999    -0.0000    32.0000 </r>
       <r>    32.9152    -0.0000    32.0000 </r>
       <r>    33.0306     0.0000    32.0000 </r>
       <r>    33.1459     0.0000    32.0000 </r>
       <r>    33.2613     0.0000    32.0000 </r>
       <r>    33.3766     0.0000    32.0000 </r>
       <r>    33.4920     0.0000    32.0000 </r>
       <r>    33.6074     0.0000    32.0000 </r>
       <r>    33.7227     0.0000    32.0000 </r>
      </set>
     </set>
    </array>
   </total>
  </dos>
 </calculation>
 <structure name="finalpos" >
  <crystal>
   <varray name="basis" >
    <v>       3.49210200       0.00000000       0.00000000 </v>
    <v>       0.00000000       3.49210200       0.00000000 </v>
    <v>       0.00000000       0.00000000       3.49210200 </v>
   </varray>
   <i name="volume">     42.58540298 </i>
   <varray name="rec_basis" >
    <v>       0.28636048       0.00000000       0.00000000 </v>
    <v>       0.00000000       0.28636048       0.00000000 </v>
    <v>       0.00000000       0.00000000       0.28636048 </v>
   </varray>
  </crystal>
  <varray name="positions" >
   <v>       0.00000000       0.00000000       0.00000000 </v>
   <v>       0.00000000       0.50000000       0.50000000 </v>
   <v>       0.50000000       0.00000000       0.50000000 </v>
   <v>       0.50000000       0.50000000       0.00000000 </v>
  </varray>
 </structure>
</modeling>
