# ['Ni']

28 atoms
1 atom types

    0.0000    11.3635 xlo xhi
    0.0000    19.6821 ylo yhi
    0.0000   129.8954 zlo zhi

    0.0000     0.0000     0.0000 xy xz yz

Atoms

1 1     0.0000     0.0000     0.0000
2 1     5.6817     9.8411     0.0000
3 1     5.6817     3.2804     9.2783
4 1     0.0000    13.1214     9.2783
5 1     0.0000     6.5607    18.5565
6 1     5.6817    16.4018    18.5565
7 1     0.0000     0.0000    27.8348
8 1     5.6817     9.8411    27.8348
9 1     5.6817     3.2804    37.1129
10 1     0.0000    13.1214    37.1129
11 1     0.0000     6.5607    46.3912
12 1     5.6817    16.4018    46.3912
13 1     0.0000     0.0000    55.6694
14 1     5.6817     9.8411    55.6694
15 1     0.0000     6.5607    64.9477
16 1     5.6817    16.4018    64.9477
17 1     0.0000     0.0000    74.2260
18 1     5.6817     9.8411    74.2260
19 1     5.6817     3.2804    83.5041
20 1     0.0000    13.1214    83.5041
21 1     0.0000     6.5607    92.7824
22 1     5.6817    16.4018    92.7824
23 1     0.0000     0.0000   102.0606
24 1     5.6817     9.8411   102.0606
25 1     5.6817     3.2804   111.3389
26 1     0.0000    13.1214   111.3389
27 1     0.0000     6.5607   120.6171
28 1     5.6817    16.4018   120.6171
