# ['Ni']

18 atoms
1 atom types

    0.0000     2.4418 xlo xhi
    0.0000     4.2293 ylo yhi
    0.0000    35.8805 zlo zhi

    0.0000     0.0000    -0.0004 xy xz yz

Atoms

1 1     0.0000     0.0000     0.0000
2 1     1.2209     0.7049     1.9934
3 1     0.0000     1.4098     3.9867
4 1     1.2209     2.1146     0.0000
5 1     0.0000     2.8195     1.9934
6 1     1.2209     3.5244     3.9867
7 1     0.0000     0.0000     5.9801
8 1     1.2209     0.7049     7.9734
9 1     0.0000     1.4098     9.9668
10 1     1.2209     2.1146     5.9801
11 1     0.0000     2.8195     7.9734
12 1     1.2209     3.5244     9.9668
13 1     0.0000     0.0000    11.9602
14 1     1.2209     0.7049    13.9535
15 1     0.0000     1.4098    15.9469
16 1     1.2209     2.1146    11.9602
17 1     0.0000     2.8195    13.9535
18 1     1.2209     3.5244    15.9469
