# ['Ni']

10 atoms
1 atom types

    0.0000     3.5084 xlo xhi
    0.0000     2.5115 ylo yhi
    0.0000    25.1149 zlo zhi

    0.0000     0.0000     0.0000 xy xz yz

Atoms

1 1     0.0000     0.0000     0.0000
2 1     1.7542     1.2557     1.2557
3 1     0.0000     0.0000     2.5115
4 1     1.7542     1.2557     3.7672
5 1     0.0000     0.0000     5.0230
6 1     1.7542     1.2557     6.2787
7 1     0.0000     0.0000     7.5345
8 1     1.7542     1.2557     8.7902
9 1     0.0000     0.0000    10.0460
10 1     1.7542     1.2557    11.3017
