LAMMPS (11 Aug 2017)
Reading data file ...
  triclinic box = (0 0 0) to (5.43 5.43 5.43) with tilt (0 0 0)
  1 by 1 by 1 MPI processor grid
  reading atoms ...
  8 atoms
8 atoms in group Si
Neighbor list info ...
  update every 1 steps, delay 0 steps, check yes
  max neighbors/atom: 2000, page size: 100000
  master list distance cutoff = 3.78306
  ghost atom cutoff = 3.78306
  binsize = 1.89153, bins = 3 3 3
  1 neighbor lists, perpetual/occasional/extra = 1 0 0
  (1) pair sw, perpetual
      attributes: full, newton on
      pair build: full/bin/atomonly
      stencil: full/bin/3d
      bin: standard
Setting up cg style minimization ...
  Unit style    : metal
  Current step  : 0
WARNING: Energy due to 3 extra global DOFs will be included in minimizer energies
Per MPI rank memory allocation (min/avg/max) = 3.937 | 3.937 | 3.937 Mbytes
Step PotEng Xhi Xlo Yhi Ylo Zhi Xy Xz Yz Press Pxx Pyy Pzz Pxy Pxz Pyz c_eatoms 
       0  0.060440752         5.43            0         5.43            0         5.43            0            0            0    59344.493    59344.493    59344.493    59344.493            0            0 -5.55509e-13  0.060440752 
      10 -0.069422313      5.45715     -0.02715      5.45715     -0.02715      5.45715            0            0            0    28542.429    28542.429    28542.429    28542.429 -5.8230529e-11 -5.6073843e-11 -5.7691358e-11 -0.069422313 
      20  -0.12415695       5.4843      -0.0543       5.4843      -0.0543       5.4843            0            0            0    8571.7633    8571.7633    8571.7633    8571.7633 -4.3447889e-10 -4.734773e-10 -4.7341186e-10  -0.12415695 
      30   -0.1326189    5.5026691   -0.0726691    5.5026691   -0.0726691    5.5026691            0            0            0 -1.52222e-11 -1.52222e-11 -1.52222e-11 -1.52222e-11 -4.8807037e-10 -4.8807037e-10 -4.8807037e-10   -0.1326189 
      32   -0.1326189    5.5026691   -0.0726691    5.5026691   -0.0726691    5.5026691            0            0            0 1.1848632e-10 1.1848632e-10 1.1848632e-10 1.1848632e-10 2.0872242e-10 2.0872242e-10 2.2984151e-10   -0.1326189 
Loop time of 0.000475883 on 1 procs for 32 steps with 8 atoms

50.0% CPU use with 1 MPI tasks x no OpenMP threads

Minimization stats:
  Stopping criterion = energy tolerance
  Energy initial, next-to-last, final = 
       0.0604407517814    -0.132618904841    -0.132618904841
  Force two-norm initial, final = 10.2714 3.04284e-14
  Force max component initial, final = 5.9302 1.24825e-14
  Final line search alpha, max atom move = 1 1.24825e-14
  Iterations, force evaluations = 32 38

MPI task timing breakdown:
Section |  min time  |  avg time  |  max time  |%varavg| %total
---------------------------------------------------------------
Pair    | 0.00033617 | 0.00033617 | 0.00033617 |   0.0 | 70.64
Neigh   | 0          | 0          | 0          |   0.0 |  0.00
Comm    | 1.5736e-05 | 1.5736e-05 | 1.5736e-05 |   0.0 |  3.31
Output  | 2.8849e-05 | 2.8849e-05 | 2.8849e-05 |   0.0 |  6.06
Modify  | 0          | 0          | 0          |   0.0 |  0.00
Other   |            | 9.513e-05  |            |       | 19.99

Nlocal:    8 ave 8 max 8 min
Histogram: 1 0 0 0 0 0 0 0 0 0
Nghost:    86 ave 86 max 86 min
Histogram: 1 0 0 0 0 0 0 0 0 0
Neighs:    0 ave 0 max 0 min
Histogram: 1 0 0 0 0 0 0 0 0 0
FullNghs:  32 ave 32 max 32 min
Histogram: 1 0 0 0 0 0 0 0 0 0

Total # of neighbors = 32
Ave neighs/atom = 4
Neighbor list builds = 0
Dangerous builds = 0
pypospack:output_section:begin
tot_energy = -0.132618904841186
num_atoms = 8
a11 = 5.57533819998763
a22 = 5.57533819998763
a33 = 5.57533819998763
a12 = 0
a13 = 0
a23 = 0
tot_press = 1.18486315240299e-10
pxx = 1.18486315240269e-10
pyy = 1.18486315240309e-10
pzz = 1.18486315240318e-10
pxy = 2.08722421059725e-10
pxz = 2.08722421059726e-10
pyz = 2.29841509655787e-10
pypospack:output_section:done
pypospack:lammps_sim:done
Total wall time: 0:00:00
