# ['Ni']

20 atoms
1 atom types

    0.0000     3.3330 xlo xhi
    0.0000     3.3330 ylo yhi
    0.0000    33.3301 zlo zhi

    0.0000    -0.0000     0.0000 xy xz yz

Atoms

1 1     0.0000     0.0000     0.0000
2 1     1.6665     1.6665     0.0000
3 1     1.6665     0.0000     1.6665
4 1     0.0000     1.6665     1.6665
5 1     0.0000     0.0000     3.3330
6 1     1.6665     1.6665     3.3330
7 1     1.6665     0.0000     4.9995
8 1     0.0000     1.6665     4.9995
9 1     0.0000     0.0000     6.6660
10 1     1.6665     1.6665     6.6660
11 1     1.6665     0.0000     8.3325
12 1     0.0000     1.6665     8.3325
13 1     0.0000     0.0000     9.9990
14 1     1.6665     1.6665     9.9990
15 1     1.6665     0.0000    11.6655
16 1     0.0000     1.6665    11.6655
17 1     0.0000     0.0000    13.3320
18 1     1.6665     1.6665    13.3320
19 1     1.6665     0.0000    14.9986
20 1     0.0000     1.6665    14.9986
