    2    2    1    1
  0.9639684E+01  0.3009788E-09  0.3009788E-09  0.3009788E-09  0.5000000E-15
  1.000000000000000E-004
  CAR 
 automatically generated by pyflamestk   
      8     10     16
 
  0.1250000E+00  0.1250000E+00  0.1250000E+00  0.3125000E-01
    1      -13.667512   1.000000
    2        2.420816   1.000000
    3        3.284876   1.000000
    4        3.284876   1.000000
    5        8.671900   0.000000
    6       17.310558   0.000000
    7       19.316068   0.000000
    8       19.316071   0.000000
    9       23.531332   0.000000
   10       23.531333   0.000000
   11       24.868501   0.000000
   12       27.262390   0.000000
   13       28.693368   0.000000
   14       28.693369   0.000000
   15       38.928589   0.000000
   16       40.857155   0.000000
 
  0.3750000E+00  0.1250000E+00  0.1250000E+00  0.9375000E-01
    1      -13.023927   1.000000
    2        0.265388   1.000000
    3        2.423050   1.000000
    4        2.997281   1.000000
    5       11.108385   0.000000
    6       15.256268   0.000000
    7       18.623309   0.000000
    8       20.291158   0.000000
    9       22.116127   0.000000
   10       24.336271   0.000000
   11       26.415299   0.000000
   12       31.071910   0.000000
   13       32.356200   0.000000
   14       33.209325   0.000000
   15       35.574499   0.000000
   16       38.864993   0.000000
 
 -0.3750000E+00  0.1250000E+00  0.1250000E+00  0.9375000E-01
    1      -12.594945   1.000000
    2       -0.867067   1.000000
    3        2.275254   1.000000
    4        2.647539   1.000000
    5       11.712604   0.000000
    6       15.433069   0.000000
    7       17.913112   0.000000
    8       19.725220   0.000000
    9       23.700656   0.000000
   10       25.960196   0.000000
   11       26.026130   0.000000
   12       32.281732   0.000000
   13       32.894884   0.000000
   14       33.247547   0.000000
   15       35.808186   0.000000
   16       37.506754   0.000000
 
 -0.1250000E+00  0.1250000E+00  0.1250000E+00  0.9375000E-01
    1      -13.308945   1.000000
    2        1.145424   1.000000
    3        2.906886   1.000000
    4        2.909443   1.000000
    5       10.272879   0.000000
    6       15.500157   0.000000
    7       19.420374   0.000000
    8       19.909709   0.000000
    9       21.073314   0.000000
   10       24.912693   0.000000
   11       26.874566   0.000000
   12       29.958349   0.000000
   13       30.264113   0.000000
   14       31.000610   0.000000
   15       37.194618   0.000000
   16       38.976563   0.000000
 
  0.3750000E+00  0.3750000E+00  0.1250000E+00  0.9375000E-01
    1      -12.791757   1.000000
    2        0.075149   1.000000
    3        2.223204   1.000000
    4        2.449527   1.000000
    5       12.208283   0.000000
    6       13.912417   0.000000
    7       17.167920   0.000000
    8       20.792227   0.000000
    9       21.248290   0.000000
   10       27.088337   0.000000
   11       30.148156   0.000000
   12       30.403093   0.000000
   13       32.330743   0.000000
   14       34.826571   0.000000
   15       36.472586   0.000000
   16       37.875819   0.000000
 
 -0.3750000E+00  0.3750000E+00  0.1250000E+00  0.1875000E+00
    1      -12.387026   1.000000
    2       -0.042252   1.000000
    3        0.959624   1.000000
    4        2.043619   1.000000
    5       13.762310   0.000000
    6       14.775500   0.000000
    7       15.572506   0.000000
    8       19.542609   0.000000
    9       22.997569   0.000000
   10       26.445618   0.000000
   11       29.974251   0.000000
   12       31.420445   0.000000
   13       32.670835   0.000000
   14       36.338282   0.000000
   15       38.882407   0.000000
   16       41.088994   0.000000
 
 -0.1250000E+00  0.3750000E+00  0.1250000E+00  0.1875000E+00
    1      -12.638986   1.000000
    2       -0.241466   1.000000
    3        1.703785   1.000000
    4        2.549019   1.000000
    5       12.579368   0.000000
    6       14.804662   0.000000
    7       16.938643   0.000000
    8       20.123962   0.000000
    9       22.698606   0.000000
   10       25.359003   0.000000
   11       28.866018   0.000000
   12       31.650820   0.000000
   13       32.245301   0.000000
   14       34.887023   0.000000
   15       35.531201   0.000000
   16       41.009434   0.000000
 
 -0.3750000E+00 -0.3750000E+00  0.1250000E+00  0.9375000E-01
    1      -12.422411   1.000000
    2       -0.400076   1.000000
    3        1.706997   1.000000
    4        2.159352   1.000000
    5       12.852743   0.000000
    6       13.486781   0.000000
    7       16.026919   0.000000
    8       21.487116   0.000000
    9       21.505061   0.000000
   10       28.902956   0.000000
   11       29.399251   0.000000
   12       31.963983   0.000000
   13       32.663055   0.000000
   14       37.797839   0.000000
   15       38.169173   0.000000
   16       41.095779   0.000000
 
  0.3750000E+00  0.3750000E+00  0.3750000E+00  0.3125000E-01
    1      -12.827745   1.000000
    2       -0.594315   1.000000
    3        2.846081   1.000000
    4        2.846081   1.000000
    5       10.911611   0.000000
    6       15.455628   0.000000
    7       19.524667   0.000000
    8       19.524669   0.000000
    9       24.074063   0.000000
   10       24.451428   0.000000
   11       24.451431   0.000000
   12       31.895359   0.000000
   13       33.238820   0.000000
   14       33.238822   0.000000
   15       36.842326   0.000000
   16       36.842329   0.000000
 
 -0.3750000E+00  0.3750000E+00  0.3750000E+00  0.9375000E-01
    1      -12.469339   1.000000
    2       -0.282647   1.000000
    3        1.066099   1.000000
    4        2.515206   1.000000
    5       13.070320   0.000000
    6       15.246047   0.000000
    7       16.129083   0.000000
    8       20.435875   0.000000
    9       22.499008   0.000000
   10       25.549033   0.000000
   11       29.079752   0.000000
   12       31.628018   0.000000
   13       32.065104   0.000000
   14       35.371162   0.000000
   15       37.235544   0.000000
   16       40.113521   0.000000
