# ['Ni']

28 atoms
1 atom types

    0.0000     2.3692 xlo xhi
    0.0000     4.1035 ylo yhi
    0.0000    27.0817 zlo zhi

    0.0000     0.0000     0.0000 xy xz yz

Atoms

1 1     0.0000     0.0000     0.0000
2 1     1.1846     2.0517     0.0000
3 1     1.1846     0.6839     1.9344
4 1     0.0000     2.7357     1.9344
5 1     0.0000     1.3678     3.8688
6 1     1.1846     3.4196     3.8688
7 1     0.0000     0.0000     5.8032
8 1     1.1846     2.0517     5.8032
9 1     1.1846     0.6839     7.7376
10 1     0.0000     2.7357     7.7376
11 1     0.0000     1.3678     9.6720
12 1     1.1846     3.4196     9.6720
13 1     0.0000     0.0000    11.6064
14 1     1.1846     2.0517    11.6064
15 1     0.0000     1.3678    13.5409
16 1     1.1846     3.4196    13.5409
17 1     0.0000     0.0000    15.4753
18 1     1.1846     2.0517    15.4753
19 1     1.1846     0.6839    17.4097
20 1     0.0000     2.7357    17.4097
21 1     0.0000     1.3678    19.3441
22 1     1.1846     3.4196    19.3441
23 1     0.0000     0.0000    21.2785
24 1     1.1846     2.0517    21.2785
25 1     1.1846     0.6839    23.2129
26 1     0.0000     2.7357    23.2129
27 1     0.0000     1.3678    25.1473
28 1     1.1846     3.4196    25.1473
