# ['Ni']

28 atoms
1 atom types

    0.0000     2.4781 xlo xhi
    0.0000     4.2923 ylo yhi
    0.0000    28.3276 zlo zhi

    0.0000     0.0000     0.0000 xy xz yz

Atoms

1 1     0.0000     0.0000     0.0000
2 1     1.2391     2.1461     0.0000
3 1     1.2391     0.7154     2.0234
4 1     0.0000     2.8615     2.0234
5 1     0.0000     1.4308     4.0468
6 1     1.2391     3.5769     4.0468
7 1     0.0000     0.0000     6.0702
8 1     1.2391     2.1461     6.0702
9 1     1.2391     0.7154     8.0936
10 1     0.0000     2.8615     8.0936
11 1     0.0000     1.4308    10.1170
12 1     1.2391     3.5769    10.1170
13 1     0.0000     0.0000    12.1404
14 1     1.2391     2.1461    12.1404
15 1     0.0000     1.4308    14.1638
16 1     1.2391     3.5769    14.1638
17 1     0.0000     0.0000    16.1872
18 1     1.2391     2.1461    16.1872
19 1     1.2391     0.7154    18.2106
20 1     0.0000     2.8615    18.2106
21 1     0.0000     1.4308    20.2340
22 1     1.2391     3.5769    20.2340
23 1     0.0000     0.0000    22.2574
24 1     1.2391     2.1461    22.2574
25 1     1.2391     0.7154    24.2808
26 1     0.0000     2.8615    24.2808
27 1     0.0000     1.4308    26.3041
28 1     1.2391     3.5769    26.3041
