LAMMPS (11 Aug 2017)
Reading data file ...
  triclinic box = (0 0 0) to (2.8005 2.8005 2.8005) with tilt (0 0 0)
  1 by 1 by 1 MPI processor grid
  reading atoms ...
  2 atoms
2 atoms in group Ni
Neighbor list info ...
  update every 1 steps, delay 0 steps, check yes
  max neighbors/atom: 2000, page size: 100000
  master list distance cutoff = 11
  ghost atom cutoff = 11
  binsize = 5.5, bins = 1 1 1
  1 neighbor lists, perpetual/occasional/extra = 1 0 0
  (1) pair eam/alloy, perpetual
      attributes: half, newton on
      pair build: half/bin/newton/tri
      stencil: half/bin/3d/newton/tri
      bin: standard
Setting up cg style minimization ...
  Unit style    : metal
  Current step  : 0
WARNING: Energy due to 3 extra global DOFs will be included in minimizer energies
Per MPI rank memory allocation (min/avg/max) = 4.286 | 4.286 | 4.286 Mbytes
Step PotEng Xhi Xlo Yhi Ylo Zhi Xy Xz Yz Press Pxx Pyy Pzz Pxy Pxz Pyz c_eatoms 
       0   -9.1451172       2.8005            0       2.8005            0       2.8005            0            0            0    -49431.23    -49431.23    -49431.23    -49431.23 0.0021703246 0.0021703246 0.0021703246   -9.1451172 
      10   -9.1546211    2.7876061  0.012893905    2.7876061  0.012893905    2.7876061            0            0            0   -43.957818   -43.957818   -43.957818   -43.957818 0.00068765769 0.00068765774 0.00068765773   -9.1546211 
      20   -9.1546211     2.787595  0.012904985     2.787595  0.012904985     2.787595            0            0            0 3.0510801e-11   1.1509e-10 8.2421332e-11 -1.0597893e-10 -2.5413369e-11 1.7898654e-10 1.1360029e-10   -9.1546211 
Loop time of 0.00216079 on 1 procs for 20 steps with 2 atoms

95.3% CPU use with 1 MPI tasks x no OpenMP threads

Minimization stats:
  Stopping criterion = energy tolerance
  Energy initial, next-to-last, final = 
         -9.1451172171     -9.15462110833     -9.15462110833
  Force two-norm initial, final = 1.1737 3.20648e-15
  Force max component initial, final = 0.677638 1.54879e-15
  Final line search alpha, max atom move = 1 1.54879e-15
  Iterations, force evaluations = 20 31

MPI task timing breakdown:
Section |  min time  |  avg time  |  max time  |%varavg| %total
---------------------------------------------------------------
Pair    | 0.0013747  | 0.0013747  | 0.0013747  |   0.0 | 63.62
Neigh   | 0          | 0          | 0          |   0.0 |  0.00
Comm    | 0.00019217 | 0.00019217 | 0.00019217 |   0.0 |  8.89
Output  | 1.6928e-05 | 1.6928e-05 | 1.6928e-05 |   0.0 |  0.78
Modify  | 0          | 0          | 0          |   0.0 |  0.00
Other   |            | 0.000577   |            |       | 26.70

Nlocal:    2 ave 2 max 2 min
Histogram: 1 0 0 0 0 0 0 0 0 0
Nghost:    1239 ave 1239 max 1239 min
Histogram: 1 0 0 0 0 0 0 0 0 0
Neighs:    530 ave 530 max 530 min
Histogram: 1 0 0 0 0 0 0 0 0 0

Total # of neighbors = 530
Ave neighs/atom = 265
Neighbor list builds = 0
Dangerous builds = 0
pypospack:output_section:begin
tot_energy = -9.15462110832498
num_atoms = 2
a11 = 2.77469002978888
a22 = 2.77469002978888
a33 = 2.77469002978888
a12 = 0
a13 = 0
a23 = 0
tot_press = 3.0510800601446e-11
pxx = 1.15089998108151e-10
pyy = 8.24213317100414e-11
pzz = -1.05978928013854e-10
pxy = -2.54133691476224e-11
pxz = 1.78986540804112e-10
pyz = 1.13600291216201e-10
pypospack:output_section:done
pypospack:lammps_sim:done
Total wall time: 0:00:00
