LAMMPS (11 Aug 2017)
Reading data file ...
  triclinic box = (0 0 0) to (2.4814 4.2979 28.3648) with tilt (0 0 0)
  1 by 1 by 1 MPI processor grid
  reading atoms ...
  28 atoms
28 atoms in group Ni
Neighbor list info ...
  update every 1 steps, delay 0 steps, check yes
  max neighbors/atom: 2000, page size: 100000
  master list distance cutoff = 11
  ghost atom cutoff = 11
  binsize = 5.5, bins = 1 1 6
  1 neighbor lists, perpetual/occasional/extra = 1 0 0
  (1) pair eam/alloy, perpetual
      attributes: half, newton on
      pair build: half/bin/newton/tri
      stencil: half/bin/3d/newton/tri
      bin: standard
Setting up cg style minimization ...
  Unit style    : metal
  Current step  : 0
WARNING: Energy due to 3 extra global DOFs will be included in minimizer energies
Per MPI rank memory allocation (min/avg/max) = 4.356 | 4.356 | 4.356 Mbytes
Step PotEng Lx Ly Lz Xy Xz Yz Press Pxx Pyy Pzz Pxy Pxz Pyz c_eatoms 
       0   -127.16355       2.4814       4.2979      28.3648            0            0            0    44.986234    31.104081    36.691094    67.163526 -5.2303076e-11 -7.9482266e-12  -0.83687599   -127.16355 
     100   -127.16355    2.4814044    4.2979185    28.365348            0            0            0 0.00032744288 0.0020679807 -0.0013443082 0.00025865618 -5.8399223e-12 3.0982682e-11 0.00010040122   -127.16355 
     200   -127.16355    2.4814044    4.2979185    28.365348            0            0            0 3.3115481e-09 3.2031898e-09  1.17799e-08 -5.0484452e-09 3.7456202e-11 3.0603095e-11 3.0389077e-09   -127.16355 
     266   -127.16355    2.4814044    4.2979185    28.365348            0            0            0 -1.7472257e-09 -3.2074566e-09 -5.8478214e-10 -1.4494384e-09 5.0699831e-11 -7.5392599e-12 -2.0882608e-09   -127.16355 
Loop time of 0.258182 on 1 procs for 266 steps with 28 atoms

97.6% CPU use with 1 MPI tasks x no OpenMP threads

Minimization stats:
  Stopping criterion = energy tolerance
  Energy initial, next-to-last, final = 
        -127.163551991     -127.163552869     -127.163552869
  Force two-norm initial, final = 0.0162382 7.42246e-13
  Force max component initial, final = 0.0126811 6.05611e-13
  Final line search alpha, max atom move = 1 6.05611e-13
  Iterations, force evaluations = 266 532

MPI task timing breakdown:
Section |  min time  |  avg time  |  max time  |%varavg| %total
---------------------------------------------------------------
Pair    | 0.22921    | 0.22921    | 0.22921    |   0.0 | 88.78
Neigh   | 0          | 0          | 0          |   0.0 |  0.00
Comm    | 0.0075369  | 0.0075369  | 0.0075369  |   0.0 |  2.92
Output  | 4.9114e-05 | 4.9114e-05 | 4.9114e-05 |   0.0 |  0.02
Modify  | 0          | 0          | 0          |   0.0 |  0.00
Other   |            | 0.02139    |            |       |  8.28

Nlocal:    28 ave 28 max 28 min
Histogram: 1 0 0 0 0 0 0 0 0 0
Nghost:    2894 ave 2894 max 2894 min
Histogram: 1 0 0 0 0 0 0 0 0 0
Neighs:    7320 ave 7320 max 7320 min
Histogram: 1 0 0 0 0 0 0 0 0 0

Total # of neighbors = 7320
Ave neighs/atom = 261.429
Neighbor list builds = 0
Dangerous builds = 0
Setting up cg style minimization ...
  Unit style    : metal
  Current step  : 266
Per MPI rank memory allocation (min/avg/max) = 4.481 | 4.481 | 4.481 Mbytes
Step PotEng Lx Ly Lz Xy Xz Yz Press Pxx Pyy Pzz Pxy Pxz Pyz c_eatoms 
     266   -127.16355    2.4814044    4.2979185    28.365348            0            0            0 -1.6700569e-09 -3.2026981e-09 -3.2939045e-10 -1.478082e-09 1.0221315e-10 3.2896627e-11 -2.0248522e-09   -127.16355 
     289   -127.16355    2.4814044    4.2979185    28.365348            0            0            0 -1.7634435e-09 -3.3854018e-09 -3.2587128e-10 -1.5790575e-09 3.3638882e-11 7.2617313e-11 -2.0878225e-09   -127.16355 
Loop time of 0.020112 on 1 procs for 23 steps with 28 atoms

100.0% CPU use with 1 MPI tasks x no OpenMP threads

Minimization stats:
  Stopping criterion = energy tolerance
  Energy initial, next-to-last, final = 
        -127.163552869     -127.163552869     -127.163552869
  Force two-norm initial, final = 2.75526e-13 4.75155e-14
  Force max component initial, final = 1.30715e-13 2.17604e-14
  Final line search alpha, max atom move = 1 2.17604e-14
  Iterations, force evaluations = 23 46

MPI task timing breakdown:
Section |  min time  |  avg time  |  max time  |%varavg| %total
---------------------------------------------------------------
Pair    | 0.019243   | 0.019243   | 0.019243   |   0.0 | 95.68
Neigh   | 0          | 0          | 0          |   0.0 |  0.00
Comm    | 0.00068259 | 0.00068259 | 0.00068259 |   0.0 |  3.39
Output  | 0          | 0          | 0          |   0.0 |  0.00
Modify  | 1.0014e-05 | 1.0014e-05 | 1.0014e-05 |   0.0 |  0.05
Other   |            | 0.0001767  |            |       |  0.88

Nlocal:    28 ave 28 max 28 min
Histogram: 1 0 0 0 0 0 0 0 0 0
Nghost:    2894 ave 2894 max 2894 min
Histogram: 1 0 0 0 0 0 0 0 0 0
Neighs:    7320 ave 7320 max 7320 min
Histogram: 1 0 0 0 0 0 0 0 0 0

Total # of neighbors = 7320
Ave neighs/atom = 261.429
Neighbor list builds = 0
Dangerous builds = 0
pypospack:output_section:begin
tot_energy = -127.163552869302
num_atoms = 28
a11 = 2.48140442504523
a22 = 4.29791853830456
a33 = 28.3653482877853
a12 = 0
a13 = 0
a23 = 0
tot_press = -1.76344351774915e-09
pxx = -3.38540177821651e-09
pyy = -3.25871280841683e-10
pzz = -1.57905749418926e-09
pxy = 3.36388816407144e-11
pxz = 7.26173125295144e-11
pyz = -2.08782249142252e-09
pypospack:output_section:done
pypospack:lammps_sim:done
Total wall time: 0:00:00
