# ['Ni']

28 atoms
1 atom types

    0.0000     2.4814 xlo xhi
    0.0000     4.2979 ylo yhi
    0.0000    28.3648 zlo zhi

    0.0000     0.0000     0.0000 xy xz yz

Atoms

1 1     0.0000     0.0000     0.0000
2 1     1.2407     2.1490     0.0000
3 1     1.2407     0.7163     2.0261
4 1     0.0000     2.8653     2.0261
5 1     0.0000     1.4326     4.0521
6 1     1.2407     3.5816     4.0521
7 1     0.0000     0.0000     6.0782
8 1     1.2407     2.1490     6.0782
9 1     1.2407     0.7163     8.1042
10 1     0.0000     2.8653     8.1042
11 1     0.0000     1.4326    10.1303
12 1     1.2407     3.5816    10.1303
13 1     0.0000     0.0000    12.1564
14 1     1.2407     2.1490    12.1564
15 1     0.0000     1.4326    14.1824
16 1     1.2407     3.5816    14.1824
17 1     0.0000     0.0000    16.2085
18 1     1.2407     2.1490    16.2085
19 1     1.2407     0.7163    18.2345
20 1     0.0000     2.8653    18.2345
21 1     0.0000     1.4326    20.2606
22 1     1.2407     3.5816    20.2606
23 1     0.0000     0.0000    22.2867
24 1     1.2407     2.1490    22.2867
25 1     1.2407     0.7163    24.3127
26 1     0.0000     2.8653    24.3127
27 1     0.0000     1.4326    26.3388
28 1     1.2407     3.5816    26.3388
