<?xml version="1.0" encoding="ISO-8859-1"?>
<modeling>
 <generator>
  <i name="program" type="string">vasp </i>
  <i name="version" type="string">5.4.4.18Apr17-6-g9f103f2a35  </i>
  <i name="subversion" type="string">(build Dec 03 2018 15:37:19) complex            parallel </i>
  <i name="platform" type="string">LinuxIFC </i>
  <i name="date" type="string">2019 01 08 </i>
  <i name="time" type="string">19:11:40 </i>
 </generator>
 <incar>
  <i type="string" name="SYSTEM"> automatically generated by pyflamestk</i>
  <i type="int" name="ISTART">     0</i>
  <i type="string" name="PREC">high                   ! avoid wrap aro</i>
  <i type="string" name="ALGO"> Normal                 ! blocked Davids</i>
  <i type="int" name="ISPIN">     2</i>
  <i type="int" name="ICHARG">     0</i>
  <i type="int" name="NELM">    40</i>
  <i name="EDIFF">      0.00000100</i>
  <i type="int" name="ISYM">     2</i>
  <i name="SYMPREC">      0.00010000</i>
  <i name="ENCUT">    325.00000000</i>
  <v name="MAGMOM">      1.00000000      1.00000000      1.00000000      1.00000000</v>
  <i type="logical" name="LREAL"> F  </i>
  <i type="int" name="ISMEAR">     1</i>
  <i name="SIGMA">      0.20000000</i>
  <i type="logical" name="LWAVE"> F  </i>
  <i type="logical" name="LCHARG"> F  </i>
  <i type="logical" name="LVTOT"> F  </i>
  <v type="int" name="KPOINT_BSE">    -1     0     0     0</v>
  <i type="int" name="NELM">    40</i>
 </incar>
 <structure name="primitive_cell" >
  <crystal>
   <varray name="basis" >
    <v>       1.74605100       1.74605100      -0.00000000 </v>
    <v>       1.74605100       0.00000000      -1.74605100 </v>
    <v>       0.00000000       1.74605100      -1.74605100 </v>
   </varray>
   <i name="volume">     10.64635075 </i>
   <varray name="rec_basis" >
    <v>       0.28636048       0.28636048       0.28636048 </v>
    <v>       0.28636048      -0.28636048      -0.28636048 </v>
    <v>      -0.28636048       0.28636048      -0.28636048 </v>
   </varray>
  </crystal>
  <varray name="positions" >
   <v>       0.00000000       0.00000000       0.00000000 </v>
  </varray>
 </structure>
 <varray name="primitive_index" >
  <v type="int" >        1 </v>
 </varray>
 <kpoints>
  <generation param="Monkhorst-Pack">
   <v type="int" name="divisions">       4        4        4 </v>
   <v name="usershift">      0.00000000       0.00000000       0.00000000 </v>
   <v name="genvec1">      0.25000000       0.00000000       0.00000000 </v>
   <v name="genvec2">      0.00000000       0.25000000       0.00000000 </v>
   <v name="genvec3">      0.00000000       0.00000000       0.25000000 </v>
   <v name="shift">      0.50000000       0.50000000       0.50000000 </v>
  </generation>
  <varray name="kpointlist" >
   <v>       0.12500000       0.12500000       0.12500000 </v>
   <v>       0.37500000       0.12500000       0.12500000 </v>
   <v>       0.37500000       0.37500000       0.12500000 </v>
   <v>       0.37500000       0.37500000       0.37500000 </v>
  </varray>
  <varray name="weights" >
   <v>       0.12500000 </v>
   <v>       0.37500000 </v>
   <v>       0.37500000 </v>
   <v>       0.12500000 </v>
  </varray>
 </kpoints>
 <parameters>
  <separator name="general" >
   <i type="string" name="SYSTEM">automatically generated by pyflamestk</i>
   <i type="logical" name="LCOMPAT"> F  </i>
  </separator>
  <separator name="electronic" >
   <i type="string" name="PREC">high</i>
   <i name="ENMAX">    325.00000000</i>
   <i name="ENAUG">    544.56500000</i>
   <i name="EDIFF">      0.00000100</i>
   <i type="int" name="IALGO">    38</i>
   <i type="int" name="IWAVPR">    10</i>
   <i type="int" name="NBANDS">    32</i>
   <i name="NELECT">     40.00000000</i>
   <i type="int" name="TURBO">     0</i>
   <i type="int" name="IRESTART">     0</i>
   <i type="int" name="NREBOOT">     0</i>
   <i type="int" name="NMIN">     0</i>
   <i name="EREF">      0.00000000</i>
   <separator name="electronic smearing" >
    <i type="int" name="ISMEAR">     1</i>
    <i name="SIGMA">      0.20000000</i>
    <i name="KSPACING">      0.50000000</i>
    <i type="logical" name="KGAMMA"> T  </i>
   </separator>
   <separator name="electronic projectors" >
    <i type="logical" name="LREAL"> F  </i>
    <v name="ROPT">      0.00000000</v>
    <i type="int" name="LMAXPAW">  -100</i>
    <i type="int" name="LMAXMIX">     2</i>
    <i type="logical" name="NLSPLINE"> F  </i>
   </separator>
   <separator name="electronic startup" >
    <i type="int" name="ISTART">     0</i>
    <i type="int" name="ICHARG">     0</i>
    <i type="int" name="INIWAV">     1</i>
   </separator>
   <separator name="electronic spin" >
    <i type="int" name="ISPIN">     2</i>
    <i type="logical" name="LNONCOLLINEAR"> F  </i>
    <v name="MAGMOM">      1.00000000      1.00000000      1.00000000      1.00000000</v>
    <i name="NUPDOWN">     -1.00000000</i>
    <i type="logical" name="LSORBIT"> F  </i>
    <v name="SAXIS">      0.00000000      0.00000000      1.00000000</v>
    <i type="logical" name="LSPIRAL"> F  </i>
    <v name="QSPIRAL">      0.00000000      0.00000000      0.00000000</v>
    <i type="logical" name="LZEROZ"> F  </i>
   </separator>
   <separator name="electronic exchange-correlation" >
    <i type="logical" name="LASPH"> F  </i>
    <i type="logical" name="LMETAGGA"> F  </i>
   </separator>
   <separator name="electronic convergence" >
    <i type="int" name="NELM">    40</i>
    <i type="int" name="NELMDL">    -5</i>
    <i type="int" name="NELMIN">     2</i>
    <i name="ENINI">    325.00000000</i>
    <separator name="electronic convergence detail" >
     <i type="logical" name="LDIAG"> T  </i>
     <i type="logical" name="LSUBROT"> F  </i>
     <i name="WEIMIN">      0.00000000</i>
     <i name="EBREAK">      0.00000001</i>
     <i name="DEPER">      0.30000000</i>
     <i type="int" name="NRMM">     4</i>
     <i name="TIME">      0.40000000</i>
    </separator>
   </separator>
   <separator name="electronic mixer" >
    <i name="AMIX">      0.40000000</i>
    <i name="BMIX">      1.00000000</i>
    <i name="AMIN">      0.10000000</i>
    <i name="AMIX_MAG">      1.60000000</i>
    <i name="BMIX_MAG">      1.00000000</i>
    <separator name="electronic mixer details" >
     <i type="int" name="IMIX">     4</i>
     <i type="logical" name="MIXFIRST"> F  </i>
     <i type="int" name="MAXMIX">   -45</i>
     <i name="WC">    100.00000000</i>
     <i type="int" name="INIMIX">     1</i>
     <i type="int" name="MIXPRE">     1</i>
     <i type="int" name="MREMOVE">     5</i>
    </separator>
   </separator>
   <separator name="electronic dipolcorrection" >
    <i type="logical" name="LDIPOL"> F  </i>
    <i type="logical" name="LMONO"> F  </i>
    <i type="int" name="IDIPOL">     0</i>
    <i name="EPSILON">      1.00000000</i>
    <v name="DIPOL">   -100.00000000   -100.00000000   -100.00000000</v>
    <i name="EFIELD">      0.00000000</i>
   </separator>
  </separator>
  <separator name="grids" >
   <i type="int" name="NGX">    24</i>
   <i type="int" name="NGY">    24</i>
   <i type="int" name="NGZ">    24</i>
   <i type="int" name="NGXF">    36</i>
   <i type="int" name="NGYF">    36</i>
   <i type="int" name="NGZF">    36</i>
   <i type="logical" name="ADDGRID"> F  </i>
  </separator>
  <separator name="ionic" >
   <i type="int" name="NSW">     0</i>
   <i type="int" name="IBRION">    -1</i>
   <i type="int" name="MDALGO">     0</i>
   <i type="int" name="ISIF">     2</i>
   <i name="PSTRESS">      0.00000000</i>
   <i name="EDIFFG">      0.00001000</i>
   <i type="int" name="NFREE">     0</i>
   <i name="POTIM">      0.50000000</i>
   <i name="SMASS">     -3.00000000</i>
   <i name="SCALEE">      1.00000000</i>
  </separator>
  <separator name="ionic md" >
   <i name="TEBEG">      0.00010000</i>
   <i name="TEEND">      0.00010000</i>
   <i type="int" name="NBLOCK">     1</i>
   <i type="int" name="KBLOCK">     1</i>
   <i type="int" name="NPACO">   256</i>
   <i name="APACO">     16.00000000</i>
  </separator>
  <separator name="symmetry" >
   <i type="int" name="ISYM">     2</i>
   <i name="SYMPREC">      0.00010000</i>
  </separator>
  <separator name="dos" >
   <i type="int" name="LORBIT">     0</i>
   <v name="RWIGS">     -1.00000000</v>
   <i type="int" name="NEDOS">   301</i>
   <i name="EMIN">     10.00000000</i>
   <i name="EMAX">    -10.00000000</i>
   <i name="EFERMI">      0.00000000</i>
  </separator>
  <separator name="writing" >
   <i type="int" name="NWRITE">     2</i>
   <i type="logical" name="LWAVE"> F  </i>
   <i type="logical" name="LDOWNSAMPLE"> F  </i>
   <i type="logical" name="LCHARG"> F  </i>
   <i type="logical" name="LPARD"> F  </i>
   <i type="logical" name="LVTOT"> F  </i>
   <i type="logical" name="LVHAR"> F  </i>
   <i type="logical" name="LELF"> F  </i>
   <i type="logical" name="LOPTICS"> F  </i>
   <v name="STM">      0.00000000      0.00000000      0.00000000      0.00000000      0.00000000      0.00000000      0.00000000</v>
  </separator>
  <separator name="performance" >
   <i type="int" name="NPAR">    16</i>
   <i type="int" name="NSIM">     4</i>
   <i type="int" name="NBLK">    -1</i>
   <i type="logical" name="LPLANE"> T  </i>
   <i type="logical" name="LSCALAPACK"> T  </i>
   <i type="logical" name="LSCAAWARE"> F  </i>
   <i type="logical" name="LSCALU"> F  </i>
   <i type="logical" name="LASYNC"> F  </i>
   <i type="logical" name="LORBITALREAL"> F  </i>
  </separator>
  <separator name="miscellaneous" >
   <i type="int" name="IDIOT">     3</i>
   <i type="int" name="ISPECIAL">     0</i>
   <i type="logical" name="LMUSIC"> F  </i>
   <v name="POMASS">     58.69000000</v>
   <v name="DARWINR">      0.00000000</v>
   <v name="DARWINV">      1.00000000</v>
   <i type="logical" name="LCORR"> T  </i>
  </separator>
  <i type="logical" name="GGA_COMPAT"> T  </i>
  <i type="logical" name="LBERRY"> F  </i>
  <i type="int" name="ICORELEVEL">     0</i>
  <i type="logical" name="LDAU"> F  </i>
  <i type="int" name="I_CONSTRAINED_M">     0</i>
  <separator name="electronic exchange-correlation" >
   <i type="string" name="GGA">--</i>
   <i type="int" name="VOSKOWN">     0</i>
   <i type="logical" name="LHFCALC"> F  </i>
   <i type="string" name="PRECFOCK"></i>
   <i type="logical" name="LSYMGRAD"> F  </i>
   <i type="logical" name="LHFONE"> F  </i>
   <i type="logical" name="LRHFCALC"> F  </i>
   <i type="logical" name="LTHOMAS"> F  </i>
   <i type="logical" name="LMODELHF"> F  </i>
   <i name="ENCUT4O">     -1.00000000</i>
   <i type="int" name="EXXOEP">     0</i>
   <i type="int" name="FOURORBIT">     0</i>
   <i name="AEXX">      0.00000000</i>
   <i name="HFALPHA">      0.00000000</i>
   <i name="MCALPHA">      0.00000000</i>
   <i name="ALDAX">      1.00000000</i>
   <i name="AGGAX">      1.00000000</i>
   <i name="ALDAC">      1.00000000</i>
   <i name="AGGAC">      1.00000000</i>
   <i type="int" name="NKREDX">     1</i>
   <i type="int" name="NKREDY">     1</i>
   <i type="int" name="NKREDZ">     1</i>
   <i type="logical" name="SHIFTRED"> F  </i>
   <i type="logical" name="ODDONLY"> F  </i>
   <i type="logical" name="EVENONLY"> F  </i>
   <i type="int" name="LMAXFOCK">     0</i>
   <i type="int" name="NMAXFOCKAE">     0</i>
   <i type="logical" name="LFOCKAEDFT"> F  </i>
   <i name="HFSCREEN">      0.00000000</i>
   <i name="HFSCREENC">      0.00000000</i>
   <i type="int" name="NBANDSGWLOW">     0</i>
  </separator>
  <separator name="vdW DFT" >
   <i type="logical" name="LUSE_VDW"> F  </i>
   <i name="Zab_VDW">     -0.84910000</i>
   <i name="PARAM1">      0.12340000</i>
   <i name="PARAM2">      1.00000000</i>
   <i name="PARAM3">      0.00000000</i>
  </separator>
  <separator name="model GW" >
   <i type="int" name="MODEL_GW">     0</i>
   <i name="MODEL_EPS0">      6.38781045</i>
   <i name="MODEL_ALPHA">      1.00000000</i>
  </separator>
  <separator name="linear response parameters" >
   <i type="logical" name="LEPSILON"> F  </i>
   <i type="logical" name="LRPA"> F  </i>
   <i type="logical" name="LNABLA"> F  </i>
   <i type="logical" name="LVEL"> F  </i>
   <i type="int" name="KINTER">     0</i>
   <i name="CSHIFT">      0.10000000</i>
   <i name="OMEGAMAX">     -1.00000000</i>
   <i name="DEG_THRESHOLD">      0.00200000</i>
   <i name="RTIME">     -0.10000000</i>
   <i name="WPLASMAI">      0.00000000</i>
   <v name="DFIELD">      0.00000000      0.00000000      0.00000000</v>
   <v name="WPLASMA">      0.00000000      0.00000000      0.00000000      0.00000000      0.00000000      0.00000000      0.00000000      0.00000000      0.00000000</v>
  </separator>
  <separator name="orbital magnetization" >
   <i type="logical" name="NUCIND"> F  </i>
   <v name="MAGPOS">      0.00000000      0.00000000      0.00000000</v>
   <i type="logical" name="LNICSALL"> T  </i>
   <i type="logical" name="ORBITALMAG"> F  </i>
   <i type="logical" name="LMAGBLOCH"> F  </i>
   <i type="logical" name="LCHIMAG"> F  </i>
   <i type="logical" name="LGAUGE"> T  </i>
   <i type="int" name="MAGATOM">     0</i>
   <v name="MAGDIPOL">      0.00000000      0.00000000      0.00000000</v>
   <v name="AVECCONST">      0.00000000      0.00000000      0.00000000</v>
  </separator>
  <separator name="response functions" >
   <i type="logical" name="LADDER"> F  </i>
   <i type="logical" name="LRPAFORCE"> F  </i>
   <i type="logical" name="LFXC"> F  </i>
   <i type="logical" name="LHARTREE"> T  </i>
   <i type="int" name="IBSE">     0</i>
   <v type="int" name="KPOINT">    -1     0     0     0</v>
   <i type="logical" name="LTCTE"> F  </i>
   <i type="logical" name="LTETE"> F  </i>
   <i type="logical" name="LTRIPLET"> F  </i>
   <i type="logical" name="LFXCEPS"> F  </i>
   <i type="logical" name="LFXHEG"> F  </i>
   <i type="int" name="NATURALO">     2</i>
   <i type="logical" name="L2ORDER"> F  </i>
   <i type="logical" name="LMP2LT"> F  </i>
   <i type="logical" name="LUSEW"> F  </i>
   <i name="ENCUTGW">     -2.00000000</i>
   <i name="ENCUTGWSOFT">     -2.00000000</i>
   <i name="ENCUTLF">     -1.00000000</i>
   <i type="int" name="LMAXMP2">    -1</i>
   <i name="SCISSOR">      0.00000000</i>
   <i type="int" name="NOMEGA">     0</i>
   <i type="int" name="NOMEGAR">     0</i>
   <i type="int" name="NBANDSGW">    -1</i>
   <i type="int" name="NBANDSO">    -1</i>
   <i type="int" name="NBANDSV">    -1</i>
   <i type="int" name="NELM">    40</i>
   <i type="int" name="NELMHF">     1</i>
   <i type="int" name="DIM">     3</i>
   <i type="int" name="ANTIRES">     0</i>
   <i name="OMEGAMAX">    -30.00000000</i>
   <i name="OMEGAMIN">    -30.00000000</i>
   <i name="OMEGATL">   -200.00000000</i>
   <i type="int" name="OMEGAGRID">   140</i>
   <i name="CSHIFT">     -0.10000000</i>
   <i type="logical" name="SELFENERGY"> F  </i>
   <i type="logical" name="LSPECTRAL"> F  </i>
   <i type="logical" name="LSPECTRALGW"> F  </i>
   <i type="logical" name="LSINGLES"> F  </i>
   <i type="logical" name="LFERMIGW"> F  </i>
   <i type="logical" name="ODDONLYGW"> F  </i>
   <i type="logical" name="EVENONLYGW"> F  </i>
   <i type="int" name="NKREDLFX">     1</i>
   <i type="int" name="NKREDLFY">     1</i>
   <i type="int" name="NKREDLFZ">     1</i>
   <i type="int" name="MAXMEM">  2800</i>
   <i type="int" name="TELESCOPE">     0</i>
   <i type="int" name="TAUPAR">     1</i>
   <i type="int" name="OMEGAPAR">    -1</i>
   <i name="LAMBDA">      1.00000000</i>
  </separator>
  <separator name="External order field" >
   <i name="OFIELD_KAPPA">      0.00000000</i>
   <v name="OFIELD_K">      0.00000000      0.00000000      0.00000000</v>
   <i name="OFIELD_Q6_NEAR">      0.00000000</i>
   <i name="OFIELD_Q6_FAR">      0.00000000</i>
   <i name="OFIELD_A">      0.00000000</i>
  </separator>
 </parameters>
 <atominfo>
  <atoms>       4 </atoms>
  <types>       1 </types>
  <array name="atoms" >
   <dimension dim="1">ion</dimension>
   <field type="string">element</field>
   <field type="int">atomtype</field>
   <set>
    <rc><c>Ni</c><c>   1</c></rc>
    <rc><c>Ni</c><c>   1</c></rc>
    <rc><c>Ni</c><c>   1</c></rc>
    <rc><c>Ni</c><c>   1</c></rc>
   </set>
  </array>
  <array name="atomtypes" >
   <dimension dim="1">type</dimension>
   <field type="int">atomspertype</field>
   <field type="string">element</field>
   <field>mass</field>
   <field>valence</field>
   <field type="string">pseudopotential</field>
   <set>
    <rc><c>   4</c><c>Ni</c><c>     58.69000000</c><c>     10.00000000</c><c>  PAW_PBE Ni 02Aug2007                  </c></rc>
   </set>
  </array>
 </atominfo>
 <structure name="initialpos" >
  <crystal>
   <varray name="basis" >
    <v>       3.49210200       0.00000000       0.00000000 </v>
    <v>       0.00000000       3.49210200       0.00000000 </v>
    <v>       0.00000000       0.00000000       3.49210200 </v>
   </varray>
   <i name="volume">     42.58540298 </i>
   <varray name="rec_basis" >
    <v>       0.28636048       0.00000000       0.00000000 </v>
    <v>       0.00000000       0.28636048       0.00000000 </v>
    <v>       0.00000000       0.00000000       0.28636048 </v>
   </varray>
  </crystal>
  <varray name="positions" >
   <v>       0.00000000       0.00000000       0.00000000 </v>
   <v>       0.00000000       0.50000000       0.50000000 </v>
   <v>       0.50000000       0.00000000       0.50000000 </v>
   <v>       0.50000000       0.50000000       0.00000000 </v>
  </varray>
 </structure>
 <calculation>
  <scstep>
   <time name="dav">    0.10    0.10</time>
   <time name="total">    0.12    0.12</time>
   <energy>
    <i name="alphaZ">    191.61485929 </i>
    <i name="ewald">  -3781.16325108 </i>
    <i name="hartreedc">    -82.25250505 </i>
    <i name="XCdc">     85.06560627 </i>
    <i name="pawpsdc">  91719.17854074 </i>
    <i name="pawaedc"> -91778.19918832 </i>
    <i name="eentropy">      0.00072474 </i>
    <i name="bandstr">  -1520.01684900 </i>
    <i name="atom">   4310.57722148 </i>
    <i name="e_fr_energy">   -855.19484094 </i>
    <i name="e_wo_entrp">   -855.19556568 </i>
    <i name="e_0_energy">   -855.19508252 </i>
   </energy>
  </scstep>
  <scstep>
   <time name="dav">    0.15    0.15</time>
   <time name="total">    0.15    0.15</time>
   <energy>
    <i name="e_fr_energy">   -997.31056638 </i>
    <i name="e_wo_entrp">   -997.57873856 </i>
    <i name="e_0_energy">   -997.39995711 </i>
   </energy>
  </scstep>
  <scstep>
   <time name="dav">    0.09    0.09</time>
   <time name="total">    0.09    0.09</time>
   <energy>
    <i name="e_fr_energy">   -998.81348296 </i>
    <i name="e_wo_entrp">   -999.07233412 </i>
    <i name="e_0_energy">   -998.89976668 </i>
   </energy>
  </scstep>
  <scstep>
   <time name="dav">    0.16    0.16</time>
   <time name="total">    0.16    0.16</time>
   <energy>
    <i name="e_fr_energy">   -998.85220620 </i>
    <i name="e_wo_entrp">   -999.11102987 </i>
    <i name="e_0_energy">   -998.93848075 </i>
   </energy>
  </scstep>
  <scstep>
   <time name="dav">    0.10    0.10</time>
   <time name="total">    0.12    0.12</time>
   <energy>
    <i name="e_fr_energy">   -998.85244514 </i>
    <i name="e_wo_entrp">   -999.11126761 </i>
    <i name="e_0_energy">   -998.93871930 </i>
   </energy>
  </scstep>
  <scstep>
   <time name="dav">    0.15    0.15</time>
   <time name="total">    0.17    0.17</time>
   <energy>
    <i name="e_fr_energy">   -132.14434221 </i>
    <i name="e_wo_entrp">   -132.21936777 </i>
    <i name="e_0_energy">   -132.16935073 </i>
   </energy>
  </scstep>
  <scstep>
   <time name="dav">    0.12    0.12</time>
   <time name="total">    0.15    0.15</time>
   <energy>
    <i name="e_fr_energy">   -293.84031679 </i>
    <i name="e_wo_entrp">   -293.82442814 </i>
    <i name="e_0_energy">   -293.83502057 </i>
   </energy>
  </scstep>
  <scstep>
   <time name="dav">    0.09    0.09</time>
   <time name="total">    0.12    0.12</time>
   <energy>
    <i name="e_fr_energy">    -58.45866696 </i>
    <i name="e_wo_entrp">    -58.49395836 </i>
    <i name="e_0_energy">    -58.47043076 </i>
   </energy>
  </scstep>
  <scstep>
   <time name="dav">    0.13    0.13</time>
   <time name="total">    0.16    0.16</time>
   <energy>
    <i name="e_fr_energy">    -21.62294747 </i>
    <i name="e_wo_entrp">    -21.57066452 </i>
    <i name="e_0_energy">    -21.60551982 </i>
   </energy>
  </scstep>
  <scstep>
   <time name="dav">    0.11    0.11</time>
   <time name="total">    0.14    0.14</time>
   <energy>
    <i name="e_fr_energy">    -46.63602279 </i>
    <i name="e_wo_entrp">    -46.62521142 </i>
    <i name="e_0_energy">    -46.63241900 </i>
   </energy>
  </scstep>
  <scstep>
   <time name="dav">    0.11    0.11</time>
   <time name="total">    0.14    0.14</time>
   <energy>
    <i name="e_fr_energy">    -21.88420698 </i>
    <i name="e_wo_entrp">    -21.85471341 </i>
    <i name="e_0_energy">    -21.87437579 </i>
   </energy>
  </scstep>
  <scstep>
   <time name="dav">    0.11    0.11</time>
   <time name="total">    0.14    0.14</time>
   <energy>
    <i name="e_fr_energy">    -21.82911204 </i>
    <i name="e_wo_entrp">    -21.79005491 </i>
    <i name="e_0_energy">    -21.81609300 </i>
   </energy>
  </scstep>
  <scstep>
   <time name="dav">    0.12    0.12</time>
   <time name="total">    0.15    0.15</time>
   <energy>
    <i name="e_fr_energy">    -21.69927791 </i>
    <i name="e_wo_entrp">    -21.63728153 </i>
    <i name="e_0_energy">    -21.67861245 </i>
   </energy>
  </scstep>
  <scstep>
   <time name="dav">    0.12    0.12</time>
   <time name="total">    0.15    0.15</time>
   <energy>
    <i name="e_fr_energy">    -21.72982095 </i>
    <i name="e_wo_entrp">    -21.66897596 </i>
    <i name="e_0_energy">    -21.70953929 </i>
   </energy>
  </scstep>
  <scstep>
   <time name="dav">    0.11    0.11</time>
   <time name="total">    0.13    0.13</time>
   <energy>
    <i name="e_fr_energy">    -21.64214372 </i>
    <i name="e_wo_entrp">    -21.56701328 </i>
    <i name="e_0_energy">    -21.61710024 </i>
   </energy>
  </scstep>
  <scstep>
   <time name="dav">    0.13    0.13</time>
   <time name="total">    0.15    0.15</time>
   <energy>
    <i name="e_fr_energy">    -21.65850932 </i>
    <i name="e_wo_entrp">    -21.57822517 </i>
    <i name="e_0_energy">    -21.63174794 </i>
   </energy>
  </scstep>
  <scstep>
   <time name="dav">    0.12    0.12</time>
   <time name="total">    0.14    0.14</time>
   <energy>
    <i name="e_fr_energy">    -21.65682965 </i>
    <i name="e_wo_entrp">    -21.57673927 </i>
    <i name="e_0_energy">    -21.63013285 </i>
   </energy>
  </scstep>
  <scstep>
   <time name="dav">    0.10    0.10</time>
   <time name="total">    0.13    0.13</time>
   <energy>
    <i name="e_fr_energy">    -21.64323944 </i>
    <i name="e_wo_entrp">    -21.56743735 </i>
    <i name="e_0_energy">    -21.61797208 </i>
   </energy>
  </scstep>
  <scstep>
   <time name="dav">    0.15    0.15</time>
   <time name="total">    0.18    0.18</time>
   <energy>
    <i name="e_fr_energy">    -21.64348598 </i>
    <i name="e_wo_entrp">    -21.56843373 </i>
    <i name="e_0_energy">    -21.61846856 </i>
   </energy>
  </scstep>
  <scstep>
   <time name="dav">    0.13    0.13</time>
   <time name="total">    0.16    0.16</time>
   <energy>
    <i name="e_fr_energy">    -21.64321565 </i>
    <i name="e_wo_entrp">    -21.56768463 </i>
    <i name="e_0_energy">    -21.61803864 </i>
   </energy>
  </scstep>
  <scstep>
   <time name="dav">    0.13    0.13</time>
   <time name="total">    0.16    0.16</time>
   <energy>
    <i name="e_fr_energy">    -21.64317058 </i>
    <i name="e_wo_entrp">    -21.56732000 </i>
    <i name="e_0_energy">    -21.61788706 </i>
   </energy>
  </scstep>
  <scstep>
   <time name="dav">    0.10    0.10</time>
   <time name="total">    0.11    0.11</time>
   <energy>
    <i name="alphaZ">    191.61485929 </i>
    <i name="ewald">  -3781.16325108 </i>
    <i name="hartreedc">   -885.22620158 </i>
    <i name="XCdc">    122.83192154 </i>
    <i name="pawpsdc">   4299.35844943 </i>
    <i name="pawaedc">  -4574.55252917 </i>
    <i name="eentropy">     -0.07585236 </i>
    <i name="bandstr">    294.99221189 </i>
    <i name="atom">   4310.57722148 </i>
    <i name="e_fr_energy">    -21.64317055 </i>
    <i name="e_wo_entrp">    -21.56731818 </i>
    <i name="e_0_energy">    -21.61788643 </i>
   </energy>
  </scstep>
  <structure>
   <crystal>
    <varray name="basis" >
     <v>       3.49210200       0.00000000       0.00000000 </v>
     <v>       0.00000000       3.49210200       0.00000000 </v>
     <v>       0.00000000       0.00000000       3.49210200 </v>
    </varray>
    <i name="volume">     42.58540298 </i>
    <varray name="rec_basis" >
     <v>       0.28636048       0.00000000       0.00000000 </v>
     <v>       0.00000000       0.28636048       0.00000000 </v>
     <v>       0.00000000       0.00000000       0.28636048 </v>
    </varray>
   </crystal>
   <varray name="positions" >
    <v>       0.00000000       0.00000000       0.00000000 </v>
    <v>       0.00000000       0.50000000       0.50000000 </v>
    <v>       0.50000000       0.00000000       0.50000000 </v>
    <v>       0.50000000       0.50000000       0.00000000 </v>
   </varray>
  </structure>
  <varray name="forces" >
   <v>       0.00000000      -0.00000000      -0.00000000 </v>
   <v>       0.00000000       0.00000000       0.00000000 </v>
   <v>      -0.00000000      -0.00000000      -0.00000000 </v>
   <v>      -0.00000000      -0.00000000       0.00000000 </v>
  </varray>
  <varray name="stress" >
   <v>      30.85349253      -0.00000000       0.00000000 </v>
   <v>       0.00000000      30.85349253      -0.00000000 </v>
   <v>      -0.00000000      -0.00000000      30.85349253 </v>
  </varray>
  <energy>
   <i name="e_fr_energy">    -21.64317055 </i>
   <i name="e_wo_entrp">    -21.61788643 </i>
   <i name="e_0_energy">     -0.07585236 </i>
  </energy>
  <time name="totalsc">    3.22    3.23</time>
  <eigenvalues>
   <array>
    <dimension dim="1">band</dimension>
    <dimension dim="2">kpoint</dimension>
    <dimension dim="3">spin</dimension>
    <field>eigene</field>
    <field>occ</field>
    <set>
     <set comment="spin 1">
      <set comment="kpoint 1">
       <r>    1.1197    1.0000 </r>
       <r>    5.3412    1.0000 </r>
       <r>    5.3412    1.0000 </r>
       <r>    5.3412    1.0000 </r>
       <r>    5.9125    1.0000 </r>
       <r>    5.9125    1.0000 </r>
       <r>    5.9125    1.0000 </r>
       <r>    7.4527    1.0000 </r>
       <r>    7.7371    1.0000 </r>
       <r>    7.7371    1.0000 </r>
       <r>    8.7170    1.0000 </r>
       <r>    8.7170    1.0000 </r>
       <r>    8.7357    1.0000 </r>
       <r>    8.7357    1.0000 </r>
       <r>    8.7357    1.0000 </r>
       <r>    9.2189    1.0216 </r>
       <r>    9.2189    1.0216 </r>
       <r>    9.2189    1.0216 </r>
       <r>    9.6224    0.1995 </r>
       <r>    9.6224    0.1995 </r>
       <r>    9.6224    0.1995 </r>
       <r>   12.3565   -0.0000 </r>
       <r>   12.3565   -0.0000 </r>
       <r>   12.3565   -0.0000 </r>
       <r>   20.6974    0.0000 </r>
       <r>   20.6974    0.0000 </r>
       <r>   20.6974    0.0000 </r>
       <r>   22.0106    0.0000 </r>
       <r>   22.0106    0.0000 </r>
       <r>   22.0106    0.0000 </r>
       <r>   25.6625    0.0000 </r>
       <r>   25.6625    0.0000 </r>
      </set>
      <set comment="kpoint 2">
       <r>    2.6380    1.0000 </r>
       <r>    4.7878    1.0000 </r>
       <r>    6.0064    1.0000 </r>
       <r>    6.0064    1.0000 </r>
       <r>    6.3597    1.0000 </r>
       <r>    6.3691    1.0000 </r>
       <r>    6.3691    1.0000 </r>
       <r>    7.0110    1.0000 </r>
       <r>    7.4098    1.0000 </r>
       <r>    7.4098    1.0000 </r>
       <r>    7.8216    1.0000 </r>
       <r>    7.8929    1.0000 </r>
       <r>    8.0455    1.0000 </r>
       <r>    8.5643    1.0000 </r>
       <r>    8.6321    1.0000 </r>
       <r>    8.7660    1.0000 </r>
       <r>    8.7660    1.0000 </r>
       <r>    9.0252    1.0007 </r>
       <r>    9.4163    0.9395 </r>
       <r>    9.5359    0.5401 </r>
       <r>    9.5359    0.5401 </r>
       <r>    9.6328    0.1665 </r>
       <r>   14.6796   -0.0000 </r>
       <r>   14.6796   -0.0000 </r>
       <r>   17.9834    0.0000 </r>
       <r>   17.9834    0.0000 </r>
       <r>   21.7073    0.0000 </r>
       <r>   21.7073    0.0000 </r>
       <r>   23.8030    0.0000 </r>
       <r>   23.9840    0.0000 </r>
       <r>   23.9840    0.0000 </r>
       <r>   26.9162    0.0000 </r>
      </set>
      <set comment="kpoint 3">
       <r>    3.9092    1.0000 </r>
       <r>    5.5407    1.0000 </r>
       <r>    5.5407    1.0000 </r>
       <r>    6.0535    1.0000 </r>
       <r>    6.6486    1.0000 </r>
       <r>    6.7561    1.0000 </r>
       <r>    6.7561    1.0000 </r>
       <r>    7.0344    1.0000 </r>
       <r>    7.2204    1.0000 </r>
       <r>    7.2204    1.0000 </r>
       <r>    7.3381    1.0000 </r>
       <r>    7.6590    1.0000 </r>
       <r>    7.9956    1.0000 </r>
       <r>    8.3475    1.0000 </r>
       <r>    8.3484    1.0000 </r>
       <r>    8.3484    1.0000 </r>
       <r>    8.6545    1.0000 </r>
       <r>    9.1842    1.0142 </r>
       <r>    9.1842    1.0142 </r>
       <r>    9.2520    1.0291 </r>
       <r>    9.5967    0.2907 </r>
       <r>   11.1184   -0.0000 </r>
       <r>   11.1184   -0.0000 </r>
       <r>   13.4268   -0.0000 </r>
       <r>   16.9645    0.0000 </r>
       <r>   19.7878    0.0000 </r>
       <r>   19.7878    0.0000 </r>
       <r>   22.7926    0.0000 </r>
       <r>   22.9211    0.0000 </r>
       <r>   25.3974    0.0000 </r>
       <r>   25.3974    0.0000 </r>
       <r>   28.2726    0.0000 </r>
      </set>
      <set comment="kpoint 4">
       <r>    4.5288    1.0000 </r>
       <r>    5.2874    1.0000 </r>
       <r>    5.2874    1.0000 </r>
       <r>    5.2874    1.0000 </r>
       <r>    7.2573    1.0000 </r>
       <r>    7.2573    1.0000 </r>
       <r>    7.2573    1.0000 </r>
       <r>    7.6641    1.0000 </r>
       <r>    7.6641    1.0000 </r>
       <r>    7.8216    1.0000 </r>
       <r>    7.8216    1.0000 </r>
       <r>    7.8216    1.0000 </r>
       <r>    7.8739    1.0000 </r>
       <r>    7.9075    1.0000 </r>
       <r>    7.9075    1.0000 </r>
       <r>    7.9075    1.0000 </r>
       <r>    9.2921    1.0352 </r>
       <r>    9.2921    1.0352 </r>
       <r>    9.5308    0.5614 </r>
       <r>    9.5308    0.5614 </r>
       <r>    9.5308    0.5614 </r>
       <r>   11.1313   -0.0000 </r>
       <r>   11.1313   -0.0000 </r>
       <r>   11.1313   -0.0000 </r>
       <r>   16.3172    0.0000 </r>
       <r>   16.3172    0.0000 </r>
       <r>   16.3172    0.0000 </r>
       <r>   18.7516    0.0000 </r>
       <r>   29.3074    0.0000 </r>
       <r>   29.3074    0.0000 </r>
       <r>   29.3074    0.0000 </r>
       <r>   31.6782    0.0000 </r>
      </set>
     </set>
     <set comment="spin 2">
      <set comment="kpoint 1">
       <r>    1.1196    1.0000 </r>
       <r>    5.3414    1.0000 </r>
       <r>    5.3414    1.0000 </r>
       <r>    5.3414    1.0000 </r>
       <r>    5.9130    1.0000 </r>
       <r>    5.9130    1.0000 </r>
       <r>    5.9130    1.0000 </r>
       <r>    7.4533    1.0000 </r>
       <r>    7.7377    1.0000 </r>
       <r>    7.7377    1.0000 </r>
       <r>    8.7174    1.0000 </r>
       <r>    8.7174    1.0000 </r>
       <r>    8.7363    1.0000 </r>
       <r>    8.7363    1.0000 </r>
       <r>    8.7363    1.0000 </r>
       <r>    9.2194    1.0217 </r>
       <r>    9.2194    1.0217 </r>
       <r>    9.2194    1.0217 </r>
       <r>    9.6231    0.1972 </r>
       <r>    9.6231    0.1972 </r>
       <r>    9.6231    0.1972 </r>
       <r>   12.3567   -0.0000 </r>
       <r>   12.3567   -0.0000 </r>
       <r>   12.3567   -0.0000 </r>
       <r>   20.6975    0.0000 </r>
       <r>   20.6975    0.0000 </r>
       <r>   20.6975    0.0000 </r>
       <r>   22.0106    0.0000 </r>
       <r>   22.0106    0.0000 </r>
       <r>   22.0106    0.0000 </r>
       <r>   25.6625    0.0000 </r>
       <r>   25.6625    0.0000 </r>
      </set>
      <set comment="kpoint 2">
       <r>    2.6380    1.0000 </r>
       <r>    4.7879    1.0000 </r>
       <r>    6.0067    1.0000 </r>
       <r>    6.0067    1.0000 </r>
       <r>    6.3603    1.0000 </r>
       <r>    6.3696    1.0000 </r>
       <r>    6.3696    1.0000 </r>
       <r>    7.0116    1.0000 </r>
       <r>    7.4103    1.0000 </r>
       <r>    7.4103    1.0000 </r>
       <r>    7.8221    1.0000 </r>
       <r>    7.8934    1.0000 </r>
       <r>    8.0461    1.0000 </r>
       <r>    8.5648    1.0000 </r>
       <r>    8.6327    1.0000 </r>
       <r>    8.7665    1.0000 </r>
       <r>    8.7665    1.0000 </r>
       <r>    9.0257    1.0007 </r>
       <r>    9.4168    0.9383 </r>
       <r>    9.5366    0.5371 </r>
       <r>    9.5366    0.5371 </r>
       <r>    9.6333    0.1649 </r>
       <r>   14.6798   -0.0000 </r>
       <r>   14.6798   -0.0000 </r>
       <r>   17.9836    0.0000 </r>
       <r>   17.9836    0.0000 </r>
       <r>   21.7074    0.0000 </r>
       <r>   21.7074    0.0000 </r>
       <r>   23.8031    0.0000 </r>
       <r>   23.9840    0.0000 </r>
       <r>   23.9840    0.0000 </r>
       <r>   26.9161    0.0000 </r>
      </set>
      <set comment="kpoint 3">
       <r>    3.9092    1.0000 </r>
       <r>    5.5409    1.0000 </r>
       <r>    5.5409    1.0000 </r>
       <r>    6.0539    1.0000 </r>
       <r>    6.6489    1.0000 </r>
       <r>    6.7565    1.0000 </r>
       <r>    6.7565    1.0000 </r>
       <r>    7.0349    1.0000 </r>
       <r>    7.2209    1.0000 </r>
       <r>    7.2209    1.0000 </r>
       <r>    7.3386    1.0000 </r>
       <r>    7.6595    1.0000 </r>
       <r>    7.9962    1.0000 </r>
       <r>    8.3480    1.0000 </r>
       <r>    8.3489    1.0000 </r>
       <r>    8.3489    1.0000 </r>
       <r>    8.6551    1.0000 </r>
       <r>    9.1849    1.0143 </r>
       <r>    9.1849    1.0143 </r>
       <r>    9.2527    1.0292 </r>
       <r>    9.5973    0.2885 </r>
       <r>   11.1188   -0.0000 </r>
       <r>   11.1188   -0.0000 </r>
       <r>   13.4270   -0.0000 </r>
       <r>   16.9648    0.0000 </r>
       <r>   19.7880    0.0000 </r>
       <r>   19.7880    0.0000 </r>
       <r>   22.7927    0.0000 </r>
       <r>   22.9212    0.0000 </r>
       <r>   25.3974    0.0000 </r>
       <r>   25.3974    0.0000 </r>
       <r>   28.2727    0.0000 </r>
      </set>
      <set comment="kpoint 4">
       <r>    4.5290    1.0000 </r>
       <r>    5.2878    1.0000 </r>
       <r>    5.2878    1.0000 </r>
       <r>    5.2878    1.0000 </r>
       <r>    7.2577    1.0000 </r>
       <r>    7.2577    1.0000 </r>
       <r>    7.2577    1.0000 </r>
       <r>    7.6646    1.0000 </r>
       <r>    7.6646    1.0000 </r>
       <r>    7.8221    1.0000 </r>
       <r>    7.8221    1.0000 </r>
       <r>    7.8221    1.0000 </r>
       <r>    7.8741    1.0000 </r>
       <r>    7.9080    1.0000 </r>
       <r>    7.9080    1.0000 </r>
       <r>    7.9080    1.0000 </r>
       <r>    9.2927    1.0352 </r>
       <r>    9.2927    1.0352 </r>
       <r>    9.5315    0.5587 </r>
       <r>    9.5315    0.5587 </r>
       <r>    9.5315    0.5587 </r>
       <r>   11.1316   -0.0000 </r>
       <r>   11.1316   -0.0000 </r>
       <r>   11.1316   -0.0000 </r>
       <r>   16.3175    0.0000 </r>
       <r>   16.3175    0.0000 </r>
       <r>   16.3175    0.0000 </r>
       <r>   18.7518    0.0000 </r>
       <r>   29.3073    0.0000 </r>
       <r>   29.3073    0.0000 </r>
       <r>   29.3073    0.0000 </r>
       <r>   31.6782    0.0000 </r>
      </set>
     </set>
    </set>
   </array>
  </eigenvalues>
  <separator name="orbital magnetization" >
   <v name="MAGDIPOLOUT">      0.00000000      0.00000000      0.00000000</v>
  </separator>
  <dos>
   <i name="efermi">      9.54540889 </i>
   <total>
    <array>
     <dimension dim="1">gridpoints</dimension>
     <dimension dim="2">spin</dimension>
     <field>energy</field>
     <field>total</field>
     <field>integrated</field>
     <set>
      <set comment="spin 1">
       <r>    -0.8804     0.0000     0.0000 </r>
       <r>    -0.7652     0.0000     0.0000 </r>
       <r>    -0.6500     0.0000     0.0000 </r>
       <r>    -0.5348    -0.0000    -0.0000 </r>
       <r>    -0.4196    -0.0000    -0.0000 </r>
       <r>    -0.3044    -0.0000    -0.0000 </r>
       <r>    -0.1892    -0.0000    -0.0000 </r>
       <r>    -0.0740    -0.0000    -0.0000 </r>
       <r>     0.0412    -0.0000    -0.0000 </r>
       <r>     0.1564    -0.0000    -0.0000 </r>
       <r>     0.2715    -0.0000    -0.0000 </r>
       <r>     0.3867    -0.0000    -0.0000 </r>
       <r>     0.5019    -0.0001    -0.0000 </r>
       <r>     0.6171    -0.0011    -0.0001 </r>
       <r>     0.7323    -0.0094    -0.0012 </r>
       <r>     0.8475    -0.0253    -0.0041 </r>
       <r>     0.9627     0.0511     0.0017 </r>
       <r>     1.0779     0.3403     0.0409 </r>
       <r>     1.1931     0.5005     0.0986 </r>
       <r>     1.3083     0.2489     0.1273 </r>
       <r>     1.4235     0.0093     0.1283 </r>
       <r>     1.5387    -0.0228     0.1257 </r>
       <r>     1.6539    -0.0057     0.1251 </r>
       <r>     1.7691    -0.0005     0.1250 </r>
       <r>     1.8843    -0.0000     0.1250 </r>
       <r>     1.9995    -0.0001     0.1250 </r>
       <r>     2.1147    -0.0021     0.1247 </r>
       <r>     2.2299    -0.0206     0.1224 </r>
       <r>     2.3451    -0.0723     0.1141 </r>
       <r>     2.4603     0.0644     0.1215 </r>
       <r>     2.5755     0.8414     0.2184 </r>
       <r>     2.6906     1.5147     0.3929 </r>
       <r>     2.8058     0.9279     0.4998 </r>
       <r>     2.9210     0.1036     0.5117 </r>
       <r>     3.0362    -0.0748     0.5031 </r>
       <r>     3.1514    -0.0240     0.5003 </r>
       <r>     3.2666    -0.0027     0.5000 </r>
       <r>     3.3818    -0.0020     0.4998 </r>
       <r>     3.4970    -0.0193     0.4975 </r>
       <r>     3.6122    -0.0709     0.4894 </r>
       <r>     3.7274     0.0503     0.4952 </r>
       <r>     3.8426     0.8066     0.5881 </r>
       <r>     3.9578     1.5112     0.7622 </r>
       <r>     4.0730     0.9593     0.8727 </r>
       <r>     4.1882     0.1039     0.8846 </r>
       <r>     4.3034    -0.0972     0.8735 </r>
       <r>     4.4186     0.0869     0.8835 </r>
       <r>     4.5338     0.3775     0.9269 </r>
       <r>     4.6490     0.6849     1.0058 </r>
       <r>     4.7642     1.2892     1.1543 </r>
       <r>     4.8794     1.4006     1.3157 </r>
       <r>     4.9946     0.4562     1.3682 </r>
       <r>     5.1097    -0.0413     1.3635 </r>
       <r>     5.2249     1.0576     1.4853 </r>
       <r>     5.3401     2.8176     1.8099 </r>
       <r>     5.4553     3.5428     2.2180 </r>
       <r>     5.5705     3.3821     2.6076 </r>
       <r>     5.6857     1.8973     2.8262 </r>
       <r>     5.8009     0.6879     2.9054 </r>
       <r>     5.9161     2.6295     3.2083 </r>
       <r>     6.0313     5.1680     3.8036 </r>
       <r>     6.1465     4.0063     4.2651 </r>
       <r>     6.2617     2.4480     4.5471 </r>
       <r>     6.3769     3.8206     4.9872 </r>
       <r>     6.4921     3.6417     5.4068 </r>
       <r>     6.6073     2.3541     5.6779 </r>
       <r>     6.7225     3.3307     6.0616 </r>
       <r>     6.8377     3.5856     6.4747 </r>
       <r>     6.9529     2.6513     6.7801 </r>
       <r>     7.0681     3.1324     7.1409 </r>
       <r>     7.1833     4.7149     7.6841 </r>
       <r>     7.2985     6.6223     8.4469 </r>
       <r>     7.4137     6.6312     9.2108 </r>
       <r>     7.5288     4.2065     9.6953 </r>
       <r>     7.6440     3.1241    10.0552 </r>
       <r>     7.7592     5.2581    10.6609 </r>
       <r>     7.8744     7.7582    11.5547 </r>
       <r>     7.9896     7.3722    12.4039 </r>
       <r>     8.1048     4.0878    12.8748 </r>
       <r>     8.2200     1.9563    13.1002 </r>
       <r>     8.3352     3.3186    13.4824 </r>
       <r>     8.4504     4.2528    13.9723 </r>
       <r>     8.5656     4.4463    14.4845 </r>
       <r>     8.6808     7.0309    15.2945 </r>
       <r>     8.7960     7.6583    16.1767 </r>
       <r>     8.9112     3.9541    16.6322 </r>
       <r>     9.0264     1.8259    16.8425 </r>
       <r>     9.1416     4.1244    17.3176 </r>
       <r>     9.2568     6.6619    18.0850 </r>
       <r>     9.3720     5.9740    18.7732 </r>
       <r>     9.4872     6.3919    19.5095 </r>
       <r>     9.6024     8.6940    20.5110 </r>
       <r>     9.7176     6.4642    21.2557 </r>
       <r>     9.8328     1.6235    21.4427 </r>
       <r>     9.9479    -0.3212    21.4057 </r>
       <r>    10.0631    -0.2245    21.3798 </r>
       <r>    10.1783    -0.0388    21.3753 </r>
       <r>    10.2935    -0.0029    21.3750 </r>
       <r>    10.4087    -0.0001    21.3750 </r>
       <r>    10.5239    -0.0009    21.3749 </r>
       <r>    10.6391    -0.0154    21.3731 </r>
       <r>    10.7543    -0.1097    21.3605 </r>
       <r>    10.8695    -0.2167    21.3355 </r>
       <r>    10.9847     0.7742    21.4247 </r>
       <r>    11.0999     3.5188    21.8301 </r>
       <r>    11.2151     4.3327    22.3292 </r>
       <r>    11.3303     1.7601    22.5319 </r>
       <r>    11.4455    -0.0581    22.5252 </r>
       <r>    11.5607    -0.1785    22.5047 </r>
       <r>    11.6759    -0.0373    22.5004 </r>
       <r>    11.7911    -0.0038    22.4999 </r>
       <r>    11.9063    -0.0100    22.4988 </r>
       <r>    12.0215    -0.0533    22.4926 </r>
       <r>    12.1367    -0.0421    22.4878 </r>
       <r>    12.2519     0.4885    22.5441 </r>
       <r>    12.3671     1.3907    22.7043 </r>
       <r>    12.4822     1.2626    22.8497 </r>
       <r>    12.5974     0.3348    22.8883 </r>
       <r>    12.7126    -0.0658    22.8807 </r>
       <r>    12.8278    -0.0427    22.8758 </r>
       <r>    12.9430    -0.0116    22.8744 </r>
       <r>    13.0582    -0.0369    22.8702 </r>
       <r>    13.1734    -0.0728    22.8618 </r>
       <r>    13.2886     0.2558    22.8913 </r>
       <r>    13.4038     1.1724    23.0263 </r>
       <r>    13.5190     1.4470    23.1930 </r>
       <r>    13.6342     0.5878    23.2607 </r>
       <r>    13.7494    -0.0199    23.2584 </r>
       <r>    13.8646    -0.0596    23.2516 </r>
       <r>    13.9798    -0.0124    23.2501 </r>
       <r>    14.0950    -0.0019    23.2499 </r>
       <r>    14.2102    -0.0136    23.2483 </r>
       <r>    14.3254    -0.0868    23.2383 </r>
       <r>    14.4406    -0.1287    23.2235 </r>
       <r>    14.5558     0.6953    23.3036 </r>
       <r>    14.6710     2.5510    23.5975 </r>
       <r>    14.7862     2.7616    23.9156 </r>
       <r>    14.9013     0.9478    24.0248 </r>
       <r>    15.0165    -0.0899    24.0144 </r>
       <r>    15.1317    -0.1046    24.0024 </r>
       <r>    15.2469    -0.0191    24.0002 </r>
       <r>    15.3621    -0.0014    24.0000 </r>
       <r>    15.4773    -0.0000    24.0000 </r>
       <r>    15.5925    -0.0000    24.0000 </r>
       <r>    15.7077    -0.0002    24.0000 </r>
       <r>    15.8229    -0.0040    23.9995 </r>
       <r>    15.9381    -0.0317    23.9959 </r>
       <r>    16.0533    -0.0755    23.9872 </r>
       <r>    16.1685     0.1955    24.0097 </r>
       <r>    16.2837     1.0889    24.1351 </r>
       <r>    16.3989     1.4816    24.3058 </r>
       <r>    16.5141     0.6664    24.3826 </r>
       <r>    16.6293    -0.0484    24.3770 </r>
       <r>    16.7445    -0.1072    24.3646 </r>
       <r>    16.8597     0.4716    24.4190 </r>
       <r>    16.9749     1.3880    24.5789 </r>
       <r>    17.0901     1.2643    24.7245 </r>
       <r>    17.2053     0.3365    24.7633 </r>
       <r>    17.3204    -0.0657    24.7557 </r>
       <r>    17.4356    -0.0449    24.7505 </r>
       <r>    17.5508    -0.0338    24.7466 </r>
       <r>    17.6660    -0.1248    24.7323 </r>
       <r>    17.7812    -0.0168    24.7303 </r>
       <r>    17.8964     1.2620    24.8757 </r>
       <r>    18.0116     2.9319    25.2134 </r>
       <r>    18.1268     2.2637    25.4742 </r>
       <r>    18.2420     0.4495    25.5260 </r>
       <r>    18.3572    -0.1574    25.5079 </r>
       <r>    18.4724    -0.0932    25.4971 </r>
       <r>    18.5876     0.0310    25.5007 </r>
       <r>    18.7028     0.3197    25.5375 </r>
       <r>    18.8180     0.5039    25.5956 </r>
       <r>    18.9332     0.2694    25.6266 </r>
       <r>    19.0484     0.0170    25.6285 </r>
       <r>    19.1636    -0.0240    25.6258 </r>
       <r>    19.2788    -0.0123    25.6244 </r>
       <r>    19.3940    -0.0519    25.6184 </r>
       <r>    19.5092    -0.1511    25.6010 </r>
       <r>    19.6244     0.2454    25.6293 </r>
       <r>    19.7395     1.9310    25.8517 </r>
       <r>    19.8547     3.0221    26.1998 </r>
       <r>    19.9699     1.6067    26.3849 </r>
       <r>    20.0851     0.0977    26.3962 </r>
       <r>    20.2003    -0.1454    26.3794 </r>
       <r>    20.3155    -0.0688    26.3715 </r>
       <r>    20.4307    -0.0796    26.3623 </r>
       <r>    20.5459     0.1808    26.3831 </r>
       <r>    20.6611     1.0665    26.5060 </r>
       <r>    20.7763     1.4896    26.6776 </r>
       <r>    20.8915     0.6996    26.7582 </r>
       <r>    21.0067     0.0121    26.7596 </r>
       <r>    21.1219    -0.0668    26.7519 </r>
       <r>    21.2371    -0.0291    26.7485 </r>
       <r>    21.3523    -0.0875    26.7385 </r>
       <r>    21.4675    -0.1313    26.7233 </r>
       <r>    21.5827     0.6698    26.8005 </r>
       <r>    21.6979     2.4760    27.0857 </r>
       <r>    21.8131     2.7730    27.4051 </r>
       <r>    21.9283     1.6305    27.5930 </r>
       <r>    22.0435     1.3929    27.7534 </r>
       <r>    22.1586     0.9887    27.8673 </r>
       <r>    22.2738     0.1773    27.8878 </r>
       <r>    22.3890    -0.1007    27.8762 </r>
       <r>    22.5042    -0.1234    27.8619 </r>
       <r>    22.6194     0.0085    27.8629 </r>
       <r>    22.7346     0.9158    27.9684 </r>
       <r>    22.8498     2.2815    28.2312 </r>
       <r>    22.9650     2.3931    28.5069 </r>
       <r>    23.0802     1.0875    28.6322 </r>
       <r>    23.1954     0.0689    28.6401 </r>
       <r>    23.3106    -0.1026    28.6283 </r>
       <r>    23.4258    -0.0640    28.6209 </r>
       <r>    23.5410    -0.1012    28.6093 </r>
       <r>    23.6562     0.0917    28.6198 </r>
       <r>    23.7714     1.0445    28.7402 </r>
       <r>    23.8866     2.5682    29.0360 </r>
       <r>    24.0018     3.5107    29.4404 </r>
       <r>    24.1170     2.4222    29.7195 </r>
       <r>    24.2322     0.5115    29.7784 </r>
       <r>    24.3474    -0.1553    29.7605 </r>
       <r>    24.4626    -0.0790    29.7514 </r>
       <r>    24.5777    -0.0113    29.7501 </r>
       <r>    24.6929    -0.0007    29.7500 </r>
       <r>    24.8081    -0.0008    29.7499 </r>
       <r>    24.9233    -0.0124    29.7485 </r>
       <r>    25.0385    -0.0823    29.7390 </r>
       <r>    25.1537    -0.1373    29.7232 </r>
       <r>    25.2689     0.6169    29.7942 </r>
       <r>    25.3841     2.4376    30.0750 </r>
       <r>    25.4993     2.8906    30.4080 </r>
       <r>    25.6145     1.6638    30.5997 </r>
       <r>    25.7297     0.9314    30.7070 </r>
       <r>    25.8449     0.4249    30.7559 </r>
       <r>    25.9601     0.0114    30.7572 </r>
       <r>    26.0753    -0.0487    30.7516 </r>
       <r>    26.1905    -0.0128    30.7502 </r>
       <r>    26.3057    -0.0015    30.7500 </r>
       <r>    26.4209    -0.0040    30.7495 </r>
       <r>    26.5361    -0.0312    30.7459 </r>
       <r>    26.6513    -0.0757    30.7372 </r>
       <r>    26.7665     0.1902    30.7591 </r>
       <r>    26.8817     1.0808    30.8836 </r>
       <r>    26.9968     1.4851    31.0547 </r>
       <r>    27.1120     0.6847    31.1336 </r>
       <r>    27.2272     0.0074    31.1344 </r>
       <r>    27.3424    -0.0652    31.1269 </r>
       <r>    27.4576    -0.0152    31.1252 </r>
       <r>    27.5728    -0.0014    31.1250 </r>
       <r>    27.6880    -0.0005    31.1249 </r>
       <r>    27.8032    -0.0068    31.1242 </r>
       <r>    27.9184    -0.0434    31.1192 </r>
       <r>    28.0336    -0.0643    31.1118 </r>
       <r>    28.1488     0.3479    31.1518 </r>
       <r>    28.2640     1.2758    31.2988 </r>
       <r>    28.3792     1.3806    31.4578 </r>
       <r>    28.4944     0.4736    31.5124 </r>
       <r>    28.6096    -0.0450    31.5072 </r>
       <r>    28.7248    -0.0528    31.5011 </r>
       <r>    28.8400    -0.0166    31.4992 </r>
       <r>    28.9552    -0.0451    31.4940 </r>
       <r>    29.0704    -0.0626    31.4868 </r>
       <r>    29.1856     0.3619    31.5285 </r>
       <r>    29.3008     1.2893    31.6770 </r>
       <r>    29.4160     1.3696    31.8348 </r>
       <r>    29.5311     0.4581    31.8876 </r>
       <r>    29.6463    -0.0479    31.8820 </r>
       <r>    29.7615    -0.0512    31.8761 </r>
       <r>    29.8767    -0.0092    31.8751 </r>
       <r>    29.9919    -0.0007    31.8750 </r>
       <r>    30.1071    -0.0000    31.8750 </r>
       <r>    30.2223    -0.0000    31.8750 </r>
       <r>    30.3375    -0.0000    31.8750 </r>
       <r>    30.4527    -0.0000    31.8750 </r>
       <r>    30.5679    -0.0000    31.8750 </r>
       <r>    30.6831    -0.0000    31.8750 </r>
       <r>    30.7983    -0.0000    31.8750 </r>
       <r>    30.9135    -0.0000    31.8750 </r>
       <r>    31.0287    -0.0000    31.8750 </r>
       <r>    31.1439    -0.0005    31.8749 </r>
       <r>    31.2591    -0.0057    31.8743 </r>
       <r>    31.3743    -0.0228    31.8717 </r>
       <r>    31.4895     0.0093    31.8727 </r>
       <r>    31.6047     0.2488    31.9014 </r>
       <r>    31.7199     0.5004    31.9590 </r>
       <r>    31.8351     0.3404    31.9982 </r>
       <r>    31.9502     0.0512    32.0041 </r>
       <r>    32.0654    -0.0253    32.0012 </r>
       <r>    32.1806    -0.0094    32.0001 </r>
       <r>    32.2958    -0.0011    32.0000 </r>
       <r>    32.4110    -0.0001    32.0000 </r>
       <r>    32.5262    -0.0000    32.0000 </r>
       <r>    32.6414    -0.0000    32.0000 </r>
       <r>    32.7566    -0.0000    32.0000 </r>
       <r>    32.8718    -0.0000    32.0000 </r>
       <r>    32.9870    -0.0000    32.0000 </r>
       <r>    33.1022     0.0000    32.0000 </r>
       <r>    33.2174     0.0000    32.0000 </r>
       <r>    33.3326     0.0000    32.0000 </r>
       <r>    33.4478     0.0000    32.0000 </r>
       <r>    33.5630     0.0000    32.0000 </r>
       <r>    33.6782     0.0000    32.0000 </r>
      </set>
      <set comment="spin 2">
       <r>    -0.8804     0.0000     0.0000 </r>
       <r>    -0.7652     0.0000     0.0000 </r>
       <r>    -0.6500     0.0000     0.0000 </r>
       <r>    -0.5348    -0.0000    -0.0000 </r>
       <r>    -0.4196    -0.0000    -0.0000 </r>
       <r>    -0.3044    -0.0000    -0.0000 </r>
       <r>    -0.1892    -0.0000    -0.0000 </r>
       <r>    -0.0740    -0.0000    -0.0000 </r>
       <r>     0.0412    -0.0000    -0.0000 </r>
       <r>     0.1564    -0.0000    -0.0000 </r>
       <r>     0.2715    -0.0000    -0.0000 </r>
       <r>     0.3867    -0.0000    -0.0000 </r>
       <r>     0.5019    -0.0001    -0.0000 </r>
       <r>     0.6171    -0.0011    -0.0001 </r>
       <r>     0.7323    -0.0094    -0.0012 </r>
       <r>     0.8475    -0.0253    -0.0041 </r>
       <r>     0.9627     0.0512     0.0018 </r>
       <r>     1.0779     0.3405     0.0410 </r>
       <r>     1.1931     0.5004     0.0986 </r>
       <r>     1.3083     0.2488     0.1273 </r>
       <r>     1.4235     0.0093     0.1283 </r>
       <r>     1.5387    -0.0228     0.1257 </r>
       <r>     1.6539    -0.0057     0.1251 </r>
       <r>     1.7691    -0.0005     0.1250 </r>
       <r>     1.8843    -0.0000     0.1250 </r>
       <r>     1.9995    -0.0001     0.1250 </r>
       <r>     2.1147    -0.0021     0.1247 </r>
       <r>     2.2299    -0.0206     0.1224 </r>
       <r>     2.3451    -0.0723     0.1141 </r>
       <r>     2.4603     0.0645     0.1215 </r>
       <r>     2.5755     0.8418     0.2185 </r>
       <r>     2.6906     1.5147     0.3929 </r>
       <r>     2.8058     0.9275     0.4998 </r>
       <r>     2.9210     0.1034     0.5117 </r>
       <r>     3.0362    -0.0748     0.5031 </r>
       <r>     3.1514    -0.0240     0.5003 </r>
       <r>     3.2666    -0.0027     0.5000 </r>
       <r>     3.3818    -0.0020     0.4998 </r>
       <r>     3.4970    -0.0193     0.4975 </r>
       <r>     3.6122    -0.0709     0.4894 </r>
       <r>     3.7274     0.0502     0.4952 </r>
       <r>     3.8426     0.8066     0.5881 </r>
       <r>     3.9578     1.5112     0.7622 </r>
       <r>     4.0730     0.9594     0.8727 </r>
       <r>     4.1882     0.1040     0.8847 </r>
       <r>     4.3034    -0.0972     0.8735 </r>
       <r>     4.4186     0.0864     0.8834 </r>
       <r>     4.5338     0.3771     0.9268 </r>
       <r>     4.6490     0.6849     1.0057 </r>
       <r>     4.7642     1.2891     1.1542 </r>
       <r>     4.8794     1.4011     1.3156 </r>
       <r>     4.9946     0.4569     1.3683 </r>
       <r>     5.1097    -0.0427     1.3634 </r>
       <r>     5.2249     1.0529     1.4847 </r>
       <r>     5.3401     2.8149     1.8089 </r>
       <r>     5.4553     3.5439     2.2172 </r>
       <r>     5.5705     3.3845     2.6070 </r>
       <r>     5.6857     1.9007     2.8260 </r>
       <r>     5.8009     0.6847     2.9049 </r>
       <r>     5.9161     2.6194     3.2066 </r>
       <r>     6.0313     5.1665     3.8018 </r>
       <r>     6.1465     4.0138     4.2641 </r>
       <r>     6.2617     2.4439     4.5457 </r>
       <r>     6.3769     3.8140     4.9850 </r>
       <r>     6.4921     3.6501     5.4055 </r>
       <r>     6.6073     2.3574     5.6771 </r>
       <r>     6.7225     3.3259     6.0602 </r>
       <r>     6.8377     3.5866     6.4733 </r>
       <r>     6.9529     2.6501     6.7786 </r>
       <r>     7.0681     3.1273     7.1389 </r>
       <r>     7.1833     4.7085     7.6813 </r>
       <r>     7.2985     6.6164     8.4434 </r>
       <r>     7.4137     6.6364     9.2079 </r>
       <r>     7.5288     4.2167     9.6937 </r>
       <r>     7.6440     3.1210    10.0532 </r>
       <r>     7.7592     5.2463    10.6576 </r>
       <r>     7.8744     7.7530    11.5507 </r>
       <r>     7.9896     7.3802    12.4008 </r>
       <r>     8.1048     4.1024    12.8734 </r>
       <r>     8.2200     1.9583    13.0990 </r>
       <r>     8.3352     3.3107    13.4804 </r>
       <r>     8.4504     4.2527    13.9703 </r>
       <r>     8.5656     4.4384    14.4815 </r>
       <r>     8.6808     7.0191    15.2901 </r>
       <r>     8.7960     7.6693    16.1736 </r>
       <r>     8.9112     3.9726    16.6312 </r>
       <r>     9.0264     1.8227    16.8412 </r>
       <r>     9.1416     4.1054    17.3141 </r>
       <r>     9.2568     6.6568    18.0809 </r>
       <r>     9.3720     5.9796    18.7697 </r>
       <r>     9.4872     6.3782    19.5045 </r>
       <r>     9.6024     8.6901    20.5055 </r>
       <r>     9.7176     6.4913    21.2533 </r>
       <r>     9.8328     1.6440    21.4427 </r>
       <r>     9.9479    -0.3190    21.4059 </r>
       <r>    10.0631    -0.2261    21.3799 </r>
       <r>    10.1783    -0.0392    21.3754 </r>
       <r>    10.2935    -0.0030    21.3750 </r>
       <r>    10.4087    -0.0001    21.3750 </r>
       <r>    10.5239    -0.0009    21.3749 </r>
       <r>    10.6391    -0.0152    21.3731 </r>
       <r>    10.7543    -0.1092    21.3606 </r>
       <r>    10.8695    -0.2172    21.3355 </r>
       <r>    10.9847     0.7672    21.4239 </r>
       <r>    11.0999     3.5101    21.8283 </r>
       <r>    11.2151     4.3374    22.3279 </r>
       <r>    11.3303     1.7695    22.5318 </r>
       <r>    11.4455    -0.0558    22.5253 </r>
       <r>    11.5607    -0.1790    22.5047 </r>
       <r>    11.6759    -0.0376    22.5004 </r>
       <r>    11.7911    -0.0039    22.4999 </r>
       <r>    11.9063    -0.0100    22.4988 </r>
       <r>    12.0215    -0.0532    22.4926 </r>
       <r>    12.1367    -0.0424    22.4878 </r>
       <r>    12.2519     0.4870    22.5439 </r>
       <r>    12.3671     1.3897    22.7039 </r>
       <r>    12.4822     1.2640    22.8495 </r>
       <r>    12.5974     0.3361    22.8883 </r>
       <r>    12.7126    -0.0657    22.8807 </r>
       <r>    12.8278    -0.0428    22.8758 </r>
       <r>    12.9430    -0.0116    22.8744 </r>
       <r>    13.0582    -0.0367    22.8702 </r>
       <r>    13.1734    -0.0729    22.8618 </r>
       <r>    13.2886     0.2543    22.8911 </r>
       <r>    13.4038     1.1705    23.0259 </r>
       <r>    13.5190     1.4479    23.1927 </r>
       <r>    13.6342     0.5898    23.2607 </r>
       <r>    13.7494    -0.0193    23.2584 </r>
       <r>    13.8646    -0.0598    23.2516 </r>
       <r>    13.9798    -0.0125    23.2501 </r>
       <r>    14.0950    -0.0019    23.2499 </r>
       <r>    14.2102    -0.0136    23.2483 </r>
       <r>    14.3254    -0.0866    23.2384 </r>
       <r>    14.4406    -0.1290    23.2235 </r>
       <r>    14.5558     0.6925    23.3033 </r>
       <r>    14.6710     2.5482    23.5968 </r>
       <r>    14.7862     2.7638    23.9152 </r>
       <r>    14.9013     0.9510    24.0247 </r>
       <r>    15.0165    -0.0893    24.0145 </r>
       <r>    15.1317    -0.1049    24.0024 </r>
       <r>    15.2469    -0.0191    24.0002 </r>
       <r>    15.3621    -0.0014    24.0000 </r>
       <r>    15.4773    -0.0000    24.0000 </r>
       <r>    15.5925    -0.0000    24.0000 </r>
       <r>    15.7077    -0.0002    24.0000 </r>
       <r>    15.8229    -0.0040    23.9995 </r>
       <r>    15.9381    -0.0315    23.9959 </r>
       <r>    16.0533    -0.0756    23.9872 </r>
       <r>    16.1685     0.1939    24.0095 </r>
       <r>    16.2837     1.0865    24.1347 </r>
       <r>    16.3989     1.4825    24.3054 </r>
       <r>    16.5141     0.6689    24.3825 </r>
       <r>    16.6293    -0.0475    24.3770 </r>
       <r>    16.7445    -0.1077    24.3646 </r>
       <r>    16.8597     0.4698    24.4187 </r>
       <r>    16.9749     1.3869    24.5785 </r>
       <r>    17.0901     1.2659    24.7243 </r>
       <r>    17.2053     0.3380    24.7633 </r>
       <r>    17.3204    -0.0655    24.7557 </r>
       <r>    17.4356    -0.0450    24.7505 </r>
       <r>    17.5508    -0.0338    24.7466 </r>
       <r>    17.6660    -0.1247    24.7323 </r>
       <r>    17.7812    -0.0174    24.7303 </r>
       <r>    17.8964     1.2596    24.8754 </r>
       <r>    18.0116     2.9309    25.2130 </r>
       <r>    18.1268     2.2660    25.4740 </r>
       <r>    18.2420     0.4512    25.5260 </r>
       <r>    18.3572    -0.1573    25.5079 </r>
       <r>    18.4724    -0.0933    25.4971 </r>
       <r>    18.5876     0.0306    25.5007 </r>
       <r>    18.7028     0.3191    25.5374 </r>
       <r>    18.8180     0.5039    25.5955 </r>
       <r>    18.9332     0.2700    25.6266 </r>
       <r>    19.0484     0.0172    25.6286 </r>
       <r>    19.1636    -0.0240    25.6258 </r>
       <r>    19.2788    -0.0123    25.6244 </r>
       <r>    19.3940    -0.0518    25.6184 </r>
       <r>    19.5092    -0.1510    25.6010 </r>
       <r>    19.6244     0.2440    25.6291 </r>
       <r>    19.7395     1.9283    25.8512 </r>
       <r>    19.8547     3.0224    26.1994 </r>
       <r>    19.9699     1.6094    26.3848 </r>
       <r>    20.0851     0.0988    26.3962 </r>
       <r>    20.2003    -0.1455    26.3794 </r>
       <r>    20.3155    -0.0689    26.3715 </r>
       <r>    20.4307    -0.0797    26.3623 </r>
       <r>    20.5459     0.1803    26.3831 </r>
       <r>    20.6611     1.0656    26.5058 </r>
       <r>    20.7763     1.4898    26.6775 </r>
       <r>    20.8915     0.7005    26.7582 </r>
       <r>    21.0067     0.0124    26.7596 </r>
       <r>    21.1219    -0.0669    26.7519 </r>
       <r>    21.2371    -0.0291    26.7485 </r>
       <r>    21.3523    -0.0874    26.7385 </r>
       <r>    21.4675    -0.1314    26.7233 </r>
       <r>    21.5827     0.6687    26.8004 </r>
       <r>    21.6979     2.4749    27.0855 </r>
       <r>    21.8131     2.7737    27.4050 </r>
       <r>    21.9283     1.6313    27.5929 </r>
       <r>    22.0435     1.3930    27.7534 </r>
       <r>    22.1586     0.9891    27.8673 </r>
       <r>    22.2738     0.1776    27.8878 </r>
       <r>    22.3890    -0.1007    27.8762 </r>
       <r>    22.5042    -0.1234    27.8619 </r>
       <r>    22.6194     0.0080    27.8629 </r>
       <r>    22.7346     0.9145    27.9682 </r>
       <r>    22.8498     2.2809    28.2310 </r>
       <r>    22.9650     2.3941    28.5068 </r>
       <r>    23.0802     1.0886    28.6322 </r>
       <r>    23.1954     0.0692    28.6401 </r>
       <r>    23.3106    -0.1026    28.6283 </r>
       <r>    23.4258    -0.0640    28.6209 </r>
       <r>    23.5410    -0.1012    28.6093 </r>
       <r>    23.6562     0.0914    28.6198 </r>
       <r>    23.7714     1.0437    28.7400 </r>
       <r>    23.8866     2.5678    29.0358 </r>
       <r>    24.0018     3.5109    29.4403 </r>
       <r>    24.1170     2.4231    29.7194 </r>
       <r>    24.2322     0.5120    29.7784 </r>
       <r>    24.3474    -0.1553    29.7605 </r>
       <r>    24.4626    -0.0791    29.7514 </r>
       <r>    24.5777    -0.0113    29.7501 </r>
       <r>    24.6929    -0.0007    29.7500 </r>
       <r>    24.8081    -0.0008    29.7499 </r>
       <r>    24.9233    -0.0124    29.7485 </r>
       <r>    25.0385    -0.0823    29.7390 </r>
       <r>    25.1537    -0.1374    29.7232 </r>
       <r>    25.2689     0.6163    29.7942 </r>
       <r>    25.3841     2.4370    30.0749 </r>
       <r>    25.4993     2.8911    30.4079 </r>
       <r>    25.6145     1.6646    30.5997 </r>
       <r>    25.7297     0.9315    30.7070 </r>
       <r>    25.8449     0.4247    30.7559 </r>
       <r>    25.9601     0.0113    30.7572 </r>
       <r>    26.0753    -0.0487    30.7516 </r>
       <r>    26.1905    -0.0128    30.7502 </r>
       <r>    26.3057    -0.0015    30.7500 </r>
       <r>    26.4209    -0.0040    30.7495 </r>
       <r>    26.5361    -0.0313    30.7459 </r>
       <r>    26.6513    -0.0757    30.7372 </r>
       <r>    26.7665     0.1907    30.7592 </r>
       <r>    26.8817     1.0816    30.8838 </r>
       <r>    26.9968     1.4848    31.0548 </r>
       <r>    27.1120     0.6839    31.1336 </r>
       <r>    27.2272     0.0072    31.1344 </r>
       <r>    27.3424    -0.0651    31.1269 </r>
       <r>    27.4576    -0.0152    31.1252 </r>
       <r>    27.5728    -0.0014    31.1250 </r>
       <r>    27.6880    -0.0005    31.1249 </r>
       <r>    27.8032    -0.0068    31.1242 </r>
       <r>    27.9184    -0.0434    31.1192 </r>
       <r>    28.0336    -0.0643    31.1118 </r>
       <r>    28.1488     0.3477    31.1518 </r>
       <r>    28.2640     1.2756    31.2987 </r>
       <r>    28.3792     1.3807    31.4578 </r>
       <r>    28.4944     0.4739    31.5124 </r>
       <r>    28.6096    -0.0450    31.5072 </r>
       <r>    28.7248    -0.0528    31.5011 </r>
       <r>    28.8400    -0.0166    31.4992 </r>
       <r>    28.9552    -0.0452    31.4940 </r>
       <r>    29.0704    -0.0626    31.4868 </r>
       <r>    29.1856     0.3620    31.5285 </r>
       <r>    29.3008     1.2895    31.6770 </r>
       <r>    29.4160     1.3695    31.8348 </r>
       <r>    29.5311     0.4579    31.8876 </r>
       <r>    29.6463    -0.0479    31.8820 </r>
       <r>    29.7615    -0.0512    31.8761 </r>
       <r>    29.8767    -0.0092    31.8751 </r>
       <r>    29.9919    -0.0007    31.8750 </r>
       <r>    30.1071    -0.0000    31.8750 </r>
       <r>    30.2223    -0.0000    31.8750 </r>
       <r>    30.3375    -0.0000    31.8750 </r>
       <r>    30.4527    -0.0000    31.8750 </r>
       <r>    30.5679    -0.0000    31.8750 </r>
       <r>    30.6831    -0.0000    31.8750 </r>
       <r>    30.7983    -0.0000    31.8750 </r>
       <r>    30.9135    -0.0000    31.8750 </r>
       <r>    31.0287    -0.0000    31.8750 </r>
       <r>    31.1439    -0.0005    31.8749 </r>
       <r>    31.2591    -0.0057    31.8743 </r>
       <r>    31.3743    -0.0228    31.8717 </r>
       <r>    31.4895     0.0093    31.8727 </r>
       <r>    31.6047     0.2488    31.9014 </r>
       <r>    31.7199     0.5004    31.9590 </r>
       <r>    31.8351     0.3405    31.9982 </r>
       <r>    31.9502     0.0512    32.0041 </r>
       <r>    32.0654    -0.0253    32.0012 </r>
       <r>    32.1806    -0.0094    32.0001 </r>
       <r>    32.2958    -0.0011    32.0000 </r>
       <r>    32.4110    -0.0001    32.0000 </r>
       <r>    32.5262    -0.0000    32.0000 </r>
       <r>    32.6414    -0.0000    32.0000 </r>
       <r>    32.7566    -0.0000    32.0000 </r>
       <r>    32.8718    -0.0000    32.0000 </r>
       <r>    32.9870    -0.0000    32.0000 </r>
       <r>    33.1022     0.0000    32.0000 </r>
       <r>    33.2174     0.0000    32.0000 </r>
       <r>    33.3326     0.0000    32.0000 </r>
       <r>    33.4478     0.0000    32.0000 </r>
       <r>    33.5630     0.0000    32.0000 </r>
       <r>    33.6782     0.0000    32.0000 </r>
      </set>
     </set>
    </array>
   </total>
  </dos>
 </calculation>
 <structure name="finalpos" >
  <crystal>
   <varray name="basis" >
    <v>       3.49210200       0.00000000       0.00000000 </v>
    <v>       0.00000000       3.49210200       0.00000000 </v>
    <v>       0.00000000       0.00000000       3.49210200 </v>
   </varray>
   <i name="volume">     42.58540298 </i>
   <varray name="rec_basis" >
    <v>       0.28636048       0.00000000       0.00000000 </v>
    <v>       0.00000000       0.28636048       0.00000000 </v>
    <v>       0.00000000       0.00000000       0.28636048 </v>
   </varray>
  </crystal>
  <varray name="positions" >
   <v>       0.00000000       0.00000000       0.00000000 </v>
   <v>       0.00000000       0.50000000       0.50000000 </v>
   <v>       0.50000000       0.00000000       0.50000000 </v>
   <v>       0.50000000       0.50000000       0.00000000 </v>
  </varray>
 </structure>
</modeling>
