LAMMPS (11 Aug 2017)
Reading data file ...
  triclinic box = (0 0 0) to (3.3694 3.3694 33.6938) with tilt (0 -0 0)
  1 by 1 by 1 MPI processor grid
  reading atoms ...
  20 atoms
20 atoms in group Ni
Neighbor list info ...
  update every 1 steps, delay 0 steps, check yes
  max neighbors/atom: 2000, page size: 100000
  master list distance cutoff = 5.64464
  ghost atom cutoff = 5.64464
  binsize = 2.82232, bins = 2 2 12
  1 neighbor lists, perpetual/occasional/extra = 1 0 0
  (1) pair eam/alloy, perpetual
      attributes: half, newton on
      pair build: half/bin/newton/tri
      stencil: half/bin/3d/newton/tri
      bin: standard
Setting up cg style minimization ...
  Unit style    : metal
  Current step  : 0
Per MPI rank memory allocation (min/avg/max) = 4.207 | 4.207 | 4.207 Mbytes
Step PotEng Lx Ly Lz Xy Xz Yz Press Pxx Pyy Pzz Pxy Pxz Pyz c_eatoms 
       0   -99.726609       3.3694       3.3694      33.6938            0           -0            0   -13645.654   -17445.415   -17445.415   -6046.1322 -2.7900803e-12 -2.2960036e-12 -2.8191436e-12   -99.726609 
       1   -99.734346       3.3694       3.3694      33.6938            0           -0            0   -12001.821    -15996.04    -15996.04    -4013.382 -6.6845674e-13 -2.6447636e-12 -5.7981356e-12   -99.734346 
       2    -99.73621       3.3694       3.3694      33.6938            0           -0            0   -10996.152   -15077.543   -15077.543   -2833.3695 9.8815344e-13 -3.9816771e-12 -6.4084657e-12    -99.73621 
       3     -99.7367       3.3694       3.3694      33.6938            0           -0            0   -10440.923   -14579.445   -14579.445   -2163.8786 9.8815344e-13 -5.0279572e-12 -1.9908385e-12     -99.7367 
       4   -99.736859       3.3694       3.3694      33.6938            0           -0            0   -10239.394   -14394.133   -14394.133   -1929.9164 5.2314005e-12 -2.0053702e-12 7.2658341e-14   -99.736859 
       5   -99.736993       3.3694       3.3694      33.6938            0           -0            0   -9700.9081   -13905.704   -13905.704   -1291.3172 1.5112935e-12 -1.8891169e-12 -7.8035058e-12   -99.736993 
       6   -99.737222       3.3694       3.3694      33.6938            0           -0            0   -8646.2615   -12955.056   -12955.056   -28.671652 -8.1377342e-13 -5.6092239e-12 -1.0608118e-12   -99.737222 
       7   -99.737285       3.3694       3.3694      33.6938            0           -0            0   -8557.2602   -12876.332   -12876.332    80.884305 -4.0107404e-12 2.0344335e-13 -1.4531668e-14   -99.737285 
       8   -99.737289       3.3694       3.3694      33.6938            0           -0            0   -8552.2888    -12872.08    -12872.08    87.293809 2.0344335e-12 -5.8126673e-14 7.2658341e-12   -99.737289 
       9   -99.737289       3.3694       3.3694      33.6938            0           -0            0   -8554.3553   -12874.186   -12874.186      85.3052 2.2669402e-12 -1.3659768e-12 3.7782337e-13   -99.737289 
      10   -99.737289       3.3694       3.3694      33.6938            0           -0            0   -8567.3428   -12885.867   -12885.867    69.706274 -2.3250669e-12 -4.3885638e-12 -3.9380821e-12   -99.737289 
      11    -99.73729       3.3694       3.3694      33.6938            0           -0            0   -8585.8994   -12902.763   -12902.763    47.828276 1.1625335e-13 -3.6038537e-12 6.6264407e-12    -99.73729 
      12    -99.73729       3.3694       3.3694      33.6938            0           -0            0   -8627.7457   -12940.445   -12940.445   -2.3480342 -1.3950401e-12 -2.935397e-12 -1.1915968e-12    -99.73729 
      13    -99.73729       3.3694       3.3694      33.6938            0           -0            0   -8629.2377   -12941.844   -12941.844   -4.0257768 -2.6738269e-12 3.9526137e-12 1.3194755e-11    -99.73729 
      14    -99.73729       3.3694       3.3694      33.6938            0           -0            0   -8629.0301   -12941.617   -12941.617   -3.8572394 1.7438002e-12 -4.3595005e-13 5.0860839e-13    -99.73729 
      15    -99.73729       3.3694       3.3694      33.6938            0           -0            0   -8628.6052   -12941.231   -12941.231    -3.352789 -9.3002676e-13 -8.8643176e-12 -6.829884e-13    -99.73729 
      16    -99.73729       3.3694       3.3694      33.6938            0           -0            0   -8627.8607   -12940.557   -12940.557   -2.4684559 1.3049438e-11 5.8126673e-14 -1.0230294e-11    -99.73729 
      17    -99.73729       3.3694       3.3694      33.6938            0           -0            0    -8627.474   -12940.206   -12940.206   -2.0108435 -8.4864942e-12 -2.2669402e-12 3.6706994e-11    -99.73729 
      18    -99.73729       3.3694       3.3694      33.6938            0           -0            0   -8627.2489   -12940.005   -12940.005   -1.7365626 -6.4229973e-12 2.9063336e-12 -4.3595005e-14    -99.73729 
      19    -99.73729       3.3694       3.3694      33.6938            0           -0            0   -8626.8098   -12939.612   -12939.612   -1.2060333 1.9472435e-12 7.7017841e-12 -3.3422837e-12    -99.73729 
      20    -99.73729       3.3694       3.3694      33.6938            0           -0            0   -8626.4942   -12939.325   -12939.325  -0.83348846 2.9644603e-12 1.3979465e-11 1.9617752e-12    -99.73729 
      21    -99.73729       3.3694       3.3694      33.6938            0           -0            0   -8625.8092   -12938.707   -12938.707 -0.013847931 -2.1564996e-11 -9.5327743e-12 -2.3744746e-11    -99.73729 
      22    -99.73729       3.3694       3.3694      33.6938            0           -0            0   -8625.7503   -12938.653   -12938.653  0.054168354 -8.5155575e-12 -9.3874576e-12 -3.0618225e-11    -99.73729 
      23    -99.73729       3.3694       3.3694      33.6938            0           -0            0   -8625.7155   -12938.621   -12938.621  0.095718916 -1.3543515e-11 -1.8687725e-11 2.1652186e-12    -99.73729 
      24    -99.73729       3.3694       3.3694      33.6938            0           -0            0   -8625.7128   -12938.619   -12938.619   0.09880531 -4.5338805e-12 6.1033006e-13 1.1770651e-11    -99.73729 
      25    -99.73729       3.3694       3.3694      33.6938            0           -0            0   -8625.7226   -12938.627   -12938.627  0.086765874 -5.9870473e-12 -4.8535772e-12 -2.030074e-11    -99.73729 
      26    -99.73729       3.3694       3.3694      33.6938            0           -0            0   -8625.7458   -12938.648   -12938.648  0.059164141 -3.3422837e-12 7.9052275e-12 -1.2250196e-11    -99.73729 
      27    -99.73729       3.3694       3.3694      33.6938            0           -0            0   -8625.7825   -12938.681   -12938.681  0.015328058 -1.6188278e-11 -4.8826405e-12 8.0214808e-12    -99.73729 
      28    -99.73729       3.3694       3.3694      33.6938            0           -0            0    -8625.797   -12938.695   -12938.695 -0.0019384433 7.9342908e-12 8.9805709e-12 2.0925602e-12    -99.73729 
      29    -99.73729       3.3694       3.3694      33.6938            0           -0            0   -8625.7981   -12938.696   -12938.696 -0.0032193851 -6.0161106e-12 9.2130776e-12 2.7900803e-12    -99.73729 
      30    -99.73729       3.3694       3.3694      33.6938            0           -0            0    -8625.799   -12938.696   -12938.696 -0.0042341399 1.6420785e-11 -9.0096343e-13 -1.7714103e-11    -99.73729 
      31    -99.73729       3.3694       3.3694      33.6938            0           -0            0   -8625.7988   -12938.696   -12938.696 -0.0039461577 -1.6856735e-12 -6.5392507e-12 -7.7017841e-13    -99.73729 
      32    -99.73729       3.3694       3.3694      33.6938            0           -0            0   -8625.7976   -12938.695   -12938.695 -0.0025465817 -1.7728635e-12 -1.5897645e-11 -6.3794023e-12    -99.73729 
      33    -99.73729       3.3694       3.3694      33.6938            0           -0            0   -8625.7958   -12938.694   -12938.694 -0.00041720255 1.1945031e-11 -2.4965406e-11 -4.2868421e-12    -99.73729 
      34    -99.73729       3.3694       3.3694      33.6938            0           -0            0   -8625.7954   -12938.693   -12938.693 3.0024058e-05 1.8629599e-11 -1.4735112e-11 1.0462801e-12    -99.73729 
      35    -99.73729       3.3694       3.3694      33.6938            0           -0            0   -8625.7953   -12938.693   -12938.693 0.0001557552 1.3398198e-11 1.6159215e-11 1.1160321e-11    -99.73729 
      36    -99.73729       3.3694       3.3694      33.6938            0           -0            0   -8625.7953   -12938.693   -12938.693 0.00017307646 1.4008528e-11 4.0688671e-13 4.2141838e-12    -99.73729 
      37    -99.73729       3.3694       3.3694      33.6938            0           -0            0   -8625.7953   -12938.693   -12938.693 0.00017638604 2.1274362e-11 1.5200125e-11 -3.7796869e-11    -99.73729 
      38    -99.73729       3.3694       3.3694      33.6938            0           -0            0   -8625.7954   -12938.693   -12938.693 9.4290586e-05 5.6964139e-12 1.6972988e-11 7.1786441e-12    -99.73729 
      39    -99.73729       3.3694       3.3694      33.6938            0           -0            0   -8625.7954   -12938.693   -12938.693 4.7807923e-05 -1.5810455e-11 3.6038537e-12 1.602843e-11    -99.73729 
      40    -99.73729       3.3694       3.3694      33.6938            0           -0            0   -8625.7954   -12938.693   -12938.693 2.3225418e-05 3.371347e-12 2.9063336e-12 -2.935397e-12    -99.73729 
      41    -99.73729       3.3694       3.3694      33.6938            0           -0            0   -8625.7955   -12938.693   -12938.693 1.4222748e-06 9.590901e-12 -2.1477806e-11 -6.2922123e-12    -99.73729 
      42    -99.73729       3.3694       3.3694      33.6938            0           -0            0   -8625.7955   -12938.693   -12938.693 -1.0164306e-05 8.6027476e-12 -9.590901e-12 4.0688671e-12    -99.73729 
      43    -99.73729       3.3694       3.3694      33.6938            0           -0            0   -8625.7955   -12938.693   -12938.693 -6.7517561e-06 -1.5403568e-12 -7.3530241e-12 4.7518555e-12    -99.73729 
      44    -99.73729       3.3694       3.3694      33.6938            0           -0            0   -8625.7955   -12938.693   -12938.693 -6.2916706e-06 6.1033006e-12 -1.1828778e-11 -1.873132e-11    -99.73729 
      45    -99.73729       3.3694       3.3694      33.6938            0           -0            0   -8625.7955   -12938.693   -12938.693 -5.00425e-06 -1.8484282e-11 1.9094612e-11 8.8497859e-12    -99.73729 
      46    -99.73729       3.3694       3.3694      33.6938            0           -0            0   -8625.7955   -12938.693   -12938.693 -2.9950249e-06 -6.481124e-12 -9.852471e-12 7.8325691e-12    -99.73729 
      47    -99.73729       3.3694       3.3694      33.6938            0           -0            0   -8625.7955   -12938.693   -12938.693 8.7376014e-09 3.8654237e-12 -4.4757538e-12 1.5577948e-11    -99.73729 
Loop time of 0.00462317 on 1 procs for 47 steps with 20 atoms

73.1% CPU use with 1 MPI tasks x no OpenMP threads

Minimization stats:
  Stopping criterion = energy tolerance
  Energy initial, next-to-last, final = 
        -99.7266094164     -99.7372899862     -99.7372899862
  Force two-norm initial, final = 0.454866 8.90063e-11
  Force max component initial, final = 0.176253 2.84287e-11
  Final line search alpha, max atom move = 1 2.84287e-11
  Iterations, force evaluations = 47 94

MPI task timing breakdown:
Section |  min time  |  avg time  |  max time  |%varavg| %total
---------------------------------------------------------------
Pair    | 0.0029657  | 0.0029657  | 0.0029657  |   0.0 | 64.15
Neigh   | 0          | 0          | 0          |   0.0 |  0.00
Comm    | 0.00023699 | 0.00023699 | 0.00023699 |   0.0 |  5.13
Output  | 0.0012934  | 0.0012934  | 0.0012934  |   0.0 | 27.98
Modify  | 0          | 0          | 0          |   0.0 |  0.00
Other   |            | 0.0001271  |            |       |  2.75

Nlocal:    20 ave 20 max 20 min
Histogram: 1 0 0 0 0 0 0 0 0 0
Nghost:    547 ave 547 max 547 min
Histogram: 1 0 0 0 0 0 0 0 0 0
Neighs:    688 ave 688 max 688 min
Histogram: 1 0 0 0 0 0 0 0 0 0

Total # of neighbors = 688
Ave neighs/atom = 34.4
Neighbor list builds = 0
Dangerous builds = 0
pypospack:output_section:begin
tot_energy = -99.7372899861968
num_atoms = 20
a11 = 3.3694
a22 = 3.3694
a33 = 33.6938
a12 = 0
a13 = -0
a23 = 0
tot_press = -8625.79546250265
pxx = -12938.6931937584
pyy = -12938.6931937583
pzz = 8.73760143709787e-09
pxy = 3.86542373314934e-12
pxz = -4.47575379627818e-12
pyz = 1.55779482779552e-11
pypospack:output_section:done
pypospack:lammps_sim:done
Total wall time: 0:00:00
