# ['Ni']

20 atoms
1 atom types

    0.0000     3.3694 xlo xhi
    0.0000     3.3694 ylo yhi
    0.0000    33.6938 zlo zhi

    0.0000    -0.0000     0.0000 xy xz yz

Atoms

1 1     0.0000     0.0000     0.0000
2 1     1.6847     1.6847     0.0000
3 1     1.6847     0.0000     1.6847
4 1     0.0000     1.6847     1.6847
5 1     0.0000     0.0000     3.3694
6 1     1.6847     1.6847     3.3694
7 1     1.6847     0.0000     5.0541
8 1     0.0000     1.6847     5.0541
9 1     0.0000     0.0000     6.7388
10 1     1.6847     1.6847     6.7388
11 1     1.6847     0.0000     8.4235
12 1     0.0000     1.6847     8.4235
13 1     0.0000     0.0000    10.1081
14 1     1.6847     1.6847    10.1081
15 1     1.6847     0.0000    11.7928
16 1     0.0000     1.6847    11.7928
17 1     0.0000     0.0000    13.4775
18 1     1.6847     1.6847    13.4775
19 1     1.6847     0.0000    15.1622
20 1     0.0000     1.6847    15.1622
