# ['Ni']

20 atoms
1 atom types

    0.0000     3.5084 xlo xhi
    0.0000     3.5084 ylo yhi
    0.0000    35.0844 zlo zhi

    0.0000    -0.0000     0.0000 xy xz yz

Atoms

1 1     0.0000     0.0000     0.0000
2 1     1.7542     1.7542     0.0000
3 1     1.7542     0.0000     1.7542
4 1     0.0000     1.7542     1.7542
5 1     0.0000     0.0000     3.5084
6 1     1.7542     1.7542     3.5084
7 1     1.7542     0.0000     5.2627
8 1     0.0000     1.7542     5.2627
9 1     0.0000     0.0000     7.0169
10 1     1.7542     1.7542     7.0169
11 1     1.7542     0.0000     8.7711
12 1     0.0000     1.7542     8.7711
13 1     0.0000     0.0000    10.5253
14 1     1.7542     1.7542    10.5253
15 1     1.7542     0.0000    12.2795
16 1     0.0000     1.7542    12.2795
17 1     0.0000     0.0000    14.0338
18 1     1.7542     1.7542    14.0338
19 1     1.7542     0.0000    15.7880
20 1     0.0000     1.7542    15.7880
