LAMMPS (11 Aug 2017)
# ---- initialize simulations
clear
units metal
dimension 3
boundary p p p
atom_style atomic
atom_modify map array
# ---- create atoms
read_data /home/sullberg/repos/pypospack/examples/Ni__eam__born_exp_rose/01_preconditioning_3.5NN/rank_18/Ni_fcc_100_s.lmps_min_pos/lammps.structure
  triclinic box = (0 0 0) to (3.5084 3.5084 35.0844) with tilt (0 -0 0)
  1 by 1 by 1 MPI processor grid
  reading atoms ...
  20 atoms
# ---- define interatomic potential
include potential.mod
mass 1 58.6934

group Ni type 1
20 atoms in group Ni

pair_style eam/alloy
pair_coeff * * /home/sullberg/repos/pypospack/examples/Ni__eam__born_exp_rose/01_preconditioning_3.5NN/rank_18/Ni_fcc_100_s.lmps_min_pos/Ni.eam.alloy Ni

neighbor 1.0 bin
neigh_modify every 1 delay 0 check yes
# ---- define settings
compute eng all pe/atom
compute eatoms all reduce sum c_eng

# ---- run minimization
reset_timestep 0
thermo 1
thermo_style custom step pe lx ly lz xy xz yz press pxx pyy pzz pxy pxz pyz c_eatoms
min_style cg
minimize 1e-20 1e-20 1000 100000
Neighbor list info ...
  update every 1 steps, delay 0 steps, check yes
  max neighbors/atom: 2000, page size: 100000
  master list distance cutoff = 11
  ghost atom cutoff = 11
  binsize = 5.5, bins = 1 1 7
  1 neighbor lists, perpetual/occasional/extra = 1 0 0
  (1) pair eam/alloy, perpetual
      attributes: half, newton on
      pair build: half/bin/newton/tri
      stencil: half/bin/3d/newton/tri
      bin: standard
Per MPI rank memory allocation (min/avg/max) = 4.357 | 4.357 | 4.357 Mbytes
Step PotEng Lx Ly Lz Xy Xz Yz Press Pxx Pyy Pzz Pxy Pxz Pyz c_eatoms 
       0   -85.955296       3.5084       3.5084      35.0844            0           -0            0   -14681.128    -20205.94    -20205.94    -3631.503 8.0928629e-12 -4.8881624e-13 3.2331843e-12   -85.955296 
       1   -85.958811       3.5084       3.5084      35.0844            0           -0            0   -13492.541   -19073.001   -19073.001   -2331.6217 -1.2326859e-12 1.1842753e-12 7.4944072e-12   -85.958811 
       2   -85.959587       3.5084       3.5084      35.0844            0           -0            0   -13039.519   -18629.063   -18629.063   -1860.4303  1.19778e-11 3.8889062e-12 -1.9807571e-12   -85.959587 
       3   -85.959839       3.5084       3.5084      35.0844            0           -0            0   -12611.187   -18215.893   -18215.893   -1401.7757 -1.3324798e-12 4.1777292e-12 2.2239154e-11   -85.959839 
       4   -85.959924       3.5084       3.5084      35.0844            0           -0            0   -12209.944   -17825.235   -17825.235   -979.36366 2.459225e-12 -7.1017867e-13 7.1573968e-12   -85.959924 
       5   -85.960178       3.5084       3.5084      35.0844            0           -0            0   -11347.851   -16994.654   -16994.654   -54.244167 1.7224141e-11 1.6334697e-11 -5.229654e-12   -85.960178 
       6   -85.960206       3.5084       3.5084      35.0844            0           -0            0    -11236.48    -16887.26    -16887.26    65.078226 7.0082275e-12 -7.9422355e-12 -2.095434e-12   -85.960206 
       7   -85.960211       3.5084       3.5084      35.0844            0           -0            0   -11222.993   -16873.687   -16873.687    78.395058 1.7900588e-11 6.8929032e-13 1.0726774e-11   -85.960211 
       8   -85.960211       3.5084       3.5084      35.0844            0           -0            0   -11241.161   -16891.234   -16891.234       58.984 -1.9833453e-11 -1.0592089e-11 -3.453895e-11   -85.960211 
       9   -85.960212       3.5084       3.5084      35.0844            0           -0            0   -11293.672   -16942.405   -16942.405    3.7952515 7.3284757e-12 -3.2532276e-11 -2.8164783e-11   -85.960212 
      10   -85.960212       3.5084       3.5084      35.0844            0           -0            0   -11297.344   -16945.974   -16945.974  -0.08318011 -9.9150986e-12 1.3396523e-11 -2.2878331e-11   -85.960212 
      11   -85.960212       3.5084       3.5084      35.0844            0           -0            0   -11297.766   -16946.382   -16946.382  -0.53574567 -8.341009e-12 -3.0661219e-11 -1.9397277e-11   -85.960212 
      12   -85.960212       3.5084       3.5084      35.0844            0           -0            0   -11297.404   -16946.032   -16946.032   -0.1471268 -7.770968e-12 -1.6898704e-11 1.1459014e-11   -85.960212 
      13   -85.960212       3.5084       3.5084      35.0844            0           -0            0   -11297.384   -16946.013   -16946.013  -0.12587318 -2.1775293e-12 6.8072412e-12 1.9765719e-11   -85.960212 
      14   -85.960212       3.5084       3.5084      35.0844            0           -0            0   -11297.379   -16946.008   -16946.008  -0.12078599 3.4674468e-12 1.2899081e-11 3.0576424e-11   -85.960212 
      15   -85.960212       3.5084       3.5084      35.0844            0           -0            0   -11297.324   -16945.954   -16945.954 -0.062384127 -6.3060749e-12 1.1063103e-11 -8.2677066e-12   -85.960212 
      16   -85.960212       3.5084       3.5084      35.0844            0           -0            0   -11297.292   -16945.924   -16945.924   -0.0297467 2.9859495e-12 1.1883326e-11 -6.3927331e-12   -85.960212 
      17   -85.960212       3.5084       3.5084      35.0844            0           -0            0   -11297.279    -16945.91    -16945.91 -0.015065617 -2.0252464e-11 -6.1443795e-12 -2.0914682e-12   -85.960212 
      18   -85.960212       3.5084       3.5084      35.0844            0           -0            0    -11297.27   -16945.902   -16945.902 -0.0065607171 5.3566434e-12 7.8611584e-12 5.1437438e-13   -85.960212 
      19   -85.960212       3.5084       3.5084      35.0844            0           -0            0   -11297.265   -16945.897   -16945.897 -0.00059549243 5.1516001e-13 -4.1924833e-12 -3.7020361e-12   -85.960212 
      20   -85.960212       3.5084       3.5084      35.0844            0           -0            0   -11297.264   -16945.896   -16945.896 0.00014981059 1.4816428e-11 -2.7276869e-11 8.8293068e-12   -85.960212 
      21   -85.960212       3.5084       3.5084      35.0844            0           -0            0   -11297.264   -16945.896   -16945.896 0.00016052285 5.0314426e-12 9.3671464e-12 9.0217109e-12   -85.960212 
      22   -85.960212       3.5084       3.5084      35.0844            0           -0            0   -11297.264   -16945.896   -16945.896 0.00015152985 -9.3464151e-12 2.1754043e-11 1.3527334e-11   -85.960212 
      23   -85.960212       3.5084       3.5084      35.0844            0           -0            0   -11297.264   -16945.896   -16945.896 7.3549791e-05 -8.2791014e-12 -2.7077778e-11 -1.0577932e-11   -85.960212 
      24   -85.960212       3.5084       3.5084      35.0844            0           -0            0   -11297.264   -16945.896   -16945.896 3.343541e-05 1.841982e-11 1.5706013e-12 -1.3539709e-11   -85.960212 
      25   -85.960212       3.5084       3.5084      35.0844            0           -0            0   -11297.264   -16945.896   -16945.896 3.8213115e-06 1.9603307e-12 -6.0294794e-12 -4.0849651e-13   -85.960212 
      26   -85.960212       3.5084       3.5084      35.0844            0           -0            0   -11297.264   -16945.896   -16945.896 -1.4472566e-07 4.1395695e-12 -2.1556806e-11 -8.3428129e-12   -85.960212 
      27   -85.960212       3.5084       3.5084      35.0844            0           -0            0   -11297.264   -16945.896   -16945.896 -3.0245592e-07 -6.8666129e-12 -5.8752696e-12 -8.7584617e-12   -85.960212 
      28   -85.960212       3.5084       3.5084      35.0844            0           -0            0   -11297.264   -16945.896   -16945.896 -2.7438143e-07 -1.4188703e-11 -1.8738925e-11 -8.2453507e-14   -85.960212 
      29   -85.960212       3.5084       3.5084      35.0844            0           -0            0   -11297.264   -16945.896   -16945.896 -2.3542506e-07 4.9546896e-12 -1.3818099e-11 -1.64513e-11   -85.960212 
      30   -85.960212       3.5084       3.5084      35.0844            0           -0            0   -11297.264   -16945.896   -16945.896 -2.021166e-07 -7.0019173e-12 -6.6063712e-12 8.6936064e-12   -85.960212 
      31   -85.960212       3.5084       3.5084      35.0844            0           -0            0   -11297.264   -16945.896   -16945.896 -1.6484042e-07 -1.3527592e-11 -3.748866e-11 4.5915711e-12   -85.960212 
      32   -85.960212       3.5084       3.5084      35.0844            0           -0            0   -11297.264   -16945.896   -16945.896 -5.373275e-08 -1.8552372e-11 -6.4704288e-12 -1.740505e-11   -85.960212 
      33   -85.960212       3.5084       3.5084      35.0844            0           -0            0   -11297.264   -16945.896   -16945.896 -1.3822121e-08 -2.1926348e-11 -3.8152926e-12 -2.6797993e-11   -85.960212 
      34   -85.960212       3.5084       3.5084      35.0844            0           -0            0   -11297.264   -16945.896   -16945.896 2.0058875e-10 -1.5685738e-11 -2.8255222e-11 1.2921085e-11   -85.960212 
      35   -85.960212       3.5084       3.5084      35.0844            0           -0            0   -11297.264   -16945.896   -16945.896 2.1587286e-10 -1.9248277e-11 -2.7193926e-11 6.7733994e-12   -85.960212 
      36   -85.960212       3.5084       3.5084      35.0844            0           -0            0   -11297.264   -16945.896   -16945.896 3.0617096e-10 8.5611239e-12 -1.9893434e-11 9.6954677e-12   -85.960212 
      37   -85.960212       3.5084       3.5084      35.0844            0           -0            0   -11297.264   -16945.896   -16945.896 1.9981804e-10 3.159819e-12 -7.8770596e-12 -2.1244395e-12   -85.960212 
      38   -85.960212       3.5084       3.5084      35.0844            0           -0            0   -11297.264   -16945.896   -16945.896 2.5804752e-10 2.6892074e-12 -1.2183214e-12 -1.5877187e-11   -85.960212 
      39   -85.960212       3.5084       3.5084      35.0844            0           -0            0   -11297.264   -16945.896   -16945.896 1.7286062e-10 -6.0941934e-12 -1.3231324e-11 1.6495434e-11   -85.960212 
Loop time of 0.0220931 on 1 procs for 39 steps with 20 atoms

96.1% CPU use with 1 MPI tasks x no OpenMP threads

Minimization stats:
  Stopping criterion = energy tolerance
  Energy initial, next-to-last, final = 
        -85.9552956852      -85.960211707      -85.960211707
  Force two-norm initial, final = 0.217164 1.88254e-14
  Force max component initial, final = 0.0903145 8.22953e-15
  Final line search alpha, max atom move = 1 8.22953e-15
  Iterations, force evaluations = 39 78

MPI task timing breakdown:
Section |  min time  |  avg time  |  max time  |%varavg| %total
---------------------------------------------------------------
Pair    | 0.020602   | 0.020602   | 0.020602   |   0.0 | 93.25
Neigh   | 0          | 0          | 0          |   0.0 |  0.00
Comm    | 0.00069928 | 0.00069928 | 0.00069928 |   0.0 |  3.17
Output  | 0.00056863 | 0.00056863 | 0.00056863 |   0.0 |  2.57
Modify  | 0          | 0          | 0          |   0.0 |  0.00
Other   |            | 0.0002234  |            |       |  1.01

Nlocal:    20 ave 20 max 20 min
Histogram: 1 0 0 0 0 0 0 0 0 0
Nghost:    1893 ave 1893 max 1893 min
Histogram: 1 0 0 0 0 0 0 0 0 0
Neighs:    4044 ave 4044 max 4044 min
Histogram: 1 0 0 0 0 0 0 0 0 0

Total # of neighbors = 4044
Ave neighs/atom = 202.2
Neighbor list builds = 0
Dangerous builds = 0

# ---- define output variables ----
variable natoms equal "count(all)"
variable tot_energy equal "c_eatoms"
variable a11 equal "xhi-xlo"
variable a22 equal "yhi-ylo"
variable a33 equal "zhi-zlo"
variable tilt_xy equal "xy"
variable tilt_xz equal "xz"
variable tilt_yz equal "yz"
variable tot_press equal "press"
variable press_xx equal "pxx"
variable press_yy equal "pyy"
variable press_zz equal "pzz"
variable press_xy equal "pxy"
variable press_xz equal "pxz"
variable press_yz equal "pyz"

# ---- output ----
print "pypospack:output_section:begin"
pypospack:output_section:begin
print "tot_energy = ${tot_energy}"
tot_energy = -85.9602117070431
print "num_atoms = ${natoms}"
num_atoms = 20
print "a11 = ${a11}"
a11 = 3.5084
print "a22 = ${a22}"
a22 = 3.5084
print "a33 = ${a33}"
a33 = 35.0844
print "a12 = ${tilt_xy}"
a12 = 0
print "a13 = ${tilt_xz}"
a13 = -0
print "a23 = ${tilt_yz}"
a23 = 0
print "tot_press = ${tot_press}"
tot_press = -11297.2641926057
print "pxx = ${press_xx}"
pxx = -16945.8962889087
print "pyy = ${press_yy}"
pyy = -16945.8962889086
print "pzz = ${press_zz}"
pzz = 1.7286062466036e-10
print "pxy = ${press_xy}"
pxy = -6.09419341637993e-12
print "pxz = ${press_xz}"
pxz = -1.32313240734273e-11
print "pyz = ${press_yz}"
pyz = 1.64954339612062e-11
print "pypospack:output_section:done"
pypospack:output_section:done
print "pypospack:lammps_sim:done"
pypospack:lammps_sim:done
Total wall time: 0:00:00
