   2   2   0   0
  0.1090254E+02  0.2793739E-09  0.2793739E-09  0.2793739E-09  0.5000000E-15
  1.000000000000000E-004
  CAR 
 automatically generated by pyflamestk   
     29.83838073     -0.72247009  301      9.25799448      1.00000000
     -0.722  0.0000E+00  0.0000E+00  0.0000E+00  0.0000E+00
     -0.621  0.0000E+00  0.0000E+00  0.0000E+00  0.0000E+00
     -0.519  0.0000E+00  0.0000E+00  0.0000E+00  0.0000E+00
     -0.417 -0.1978E-30  0.0000E+00 -0.2015E-31  0.0000E+00
     -0.315 -0.8027E-27 -0.1674E-27 -0.8179E-28 -0.1705E-28
     -0.213 -0.1931E-23 -0.4456E-24 -0.1968E-24 -0.4541E-25
     -0.111 -0.2753E-20 -0.7028E-21 -0.2806E-21 -0.7164E-22
     -0.009 -0.2322E-17 -0.6563E-18 -0.2368E-18 -0.6693E-19
      0.092 -0.1158E-14 -0.3624E-15 -0.1182E-15 -0.3699E-16
      0.194 -0.3296E-12 -0.1144E-12 -0.3369E-13 -0.1169E-13
      0.296 -0.5679E-10 -0.2184E-10 -0.5819E-11 -0.2237E-11
      0.398 -0.5734E-08 -0.2447E-08 -0.5900E-09 -0.2515E-09
      0.500 -0.3375E-06 -0.1600E-06 -0.3498E-07 -0.1655E-07
      0.602 -0.1148E-04 -0.6056E-05 -0.1204E-05 -0.6335E-06
      0.704 -0.2220E-03 -0.1309E-03 -0.2381E-04 -0.1396E-04
      0.806 -0.2364E-02 -0.1570E-02 -0.2646E-03 -0.1739E-03
      0.907 -0.1283E-01 -0.9817E-02 -0.1571E-02 -0.1174E-02
      1.009 -0.2591E-01 -0.2557E-01 -0.4211E-02 -0.3779E-02
      1.111  0.4412E-01  0.1708E-01  0.2839E-03 -0.2039E-02
      1.213  0.2945E+00  0.2364E+00  0.3028E-01  0.2204E-01
      1.315  0.5067E+00  0.4885E+00  0.8190E-01  0.7180E-01
      1.417  0.3723E+00  0.4228E+00  0.1198E+00  0.1149E+00
      1.519  0.9427E-01  0.1399E+00  0.1294E+00  0.1291E+00
      1.621 -0.2148E-01 -0.1307E-01  0.1272E+00  0.1278E+00
      1.722 -0.1751E-01 -0.2098E-01  0.1255E+00  0.1257E+00
      1.824 -0.3980E-02 -0.5639E-02  0.1250E+00  0.1251E+00
      1.926 -0.4422E-03 -0.7110E-03  0.1250E+00  0.1250E+00
      2.028 -0.2669E-04 -0.4809E-04  0.1250E+00  0.1250E+00
      2.130 -0.9101E-06 -0.1828E-05  0.1250E+00  0.1250E+00
      2.232 -0.1787E-07 -0.3991E-07  0.1250E+00  0.1250E+00
      2.334 -0.2042E-09 -0.5061E-09  0.1250E+00  0.1250E+00
      2.435 -0.5211E-11 -0.1236E-10  0.1250E+00  0.1250E+00
      2.537 -0.5787E-09 -0.1193E-08  0.1250E+00  0.1250E+00
      2.639 -0.5099E-07 -0.9678E-07  0.1250E+00  0.1250E+00
      2.741 -0.2613E-05 -0.4561E-05  0.1250E+00  0.1250E+00
      2.843 -0.7715E-04 -0.1235E-03  0.1250E+00  0.1250E+00
      2.945 -0.1287E-02 -0.1883E-02  0.1249E+00  0.1248E+00
      3.047 -0.1168E-01 -0.1545E-01  0.1237E+00  0.1232E+00
      3.149 -0.5189E-01 -0.6022E-01  0.1184E+00  0.1171E+00
      3.250 -0.6550E-01 -0.4750E-01  0.1117E+00  0.1122E+00
      3.352  0.2751E+00  0.3810E+00  0.1397E+00  0.1511E+00
      3.454  0.1107E+01  0.1230E+01  0.2525E+00  0.2764E+00
      3.556  0.1522E+01  0.1484E+01  0.4075E+00  0.4276E+00
      3.658  0.8942E+00  0.7553E+00  0.4986E+00  0.5045E+00
      3.760  0.1381E+00  0.7064E-01  0.5127E+00  0.5117E+00
      3.862 -0.7755E-01 -0.7766E-01  0.5048E+00  0.5038E+00
      3.964 -0.3907E-01 -0.3192E-01  0.5008E+00  0.5006E+00
      4.065 -0.7276E-02 -0.7901E-02  0.5001E+00  0.4998E+00
      4.167 -0.9054E-03 -0.2013E-01  0.5000E+00  0.4977E+00
      4.269 -0.3000E-02 -0.6736E-01  0.4997E+00  0.4908E+00
      4.371 -0.2140E-01 -0.2206E-01  0.4975E+00  0.4886E+00
      4.473 -0.6967E-01  0.4893E+00  0.4904E+00  0.5384E+00
      4.575 -0.1045E-01  0.1329E+01  0.4893E+00  0.6738E+00
      4.677  0.5309E+00  0.1423E+01  0.5434E+00  0.8188E+00
      4.778  0.1361E+01  0.6070E+00  0.6821E+00  0.8806E+00
      4.880  0.1400E+01 -0.5176E-01  0.8247E+00  0.8753E+00
      4.982  0.5853E+00 -0.7846E-01  0.8843E+00  0.8673E+00
      5.084 -0.6967E-02  0.5112E+00  0.8836E+00  0.9194E+00
      5.186 -0.1308E+00  0.1310E+01  0.8703E+00  0.1053E+01
      5.288 -0.9727E-01  0.1508E+01  0.8604E+00  0.1207E+01
      5.390  0.2519E+00  0.1505E+01  0.8860E+00  0.1360E+01
      5.492  0.1066E+01  0.1992E+01  0.9946E+00  0.1563E+01
      5.593  0.1874E+01  0.2144E+01  0.1185E+01  0.1781E+01
      5.695  0.2489E+01  0.1386E+01  0.1439E+01  0.1922E+01
      5.797  0.2587E+01  0.5267E+00  0.1703E+01  0.1976E+01
      5.899  0.1518E+01  0.6462E+00  0.1857E+01  0.2042E+01
      6.001  0.3325E+00  0.2125E+01  0.1891E+01  0.2258E+01
      6.103  0.2688E+00  0.3835E+01  0.1919E+01  0.2649E+01
      6.205  0.7681E+00  0.4246E+01  0.1997E+01  0.3082E+01
      6.307  0.1112E+01  0.3484E+01  0.2110E+01  0.3437E+01
      6.408  0.1736E+01  0.2163E+01  0.2287E+01  0.3657E+01
      6.510  0.2473E+01  0.1101E+01  0.2539E+01  0.3769E+01
      6.612  0.2807E+01  0.1737E+01  0.2825E+01  0.3946E+01
      6.714  0.3303E+01  0.3172E+01  0.3161E+01  0.4269E+01
      6.816  0.3327E+01  0.2967E+01  0.3500E+01  0.4571E+01
      6.918  0.1978E+01  0.1797E+01  0.3702E+01  0.4754E+01
      7.020  0.7835E+00  0.2310E+01  0.3782E+01  0.4990E+01
      7.121  0.1277E+01  0.3814E+01  0.3912E+01  0.5378E+01
      7.223  0.2726E+01  0.3456E+01  0.4189E+01  0.5730E+01
      7.325  0.3907E+01  0.1587E+01  0.4587E+01  0.5892E+01
      7.427  0.4323E+01  0.4607E+00  0.5028E+01  0.5939E+01
      7.529  0.3934E+01  0.2415E+00  0.5428E+01  0.5964E+01
      7.631  0.2905E+01  0.1161E+00  0.5724E+01  0.5975E+01
      7.733  0.1418E+01  0.5931E+00  0.5869E+01  0.6036E+01
      7.835  0.2296E+00  0.2118E+01  0.5892E+01  0.6252E+01
      7.936 -0.4860E-01  0.3156E+01  0.5887E+01  0.6573E+01
      8.038  0.2195E+00  0.2777E+01  0.5910E+01  0.6856E+01
      8.140  0.4896E+00  0.2873E+01  0.5960E+01  0.7149E+01
      8.242  0.8925E+00  0.4117E+01  0.6050E+01  0.7568E+01
      8.344  0.1640E+01  0.4653E+01  0.6218E+01  0.8042E+01
      8.446  0.2314E+01  0.4291E+01  0.6453E+01  0.8479E+01
      8.548  0.2704E+01  0.4009E+01  0.6729E+01  0.8888E+01
      8.650  0.3158E+01  0.3955E+01  0.7050E+01  0.9290E+01
      8.751  0.4144E+01  0.4424E+01  0.7473E+01  0.9741E+01
      8.853  0.5245E+01  0.4330E+01  0.8007E+01  0.1018E+02
      8.955  0.5388E+01  0.2657E+01  0.8556E+01  0.1045E+02
      9.057  0.4195E+01  0.7340E+00  0.8983E+01  0.1053E+02
      9.159  0.2731E+01 -0.1287E+00  0.9261E+01  0.1051E+02
      9.261  0.2484E+01 -0.2118E+00  0.9514E+01  0.1049E+02
      9.363  0.3175E+01  0.3997E-01  0.9838E+01  0.1050E+02
      9.464  0.3475E+01  0.7708E+00  0.1019E+02  0.1058E+02
      9.566  0.2455E+01  0.1492E+01  0.1044E+02  0.1073E+02
      9.668  0.7858E+00  0.1212E+01  0.1052E+02  0.1085E+02
      9.770 -0.1312E+00  0.3637E+00  0.1051E+02  0.1089E+02
      9.872 -0.1540E+00 -0.5090E-01  0.1049E+02  0.1088E+02
      9.974  0.4392E+00 -0.5895E-01  0.1054E+02  0.1088E+02
     10.076  0.1314E+01 -0.1481E-01  0.1067E+02  0.1088E+02
     10.178  0.1433E+01 -0.1777E-02  0.1082E+02  0.1088E+02
     10.279  0.6436E+00 -0.1150E-03  0.1088E+02  0.1088E+02
     10.381  0.2626E-01 -0.4189E-05  0.1089E+02  0.1088E+02
     10.483 -0.7473E-01 -0.8776E-07  0.1088E+02  0.1088E+02
     10.585 -0.2636E-01 -0.5013E-08  0.1088E+02  0.1087E+02
     10.687 -0.4001E-02 -0.2780E-06  0.1088E+02  0.1087E+02
     10.789 -0.3187E-03 -0.1136E-04  0.1088E+02  0.1087E+02
     10.891 -0.1417E-04 -0.2656E-03  0.1088E+02  0.1087E+02
     10.993 -0.2165E-05 -0.3466E-02  0.1087E+02  0.1087E+02
     11.094 -0.5641E-04 -0.2387E-01  0.1087E+02  0.1087E+02
     11.196 -0.9976E-03 -0.7249E-01  0.1087E+02  0.1086E+02
     11.298 -0.9646E-02  0.7288E-02  0.1087E+02  0.1087E+02
     11.400 -0.4647E-01  0.5882E+00  0.1087E+02  0.1093E+02
     11.502 -0.7258E-01  0.1399E+01  0.1086E+02  0.1107E+02
     11.604  0.2140E+00  0.1348E+01  0.1088E+02  0.1121E+02
     11.706  0.1020E+01  0.4737E+00  0.1099E+02  0.1125E+02
     11.807  0.1525E+01 -0.9140E-01  0.1114E+02  0.1124E+02
     11.909  0.9481E+00  0.1867E+00  0.1124E+02  0.1126E+02
     12.011  0.1017E+00  0.1204E+01  0.1125E+02  0.1139E+02
     12.113 -0.1015E-01  0.1951E+01  0.1125E+02  0.1158E+02
     12.215  0.7762E+00  0.1411E+01  0.1133E+02  0.1173E+02
     12.317  0.1737E+01  0.3712E+00  0.1150E+02  0.1177E+02
     12.419  0.1685E+01 -0.7374E-01  0.1168E+02  0.1176E+02
     12.521  0.7602E+00 -0.6722E-01  0.1175E+02  0.1175E+02
     12.622  0.7680E-01 -0.1617E-01  0.1176E+02  0.1175E+02
     12.724 -0.7264E-01 -0.1900E-02  0.1175E+02  0.1175E+02
     12.826 -0.3453E-01 -0.1216E-03  0.1175E+02  0.1175E+02
     12.928 -0.6973E-02 -0.4406E-05  0.1175E+02  0.1175E+02
     13.030 -0.7594E-03 -0.9210E-07  0.1175E+02  0.1175E+02
     13.132 -0.4707E-04 -0.1121E-08  0.1175E+02  0.1175E+02
     13.234 -0.1690E-05 -0.7999E-11  0.1175E+02  0.1175E+02
     13.336 -0.3544E-07 -0.3379E-13  0.1175E+02  0.1175E+02
     13.437 -0.4358E-09  0.0000E+00  0.1175E+02  0.1175E+02
     13.539 -0.3150E-11  0.0000E+00  0.1175E+02  0.1175E+02
     13.641 -0.1335E-13  0.0000E+00  0.1175E+02  0.1175E+02
     13.743  0.0000E+00  0.0000E+00  0.1175E+02  0.1175E+02
     13.845  0.0000E+00  0.0000E+00  0.1175E+02  0.1175E+02
     13.947  0.0000E+00  0.0000E+00  0.1175E+02  0.1175E+02
     14.049  0.0000E+00 -0.9082E-29  0.1175E+02  0.1175E+02
     14.150  0.0000E+00 -0.3038E-25  0.1175E+02  0.1175E+02
     14.252 -0.1575E-28 -0.6024E-22  0.1175E+02  0.1175E+02
     14.354 -0.5090E-25 -0.7072E-19  0.1175E+02  0.1175E+02
     14.456 -0.9749E-22 -0.4913E-16  0.1175E+02  0.1175E+02
     14.558 -0.1106E-18 -0.1962E-13  0.1175E+02  0.1175E+02
     14.660 -0.7420E-16 -0.4710E-11  0.1175E+02  0.1175E+02
     14.762 -0.2847E-13 -0.6663E-09  0.1175E+02  0.1175E+02
     14.864 -0.6634E-11 -0.5515E-07  0.1175E+02  0.1175E+02
     14.965 -0.9060E-09 -0.2654E-05  0.1175E+02  0.1175E+02
     15.067 -0.7237E-07 -0.7345E-04  0.1175E+02  0.1175E+02
     15.169 -0.3359E-05 -0.1146E-02  0.1175E+02  0.1175E+02
     15.271 -0.8956E-04 -0.9690E-02  0.1175E+02  0.1175E+02
     15.373 -0.1343E-02 -0.3986E-01  0.1175E+02  0.1174E+02
     15.475 -0.1083E-01 -0.4536E-01  0.1175E+02  0.1174E+02
     15.577 -0.4133E-01  0.1878E+00  0.1174E+02  0.1176E+02
     15.679 -0.3157E-01  0.7296E+00  0.1174E+02  0.1183E+02
     15.780  0.2473E+00  0.1227E+01  0.1177E+02  0.1196E+02
     15.882  0.7655E+00  0.1570E+01  0.1184E+02  0.1212E+02
     15.984  0.9660E+00  0.1587E+01  0.1194E+02  0.1228E+02
     16.086  0.9945E+00  0.9083E+00  0.1204E+02  0.1237E+02
     16.188  0.1384E+01  0.1535E+00  0.1219E+02  0.1239E+02
     16.290  0.1363E+01 -0.7946E-01  0.1232E+02  0.1238E+02
     16.392  0.5909E+00 -0.4319E-01  0.1238E+02  0.1238E+02
     16.493  0.1161E-01 -0.8447E-02  0.1239E+02  0.1238E+02
     16.595 -0.7376E-01 -0.8356E-03  0.1238E+02  0.1238E+02
     16.697 -0.2490E-01 -0.4550E-04  0.1238E+02  0.1238E+02
     16.799 -0.3682E-02 -0.6467E-05  0.1238E+02  0.1237E+02
     16.901 -0.2938E-03 -0.1265E-03  0.1238E+02  0.1237E+02
     17.003 -0.1817E-03 -0.1770E-02  0.1237E+02  0.1237E+02
     17.105 -0.2230E-02 -0.1320E-01  0.1237E+02  0.1237E+02
     17.207 -0.1553E-01 -0.4501E-01  0.1237E+02  0.1237E+02
     17.308 -0.4792E-01 -0.1423E-01  0.1237E+02  0.1237E+02
     17.410  0.2001E-02  0.3276E+00  0.1237E+02  0.1240E+02
     17.512  0.3833E+00  0.8831E+00  0.1241E+02  0.1249E+02
     17.614  0.9270E+00  0.9303E+00  0.1250E+02  0.1259E+02
     17.716  0.9057E+00  0.4005E+00  0.1259E+02  0.1263E+02
     17.818  0.3380E+00  0.1295E+00  0.1263E+02  0.1264E+02
     17.920 -0.5863E-02  0.3485E+00  0.1263E+02  0.1268E+02
     18.022  0.1378E+00  0.4812E+00  0.1264E+02  0.1272E+02
     18.123  0.4434E+00  0.2546E+00  0.1269E+02  0.1275E+02
     18.225  0.4506E+00  0.4832E-02  0.1273E+02  0.1275E+02
     18.327  0.1627E+00 -0.1808E-01  0.1275E+02  0.1275E+02
     18.429  0.8559E-02  0.2010E+00  0.1275E+02  0.1277E+02
     18.531  0.1909E+00  0.4744E+00  0.1277E+02  0.1282E+02
     18.633  0.4702E+00  0.4392E+00  0.1282E+02  0.1286E+02
     18.735  0.4383E+00  0.1441E+00  0.1286E+02  0.1288E+02
     18.836  0.1543E+00 -0.7108E-01  0.1288E+02  0.1287E+02
     18.938 -0.3762E-01 -0.6057E-01  0.1287E+02  0.1286E+02
     19.040 -0.9880E-01  0.4175E+00  0.1286E+02  0.1291E+02
     19.142  0.4274E-01  0.1272E+01  0.1287E+02  0.1304E+02
     19.244  0.7029E+00  0.1463E+01  0.1294E+02  0.1318E+02
     19.346  0.1463E+01  0.7040E+00  0.1309E+02  0.1326E+02
     19.448  0.1273E+01  0.4921E-01  0.1322E+02  0.1326E+02
     19.550  0.4242E+00 -0.7660E-01  0.1326E+02  0.1325E+02
     19.651 -0.3819E-01 -0.2920E-01  0.1326E+02  0.1325E+02
     19.753 -0.6323E-01 -0.4653E-02  0.1325E+02  0.1325E+02
     19.855 -0.1709E-01 -0.3871E-03  0.1325E+02  0.1325E+02
     19.957 -0.2164E-02 -0.4305E-04  0.1325E+02  0.1325E+02
     20.059 -0.1584E-03 -0.5249E-03  0.1325E+02  0.1325E+02
     20.161 -0.2787E-03 -0.6102E-02  0.1325E+02  0.1325E+02
     20.263 -0.3655E-02 -0.3759E-01  0.1325E+02  0.1325E+02
     20.365 -0.2638E-01 -0.1010E+00  0.1325E+02  0.1324E+02
     20.466 -0.8961E-01  0.3498E-01  0.1324E+02  0.1324E+02
     20.568 -0.4277E-01  0.8548E+00  0.1323E+02  0.1333E+02
     20.670  0.6008E+00  0.2030E+01  0.1329E+02  0.1353E+02
     20.772  0.1815E+01  0.2163E+01  0.1348E+02  0.1375E+02
     20.874  0.2282E+01  0.1063E+01  0.1371E+02  0.1386E+02
     20.976  0.1340E+01  0.2918E+00  0.1385E+02  0.1389E+02
     21.078  0.3727E+00  0.7634E+00  0.1389E+02  0.1397E+02
     21.179  0.6388E+00  0.1463E+01  0.1395E+02  0.1412E+02
     21.281  0.1405E+01  0.1129E+01  0.1409E+02  0.1423E+02
     21.383  0.1241E+01  0.2998E+00  0.1422E+02  0.1426E+02
     21.485  0.4057E+00 -0.6182E-01  0.1426E+02  0.1426E+02
     21.587 -0.4202E-01 -0.5405E-01  0.1426E+02  0.1425E+02
     21.689 -0.6211E-01 -0.1257E-01  0.1425E+02  0.1425E+02
     21.791 -0.1646E-01 -0.1421E-02  0.1425E+02  0.1425E+02
     21.893 -0.2053E-02 -0.8718E-04  0.1425E+02  0.1425E+02
     21.994 -0.1376E-03 -0.3019E-05  0.1425E+02  0.1425E+02
     22.096 -0.5185E-05 -0.6032E-07  0.1425E+02  0.1425E+02
     22.198 -0.1125E-06 -0.1541E-07  0.1425E+02  0.1425E+02
     22.300 -0.2946E-07 -0.8829E-06  0.1425E+02  0.1425E+02
     22.402 -0.1552E-05 -0.3063E-04  0.1425E+02  0.1425E+02
     22.504 -0.4957E-04 -0.6047E-03  0.1425E+02  0.1425E+02
     22.606 -0.8977E-03 -0.6586E-02  0.1425E+02  0.1425E+02
     22.708 -0.8906E-02 -0.3670E-01  0.1425E+02  0.1425E+02
     22.809 -0.4430E-01 -0.7810E-01  0.1424E+02  0.1424E+02
     22.911 -0.7457E-01  0.1155E+00  0.1424E+02  0.1425E+02
     23.013  0.1909E+00  0.8509E+00  0.1426E+02  0.1434E+02
     23.115  0.9849E+00  0.1513E+01  0.1436E+02  0.1449E+02
     23.217  0.1531E+01  0.1147E+01  0.1451E+02  0.1461E+02
     23.319  0.1020E+01  0.3066E+00  0.1462E+02  0.1464E+02
     23.421  0.2132E+00 -0.6088E-01  0.1464E+02  0.1463E+02
     23.522 -0.7266E-01 -0.5450E-01  0.1463E+02  0.1463E+02
     23.624 -0.4640E-01 -0.1276E-01  0.1463E+02  0.1463E+02
     23.726 -0.9621E-02 -0.1451E-02  0.1463E+02  0.1463E+02
     23.828 -0.9942E-03 -0.8946E-04  0.1463E+02  0.1463E+02
     23.930 -0.5617E-04 -0.3113E-05  0.1463E+02  0.1463E+02
     24.032 -0.1798E-05 -0.6233E-07  0.1463E+02  0.1463E+02
     24.134 -0.3319E-07 -0.7261E-09  0.1463E+02  0.1463E+02
     24.236 -0.3570E-09 -0.2000E-10  0.1463E+02  0.1462E+02
     24.337 -0.5614E-10 -0.1970E-08  0.1462E+02  0.1462E+02
     24.439 -0.6166E-08 -0.1507E-06  0.1462E+02  0.1462E+02
     24.541 -0.4118E-06 -0.6694E-05  0.1462E+02  0.1462E+02
     24.643 -0.1593E-04 -0.1706E-03  0.1462E+02  0.1462E+02
     24.745 -0.3519E-03 -0.2438E-02  0.1462E+02  0.1462E+02
     24.847 -0.4325E-02 -0.1863E-01  0.1462E+02  0.1462E+02
     24.949 -0.2780E-01 -0.6577E-01  0.1462E+02  0.1462E+02
     25.051 -0.7577E-01 -0.2881E-01  0.1461E+02  0.1461E+02
     25.152  0.3769E-01  0.4633E+00  0.1462E+02  0.1466E+02
     25.254  0.6744E+00  0.1308E+01  0.1469E+02  0.1479E+02
     25.356  0.1449E+01  0.1442E+01  0.1483E+02  0.1494E+02
     25.458  0.1296E+01  0.6587E+00  0.1497E+02  0.1501E+02
     25.560  0.4490E+00  0.2563E-01  0.1501E+02  0.1501E+02
     25.662 -0.4005E-01 -0.1112E+00  0.1501E+02  0.1500E+02
     25.764 -0.1061E+00 -0.1053E+00  0.1500E+02  0.1499E+02
     25.865 -0.9475E-01  0.1042E+00  0.1499E+02  0.1500E+02
     25.967  0.1564E+00  0.8362E+00  0.1500E+02  0.1508E+02
     26.069  0.9310E+00  0.1510E+01  0.1510E+02  0.1524E+02
     26.171  0.1527E+01  0.1159E+01  0.1525E+02  0.1536E+02
     26.273  0.1072E+01  0.3170E+00  0.1536E+02  0.1539E+02
     26.375  0.2464E+00 -0.6281E-01  0.1539E+02  0.1538E+02
     26.477 -0.8974E-01 -0.8009E-01  0.1538E+02  0.1537E+02
     26.579 -0.1187E+00 -0.8647E-01  0.1537E+02  0.1536E+02
     26.680 -0.2445E-01  0.1215E-01  0.1536E+02  0.1537E+02
     26.782  0.5187E+00  0.6074E+00  0.1542E+02  0.1543E+02
     26.884  0.1353E+01  0.1413E+01  0.1555E+02  0.1557E+02
     26.986  0.1407E+01  0.1347E+01  0.1570E+02  0.1571E+02
     27.088  0.5984E+00  0.5111E+00  0.1576E+02  0.1576E+02
     27.190  0.1055E-01 -0.1629E-01  0.1576E+02  0.1576E+02
     27.292 -0.7382E-01 -0.7098E-01  0.1575E+02  0.1575E+02
     27.394 -0.3228E-01 -0.3683E-01  0.1575E+02  0.1575E+02
     27.495 -0.3859E-01 -0.5147E-01  0.1575E+02  0.1574E+02
     27.597 -0.4323E-01  0.7192E-02  0.1574E+02  0.1574E+02
     27.699  0.1885E+00  0.3999E+00  0.1576E+02  0.1578E+02
     27.801  0.7446E+00  0.9386E+00  0.1584E+02  0.1588E+02
     27.903  0.1013E+01  0.9014E+00  0.1594E+02  0.1597E+02
     28.005  0.5889E+00  0.3456E+00  0.1600E+02  0.1601E+02
     28.107  0.8824E-01 -0.9364E-02  0.1601E+02  0.1601E+02
     28.208 -0.5182E-01 -0.4600E-01  0.1600E+02  0.1600E+02
     28.310 -0.2565E-01 -0.1392E-01  0.1600E+02  0.1600E+02
     28.412 -0.4728E-02 -0.1908E-02  0.1600E+02  0.1600E+02
     28.514 -0.4439E-03 -0.1390E-03  0.1600E+02  0.1600E+02
     28.616 -0.2296E-04 -0.5672E-05  0.1600E+02  0.1600E+02
     28.718 -0.6751E-06 -0.1326E-06  0.1600E+02  0.1600E+02
     28.820 -0.1147E-07 -0.1798E-08  0.1600E+02  0.1600E+02
     28.922 -0.1136E-09 -0.1426E-10  0.1600E+02  0.1600E+02
     29.023 -0.6594E-12 -0.6648E-13  0.1600E+02  0.1600E+02
     29.125 -0.2180E-14  0.0000E+00  0.1600E+02  0.1600E+02
     29.227  0.0000E+00  0.0000E+00  0.1600E+02  0.1600E+02
     29.329  0.0000E+00  0.0000E+00  0.1600E+02  0.1600E+02
     29.431  0.0000E+00  0.0000E+00  0.1600E+02  0.1600E+02
     29.533  0.0000E+00  0.0000E+00  0.1600E+02  0.1600E+02
     29.635  0.0000E+00  0.0000E+00  0.1600E+02  0.1600E+02
     29.737  0.0000E+00  0.0000E+00  0.1600E+02  0.1600E+02
     29.838  0.0000E+00  0.0000E+00  0.1600E+02  0.1600E+02
