# ['Ni']

18 atoms
1 atom types

    0.0000     2.3745 xlo xhi
    0.0000     4.1129 ylo yhi
    0.0000    34.8930 zlo zhi

    0.0000     0.0000    -0.0004 xy xz yz

Atoms

1 1     0.0000     0.0000     0.0000
2 1     1.1873     0.6855     1.9385
3 1     0.0000     1.3710     3.8770
4 1     1.1873     2.0564     0.0000
5 1     0.0000     2.7419     1.9385
6 1     1.1873     3.4274     3.8770
7 1     0.0000     0.0000     5.8155
8 1     1.1873     0.6855     7.7540
9 1     0.0000     1.3710     9.6925
10 1     1.1873     2.0564     5.8155
11 1     0.0000     2.7419     7.7540
12 1     1.1873     3.4274     9.6925
13 1     0.0000     0.0000    11.6310
14 1     1.1873     0.6855    13.5695
15 1     0.0000     1.3710    15.5080
16 1     1.1873     2.0564    11.6310
17 1     0.0000     2.7419    13.5695
18 1     1.1873     3.4274    15.5080
