   2   2   0   0
  0.1090254E+02  0.2793739E-09  0.2793739E-09  0.2793739E-09  0.5000000E-15
  1.000000000000000E-004
  CAR 
 automatically generated by pyflamestk   
     29.83111791     -0.72074655  301      9.24857562      1.00000000
     -0.721  0.0000E+00  0.0000E+00  0.0000E+00  0.0000E+00
     -0.619  0.0000E+00  0.0000E+00  0.0000E+00  0.0000E+00
     -0.517  0.0000E+00  0.0000E+00  0.0000E+00  0.0000E+00
     -0.415 -0.1963E-30  0.0000E+00 -0.2000E-31  0.0000E+00
     -0.313 -0.7954E-27 -0.1716E-27 -0.8102E-28 -0.1748E-28
     -0.212 -0.1911E-23 -0.4551E-24 -0.1947E-24 -0.4637E-25
     -0.110 -0.2720E-20 -0.7154E-21 -0.2772E-21 -0.7290E-22
     -0.008 -0.2292E-17 -0.6659E-18 -0.2337E-18 -0.6789E-19
      0.094 -0.1142E-14 -0.3667E-15 -0.1166E-15 -0.3741E-16
      0.196 -0.3250E-12 -0.1154E-12 -0.3322E-13 -0.1179E-13
      0.298 -0.5599E-10 -0.2199E-10 -0.5736E-11 -0.2251E-11
      0.399 -0.5656E-08 -0.2458E-08 -0.5817E-09 -0.2526E-09
      0.501 -0.3331E-06 -0.1605E-06 -0.3451E-07 -0.1659E-07
      0.603 -0.1134E-04 -0.6066E-05 -0.1189E-05 -0.6343E-06
      0.705 -0.2196E-03 -0.1309E-03 -0.2355E-04 -0.1397E-04
      0.807 -0.2343E-02 -0.1570E-02 -0.2622E-03 -0.1739E-03
      0.909 -0.1275E-01 -0.9812E-02 -0.1561E-02 -0.1173E-02
      1.011 -0.2594E-01 -0.2557E-01 -0.4202E-02 -0.3777E-02
      1.112  0.4329E-01  0.1697E-01  0.2073E-03 -0.2049E-02
      1.214  0.2928E+00  0.2360E+00  0.3003E-01  0.2198E-01
      1.316  0.5064E+00  0.4883E+00  0.8160E-01  0.7172E-01
      1.418  0.3740E+00  0.4232E+00  0.1197E+00  0.1148E+00
      1.520  0.9564E-01  0.1404E+00  0.1294E+00  0.1291E+00
      1.622 -0.2127E-01 -0.1294E-01  0.1273E+00  0.1278E+00
      1.723 -0.1764E-01 -0.2102E-01  0.1255E+00  0.1257E+00
      1.825 -0.4034E-02 -0.5668E-02  0.1250E+00  0.1251E+00
      1.927 -0.4505E-03 -0.7165E-03  0.1250E+00  0.1250E+00
      2.029 -0.2733E-04 -0.4860E-04  0.1250E+00  0.1250E+00
      2.131 -0.9371E-06 -0.1853E-05  0.1250E+00  0.1250E+00
      2.233 -0.1850E-07 -0.4059E-07  0.1250E+00  0.1250E+00
      2.334 -0.2126E-09 -0.5165E-09  0.1250E+00  0.1250E+00
      2.436 -0.5233E-11 -0.1259E-10  0.1250E+00  0.1250E+00
      2.538 -0.5720E-09 -0.1209E-08  0.1250E+00  0.1250E+00
      2.640 -0.5039E-07 -0.9779E-07  0.1250E+00  0.1250E+00
      2.742 -0.2584E-05 -0.4598E-05  0.1250E+00  0.1250E+00
      2.844 -0.7635E-04 -0.1242E-03  0.1250E+00  0.1250E+00
      2.945 -0.1276E-02 -0.1890E-02  0.1249E+00  0.1248E+00
      3.047 -0.1159E-01 -0.1549E-01  0.1237E+00  0.1232E+00
      3.149 -0.5166E-01 -0.6028E-01  0.1184E+00  0.1171E+00
      3.251 -0.6589E-01 -0.4739E-01  0.1117E+00  0.1123E+00
      3.353  0.2720E+00  0.3814E+00  0.1394E+00  0.1511E+00
      3.455  0.1103E+01  0.1230E+01  0.2517E+00  0.2764E+00
      3.557  0.1523E+01  0.1484E+01  0.4068E+00  0.4276E+00
      3.658  0.8993E+00  0.7556E+00  0.4984E+00  0.5045E+00
      3.760  0.1410E+00  0.7087E-01  0.5127E+00  0.5117E+00
      3.862 -0.7745E-01 -0.7767E-01  0.5048E+00  0.5038E+00
      3.964 -0.3940E-01 -0.3199E-01  0.5008E+00  0.5006E+00
      4.066 -0.7378E-02 -0.8118E-02  0.5001E+00  0.4997E+00
      4.168 -0.9330E-03 -0.2117E-01  0.5000E+00  0.4976E+00
      4.269 -0.3156E-02 -0.6880E-01  0.4997E+00  0.4906E+00
      4.371 -0.2217E-01 -0.1529E-01  0.4974E+00  0.4890E+00
      4.473 -0.7061E-01  0.5138E+00  0.4902E+00  0.5413E+00
      4.575 -0.5207E-02  0.1348E+01  0.4897E+00  0.6786E+00
      4.677  0.5484E+00  0.1407E+01  0.5455E+00  0.8220E+00
      4.779  0.1374E+01  0.5794E+00  0.6854E+00  0.8810E+00
      4.880  0.1388E+01 -0.6267E-01  0.8268E+00  0.8746E+00
      4.982  0.5680E+00 -0.6227E-01  0.8847E+00  0.8682E+00
      5.084 -0.1378E-01  0.5575E+00  0.8833E+00  0.9250E+00
      5.186 -0.1332E+00  0.1343E+01  0.8697E+00  0.1062E+01
      5.288 -0.9150E-01  0.1506E+01  0.8604E+00  0.1215E+01
      5.390  0.2851E+00  0.1519E+01  0.8894E+00  0.1370E+01
      5.491  0.1115E+01  0.2010E+01  0.1003E+01  0.1575E+01
      5.593  0.1911E+01  0.2121E+01  0.1198E+01  0.1791E+01
      5.695  0.2511E+01  0.1339E+01  0.1453E+01  0.1927E+01
      5.797  0.2555E+01  0.5009E+00  0.1714E+01  0.1978E+01
      5.899  0.1445E+01  0.6998E+00  0.1861E+01  0.2049E+01
      6.001  0.3023E+00  0.2256E+01  0.1892E+01  0.2279E+01
      6.103  0.2867E+00  0.3923E+01  0.1921E+01  0.2678E+01
      6.204  0.7876E+00  0.4227E+01  0.2001E+01  0.3109E+01
      6.306  0.1149E+01  0.3406E+01  0.2118E+01  0.3456E+01
      6.408  0.1804E+01  0.2065E+01  0.2302E+01  0.3666E+01
      6.510  0.2504E+01  0.1088E+01  0.2557E+01  0.3777E+01
      6.612  0.2823E+01  0.1850E+01  0.2844E+01  0.3965E+01
      6.714  0.3334E+01  0.3233E+01  0.3184E+01  0.4295E+01
      6.815  0.3281E+01  0.2884E+01  0.3518E+01  0.4588E+01
      6.917  0.1877E+01  0.1748E+01  0.3709E+01  0.4766E+01
      7.019  0.7676E+00  0.2391E+01  0.3787E+01  0.5010E+01
      7.121  0.1364E+01  0.3845E+01  0.3926E+01  0.5401E+01
      7.223  0.2814E+01  0.3356E+01  0.4213E+01  0.5743E+01
      7.325  0.3936E+01  0.1501E+01  0.4613E+01  0.5896E+01
      7.426  0.4297E+01  0.4475E+00  0.5051E+01  0.5942E+01
      7.528  0.3894E+01  0.2320E+00  0.5448E+01  0.5965E+01
      7.630  0.2848E+01  0.1150E+00  0.5738E+01  0.5977E+01
      7.732  0.1335E+01  0.6828E+00  0.5874E+01  0.6046E+01
      7.834  0.1821E+00  0.2247E+01  0.5892E+01  0.6275E+01
      7.936 -0.4082E-01  0.3167E+01  0.5888E+01  0.6598E+01
      8.037  0.2416E+00  0.2737E+01  0.5913E+01  0.6877E+01
      8.139  0.5117E+00  0.2950E+01  0.5965E+01  0.7177E+01
      8.241  0.9444E+00  0.4212E+01  0.6061E+01  0.7606E+01
      8.343  0.1703E+01  0.4645E+01  0.6234E+01  0.8079E+01
      8.445  0.2350E+01  0.4266E+01  0.6474E+01  0.8513E+01
      8.547  0.2730E+01  0.3994E+01  0.6752E+01  0.8920E+01
      8.648  0.3221E+01  0.3972E+01  0.7080E+01  0.9325E+01
      8.750  0.4254E+01  0.4462E+01  0.7513E+01  0.9779E+01
      8.852  0.5317E+01  0.4251E+01  0.8054E+01  0.1021E+02
      8.954  0.5344E+01  0.2485E+01  0.8599E+01  0.1047E+02
      9.056  0.4056E+01  0.6200E+00  0.9012E+01  0.1053E+02
      9.158  0.2645E+01 -0.1538E+00  0.9281E+01  0.1051E+02
      9.260  0.2517E+01 -0.2039E+00  0.9537E+01  0.1049E+02
      9.361  0.3233E+01  0.7113E-01  0.9866E+01  0.1050E+02
      9.463  0.3446E+01  0.8274E+00  0.1022E+02  0.1058E+02
      9.565  0.2325E+01  0.1508E+01  0.1045E+02  0.1074E+02
      9.667  0.6748E+00  0.1164E+01  0.1052E+02  0.1086E+02
      9.769 -0.1592E+00  0.3211E+00  0.1051E+02  0.1089E+02
      9.871 -0.1321E+00 -0.5851E-01  0.1049E+02  0.1088E+02
      9.972  0.4962E+00 -0.5570E-01  0.1054E+02  0.1088E+02
     10.074  0.1356E+01 -0.1330E-01  0.1068E+02  0.1088E+02
     10.176  0.1400E+01 -0.1535E-02  0.1082E+02  0.1088E+02
     10.278  0.5888E+00 -0.9595E-04  0.1088E+02  0.1088E+02
     10.380  0.7499E-02 -0.3385E-05  0.1089E+02  0.1088E+02
     10.482 -0.7254E-01 -0.6877E-07  0.1088E+02  0.1088E+02
     10.583 -0.2392E-01 -0.5123E-08  0.1088E+02  0.1087E+02
     10.685 -0.3479E-02 -0.3003E-06  0.1088E+02  0.1087E+02
     10.787 -0.2670E-03 -0.1213E-04  0.1088E+02  0.1087E+02
     10.889 -0.1148E-04 -0.2802E-03  0.1088E+02  0.1087E+02
     10.991 -0.2251E-05 -0.3613E-02  0.1087E+02  0.1087E+02
     11.093 -0.6065E-04 -0.2456E-01  0.1087E+02  0.1087E+02
     11.194 -0.1058E-02 -0.7317E-01  0.1087E+02  0.1086E+02
     11.296 -0.1007E-01  0.1227E-01  0.1087E+02  0.1087E+02
     11.398 -0.4766E-01  0.6031E+00  0.1087E+02  0.1093E+02
     11.500 -0.7132E-01  0.1408E+01  0.1086E+02  0.1107E+02
     11.602  0.2266E+00  0.1337E+01  0.1088E+02  0.1121E+02
     11.704  0.1039E+01  0.4593E+00  0.1099E+02  0.1125E+02
     11.806  0.1524E+01 -0.9281E-01  0.1115E+02  0.1124E+02
     11.907  0.9289E+00  0.1995E+00  0.1124E+02  0.1126E+02
     12.009  0.8999E-01  0.1218E+01  0.1125E+02  0.1139E+02
     12.111 -0.5092E-02  0.1949E+01  0.1125E+02  0.1159E+02
     12.213  0.7940E+00  0.1396E+01  0.1133E+02  0.1173E+02
     12.315  0.1751E+01  0.3627E+00  0.1151E+02  0.1177E+02
     12.417  0.1678E+01 -0.7450E-01  0.1168E+02  0.1176E+02
     12.518  0.7430E+00 -0.6647E-01  0.1175E+02  0.1175E+02
     12.620  0.6750E-01 -0.1590E-01  0.1176E+02  0.1175E+02
     12.722 -0.7351E-01 -0.1861E-02  0.1175E+02  0.1175E+02
     12.824 -0.3368E-01 -0.1188E-03  0.1175E+02  0.1175E+02
     12.926 -0.6646E-02 -0.4295E-05  0.1175E+02  0.1175E+02
     13.028 -0.7094E-03 -0.8959E-07  0.1175E+02  0.1175E+02
     13.129 -0.4317E-04 -0.1089E-08  0.1175E+02  0.1175E+02
     13.231 -0.1524E-05 -0.7756E-11  0.1175E+02  0.1175E+02
     13.333 -0.3144E-07 -0.3271E-13  0.1175E+02  0.1175E+02
     13.435 -0.3807E-09  0.0000E+00  0.1175E+02  0.1175E+02
     13.537 -0.2712E-11  0.0000E+00  0.1175E+02  0.1175E+02
     13.639 -0.1145E-13  0.0000E+00  0.1175E+02  0.1175E+02
     13.740  0.0000E+00  0.0000E+00  0.1175E+02  0.1175E+02
     13.842  0.0000E+00  0.0000E+00  0.1175E+02  0.1175E+02
     13.944  0.0000E+00  0.0000E+00  0.1175E+02  0.1175E+02
     14.046  0.0000E+00 -0.9495E-29  0.1175E+02  0.1175E+02
     14.148  0.0000E+00 -0.3160E-25  0.1175E+02  0.1175E+02
     14.250 -0.1650E-28 -0.6236E-22  0.1175E+02  0.1175E+02
     14.352 -0.5303E-25 -0.7288E-19  0.1175E+02  0.1175E+02
     14.453 -0.1011E-21 -0.5042E-16  0.1175E+02  0.1175E+02
     14.555 -0.1141E-18 -0.1994E-13  0.1175E+02  0.1175E+02
     14.657 -0.7626E-16 -0.4798E-11  0.1175E+02  0.1175E+02
     14.759 -0.2917E-13 -0.6766E-09  0.1175E+02  0.1175E+02
     14.861 -0.6766E-11 -0.5584E-07  0.1175E+02  0.1175E+02
     14.963 -0.9209E-09 -0.2680E-05  0.1175E+02  0.1175E+02
     15.064 -0.7334E-07 -0.7399E-04  0.1175E+02  0.1175E+02
     15.166 -0.3395E-05 -0.1152E-02  0.1175E+02  0.1175E+02
     15.268 -0.9027E-04 -0.9722E-02  0.1175E+02  0.1175E+02
     15.370 -0.1351E-02 -0.3991E-01  0.1175E+02  0.1174E+02
     15.472 -0.1087E-01 -0.4519E-01  0.1175E+02  0.1174E+02
     15.574 -0.4139E-01  0.1885E+00  0.1174E+02  0.1176E+02
     15.675 -0.3138E-01  0.7297E+00  0.1174E+02  0.1183E+02
     15.777  0.2481E+00  0.1224E+01  0.1177E+02  0.1196E+02
     15.879  0.7662E+00  0.1566E+01  0.1184E+02  0.1212E+02
     15.981  0.9648E+00  0.1587E+01  0.1194E+02  0.1228E+02
     16.083  0.9902E+00  0.9131E+00  0.1204E+02  0.1237E+02
     16.185  0.1380E+01  0.1565E+00  0.1218E+02  0.1239E+02
     16.286  0.1366E+01 -0.7926E-01  0.1232E+02  0.1238E+02
     16.388  0.5960E+00 -0.4351E-01  0.1238E+02  0.1238E+02
     16.490  0.1343E-01 -0.8557E-02  0.1239E+02  0.1238E+02
     16.592 -0.7399E-01 -0.8505E-03  0.1238E+02  0.1238E+02
     16.694 -0.2517E-01 -0.4653E-04  0.1238E+02  0.1238E+02
     16.796 -0.3740E-02 -0.6101E-05  0.1238E+02  0.1237E+02
     16.897 -0.2993E-03 -0.1179E-03  0.1238E+02  0.1237E+02
     16.999 -0.1695E-03 -0.1672E-02  0.1237E+02  0.1237E+02
     17.101 -0.2097E-02 -0.1266E-01  0.1237E+02  0.1237E+02
     17.203 -0.1486E-01 -0.4422E-01  0.1237E+02  0.1237E+02
     17.305 -0.4717E-01 -0.1776E-01  0.1237E+02  0.1237E+02
     17.407 -0.2870E-02  0.3140E+00  0.1237E+02  0.1240E+02
     17.509  0.3675E+00  0.8721E+00  0.1241E+02  0.1249E+02
     17.610  0.9163E+00  0.9393E+00  0.1250E+02  0.1258E+02
     17.712  0.9173E+00  0.4143E+00  0.1259E+02  0.1263E+02
     17.814  0.3548E+00  0.1268E+00  0.1263E+02  0.1264E+02
     17.916 -0.4013E-02  0.3385E+00  0.1263E+02  0.1267E+02
     18.018  0.1262E+00  0.4837E+00  0.1264E+02  0.1272E+02
     18.120  0.4351E+00  0.2659E+00  0.1269E+02  0.1275E+02
     18.221  0.4583E+00  0.1053E-01  0.1273E+02  0.1275E+02
     18.323  0.1744E+00 -0.2231E-01  0.1275E+02  0.1275E+02
     18.425  0.7530E-02  0.1882E+00  0.1275E+02  0.1277E+02
     18.527  0.1769E+00  0.4671E+00  0.1277E+02  0.1282E+02
     18.629  0.4619E+00  0.4485E+00  0.1282E+02  0.1286E+02
     18.731  0.4484E+00  0.1563E+00  0.1286E+02  0.1288E+02
     18.832  0.1673E+00 -0.6694E-01  0.1288E+02  0.1287E+02
     18.934 -0.3332E-01 -0.6429E-01  0.1287E+02  0.1286E+02
     19.036 -0.9908E-01  0.4033E+00  0.1286E+02  0.1290E+02
     19.138  0.3528E-01  0.1258E+01  0.1287E+02  0.1303E+02
     19.240  0.6850E+00  0.1471E+01  0.1294E+02  0.1318E+02
     19.342  0.1455E+01  0.7209E+00  0.1309E+02  0.1326E+02
     19.443  0.1287E+01  0.5616E-01  0.1322E+02  0.1326E+02
     19.545  0.4403E+00 -0.7702E-01  0.1326E+02  0.1325E+02
     19.647 -0.3439E-01 -0.3006E-01  0.1326E+02  0.1325E+02
     19.749 -0.6433E-01 -0.4861E-02  0.1325E+02  0.1325E+02
     19.851 -0.1774E-01 -0.4096E-03  0.1325E+02  0.1325E+02
     19.953 -0.2281E-02 -0.4321E-04  0.1325E+02  0.1325E+02
     20.055 -0.1679E-03 -0.5051E-03  0.1325E+02  0.1325E+02
     20.156 -0.2671E-03 -0.5919E-02  0.1325E+02  0.1325E+02
     20.258 -0.3524E-02 -0.3680E-01  0.1325E+02  0.1325E+02
     20.360 -0.2570E-01 -0.1005E+00  0.1325E+02  0.1324E+02
     20.462 -0.8858E-01  0.2877E-01  0.1324E+02  0.1324E+02
     20.564 -0.4701E-01  0.8370E+00  0.1323E+02  0.1332E+02
     20.666  0.5833E+00  0.2017E+01  0.1329E+02  0.1353E+02
     20.767  0.1797E+01  0.2175E+01  0.1348E+02  0.1375E+02
     20.869  0.2289E+01  0.1082E+01  0.1371E+02  0.1386E+02
     20.971  0.1363E+01  0.2824E+00  0.1385E+02  0.1389E+02
     21.073  0.3703E+00  0.7262E+00  0.1389E+02  0.1396E+02
     21.175  0.6004E+00  0.1452E+01  0.1395E+02  0.1411E+02
     21.277  0.1386E+01  0.1163E+01  0.1409E+02  0.1423E+02
     21.378  0.1273E+01  0.3286E+00  0.1422E+02  0.1426E+02
     21.480  0.4407E+00 -0.5712E-01  0.1426E+02  0.1426E+02
     21.582 -0.3395E-01 -0.5639E-01  0.1426E+02  0.1425E+02
     21.684 -0.6450E-01 -0.1361E-01  0.1425E+02  0.1425E+02
     21.786 -0.1784E-01 -0.1584E-02  0.1425E+02  0.1425E+02
     21.888 -0.2298E-02 -0.9974E-04  0.1425E+02  0.1425E+02
     21.989 -0.1585E-03 -0.3544E-05  0.1425E+02  0.1425E+02
     22.091 -0.6138E-05 -0.7258E-07  0.1425E+02  0.1425E+02
     22.193 -0.1367E-06 -0.1323E-07  0.1425E+02  0.1425E+02
     22.295 -0.2506E-07 -0.7576E-06  0.1425E+02  0.1425E+02
     22.397 -0.1319E-05 -0.2684E-04  0.1425E+02  0.1425E+02
     22.499 -0.4310E-04 -0.5419E-03  0.1425E+02  0.1425E+02
     22.601 -0.7999E-03 -0.6048E-02  0.1425E+02  0.1425E+02
     22.702 -0.8155E-02 -0.3473E-01  0.1425E+02  0.1425E+02
     22.804 -0.4197E-01 -0.7818E-01  0.1424E+02  0.1424E+02
     22.906 -0.7622E-01  0.9701E-01  0.1424E+02  0.1425E+02
     23.008  0.1665E+00  0.8130E+00  0.1425E+02  0.1433E+02
     23.110  0.9444E+00  0.1503E+01  0.1435E+02  0.1448E+02
     23.212  0.1528E+01  0.1181E+01  0.1451E+02  0.1460E+02
     23.313  0.1060E+01  0.3358E+00  0.1461E+02  0.1464E+02
     23.415  0.2407E+00 -0.5599E-01  0.1464E+02  0.1463E+02
     23.517 -0.6979E-01 -0.5686E-01  0.1463E+02  0.1463E+02
     23.619 -0.4893E-01 -0.1382E-01  0.1463E+02  0.1463E+02
     23.721 -0.1054E-01 -0.1618E-02  0.1463E+02  0.1463E+02
     23.823 -0.1123E-02 -0.1024E-03  0.1463E+02  0.1463E+02
     23.924 -0.6528E-04 -0.3657E-05  0.1463E+02  0.1463E+02
     24.026 -0.2148E-05 -0.7513E-07  0.1463E+02  0.1463E+02
     24.128 -0.4076E-07 -0.8977E-09  0.1463E+02  0.1463E+02
     24.230 -0.4505E-09 -0.1988E-10  0.1463E+02  0.1462E+02
     24.332 -0.5120E-10 -0.1796E-08  0.1462E+02  0.1462E+02
     24.434 -0.5581E-08 -0.1388E-06  0.1462E+02  0.1462E+02
     24.535 -0.3768E-06 -0.6226E-05  0.1462E+02  0.1462E+02
     24.637 -0.1474E-04 -0.1604E-03  0.1462E+02  0.1462E+02
     24.739 -0.3298E-03 -0.2320E-02  0.1462E+02  0.1462E+02
     24.841 -0.4108E-02 -0.1796E-01  0.1462E+02  0.1462E+02
     24.943 -0.2683E-01 -0.6469E-01  0.1462E+02  0.1462E+02
     25.045 -0.7508E-01 -0.3306E-01  0.1461E+02  0.1461E+02
     25.146  0.2973E-01  0.4459E+00  0.1462E+02  0.1466E+02
     25.248  0.6529E+00  0.1292E+01  0.1468E+02  0.1479E+02
     25.350  0.1438E+01  0.1452E+01  0.1483E+02  0.1494E+02
     25.452  0.1313E+01  0.6791E+00  0.1496E+02  0.1501E+02
     25.554  0.4691E+00  0.3396E-01  0.1501E+02  0.1501E+02
     25.656 -0.3429E-01 -0.1098E+00  0.1501E+02  0.1500E+02
     25.758 -0.1049E+00 -0.1062E+00  0.1500E+02  0.1499E+02
     25.859 -0.9659E-01  0.8436E-01  0.1499E+02  0.1500E+02
     25.961  0.1319E+00  0.7951E+00  0.1500E+02  0.1508E+02
     26.063  0.8867E+00  0.1498E+01  0.1509E+02  0.1523E+02
     26.165  0.1521E+01  0.1196E+01  0.1525E+02  0.1535E+02
     26.267  0.1114E+01  0.3493E+00  0.1536E+02  0.1539E+02
     26.369  0.2782E+00 -0.5692E-01  0.1539E+02  0.1538E+02
     26.470 -0.8435E-01 -0.8134E-01  0.1538E+02  0.1537E+02
     26.572 -0.1197E+00 -0.8633E-01  0.1537E+02  0.1537E+02
     26.674 -0.3412E-01  0.2106E-02  0.1536E+02  0.1537E+02
     26.776  0.4872E+00  0.5772E+00  0.1541E+02  0.1542E+02
     26.878  0.1329E+01  0.1393E+01  0.1555E+02  0.1557E+02
     26.980  0.1427E+01  0.1369E+01  0.1569E+02  0.1571E+02
     27.081  0.6324E+00  0.5410E+00  0.1576E+02  0.1576E+02
     27.183  0.2229E-01 -0.7616E-02  0.1576E+02  0.1576E+02
     27.285 -0.7524E-01 -0.7268E-01  0.1575E+02  0.1575E+02
     27.387 -0.3395E-01 -0.3841E-01  0.1575E+02  0.1575E+02
     27.489 -0.3918E-01 -0.5200E-01  0.1575E+02  0.1574E+02
     27.591 -0.4285E-01  0.9299E-02  0.1574E+02  0.1574E+02
     27.692  0.1913E+00  0.4061E+00  0.1576E+02  0.1579E+02
     27.794  0.7479E+00  0.9423E+00  0.1584E+02  0.1588E+02
     27.896  0.1013E+01  0.8972E+00  0.1594E+02  0.1597E+02
     27.998  0.5857E+00  0.3402E+00  0.1600E+02  0.1601E+02
     28.100  0.8659E-01 -0.1085E-01  0.1601E+02  0.1601E+02
     28.202 -0.5187E-01 -0.4572E-01  0.1600E+02  0.1600E+02
     28.304 -0.2550E-01 -0.1371E-01  0.1600E+02  0.1600E+02
     28.405 -0.4686E-02 -0.1869E-02  0.1600E+02  0.1600E+02
     28.507 -0.4392E-03 -0.1356E-03  0.1600E+02  0.1600E+02
     28.609 -0.2268E-04 -0.5511E-05  0.1600E+02  0.1600E+02
     28.711 -0.6663E-06 -0.1284E-06  0.1600E+02  0.1600E+02
     28.813 -0.1131E-07 -0.1736E-08  0.1600E+02  0.1600E+02
     28.915 -0.1120E-09 -0.1373E-10  0.1600E+02  0.1600E+02
     29.016 -0.6503E-12 -0.6377E-13  0.1600E+02  0.1600E+02
     29.118 -0.2180E-14  0.0000E+00  0.1600E+02  0.1600E+02
     29.220  0.0000E+00  0.0000E+00  0.1600E+02  0.1600E+02
     29.322  0.0000E+00  0.0000E+00  0.1600E+02  0.1600E+02
     29.424  0.0000E+00  0.0000E+00  0.1600E+02  0.1600E+02
     29.526  0.0000E+00  0.0000E+00  0.1600E+02  0.1600E+02
     29.627  0.0000E+00  0.0000E+00  0.1600E+02  0.1600E+02
     29.729  0.0000E+00  0.0000E+00  0.1600E+02  0.1600E+02
     29.831  0.0000E+00  0.0000E+00  0.1600E+02  0.1600E+02
