    2    2    1    2
  0.1090254E+02  0.2793739E-09  0.2793739E-09  0.2793739E-09  0.5000000E-15
  1.000000000000000E-004
  CAR 
 automatically generated by pyflamestk   
     20      4     16
 
  0.1250000E+00  0.1250000E+00  0.1250000E+00  0.1250000E+00
    1        1.279253      1.298548   1.000000   1.000000
    2        5.712434      5.412007   1.000000   1.000000
    3        5.712434      5.412007   1.000000   1.000000
    4        7.364520      6.788972   1.000000   1.000000
    5        7.364520      6.788972   1.000000   1.000000
    6        8.062407      7.457241   1.000000   1.000000
    7        8.536136      7.940596   1.000003   1.000000
    8        8.765269      8.307891   1.001668   1.000000
    9        8.765269      8.307891   1.001668   1.000000
   10        9.439754      8.791398  -0.019924   1.002855
   11        9.439754      8.791398  -0.019924   1.002855
   12       17.611310     17.519406   0.000000   0.000000
   13       17.611310     17.519406   0.000000   0.000000
   14       18.623413     18.521988   0.000000   0.000000
   15       27.831118     27.788324   0.000000   0.000000
   16       27.831118     27.788324   0.000000   0.000000
 
  0.3750000E+00  0.1250000E+00  0.1250000E+00  0.3750000E+00
    1        3.493810      3.477604   1.000000   1.000000
    2        5.758023      5.537122   1.000000   1.000000
    3        6.433754      6.082733   1.000000   1.000000
    4        7.132018      6.638826   1.000000   1.000000
    5        7.253324      6.702880   1.000000   1.000000
    6        7.600567      7.059514   1.000000   1.000000
    7        8.314209      7.828750   1.000000   1.000000
    8        8.484334      7.905929   1.000000   1.000000
    9        8.835553      8.224360   1.006441   1.000000
   10        9.189350      8.685734   0.738838   1.000254
   11        9.313984      8.729351   0.238960   1.000746
   12       11.750314     11.494705  -0.000000  -0.000000
   13       20.765805     20.640075   0.000000   0.000000
   14       21.261947     21.144457   0.000000   0.000000
   15       25.339038     25.262576   0.000000   0.000000
   16       26.127155     26.035625   0.000000   0.000000
 
  0.3750000E+00  0.3750000E+00  0.1250000E+00  0.3750000E+00
    1        4.779891      4.580471   1.000000   1.000000
    2        5.516007      5.177151   1.000000   1.000000
    3        6.670328      6.133209   1.000000   1.000000
    4        6.807659      6.280974   1.000000   1.000000
    5        7.369347      7.069706   1.000000   1.000000
    6        7.499813      7.178606   1.000000   1.000000
    7        8.644217      8.127301   1.000083   1.000000
    8        8.778980      8.272521   1.002223   1.000000
    9        8.962299      8.493563   1.030570   1.000001
   10        9.462462      8.864938  -0.030913   1.010319
   11       10.077823      9.533458  -0.000000  -0.030846
   12       12.285474     12.085640  -0.000000  -0.000000
   13       16.191473     15.925712   0.000000   0.000000
   14       19.326676     19.156938   0.000000   0.000000
   15       23.167296     23.080296   0.000000   0.000000
   16       26.886513     26.875564   0.000000   0.000000
 
  0.3750000E+00  0.3750000E+00  0.3750000E+00  0.1250000E+00
    1        6.166606      5.692603   1.000000   1.000000
    2        6.202120      5.938724   1.000000   1.000000
    3        6.493370      6.015926   1.000000   1.000000
    4        6.493370      6.015926   1.000000   1.000000
    5        6.731043      6.338429   1.000000   1.000000
    6        6.731043      6.338429   1.000000   1.000000
    7        8.965868      8.479517   1.031267   1.000000
    8        8.965868      8.479517   1.031267   1.000000
    9        8.983623      8.486863   1.034117   1.000001
   10        8.983623      8.486863   1.034117   1.000001
   11       12.392018     12.008649  -0.000000  -0.000000
   12       15.899114     15.702168   0.000000   0.000000
   13       15.899114     15.702168   0.000000   0.000000
   14       18.124115     17.947235   0.000000   0.000000
   15       20.862268     20.739886   0.000000   0.000000
   16       20.862268     20.739886   0.000000   0.000000
