# ['Ni']

18 atoms
1 atom types

    0.0000     2.3953 xlo xhi
    0.0000     4.1488 ylo yhi
    0.0000    35.1976 zlo zhi

    0.0000     0.0000    -0.0004 xy xz yz

Atoms

1 1     0.0000     0.0000     0.0000
2 1     1.1976     0.6915     1.9554
3 1     0.0000     1.3829     3.9108
4 1     1.1976     2.0744     0.0000
5 1     0.0000     2.7658     1.9554
6 1     1.1976     3.4573     3.9108
7 1     0.0000     0.0000     5.8663
8 1     1.1976     0.6915     7.8217
9 1     0.0000     1.3829     9.7771
10 1     1.1976     2.0744     5.8663
11 1     0.0000     2.7658     7.8217
12 1     1.1976     3.4573     9.7771
13 1     0.0000     0.0000    11.7325
14 1     1.1976     0.6915    13.6880
15 1     0.0000     1.3829    15.6434
16 1     1.1976     2.0744    11.7325
17 1     0.0000     2.7658    13.6880
18 1     1.1976     3.4573    15.6434
