# ['Ni']

107 atoms
1 atom types

    0.0000    10.7422 xlo xhi
    0.0000    10.7422 ylo yhi
    0.0000    10.7422 zlo zhi

    0.0000    -0.0000    -0.0000 xy xz yz

Atoms

1 1     1.7904     1.7904     0.0000
2 1     1.7904     0.0000     1.7904
3 1     0.0000     1.7904     1.7904
4 1     0.0000     0.0000     3.5807
5 1     1.7904     1.7904     3.5807
6 1     1.7904     0.0000     5.3711
7 1     0.0000     1.7904     5.3711
8 1     0.0000     0.0000     7.1615
9 1     1.7904     1.7904     7.1615
10 1     1.7904     0.0000     8.9518
11 1     0.0000     1.7904     8.9518
12 1     0.0000     3.5807     0.0000
13 1     1.7904     5.3711     0.0000
14 1     1.7904     3.5807     1.7904
15 1     0.0000     5.3711     1.7904
16 1     0.0000     3.5807     3.5807
17 1     1.7904     5.3711     3.5807
18 1     1.7904     3.5807     5.3711
19 1     0.0000     5.3711     5.3711
20 1     0.0000     3.5807     7.1615
21 1     1.7904     5.3711     7.1615
22 1     1.7904     3.5807     8.9518
23 1     0.0000     5.3711     8.9518
24 1     0.0000     7.1615     0.0000
25 1     1.7904     8.9518     0.0000
26 1     1.7904     7.1615     1.7904
27 1     0.0000     8.9518     1.7904
28 1     0.0000     7.1615     3.5807
29 1     1.7904     8.9518     3.5807
30 1     1.7904     7.1615     5.3711
31 1     0.0000     8.9518     5.3711
32 1     0.0000     7.1615     7.1615
33 1     1.7904     8.9518     7.1615
34 1     1.7904     7.1615     8.9518
35 1     0.0000     8.9518     8.9518
36 1     3.5807     0.0000     0.0000
37 1     5.3711     1.7904     0.0000
38 1     5.3711     0.0000     1.7904
39 1     3.5807     1.7904     1.7904
40 1     3.5807     0.0000     3.5807
41 1     5.3711     1.7904     3.5807
42 1     5.3711     0.0000     5.3711
43 1     3.5807     1.7904     5.3711
44 1     3.5807     0.0000     7.1615
45 1     5.3711     1.7904     7.1615
46 1     5.3711     0.0000     8.9518
47 1     3.5807     1.7904     8.9518
48 1     3.5807     3.5807     0.0000
49 1     5.3711     5.3711     0.0000
50 1     5.3711     3.5807     1.7904
51 1     3.5807     5.3711     1.7904
52 1     3.5807     3.5807     3.5807
53 1     5.3711     5.3711     3.5807
54 1     5.3711     3.5807     5.3711
55 1     3.5807     5.3711     5.3711
56 1     3.5807     3.5807     7.1615
57 1     5.3711     5.3711     7.1615
58 1     5.3711     3.5807     8.9518
59 1     3.5807     5.3711     8.9518
60 1     3.5807     7.1615     0.0000
61 1     5.3711     8.9518     0.0000
62 1     5.3711     7.1615     1.7904
63 1     3.5807     8.9518     1.7904
64 1     3.5807     7.1615     3.5807
65 1     5.3711     8.9518     3.5807
66 1     5.3711     7.1615     5.3711
67 1     3.5807     8.9518     5.3711
68 1     3.5807     7.1615     7.1615
69 1     5.3711     8.9518     7.1615
70 1     5.3711     7.1615     8.9518
71 1     3.5807     8.9518     8.9518
72 1     7.1615     0.0000     0.0000
73 1     8.9518     1.7904     0.0000
74 1     8.9518     0.0000     1.7904
75 1     7.1615     1.7904     1.7904
76 1     7.1615     0.0000     3.5807
77 1     8.9518     1.7904     3.5807
78 1     8.9518     0.0000     5.3711
79 1     7.1615     1.7904     5.3711
80 1     7.1615     0.0000     7.1615
81 1     8.9518     1.7904     7.1615
82 1     8.9518     0.0000     8.9518
83 1     7.1615     1.7904     8.9518
84 1     7.1615     3.5807     0.0000
85 1     8.9518     5.3711     0.0000
86 1     8.9518     3.5807     1.7904
87 1     7.1615     5.3711     1.7904
88 1     7.1615     3.5807     3.5807
89 1     8.9518     5.3711     3.5807
90 1     8.9518     3.5807     5.3711
91 1     7.1615     5.3711     5.3711
92 1     7.1615     3.5807     7.1615
93 1     8.9518     5.3711     7.1615
94 1     8.9518     3.5807     8.9518
95 1     7.1615     5.3711     8.9518
96 1     7.1615     7.1615     0.0000
97 1     8.9518     8.9518     0.0000
98 1     8.9518     7.1615     1.7904
99 1     7.1615     8.9518     1.7904
100 1     7.1615     7.1615     3.5807
101 1     8.9518     8.9518     3.5807
102 1     8.9518     7.1615     5.3711
103 1     7.1615     8.9518     5.3711
104 1     7.1615     7.1615     7.1615
105 1     8.9518     8.9518     7.1615
106 1     8.9518     7.1615     8.9518
107 1     7.1615     8.9518     8.9518
