LAMMPS (11 Aug 2017)
Reading data file ...
  triclinic box = (0 0 0) to (3.5167 3.5167 3.5167) with tilt (0 -0 0)
  1 by 1 by 1 MPI processor grid
  reading atoms ...
  4 atoms
4 atoms in group Ni
Neighbor list info ...
  update every 1 steps, delay 0 steps, check yes
  max neighbors/atom: 2000, page size: 100000
  master list distance cutoff = 11
  ghost atom cutoff = 11
  binsize = 5.5, bins = 1 1 1
  1 neighbor lists, perpetual/occasional/extra = 1 0 0
  (1) pair eam/alloy, perpetual
      attributes: half, newton on
      pair build: half/bin/newton/tri
      stencil: half/bin/3d/newton/tri
      bin: standard
Setting up cg style minimization ...
  Unit style    : metal
  Current step  : 0
WARNING: Energy due to 3 extra global DOFs will be included in minimizer energies
Per MPI rank memory allocation (min/avg/max) = 4.182 | 4.182 | 4.182 Mbytes
Step Temp PotEng Press Pxx Pyy Pzz Pxy Pxz Pyz Lx Ly Lz Volume 
       0            0   -17.895778    1994.4343    1994.4343    1994.4343    1994.4343 1.1346268e-11 1.2508837e-11 1.331208e-11       3.5167       3.5167       3.5167    43.491658 
       1            0   -17.895792    1405.7601    1405.7601    1405.7601    1405.7601 -5.3677645e-12 5.8019415e-12 1.2638596e-11    3.5170517    3.5170517    3.5170517    43.504707 
       2            0   -17.895801    828.34988    828.34988    828.34988    828.34988 -3.7819937e-12 3.4342479e-11 1.2652394e-11    3.5174033    3.5174033    3.5174033    43.517758 
       3            0   -17.895806    262.16547    262.16547    262.16547    262.16547 2.4102724e-11 3.0965784e-11 1.3382534e-11     3.517755     3.517755     3.517755    43.530812 
       4            0   -17.895806   -1.7967063   -1.7967063   -1.7967063   -1.7967063 2.6077751e-13 1.1978434e-12 -7.1742804e-12    3.5179214    3.5179214    3.5179214    43.536989 
       5            0   -17.895806   -1.5842373   -1.5842373   -1.5842373   -1.5842373 2.8344112e-11 1.4819683e-11 -9.2028973e-12    3.5179212    3.5179212    3.5179212    43.536984 
       6            0   -17.895806 -0.006649829 -0.006649829 -0.0066498289 -0.006649829 -2.8056567e-11 -1.9051676e-11 -2.5422559e-12    3.5179203    3.5179203    3.5179203    43.536947 
       7            0   -17.895806 0.00022631017 0.00022631019 0.00022631014 0.00022631017 -3.0377102e-11 3.5986458e-12 -1.6801245e-11    3.5179202    3.5179202    3.5179202    43.536947 
       8            0   -17.895806 -2.079374e-07 -2.0797045e-07 -2.0792674e-07 -2.0791502e-07 4.7300491e-12 1.5359081e-11 4.1573698e-11    3.5179202    3.5179202    3.5179202    43.536947 
Loop time of 0.00142097 on 1 procs for 8 steps with 4 atoms

89.9% CPU use with 1 MPI tasks x no OpenMP threads

Minimization stats:
  Stopping criterion = force tolerance
  Energy initial, next-to-last, final = 
        -17.8957783192     -17.8958062091     -17.8958062091
  Force two-norm initial, final = 0.0937742 9.7837e-12
  Force max component initial, final = 0.0541396 5.64935e-12
  Final line search alpha, max atom move = 1 5.64935e-12
  Iterations, force evaluations = 8 13

MPI task timing breakdown:
Section |  min time  |  avg time  |  max time  |%varavg| %total
---------------------------------------------------------------
Pair    | 0.0009222  | 0.0009222  | 0.0009222  |   0.0 | 64.90
Neigh   | 0          | 0          | 0          |   0.0 |  0.00
Comm    | 0.00011063 | 0.00011063 | 0.00011063 |   0.0 |  7.79
Output  | 6.485e-05  | 6.485e-05  | 6.485e-05  |   0.0 |  4.56
Modify  | 0          | 0          | 0          |   0.0 |  0.00
Other   |            | 0.0003233  |            |       | 22.75

Nlocal:    4 ave 4 max 4 min
Histogram: 1 0 0 0 0 0 0 0 0 0
Nghost:    1684 ave 1684 max 1684 min
Histogram: 1 0 0 0 0 0 0 0 0 0
Neighs:    1060 ave 1060 max 1060 min
Histogram: 1 0 0 0 0 0 0 0 0 0

Total # of neighbors = 1060
Ave neighs/atom = 265
Neighbor list builds = 0
Dangerous builds = 0
System init for write_restart ...
Reading restart file ...
  restart file = 11 Aug 2017, LAMMPS = 11 Aug 2017
  triclinic box = (-0.000610123 -0.000610123 -0.000610123) to (3.51731 3.51731 3.51731) with tilt (0 -0 0)
  1 by 1 by 1 MPI processor grid
  4 atoms
4 atoms in group Ni
Changing box ...
  triclinic box = (-0.000610123 -0.000610123 -0.000610123) to (3.51731 3.51731 3.51731) with tilt (0 -0 0)
Neighbor list info ...
  update every 1 steps, delay 0 steps, check yes
  max neighbors/atom: 2000, page size: 100000
  master list distance cutoff = 11
  ghost atom cutoff = 11
  binsize = 5.5, bins = 1 1 1
  1 neighbor lists, perpetual/occasional/extra = 1 0 0
  (1) pair eam/alloy, perpetual
      attributes: half, newton on
      pair build: half/bin/newton/tri
      stencil: half/bin/3d/newton/tri
      bin: standard
Setting up cg style minimization ...
  Unit style    : metal
  Current step  : 8
Per MPI rank memory allocation (min/avg/max) = 4.182 | 4.182 | 4.182 Mbytes
Step Temp PotEng Press Pxx Pyy Pzz Pxy Pxz Pyz Lx Ly Lz Volume 
       8            0   -17.895806    1.8518092    1.9169264    1.8192505    1.8192505 1.8364574e-11 -6.2469522e-11 -4.4216806e-11    3.5179167    3.5179202    3.5179202    43.536903 
       9            0   -17.895806    1.8518092    1.9169264    1.8192505    1.8192505 -2.2484234e-12 -1.7029123e-11 -4.0866902e-11    3.5179167    3.5179202    3.5179202    43.536903 
Loop time of 0.000257969 on 1 procs for 1 steps with 4 atoms

100.4% CPU use with 1 MPI tasks x no OpenMP threads

Minimization stats:
  Stopping criterion = force tolerance
  Energy initial, next-to-last, final = 
        -17.8958062091     -17.8958062091     -17.8958062091
  Force two-norm initial, final = 7.64771e-14 1.35608e-15
  Force max component initial, final = 2.3169e-14 9.57567e-16
  Final line search alpha, max atom move = 1 9.57567e-16
  Iterations, force evaluations = 1 2

MPI task timing breakdown:
Section |  min time  |  avg time  |  max time  |%varavg| %total
---------------------------------------------------------------
Pair    | 0.00021505 | 0.00021505 | 0.00021505 |   0.0 | 83.36
Neigh   | 0          | 0          | 0          |   0.0 |  0.00
Comm    | 2.4319e-05 | 2.4319e-05 | 2.4319e-05 |   0.0 |  9.43
Output  | 0          | 0          | 0          |   0.0 |  0.00
Modify  | 0          | 0          | 0          |   0.0 |  0.00
Other   |            | 1.86e-05   |            |       |  7.21

Nlocal:    4 ave 4 max 4 min
Histogram: 1 0 0 0 0 0 0 0 0 0
Nghost:    1684 ave 1684 max 1684 min
Histogram: 1 0 0 0 0 0 0 0 0 0
Neighs:    1060 ave 1060 max 1060 min
Histogram: 1 0 0 0 0 0 0 0 0 0

Total # of neighbors = 1060
Ave neighs/atom = 265
Neighbor list builds = 0
Dangerous builds = 0
Reading restart file ...
  restart file = 11 Aug 2017, LAMMPS = 11 Aug 2017
  triclinic box = (-0.000610123 -0.000610123 -0.000610123) to (3.51731 3.51731 3.51731) with tilt (0 -0 0)
  1 by 1 by 1 MPI processor grid
  4 atoms
4 atoms in group Ni
Changing box ...
  triclinic box = (-0.000610123 -0.000610123 -0.000610123) to (3.51731 3.51731 3.51731) with tilt (0 -0 0)
Neighbor list info ...
  update every 1 steps, delay 0 steps, check yes
  max neighbors/atom: 2000, page size: 100000
  master list distance cutoff = 11
  ghost atom cutoff = 11
  binsize = 5.5, bins = 1 1 1
  1 neighbor lists, perpetual/occasional/extra = 1 0 0
  (1) pair eam/alloy, perpetual
      attributes: half, newton on
      pair build: half/bin/newton/tri
      stencil: half/bin/3d/newton/tri
      bin: standard
Setting up cg style minimization ...
  Unit style    : metal
  Current step  : 8
Per MPI rank memory allocation (min/avg/max) = 4.182 | 4.182 | 4.182 Mbytes
Step Temp PotEng Press Pxx Pyy Pzz Pxy Pxz Pyz Lx Ly Lz Volume 
       8            0   -17.895806    -1.851684   -1.9168016   -1.8191252   -1.8191252 3.3037479e-12 -2.3748395e-11 -3.6812457e-12    3.5179238    3.5179202    3.5179202     43.53699 
       9            0   -17.895806    -1.851684   -1.9168016   -1.8191252   -1.8191252 4.5887769e-12 1.4942619e-11 1.1820085e-13    3.5179238    3.5179202    3.5179202     43.53699 
Loop time of 0.000251055 on 1 procs for 1 steps with 4 atoms

82.1% CPU use with 1 MPI tasks x no OpenMP threads

Minimization stats:
  Stopping criterion = force tolerance
  Energy initial, next-to-last, final = 
        -17.8958062091     -17.8958062091     -17.8958062091
  Force two-norm initial, final = 7.58798e-14 2.38804e-15
  Force max component initial, final = 2.27249e-14 1.29063e-15
  Final line search alpha, max atom move = 1 1.29063e-15
  Iterations, force evaluations = 1 2

MPI task timing breakdown:
Section |  min time  |  avg time  |  max time  |%varavg| %total
---------------------------------------------------------------
Pair    | 0.00020909 | 0.00020909 | 0.00020909 |   0.0 | 83.29
Neigh   | 0          | 0          | 0          |   0.0 |  0.00
Comm    | 2.2888e-05 | 2.2888e-05 | 2.2888e-05 |   0.0 |  9.12
Output  | 0          | 0          | 0          |   0.0 |  0.00
Modify  | 0          | 0          | 0          |   0.0 |  0.00
Other   |            | 1.907e-05  |            |       |  7.60

Nlocal:    4 ave 4 max 4 min
Histogram: 1 0 0 0 0 0 0 0 0 0
Nghost:    1684 ave 1684 max 1684 min
Histogram: 1 0 0 0 0 0 0 0 0 0
Neighs:    1060 ave 1060 max 1060 min
Histogram: 1 0 0 0 0 0 0 0 0 0

Total # of neighbors = 1060
Ave neighs/atom = 265
Neighbor list builds = 0
Dangerous builds = 0
Reading restart file ...
  restart file = 11 Aug 2017, LAMMPS = 11 Aug 2017
  triclinic box = (-0.000610123 -0.000610123 -0.000610123) to (3.51731 3.51731 3.51731) with tilt (0 -0 0)
  1 by 1 by 1 MPI processor grid
  4 atoms
4 atoms in group Ni
Changing box ...
  triclinic box = (-0.000610123 -0.000610123 -0.000610123) to (3.51731 3.51731 3.51731) with tilt (0 -0 0)
Neighbor list info ...
  update every 1 steps, delay 0 steps, check yes
  max neighbors/atom: 2000, page size: 100000
  master list distance cutoff = 11
  ghost atom cutoff = 11
  binsize = 5.5, bins = 1 1 1
  1 neighbor lists, perpetual/occasional/extra = 1 0 0
  (1) pair eam/alloy, perpetual
      attributes: half, newton on
      pair build: half/bin/newton/tri
      stencil: half/bin/3d/newton/tri
      bin: standard
Setting up cg style minimization ...
  Unit style    : metal
  Current step  : 8
Per MPI rank memory allocation (min/avg/max) = 4.182 | 4.182 | 4.182 Mbytes
Step Temp PotEng Press Pxx Pyy Pzz Pxy Pxz Pyz Lx Ly Lz Volume 
       8            0   -17.895806    1.8518092    1.8192505    1.9169264    1.8192505 -1.3060425e-11 -2.6203609e-11 -3.4541773e-11    3.5179202    3.5179167    3.5179202    43.536903 
       9            0   -17.895806    1.8518092    1.8192505    1.9169264    1.8192505 2.2385577e-12 1.6245105e-11 -1.4207633e-11    3.5179202    3.5179167    3.5179202    43.536903 
Loop time of 0.000251055 on 1 procs for 1 steps with 4 atoms

82.9% CPU use with 1 MPI tasks x no OpenMP threads

Minimization stats:
  Stopping criterion = force tolerance
  Energy initial, next-to-last, final = 
        -17.8958062091     -17.8958062091     -17.8958062091
  Force two-norm initial, final = 7.58258e-14 8.70515e-16
  Force max component initial, final = 2.30024e-14 4.3715e-16
  Final line search alpha, max atom move = 1 4.3715e-16
  Iterations, force evaluations = 1 2

MPI task timing breakdown:
Section |  min time  |  avg time  |  max time  |%varavg| %total
---------------------------------------------------------------
Pair    | 0.0002079  | 0.0002079  | 0.0002079  |   0.0 | 82.81
Neigh   | 0          | 0          | 0          |   0.0 |  0.00
Comm    | 2.4319e-05 | 2.4319e-05 | 2.4319e-05 |   0.0 |  9.69
Output  | 0          | 0          | 0          |   0.0 |  0.00
Modify  | 0          | 0          | 0          |   0.0 |  0.00
Other   |            | 1.884e-05  |            |       |  7.50

Nlocal:    4 ave 4 max 4 min
Histogram: 1 0 0 0 0 0 0 0 0 0
Nghost:    1684 ave 1684 max 1684 min
Histogram: 1 0 0 0 0 0 0 0 0 0
Neighs:    1060 ave 1060 max 1060 min
Histogram: 1 0 0 0 0 0 0 0 0 0

Total # of neighbors = 1060
Ave neighs/atom = 265
Neighbor list builds = 0
Dangerous builds = 0
Reading restart file ...
  restart file = 11 Aug 2017, LAMMPS = 11 Aug 2017
  triclinic box = (-0.000610123 -0.000610123 -0.000610123) to (3.51731 3.51731 3.51731) with tilt (0 -0 0)
  1 by 1 by 1 MPI processor grid
  4 atoms
4 atoms in group Ni
Changing box ...
  triclinic box = (-0.000610123 -0.000610123 -0.000610123) to (3.51731 3.51731 3.51731) with tilt (0 -0 0)
Neighbor list info ...
  update every 1 steps, delay 0 steps, check yes
  max neighbors/atom: 2000, page size: 100000
  master list distance cutoff = 11
  ghost atom cutoff = 11
  binsize = 5.5, bins = 1 1 1
  1 neighbor lists, perpetual/occasional/extra = 1 0 0
  (1) pair eam/alloy, perpetual
      attributes: half, newton on
      pair build: half/bin/newton/tri
      stencil: half/bin/3d/newton/tri
      bin: standard
Setting up cg style minimization ...
  Unit style    : metal
  Current step  : 8
Per MPI rank memory allocation (min/avg/max) = 4.182 | 4.182 | 4.182 Mbytes
Step Temp PotEng Press Pxx Pyy Pzz Pxy Pxz Pyz Lx Ly Lz Volume 
       8            0   -17.895806    -1.851684   -1.8191252   -1.9168016   -1.8191252 2.5889944e-12 -2.0192645e-11 -4.1633755e-11    3.5179202    3.5179238    3.5179202     43.53699 
       9            0   -17.895806    -1.851684   -1.8191252   -1.9168016   -1.8191252 3.3914635e-12 3.4435847e-11 2.1355826e-11    3.5179202    3.5179238    3.5179202     43.53699 
Loop time of 0.00224996 on 1 procs for 1 steps with 4 atoms

13.1% CPU use with 1 MPI tasks x no OpenMP threads

Minimization stats:
  Stopping criterion = force tolerance
  Energy initial, next-to-last, final = 
        -17.8958062091     -17.8958062091     -17.8958062091
  Force two-norm initial, final = 7.62958e-14 1.95418e-15
  Force max component initial, final = 2.31551e-14 1.1241e-15
  Final line search alpha, max atom move = 1 1.1241e-15
  Iterations, force evaluations = 1 2

MPI task timing breakdown:
Section |  min time  |  avg time  |  max time  |%varavg| %total
---------------------------------------------------------------
Pair    | 0.002192   | 0.002192   | 0.002192   |   0.0 | 97.43
Neigh   | 0          | 0          | 0          |   0.0 |  0.00
Comm    | 2.5034e-05 | 2.5034e-05 | 2.5034e-05 |   0.0 |  1.11
Output  | 0          | 0          | 0          |   0.0 |  0.00
Modify  | 0          | 0          | 0          |   0.0 |  0.00
Other   |            | 3.29e-05   |            |       |  1.46

Nlocal:    4 ave 4 max 4 min
Histogram: 1 0 0 0 0 0 0 0 0 0
Nghost:    1684 ave 1684 max 1684 min
Histogram: 1 0 0 0 0 0 0 0 0 0
Neighs:    1060 ave 1060 max 1060 min
Histogram: 1 0 0 0 0 0 0 0 0 0

Total # of neighbors = 1060
Ave neighs/atom = 265
Neighbor list builds = 0
Dangerous builds = 0
Reading restart file ...
  restart file = 11 Aug 2017, LAMMPS = 11 Aug 2017
  triclinic box = (-0.000610123 -0.000610123 -0.000610123) to (3.51731 3.51731 3.51731) with tilt (0 -0 0)
  1 by 1 by 1 MPI processor grid
  4 atoms
4 atoms in group Ni
Changing box ...
  triclinic box = (-0.000610123 -0.000610123 -0.000610123) to (3.51731 3.51731 3.51731) with tilt (0 -0 0)
Neighbor list info ...
  update every 1 steps, delay 0 steps, check yes
  max neighbors/atom: 2000, page size: 100000
  master list distance cutoff = 11
  ghost atom cutoff = 11
  binsize = 5.5, bins = 1 1 1
  1 neighbor lists, perpetual/occasional/extra = 1 0 0
  (1) pair eam/alloy, perpetual
      attributes: half, newton on
      pair build: half/bin/newton/tri
      stencil: half/bin/3d/newton/tri
      bin: standard
Setting up cg style minimization ...
  Unit style    : metal
  Current step  : 8
Per MPI rank memory allocation (min/avg/max) = 4.182 | 4.182 | 4.182 Mbytes
Step Temp PotEng Press Pxx Pyy Pzz Pxy Pxz Pyz Lx Ly Lz Volume 
       8            0   -17.895806    1.8518092    1.8192505    1.8192505    1.9169264 -1.6887247e-11 1.7769687e-11 -3.6535107e-12    3.5179202    3.5179202    3.5179167    43.536903 
       9            0   -17.895806    1.8518092    1.8192505    1.8192505    1.9169264 1.1590205e-11 4.5707224e-11 5.1091421e-12    3.5179202    3.5179202    3.5179167    43.536903 
Loop time of 0.000267982 on 1 procs for 1 steps with 4 atoms

100.4% CPU use with 1 MPI tasks x no OpenMP threads

Minimization stats:
  Stopping criterion = force tolerance
  Energy initial, next-to-last, final = 
        -17.8958062091     -17.8958062091     -17.8958062091
  Force two-norm initial, final = 7.71726e-14 2.32228e-15
  Force max component initial, final = 2.40155e-14 1.34268e-15
  Final line search alpha, max atom move = 1 1.34268e-15
  Iterations, force evaluations = 1 2

MPI task timing breakdown:
Section |  min time  |  avg time  |  max time  |%varavg| %total
---------------------------------------------------------------
Pair    | 0.00022292 | 0.00022292 | 0.00022292 |   0.0 | 83.19
Neigh   | 0          | 0          | 0          |   0.0 |  0.00
Comm    | 2.6226e-05 | 2.6226e-05 | 2.6226e-05 |   0.0 |  9.79
Output  | 0          | 0          | 0          |   0.0 |  0.00
Modify  | 0          | 0          | 0          |   0.0 |  0.00
Other   |            | 1.884e-05  |            |       |  7.03

Nlocal:    4 ave 4 max 4 min
Histogram: 1 0 0 0 0 0 0 0 0 0
Nghost:    1684 ave 1684 max 1684 min
Histogram: 1 0 0 0 0 0 0 0 0 0
Neighs:    1060 ave 1060 max 1060 min
Histogram: 1 0 0 0 0 0 0 0 0 0

Total # of neighbors = 1060
Ave neighs/atom = 265
Neighbor list builds = 0
Dangerous builds = 0
Reading restart file ...
  restart file = 11 Aug 2017, LAMMPS = 11 Aug 2017
  triclinic box = (-0.000610123 -0.000610123 -0.000610123) to (3.51731 3.51731 3.51731) with tilt (0 -0 0)
  1 by 1 by 1 MPI processor grid
  4 atoms
4 atoms in group Ni
Changing box ...
  triclinic box = (-0.000610123 -0.000610123 -0.000610123) to (3.51731 3.51731 3.51731) with tilt (0 -0 0)
Neighbor list info ...
  update every 1 steps, delay 0 steps, check yes
  max neighbors/atom: 2000, page size: 100000
  master list distance cutoff = 11
  ghost atom cutoff = 11
  binsize = 5.5, bins = 1 1 1
  1 neighbor lists, perpetual/occasional/extra = 1 0 0
  (1) pair eam/alloy, perpetual
      attributes: half, newton on
      pair build: half/bin/newton/tri
      stencil: half/bin/3d/newton/tri
      bin: standard
Setting up cg style minimization ...
  Unit style    : metal
  Current step  : 8
Per MPI rank memory allocation (min/avg/max) = 4.182 | 4.182 | 4.182 Mbytes
Step Temp PotEng Press Pxx Pyy Pzz Pxy Pxz Pyz Lx Ly Lz Volume 
       8            0   -17.895806    -1.851684   -1.8191252   -1.8191252   -1.9168016 -5.2757103e-14 -3.4220766e-11 -6.7410828e-11    3.5179202    3.5179202    3.5179238     43.53699 
       9            0   -17.895806    -1.851684   -1.8191252   -1.8191252   -1.9168016 -1.0213089e-11 1.4839007e-11 2.7248537e-11    3.5179202    3.5179202    3.5179238     43.53699 
Loop time of 0.00026989 on 1 procs for 1 steps with 4 atoms

100.4% CPU use with 1 MPI tasks x no OpenMP threads

Minimization stats:
  Stopping criterion = force tolerance
  Energy initial, next-to-last, final = 
        -17.8958062091     -17.8958062091     -17.8958062091
  Force two-norm initial, final = 7.64417e-14 2.00613e-15
  Force max component initial, final = 2.42584e-14 9.19403e-16
  Final line search alpha, max atom move = 1 9.19403e-16
  Iterations, force evaluations = 1 2

MPI task timing breakdown:
Section |  min time  |  avg time  |  max time  |%varavg| %total
---------------------------------------------------------------
Pair    | 0.00022388 | 0.00022388 | 0.00022388 |   0.0 | 82.95
Neigh   | 0          | 0          | 0          |   0.0 |  0.00
Comm    | 2.4796e-05 | 2.4796e-05 | 2.4796e-05 |   0.0 |  9.19
Output  | 0          | 0          | 0          |   0.0 |  0.00
Modify  | 0          | 0          | 0          |   0.0 |  0.00
Other   |            | 2.122e-05  |            |       |  7.86

Nlocal:    4 ave 4 max 4 min
Histogram: 1 0 0 0 0 0 0 0 0 0
Nghost:    1684 ave 1684 max 1684 min
Histogram: 1 0 0 0 0 0 0 0 0 0
Neighs:    1060 ave 1060 max 1060 min
Histogram: 1 0 0 0 0 0 0 0 0 0

Total # of neighbors = 1060
Ave neighs/atom = 265
Neighbor list builds = 0
Dangerous builds = 0
Reading restart file ...
  restart file = 11 Aug 2017, LAMMPS = 11 Aug 2017
  triclinic box = (-0.000610123 -0.000610123 -0.000610123) to (3.51731 3.51731 3.51731) with tilt (0 -0 0)
  1 by 1 by 1 MPI processor grid
  4 atoms
4 atoms in group Ni
Changing box ...
  triclinic box = (-0.000610123 -0.000610123 -0.000610123) to (3.51731 3.51731 3.51731) with tilt (0 -0 -3.51792e-06)
Neighbor list info ...
  update every 1 steps, delay 0 steps, check yes
  max neighbors/atom: 2000, page size: 100000
  master list distance cutoff = 11
  ghost atom cutoff = 11
  binsize = 5.5, bins = 1 1 1
  1 neighbor lists, perpetual/occasional/extra = 1 0 0
  (1) pair eam/alloy, perpetual
      attributes: half, newton on
      pair build: half/bin/newton/tri
      stencil: half/bin/3d/newton/tri
      bin: standard
Setting up cg style minimization ...
  Unit style    : metal
  Current step  : 8
Per MPI rank memory allocation (min/avg/max) = 4.182 | 4.182 | 4.182 Mbytes
Step Temp PotEng Press Pxx Pyy Pzz Pxy Pxz Pyz Lx Ly Lz Volume 
       8            0   -17.895806 2.1240406e-07 -2.0870689e-07 1.8802193e-07 6.5789715e-07 -9.4473804e-12 1.5919725e-12   0.25936423    3.5179202    3.5179202    3.5179202    43.536947 
       9            0   -17.895806 2.1244476e-07 -2.0865456e-07 1.8814171e-07 6.5784714e-07 1.5391483e-11 -5.1767783e-12   0.25936423    3.5179202    3.5179202    3.5179202    43.536947 
Loop time of 0.000259876 on 1 procs for 1 steps with 4 atoms

95.0% CPU use with 1 MPI tasks x no OpenMP threads

Minimization stats:
  Stopping criterion = force tolerance
  Energy initial, next-to-last, final = 
        -17.8958062091     -17.8958062091     -17.8958062091
  Force two-norm initial, final = 7.61182e-14 7.73436e-16
  Force max component initial, final = 2.27665e-14 4.23273e-16
  Final line search alpha, max atom move = 1 4.23273e-16
  Iterations, force evaluations = 1 2

MPI task timing breakdown:
Section |  min time  |  avg time  |  max time  |%varavg| %total
---------------------------------------------------------------
Pair    | 0.00021482 | 0.00021482 | 0.00021482 |   0.0 | 82.66
Neigh   | 0          | 0          | 0          |   0.0 |  0.00
Comm    | 2.5988e-05 | 2.5988e-05 | 2.5988e-05 |   0.0 | 10.00
Output  | 0          | 0          | 0          |   0.0 |  0.00
Modify  | 0          | 0          | 0          |   0.0 |  0.00
Other   |            | 1.907e-05  |            |       |  7.34

Nlocal:    4 ave 4 max 4 min
Histogram: 1 0 0 0 0 0 0 0 0 0
Nghost:    1684 ave 1684 max 1684 min
Histogram: 1 0 0 0 0 0 0 0 0 0
Neighs:    1060 ave 1060 max 1060 min
Histogram: 1 0 0 0 0 0 0 0 0 0

Total # of neighbors = 1060
Ave neighs/atom = 265
Neighbor list builds = 0
Dangerous builds = 0
Reading restart file ...
  restart file = 11 Aug 2017, LAMMPS = 11 Aug 2017
  triclinic box = (-0.000610123 -0.000610123 -0.000610123) to (3.51731 3.51731 3.51731) with tilt (0 -0 0)
  1 by 1 by 1 MPI processor grid
  4 atoms
4 atoms in group Ni
Changing box ...
  triclinic box = (-0.000610123 -0.000610123 -0.000610123) to (3.51731 3.51731 3.51731) with tilt (0 -0 3.51792e-06)
Neighbor list info ...
  update every 1 steps, delay 0 steps, check yes
  max neighbors/atom: 2000, page size: 100000
  master list distance cutoff = 11
  ghost atom cutoff = 11
  binsize = 5.5, bins = 1 1 1
  1 neighbor lists, perpetual/occasional/extra = 1 0 0
  (1) pair eam/alloy, perpetual
      attributes: half, newton on
      pair build: half/bin/newton/tri
      stencil: half/bin/3d/newton/tri
      bin: standard
Setting up cg style minimization ...
  Unit style    : metal
  Current step  : 8
Per MPI rank memory allocation (min/avg/max) = 4.182 | 4.182 | 4.182 Mbytes
Step Temp PotEng Press Pxx Pyy Pzz Pxy Pxz Pyz Lx Ly Lz Volume 
       8            0   -17.895806 2.1271906e-07 -2.0837908e-07 1.8835251e-07 6.5818375e-07 5.3978285e-12 -1.7642304e-11  -0.25936423    3.5179202    3.5179202    3.5179202    43.536947 
       9            0   -17.895806 2.1281885e-07 -2.0827968e-07 1.8845628e-07 6.5827994e-07 -5.0287466e-12 -2.5428731e-11  -0.25936423    3.5179202    3.5179202    3.5179202    43.536947 
Loop time of 0.00177383 on 1 procs for 1 steps with 4 atoms

16.5% CPU use with 1 MPI tasks x no OpenMP threads

Minimization stats:
  Stopping criterion = force tolerance
  Energy initial, next-to-last, final = 
        -17.8958062091     -17.8958062091     -17.8958062091
  Force two-norm initial, final = 7.78284e-14 1.56044e-15
  Force max component initial, final = 2.32566e-14 1.14492e-15
  Final line search alpha, max atom move = 1 1.14492e-15
  Iterations, force evaluations = 1 2

MPI task timing breakdown:
Section |  min time  |  avg time  |  max time  |%varavg| %total
---------------------------------------------------------------
Pair    | 0.00172    | 0.00172    | 0.00172    |   0.0 | 96.96
Neigh   | 0          | 0          | 0          |   0.0 |  0.00
Comm    | 2.5272e-05 | 2.5272e-05 | 2.5272e-05 |   0.0 |  1.42
Output  | 0          | 0          | 0          |   0.0 |  0.00
Modify  | 0          | 0          | 0          |   0.0 |  0.00
Other   |            | 2.861e-05  |            |       |  1.61

Nlocal:    4 ave 4 max 4 min
Histogram: 1 0 0 0 0 0 0 0 0 0
Nghost:    1684 ave 1684 max 1684 min
Histogram: 1 0 0 0 0 0 0 0 0 0
Neighs:    1060 ave 1060 max 1060 min
Histogram: 1 0 0 0 0 0 0 0 0 0

Total # of neighbors = 1060
Ave neighs/atom = 265
Neighbor list builds = 0
Dangerous builds = 0
Reading restart file ...
  restart file = 11 Aug 2017, LAMMPS = 11 Aug 2017
  triclinic box = (-0.000610123 -0.000610123 -0.000610123) to (3.51731 3.51731 3.51731) with tilt (0 -0 0)
  1 by 1 by 1 MPI processor grid
  4 atoms
4 atoms in group Ni
Changing box ...
  triclinic box = (-0.000610123 -0.000610123 -0.000610123) to (3.51731 3.51731 3.51731) with tilt (0 -3.51792e-06 0)
Neighbor list info ...
  update every 1 steps, delay 0 steps, check yes
  max neighbors/atom: 2000, page size: 100000
  master list distance cutoff = 11
  ghost atom cutoff = 11
  binsize = 5.5, bins = 1 1 1
  1 neighbor lists, perpetual/occasional/extra = 1 0 0
  (1) pair eam/alloy, perpetual
      attributes: half, newton on
      pair build: half/bin/newton/tri
      stencil: half/bin/3d/newton/tri
      bin: standard
Setting up cg style minimization ...
  Unit style    : metal
  Current step  : 8
Per MPI rank memory allocation (min/avg/max) = 4.182 | 4.182 | 4.182 Mbytes
Step Temp PotEng Press Pxx Pyy Pzz Pxy Pxz Pyz Lx Ly Lz Volume 
       8            0   -17.895806 2.1263872e-07 1.8817606e-07 -2.0840667e-07 6.5814678e-07 -8.8067667e-12   0.25936423 -2.8656752e-11    3.5179202    3.5179202    3.5179202    43.536947 
       9            0   -17.895806 2.1263667e-07 1.8820413e-07 -2.0837719e-07 6.5808307e-07 -2.4619668e-11   0.25936423 -4.4841805e-11    3.5179202    3.5179202    3.5179202    43.536947 
Loop time of 0.000855923 on 1 procs for 1 steps with 4 atoms

33.9% CPU use with 1 MPI tasks x no OpenMP threads

Minimization stats:
  Stopping criterion = force tolerance
  Energy initial, next-to-last, final = 
        -17.8958062091     -17.8958062091     -17.8958062091
  Force two-norm initial, final = 7.54248e-14 1.5697e-15
  Force max component initial, final = 2.35992e-14 7.07767e-16
  Final line search alpha, max atom move = 1 7.07767e-16
  Iterations, force evaluations = 1 2

MPI task timing breakdown:
Section |  min time  |  avg time  |  max time  |%varavg| %total
---------------------------------------------------------------
Pair    | 0.00080609 | 0.00080609 | 0.00080609 |   0.0 | 94.18
Neigh   | 0          | 0          | 0          |   0.0 |  0.00
Comm    | 2.5988e-05 | 2.5988e-05 | 2.5988e-05 |   0.0 |  3.04
Output  | 0          | 0          | 0          |   0.0 |  0.00
Modify  | 0          | 0          | 0          |   0.0 |  0.00
Other   |            | 2.384e-05  |            |       |  2.79

Nlocal:    4 ave 4 max 4 min
Histogram: 1 0 0 0 0 0 0 0 0 0
Nghost:    1684 ave 1684 max 1684 min
Histogram: 1 0 0 0 0 0 0 0 0 0
Neighs:    1060 ave 1060 max 1060 min
Histogram: 1 0 0 0 0 0 0 0 0 0

Total # of neighbors = 1060
Ave neighs/atom = 265
Neighbor list builds = 0
Dangerous builds = 0
Reading restart file ...
  restart file = 11 Aug 2017, LAMMPS = 11 Aug 2017
  triclinic box = (-0.000610123 -0.000610123 -0.000610123) to (3.51731 3.51731 3.51731) with tilt (0 -0 0)
  1 by 1 by 1 MPI processor grid
  4 atoms
4 atoms in group Ni
Changing box ...
  triclinic box = (-0.000610123 -0.000610123 -0.000610123) to (3.51731 3.51731 3.51731) with tilt (0 3.51792e-06 0)
Neighbor list info ...
  update every 1 steps, delay 0 steps, check yes
  max neighbors/atom: 2000, page size: 100000
  master list distance cutoff = 11
  ghost atom cutoff = 11
  binsize = 5.5, bins = 1 1 1
  1 neighbor lists, perpetual/occasional/extra = 1 0 0
  (1) pair eam/alloy, perpetual
      attributes: half, newton on
      pair build: half/bin/newton/tri
      stencil: half/bin/3d/newton/tri
      bin: standard
Setting up cg style minimization ...
  Unit style    : metal
  Current step  : 8
Per MPI rank memory allocation (min/avg/max) = 4.182 | 4.182 | 4.182 Mbytes
Step Temp PotEng Press Pxx Pyy Pzz Pxy Pxz Pyz Lx Ly Lz Volume 
       8            0   -17.895806 2.1283682e-07 1.883977e-07 -2.0821277e-07 6.5832553e-07 -1.187887e-11  -0.25936423 -3.4530454e-11    3.5179202    3.5179202    3.5179202    43.536947 
       9            0   -17.895806 2.1255275e-07 1.881073e-07 -2.0843221e-07 6.5798316e-07 -4.9674174e-12  -0.25936423 -3.8372173e-11    3.5179202    3.5179202    3.5179202    43.536947 
Loop time of 0.000257969 on 1 procs for 1 steps with 4 atoms

90.7% CPU use with 1 MPI tasks x no OpenMP threads

Minimization stats:
  Stopping criterion = force tolerance
  Energy initial, next-to-last, final = 
        -17.8958062091     -17.8958062091     -17.8958062091
  Force two-norm initial, final = 7.98399e-14 1.51323e-15
  Force max component initial, final = 2.51466e-14 9.50628e-16
  Final line search alpha, max atom move = 1 9.50628e-16
  Iterations, force evaluations = 1 2

MPI task timing breakdown:
Section |  min time  |  avg time  |  max time  |%varavg| %total
---------------------------------------------------------------
Pair    | 0.00021601 | 0.00021601 | 0.00021601 |   0.0 | 83.73
Neigh   | 0          | 0          | 0          |   0.0 |  0.00
Comm    | 2.5988e-05 | 2.5988e-05 | 2.5988e-05 |   0.0 | 10.07
Output  | 0          | 0          | 0          |   0.0 |  0.00
Modify  | 0          | 0          | 0          |   0.0 |  0.00
Other   |            | 1.597e-05  |            |       |  6.19

Nlocal:    4 ave 4 max 4 min
Histogram: 1 0 0 0 0 0 0 0 0 0
Nghost:    1684 ave 1684 max 1684 min
Histogram: 1 0 0 0 0 0 0 0 0 0
Neighs:    1060 ave 1060 max 1060 min
Histogram: 1 0 0 0 0 0 0 0 0 0

Total # of neighbors = 1060
Ave neighs/atom = 265
Neighbor list builds = 0
Dangerous builds = 0
Reading restart file ...
  restart file = 11 Aug 2017, LAMMPS = 11 Aug 2017
  triclinic box = (-0.000610123 -0.000610123 -0.000610123) to (3.51731 3.51731 3.51731) with tilt (0 -0 0)
  1 by 1 by 1 MPI processor grid
  4 atoms
4 atoms in group Ni
Changing box ...
  triclinic box = (-0.000610123 -0.000610123 -0.000610123) to (3.51731 3.51731 3.51731) with tilt (-3.51792e-06 -0 0)
Neighbor list info ...
  update every 1 steps, delay 0 steps, check yes
  max neighbors/atom: 2000, page size: 100000
  master list distance cutoff = 11
  ghost atom cutoff = 11
  binsize = 5.5, bins = 1 1 1
  1 neighbor lists, perpetual/occasional/extra = 1 0 0
  (1) pair eam/alloy, perpetual
      attributes: half, newton on
      pair build: half/bin/newton/tri
      stencil: half/bin/3d/newton/tri
      bin: standard
Setting up cg style minimization ...
  Unit style    : metal
  Current step  : 8
Per MPI rank memory allocation (min/avg/max) = 4.182 | 4.182 | 4.182 Mbytes
Step Temp PotEng Press Pxx Pyy Pzz Pxy Pxz Pyz Lx Ly Lz Volume 
       8            0   -17.895806 2.1279613e-07 1.8830966e-07 6.5831421e-07 -2.0823547e-07   0.25936423 1.3031906e-11 -4.2094755e-12    3.5179202    3.5179202    3.5179202    43.536947 
       9            0   -17.895806 2.1253235e-07 1.8810589e-07 6.5805696e-07 -2.0856579e-07   0.25936423 1.1989044e-11 -2.6429387e-12    3.5179202    3.5179202    3.5179202    43.536947 
Loop time of 0.000267029 on 1 procs for 1 steps with 4 atoms

100.4% CPU use with 1 MPI tasks x no OpenMP threads

Minimization stats:
  Stopping criterion = force tolerance
  Energy initial, next-to-last, final = 
        -17.8958062091     -17.8958062091     -17.8958062091
  Force two-norm initial, final = 7.55297e-14 2.4436e-15
  Force max component initial, final = 2.28116e-14 1.12497e-15
  Final line search alpha, max atom move = 1 1.12497e-15
  Iterations, force evaluations = 1 2

MPI task timing breakdown:
Section |  min time  |  avg time  |  max time  |%varavg| %total
---------------------------------------------------------------
Pair    | 0.00022316 | 0.00022316 | 0.00022316 |   0.0 | 83.57
Neigh   | 0          | 0          | 0          |   0.0 |  0.00
Comm    | 2.6226e-05 | 2.6226e-05 | 2.6226e-05 |   0.0 |  9.82
Output  | 0          | 0          | 0          |   0.0 |  0.00
Modify  | 0          | 0          | 0          |   0.0 |  0.00
Other   |            | 1.764e-05  |            |       |  6.61

Nlocal:    4 ave 4 max 4 min
Histogram: 1 0 0 0 0 0 0 0 0 0
Nghost:    1684 ave 1684 max 1684 min
Histogram: 1 0 0 0 0 0 0 0 0 0
Neighs:    1060 ave 1060 max 1060 min
Histogram: 1 0 0 0 0 0 0 0 0 0

Total # of neighbors = 1060
Ave neighs/atom = 265
Neighbor list builds = 0
Dangerous builds = 0
Reading restart file ...
  restart file = 11 Aug 2017, LAMMPS = 11 Aug 2017
  triclinic box = (-0.000610123 -0.000610123 -0.000610123) to (3.51731 3.51731 3.51731) with tilt (0 -0 0)
  1 by 1 by 1 MPI processor grid
  4 atoms
4 atoms in group Ni
Changing box ...
  triclinic box = (-0.000610123 -0.000610123 -0.000610123) to (3.51731 3.51731 3.51731) with tilt (3.51792e-06 -0 0)
Neighbor list info ...
  update every 1 steps, delay 0 steps, check yes
  max neighbors/atom: 2000, page size: 100000
  master list distance cutoff = 11
  ghost atom cutoff = 11
  binsize = 5.5, bins = 1 1 1
  1 neighbor lists, perpetual/occasional/extra = 1 0 0
  (1) pair eam/alloy, perpetual
      attributes: half, newton on
      pair build: half/bin/newton/tri
      stencil: half/bin/3d/newton/tri
      bin: standard
Setting up cg style minimization ...
  Unit style    : metal
  Current step  : 8
Per MPI rank memory allocation (min/avg/max) = 4.182 | 4.182 | 4.182 Mbytes
Step Temp PotEng Press Pxx Pyy Pzz Pxy Pxz Pyz Lx Ly Lz Volume 
       8            0   -17.895806 2.126747e-07 1.8820072e-07 6.5818335e-07 -2.0835998e-07  -0.25936423 -2.5345628e-11 -2.0200271e-11    3.5179202    3.5179202    3.5179202    43.536947 
       9            0   -17.895806 2.1263087e-07 1.8817318e-07 6.581778e-07 -2.0845836e-07  -0.25936423 -4.0867235e-12 -5.8992007e-12    3.5179202    3.5179202    3.5179202    43.536947 
Loop time of 0.000257969 on 1 procs for 1 steps with 4 atoms

91.5% CPU use with 1 MPI tasks x no OpenMP threads

Minimization stats:
  Stopping criterion = force tolerance
  Energy initial, next-to-last, final = 
        -17.8958062091     -17.8958062091     -17.8958062091
  Force two-norm initial, final = 7.90043e-14 2.20447e-15
  Force max component initial, final = 2.51882e-14 1.23512e-15
  Final line search alpha, max atom move = 1 1.23512e-15
  Iterations, force evaluations = 1 2

MPI task timing breakdown:
Section |  min time  |  avg time  |  max time  |%varavg| %total
---------------------------------------------------------------
Pair    | 0.0002172  | 0.0002172  | 0.0002172  |   0.0 | 84.20
Neigh   | 0          | 0          | 0          |   0.0 |  0.00
Comm    | 2.6941e-05 | 2.6941e-05 | 2.6941e-05 |   0.0 | 10.44
Output  | 0          | 0          | 0          |   0.0 |  0.00
Modify  | 0          | 0          | 0          |   0.0 |  0.00
Other   |            | 1.383e-05  |            |       |  5.36

Nlocal:    4 ave 4 max 4 min
Histogram: 1 0 0 0 0 0 0 0 0 0
Nghost:    1684 ave 1684 max 1684 min
Histogram: 1 0 0 0 0 0 0 0 0 0
Neighs:    1060 ave 1060 max 1060 min
Histogram: 1 0 0 0 0 0 0 0 0 0

Total # of neighbors = 1060
Ave neighs/atom = 265
Neighbor list builds = 0
Dangerous builds = 0
c11 = 191.686401701238 GPa
c22 = 191.68640169164 GPa
c33 = 191.686401702344 GPa
c12 = 181.918785418637 GPa
c13 = 181.918785418351 GPa
c23 = 181.918785415693 GPa
c44 = 25.9364233267077 GPa
c55 = 25.9364233265482 GPa
c66 = 25.9364233272785 GPa
c14 = -1.0396664637032e-08 GPa
c15 = 1.62150436346543e-09 GPa
c16 = -1.85319165164734e-09 GPa
c24 = -8.7531564848179e-09 GPa
c25 = 9.20697788944565e-10 GPa
c26 = -3.04983217114981e-09 GPa
c34 = -1.13735301161049e-08 GPa
c35 = 3.26936164782206e-09 GPa
c36 = -2.14057946051546e-09 GPa
c45 = 3.44557994272867e-10 GPa
c46 = 5.9191229365797e-10 GPa
c56 = -8.94120786811861e-11 GPa
lammps_sim_done
Total wall time: 0:00:00
