# ['Ni']

28 atoms
1 atom types

    0.0000     2.3718 xlo xhi
    0.0000     4.1081 ylo yhi
    0.0000    27.1120 zlo zhi

    0.0000     0.0000     0.0000 xy xz yz

Atoms

1 1     0.0000     0.0000     0.0000
2 1     1.1859     2.0540     0.0000
3 1     1.1859     0.6847     1.9366
4 1     0.0000     2.7387     1.9366
5 1     0.0000     1.3694     3.8731
6 1     1.1859     3.4234     3.8731
7 1     0.0000     0.0000     5.8097
8 1     1.1859     2.0540     5.8097
9 1     1.1859     0.6847     7.7463
10 1     0.0000     2.7387     7.7463
11 1     0.0000     1.3694     9.6829
12 1     1.1859     3.4234     9.6829
13 1     0.0000     0.0000    11.6194
14 1     1.1859     2.0540    11.6194
15 1     0.0000     1.3694    13.5560
16 1     1.1859     3.4234    13.5560
17 1     0.0000     0.0000    15.4926
18 1     1.1859     2.0540    15.4926
19 1     1.1859     0.6847    17.4292
20 1     0.0000     2.7387    17.4292
21 1     0.0000     1.3694    19.3658
22 1     1.1859     3.4234    19.3658
23 1     0.0000     0.0000    21.3023
24 1     1.1859     2.0540    21.3023
25 1     1.1859     0.6847    23.2389
26 1     0.0000     2.7387    23.2389
27 1     0.0000     1.3694    25.1755
28 1     1.1859     3.4234    25.1755
