# ['Ni']

10 atoms
1 atom types

    0.0000     3.6385 xlo xhi
    0.0000     2.6046 ylo yhi
    0.0000    26.0457 zlo zhi

    0.0000     0.0000     0.0000 xy xz yz

Atoms

1 1     0.0000     0.0000     0.0000
2 1     1.8192     1.3023     1.3023
3 1     0.0000     0.0000     2.6046
4 1     1.8192     1.3023     3.9069
5 1     0.0000     0.0000     5.2091
6 1     1.8192     1.3023     6.5114
7 1     0.0000     0.0000     7.8137
8 1     1.8192     1.3023     9.1160
9 1     0.0000     0.0000    10.4183
10 1     1.8192     1.3023    11.7206
