LAMMPS (11 Aug 2017)
Reading data file ...
  triclinic box = (0 0 0) to (3.5167 3.5167 3.5167) with tilt (0 -0 0)
  1 by 1 by 1 MPI processor grid
  reading atoms ...
  4 atoms
4 atoms in group Ni
Neighbor list info ...
  update every 1 steps, delay 0 steps, check yes
  max neighbors/atom: 2000, page size: 100000
  master list distance cutoff = 5.64464
  ghost atom cutoff = 5.64464
  binsize = 2.82232, bins = 2 2 2
  1 neighbor lists, perpetual/occasional/extra = 1 0 0
  (1) pair eam/alloy, perpetual
      attributes: half, newton on
      pair build: half/bin/newton/tri
      stencil: half/bin/3d/newton/tri
      bin: standard
Setting up cg style minimization ...
  Unit style    : metal
  Current step  : 0
WARNING: Energy due to 3 extra global DOFs will be included in minimizer energies
Per MPI rank memory allocation (min/avg/max) = 4.211 | 4.211 | 4.211 Mbytes
Step PotEng Xhi Xlo Yhi Ylo Zhi Xy Xz Yz Press Pxx Pyy Pzz Pxy Pxz Pyz c_eatoms 
       0   -17.811409       3.5167            0       3.5167            0       3.5167            0           -0            0    3942.7448    3942.7448    3942.7448    3942.7448 -5.2422047e-13 4.5931699e-13 1.0284706e-13   -17.811409 
      10   -17.811518    3.5178108 -0.0011108051    3.5178108 -0.0011108051    3.5178108            0           -0            0 -2.9600652e-05 -2.9600667e-05 -2.9600626e-05 -2.9600664e-05 6.0794137e-14 -4.0704166e-11 -9.0692893e-14   -17.811518 
      11   -17.811518    3.5178108 -0.0011108051    3.5178108 -0.0011108051    3.5178108            0           -0            0 -2.0838865e-09 -2.0653522e-09 -2.0933803e-09 -2.0929269e-09 -1.0209429e-11 9.9263869e-12 -2.0430817e-11   -17.811518 
Loop time of 0.000418901 on 1 procs for 11 steps with 4 atoms

100.3% CPU use with 1 MPI tasks x no OpenMP threads

Minimization stats:
  Stopping criterion = energy tolerance
  Energy initial, next-to-last, final = 
        -17.8114090538      -17.811517741      -17.811517741
  Force two-norm initial, final = 0.18538 1.32549e-13
  Force max component initial, final = 0.107027 5.68974e-14
  Final line search alpha, max atom move = 1 5.68974e-14
  Iterations, force evaluations = 11 22

MPI task timing breakdown:
Section |  min time  |  avg time  |  max time  |%varavg| %total
---------------------------------------------------------------
Pair    | 0.00022078 | 0.00022078 | 0.00022078 |   0.0 | 52.70
Neigh   | 0          | 0          | 0          |   0.0 |  0.00
Comm    | 4.3869e-05 | 4.3869e-05 | 4.3869e-05 |   0.0 | 10.47
Output  | 1.2875e-05 | 1.2875e-05 | 1.2875e-05 |   0.0 |  3.07
Modify  | 0          | 0          | 0          |   0.0 |  0.00
Other   |            | 0.0001414  |            |       | 33.75

Nlocal:    4 ave 4 max 4 min
Histogram: 1 0 0 0 0 0 0 0 0 0
Nghost:    360 ave 360 max 360 min
Histogram: 1 0 0 0 0 0 0 0 0 0
Neighs:    156 ave 156 max 156 min
Histogram: 1 0 0 0 0 0 0 0 0 0

Total # of neighbors = 156
Ave neighs/atom = 39
Neighbor list builds = 0
Dangerous builds = 0
pypospack:output_section:begin
tot_energy = -17.8115177410113
num_atoms = 4
a11 = 3.51892161027873
a22 = 3.51892161027873
a33 = 3.51892161027873
a12 = 0
a13 = -0
a23 = 0
tot_press = -2.08388647608715e-09
pxx = -2.06535223732703e-09
pyy = -2.09338032769917e-09
pzz = -2.09292686323523e-09
pxy = -1.02094285023727e-11
pxz = 9.92638694685985e-12
pyz = -2.04308165070911e-11
pypospack:output_section:done
pypospack:lammps_sim:done
Total wall time: 0:00:00
