# ['Ni']

18 atoms
1 atom types

    0.0000     2.5439 xlo xhi
    0.0000     4.4063 ylo yhi
    0.0000    37.3823 zlo zhi

    0.0000     0.0000    -0.0004 xy xz yz

Atoms

1 1     0.0000     0.0000     0.0000
2 1     1.2720     0.7344     2.0768
3 1     0.0000     1.4688     4.1536
4 1     1.2720     2.2031     0.0000
5 1     0.0000     2.9375     2.0768
6 1     1.2720     3.6719     4.1536
7 1     0.0000     0.0000     6.2304
8 1     1.2720     0.7344     8.3072
9 1     0.0000     1.4688    10.3840
10 1     1.2720     2.2031     6.2304
11 1     0.0000     2.9375     8.3072
12 1     1.2720     3.6719    10.3840
13 1     0.0000     0.0000    12.4607
14 1     1.2720     0.7344    14.5376
15 1     0.0000     1.4688    16.6143
16 1     1.2720     2.2031    12.4607
17 1     0.0000     2.9375    14.5376
18 1     1.2720     3.6719    16.6143
