# ['Ni']

107 atoms
1 atom types

    0.0000    10.7719 xlo xhi
    0.0000    10.7719 ylo yhi
    0.0000    10.7719 zlo zhi

    0.0000    -0.0000    -0.0000 xy xz yz

Atoms

1 1     1.7953     1.7953     0.0000
2 1     1.7953     0.0000     1.7953
3 1     0.0000     1.7953     1.7953
4 1     0.0000     0.0000     3.5906
5 1     1.7953     1.7953     3.5906
6 1     1.7953     0.0000     5.3860
7 1     0.0000     1.7953     5.3860
8 1     0.0000     0.0000     7.1813
9 1     1.7953     1.7953     7.1813
10 1     1.7953     0.0000     8.9766
11 1     0.0000     1.7953     8.9766
12 1     0.0000     3.5906     0.0000
13 1     1.7953     5.3860     0.0000
14 1     1.7953     3.5906     1.7953
15 1     0.0000     5.3860     1.7953
16 1     0.0000     3.5906     3.5906
17 1     1.7953     5.3860     3.5906
18 1     1.7953     3.5906     5.3860
19 1     0.0000     5.3860     5.3860
20 1     0.0000     3.5906     7.1813
21 1     1.7953     5.3860     7.1813
22 1     1.7953     3.5906     8.9766
23 1     0.0000     5.3860     8.9766
24 1     0.0000     7.1813     0.0000
25 1     1.7953     8.9766     0.0000
26 1     1.7953     7.1813     1.7953
27 1     0.0000     8.9766     1.7953
28 1     0.0000     7.1813     3.5906
29 1     1.7953     8.9766     3.5906
30 1     1.7953     7.1813     5.3860
31 1     0.0000     8.9766     5.3860
32 1     0.0000     7.1813     7.1813
33 1     1.7953     8.9766     7.1813
34 1     1.7953     7.1813     8.9766
35 1     0.0000     8.9766     8.9766
36 1     3.5906     0.0000     0.0000
37 1     5.3860     1.7953     0.0000
38 1     5.3860     0.0000     1.7953
39 1     3.5906     1.7953     1.7953
40 1     3.5906     0.0000     3.5906
41 1     5.3860     1.7953     3.5906
42 1     5.3860     0.0000     5.3860
43 1     3.5906     1.7953     5.3860
44 1     3.5906     0.0000     7.1813
45 1     5.3860     1.7953     7.1813
46 1     5.3860     0.0000     8.9766
47 1     3.5906     1.7953     8.9766
48 1     3.5906     3.5906     0.0000
49 1     5.3860     5.3860     0.0000
50 1     5.3860     3.5906     1.7953
51 1     3.5906     5.3860     1.7953
52 1     3.5906     3.5906     3.5906
53 1     5.3860     5.3860     3.5906
54 1     5.3860     3.5906     5.3860
55 1     3.5906     5.3860     5.3860
56 1     3.5906     3.5906     7.1813
57 1     5.3860     5.3860     7.1813
58 1     5.3860     3.5906     8.9766
59 1     3.5906     5.3860     8.9766
60 1     3.5906     7.1813     0.0000
61 1     5.3860     8.9766     0.0000
62 1     5.3860     7.1813     1.7953
63 1     3.5906     8.9766     1.7953
64 1     3.5906     7.1813     3.5906
65 1     5.3860     8.9766     3.5906
66 1     5.3860     7.1813     5.3860
67 1     3.5906     8.9766     5.3860
68 1     3.5906     7.1813     7.1813
69 1     5.3860     8.9766     7.1813
70 1     5.3860     7.1813     8.9766
71 1     3.5906     8.9766     8.9766
72 1     7.1813     0.0000     0.0000
73 1     8.9766     1.7953     0.0000
74 1     8.9766     0.0000     1.7953
75 1     7.1813     1.7953     1.7953
76 1     7.1813     0.0000     3.5906
77 1     8.9766     1.7953     3.5906
78 1     8.9766     0.0000     5.3860
79 1     7.1813     1.7953     5.3860
80 1     7.1813     0.0000     7.1813
81 1     8.9766     1.7953     7.1813
82 1     8.9766     0.0000     8.9766
83 1     7.1813     1.7953     8.9766
84 1     7.1813     3.5906     0.0000
85 1     8.9766     5.3860     0.0000
86 1     8.9766     3.5906     1.7953
87 1     7.1813     5.3860     1.7953
88 1     7.1813     3.5906     3.5906
89 1     8.9766     5.3860     3.5906
90 1     8.9766     3.5906     5.3860
91 1     7.1813     5.3860     5.3860
92 1     7.1813     3.5906     7.1813
93 1     8.9766     5.3860     7.1813
94 1     8.9766     3.5906     8.9766
95 1     7.1813     5.3860     8.9766
96 1     7.1813     7.1813     0.0000
97 1     8.9766     8.9766     0.0000
98 1     8.9766     7.1813     1.7953
99 1     7.1813     8.9766     1.7953
100 1     7.1813     7.1813     3.5906
101 1     8.9766     8.9766     3.5906
102 1     8.9766     7.1813     5.3860
103 1     7.1813     8.9766     5.3860
104 1     7.1813     7.1813     7.1813
105 1     8.9766     8.9766     7.1813
106 1     8.9766     7.1813     8.9766
107 1     7.1813     8.9766     8.9766
