# ['Ni']

107 atoms
1 atom types

    0.0000    10.9154 xlo xhi
    0.0000    10.9154 ylo yhi
    0.0000    10.9154 zlo zhi

    0.0000    -0.0000    -0.0000 xy xz yz

Atoms

1 1     1.8192     1.8192     0.0000
2 1     1.8192     0.0000     1.8192
3 1     0.0000     1.8192     1.8192
4 1     0.0000     0.0000     3.6385
5 1     1.8192     1.8192     3.6385
6 1     1.8192     0.0000     5.4577
7 1     0.0000     1.8192     5.4577
8 1     0.0000     0.0000     7.2769
9 1     1.8192     1.8192     7.2769
10 1     1.8192     0.0000     9.0962
11 1     0.0000     1.8192     9.0962
12 1     0.0000     3.6385     0.0000
13 1     1.8192     5.4577     0.0000
14 1     1.8192     3.6385     1.8192
15 1     0.0000     5.4577     1.8192
16 1     0.0000     3.6385     3.6385
17 1     1.8192     5.4577     3.6385
18 1     1.8192     3.6385     5.4577
19 1     0.0000     5.4577     5.4577
20 1     0.0000     3.6385     7.2769
21 1     1.8192     5.4577     7.2769
22 1     1.8192     3.6385     9.0962
23 1     0.0000     5.4577     9.0962
24 1     0.0000     7.2769     0.0000
25 1     1.8192     9.0962     0.0000
26 1     1.8192     7.2769     1.8192
27 1     0.0000     9.0962     1.8192
28 1     0.0000     7.2769     3.6385
29 1     1.8192     9.0962     3.6385
30 1     1.8192     7.2769     5.4577
31 1     0.0000     9.0962     5.4577
32 1     0.0000     7.2769     7.2769
33 1     1.8192     9.0962     7.2769
34 1     1.8192     7.2769     9.0962
35 1     0.0000     9.0962     9.0962
36 1     3.6385     0.0000     0.0000
37 1     5.4577     1.8192     0.0000
38 1     5.4577     0.0000     1.8192
39 1     3.6385     1.8192     1.8192
40 1     3.6385     0.0000     3.6385
41 1     5.4577     1.8192     3.6385
42 1     5.4577     0.0000     5.4577
43 1     3.6385     1.8192     5.4577
44 1     3.6385     0.0000     7.2769
45 1     5.4577     1.8192     7.2769
46 1     5.4577     0.0000     9.0962
47 1     3.6385     1.8192     9.0962
48 1     3.6385     3.6385     0.0000
49 1     5.4577     5.4577     0.0000
50 1     5.4577     3.6385     1.8192
51 1     3.6385     5.4577     1.8192
52 1     3.6385     3.6385     3.6385
53 1     5.4577     5.4577     3.6385
54 1     5.4577     3.6385     5.4577
55 1     3.6385     5.4577     5.4577
56 1     3.6385     3.6385     7.2769
57 1     5.4577     5.4577     7.2769
58 1     5.4577     3.6385     9.0962
59 1     3.6385     5.4577     9.0962
60 1     3.6385     7.2769     0.0000
61 1     5.4577     9.0962     0.0000
62 1     5.4577     7.2769     1.8192
63 1     3.6385     9.0962     1.8192
64 1     3.6385     7.2769     3.6385
65 1     5.4577     9.0962     3.6385
66 1     5.4577     7.2769     5.4577
67 1     3.6385     9.0962     5.4577
68 1     3.6385     7.2769     7.2769
69 1     5.4577     9.0962     7.2769
70 1     5.4577     7.2769     9.0962
71 1     3.6385     9.0962     9.0962
72 1     7.2769     0.0000     0.0000
73 1     9.0962     1.8192     0.0000
74 1     9.0962     0.0000     1.8192
75 1     7.2769     1.8192     1.8192
76 1     7.2769     0.0000     3.6385
77 1     9.0962     1.8192     3.6385
78 1     9.0962     0.0000     5.4577
79 1     7.2769     1.8192     5.4577
80 1     7.2769     0.0000     7.2769
81 1     9.0962     1.8192     7.2769
82 1     9.0962     0.0000     9.0962
83 1     7.2769     1.8192     9.0962
84 1     7.2769     3.6385     0.0000
85 1     9.0962     5.4577     0.0000
86 1     9.0962     3.6385     1.8192
87 1     7.2769     5.4577     1.8192
88 1     7.2769     3.6385     3.6385
89 1     9.0962     5.4577     3.6385
90 1     9.0962     3.6385     5.4577
91 1     7.2769     5.4577     5.4577
92 1     7.2769     3.6385     7.2769
93 1     9.0962     5.4577     7.2769
94 1     9.0962     3.6385     9.0962
95 1     7.2769     5.4577     9.0962
96 1     7.2769     7.2769     0.0000
97 1     9.0962     9.0962     0.0000
98 1     9.0962     7.2769     1.8192
99 1     7.2769     9.0962     1.8192
100 1     7.2769     7.2769     3.6385
101 1     9.0962     9.0962     3.6385
102 1     9.0962     7.2769     5.4577
103 1     7.2769     9.0962     5.4577
104 1     7.2769     7.2769     7.2769
105 1     9.0962     9.0962     7.2769
106 1     9.0962     7.2769     9.0962
107 1     7.2769     9.0962     9.0962
