# ['Ni']

28 atoms
1 atom types

    0.0000     2.3729 xlo xhi
    0.0000     4.1100 ylo yhi
    0.0000    27.1247 zlo zhi

    0.0000     0.0000     0.0000 xy xz yz

Atoms

1 1     0.0000     0.0000     0.0000
2 1     1.1865     2.0550     0.0000
3 1     1.1865     0.6850     1.9375
4 1     0.0000     2.7400     1.9375
5 1     0.0000     1.3700     3.8750
6 1     1.1865     3.4250     3.8750
7 1     0.0000     0.0000     5.8124
8 1     1.1865     2.0550     5.8124
9 1     1.1865     0.6850     7.7499
10 1     0.0000     2.7400     7.7499
11 1     0.0000     1.3700     9.6874
12 1     1.1865     3.4250     9.6874
13 1     0.0000     0.0000    11.6249
14 1     1.1865     2.0550    11.6249
15 1     0.0000     1.3700    13.5623
16 1     1.1865     3.4250    13.5623
17 1     0.0000     0.0000    15.4998
18 1     1.1865     2.0550    15.4998
19 1     1.1865     0.6850    17.4373
20 1     0.0000     2.7400    17.4373
21 1     0.0000     1.3700    19.3748
22 1     1.1865     3.4250    19.3748
23 1     0.0000     0.0000    21.3123
24 1     1.1865     2.0550    21.3123
25 1     1.1865     0.6850    23.2497
26 1     0.0000     2.7400    23.2497
27 1     0.0000     1.3700    25.1872
28 1     1.1865     3.4250    25.1872
