# ['Ni']

107 atoms
1 atom types

    0.0000    12.2096 xlo xhi
    0.0000    12.2096 ylo yhi
    0.0000    12.2096 zlo zhi

    0.0000    -0.0000    -0.0000 xy xz yz

Atoms

1 1     2.0349     2.0349     0.0000
2 1     2.0349     0.0000     2.0349
3 1     0.0000     2.0349     2.0349
4 1     0.0000     0.0000     4.0699
5 1     2.0349     2.0349     4.0699
6 1     2.0349     0.0000     6.1048
7 1     0.0000     2.0349     6.1048
8 1     0.0000     0.0000     8.1397
9 1     2.0349     2.0349     8.1397
10 1     2.0349     0.0000    10.1747
11 1     0.0000     2.0349    10.1747
12 1     0.0000     4.0699     0.0000
13 1     2.0349     6.1048     0.0000
14 1     2.0349     4.0699     2.0349
15 1     0.0000     6.1048     2.0349
16 1     0.0000     4.0699     4.0699
17 1     2.0349     6.1048     4.0699
18 1     2.0349     4.0699     6.1048
19 1     0.0000     6.1048     6.1048
20 1     0.0000     4.0699     8.1397
21 1     2.0349     6.1048     8.1397
22 1     2.0349     4.0699    10.1747
23 1     0.0000     6.1048    10.1747
24 1     0.0000     8.1397     0.0000
25 1     2.0349    10.1747     0.0000
26 1     2.0349     8.1397     2.0349
27 1     0.0000    10.1747     2.0349
28 1     0.0000     8.1397     4.0699
29 1     2.0349    10.1747     4.0699
30 1     2.0349     8.1397     6.1048
31 1     0.0000    10.1747     6.1048
32 1     0.0000     8.1397     8.1397
33 1     2.0349    10.1747     8.1397
34 1     2.0349     8.1397    10.1747
35 1     0.0000    10.1747    10.1747
36 1     4.0699     0.0000     0.0000
37 1     6.1048     2.0349     0.0000
38 1     6.1048     0.0000     2.0349
39 1     4.0699     2.0349     2.0349
40 1     4.0699     0.0000     4.0699
41 1     6.1048     2.0349     4.0699
42 1     6.1048     0.0000     6.1048
43 1     4.0699     2.0349     6.1048
44 1     4.0699     0.0000     8.1397
45 1     6.1048     2.0349     8.1397
46 1     6.1048     0.0000    10.1747
47 1     4.0699     2.0349    10.1747
48 1     4.0699     4.0699     0.0000
49 1     6.1048     6.1048     0.0000
50 1     6.1048     4.0699     2.0349
51 1     4.0699     6.1048     2.0349
52 1     4.0699     4.0699     4.0699
53 1     6.1048     6.1048     4.0699
54 1     6.1048     4.0699     6.1048
55 1     4.0699     6.1048     6.1048
56 1     4.0699     4.0699     8.1397
57 1     6.1048     6.1048     8.1397
58 1     6.1048     4.0699    10.1747
59 1     4.0699     6.1048    10.1747
60 1     4.0699     8.1397     0.0000
61 1     6.1048    10.1747     0.0000
62 1     6.1048     8.1397     2.0349
63 1     4.0699    10.1747     2.0349
64 1     4.0699     8.1397     4.0699
65 1     6.1048    10.1747     4.0699
66 1     6.1048     8.1397     6.1048
67 1     4.0699    10.1747     6.1048
68 1     4.0699     8.1397     8.1397
69 1     6.1048    10.1747     8.1397
70 1     6.1048     8.1397    10.1747
71 1     4.0699    10.1747    10.1747
72 1     8.1397     0.0000     0.0000
73 1    10.1747     2.0349     0.0000
74 1    10.1747     0.0000     2.0349
75 1     8.1397     2.0349     2.0349
76 1     8.1397     0.0000     4.0699
77 1    10.1747     2.0349     4.0699
78 1    10.1747     0.0000     6.1048
79 1     8.1397     2.0349     6.1048
80 1     8.1397     0.0000     8.1397
81 1    10.1747     2.0349     8.1397
82 1    10.1747     0.0000    10.1747
83 1     8.1397     2.0349    10.1747
84 1     8.1397     4.0699     0.0000
85 1    10.1747     6.1048     0.0000
86 1    10.1747     4.0699     2.0349
87 1     8.1397     6.1048     2.0349
88 1     8.1397     4.0699     4.0699
89 1    10.1747     6.1048     4.0699
90 1    10.1747     4.0699     6.1048
91 1     8.1397     6.1048     6.1048
92 1     8.1397     4.0699     8.1397
93 1    10.1747     6.1048     8.1397
94 1    10.1747     4.0699    10.1747
95 1     8.1397     6.1048    10.1747
96 1     8.1397     8.1397     0.0000
97 1    10.1747    10.1747     0.0000
98 1    10.1747     8.1397     2.0349
99 1     8.1397    10.1747     2.0349
100 1     8.1397     8.1397     4.0699
101 1    10.1747    10.1747     4.0699
102 1    10.1747     8.1397     6.1048
103 1     8.1397    10.1747     6.1048
104 1     8.1397     8.1397     8.1397
105 1    10.1747    10.1747     8.1397
106 1    10.1747     8.1397    10.1747
107 1     8.1397    10.1747    10.1747
