# ['Ni']

10 atoms
1 atom types

    0.0000     9.0124 xlo xhi
    0.0000     6.4514 ylo yhi
    0.0000    64.5144 zlo zhi

    0.0000     0.0000     0.0000 xy xz yz

Atoms

1 1     0.0000     0.0000     0.0000
2 1     4.5062     3.2257     3.2257
3 1     0.0000     0.0000     6.4514
4 1     4.5062     3.2257     9.6772
5 1     0.0000     0.0000    12.9029
6 1     4.5062     3.2257    16.1286
7 1     0.0000     0.0000    19.3543
8 1     4.5062     3.2257    22.5800
9 1     0.0000     0.0000    25.8058
10 1     4.5062     3.2257    29.0315
