# ['Ni']

20 atoms
1 atom types

    0.0000     3.2472 xlo xhi
    0.0000     3.2472 ylo yhi
    0.0000    32.4718 zlo zhi

    0.0000    -0.0000     0.0000 xy xz yz

Atoms

1 1     0.0000     0.0000     0.0000
2 1     1.6236     1.6236     0.0000
3 1     1.6236     0.0000     1.6236
4 1     0.0000     1.6236     1.6236
5 1     0.0000     0.0000     3.2472
6 1     1.6236     1.6236     3.2472
7 1     1.6236     0.0000     4.8708
8 1     0.0000     1.6236     4.8708
9 1     0.0000     0.0000     6.4944
10 1     1.6236     1.6236     6.4944
11 1     1.6236     0.0000     8.1179
12 1     0.0000     1.6236     8.1179
13 1     0.0000     0.0000     9.7415
14 1     1.6236     1.6236     9.7415
15 1     1.6236     0.0000    11.3651
16 1     0.0000     1.6236    11.3651
17 1     0.0000     0.0000    12.9887
18 1     1.6236     1.6236    12.9887
19 1     1.6236     0.0000    14.6123
20 1     0.0000     1.6236    14.6123
