    2    2    1    2
  0.1090254E+02  0.2793739E-09  0.2793739E-09  0.2793739E-09  0.5000000E-15
  1.000000000000000E-004
  CAR 
 automatically generated by pyflamestk   
     20      4     16
 
  0.1250000E+00  0.1250000E+00  0.1250000E+00  0.1250000E+00
    1        1.277530      1.297255   1.000000   1.000000
    2        5.719447      5.418732   1.000000   1.000000
    3        5.719447      5.418732   1.000000   1.000000
    4        7.372417      6.797069   1.000000   1.000000
    5        7.372417      6.797069   1.000000   1.000000
    6        8.070927      7.465921   1.000000   1.000000
    7        8.544980      7.949622   1.000003   1.000000
    8        8.774937      8.316910   1.001677   1.000000
    9        8.774937      8.316910   1.001677   1.000000
   10        9.449229      8.800994  -0.019961   1.002865
   11        9.449229      8.800994  -0.019961   1.002865
   12       17.612064     17.520403   0.000000   0.000000
   13       17.612064     17.520403   0.000000   0.000000
   14       18.622592     18.521541   0.000000   0.000000
   15       27.838381     27.796045   0.000000   0.000000
   16       27.838381     27.796045   0.000000   0.000000
 
  0.3750000E+00  0.1250000E+00  0.1250000E+00  0.3750000E+00
    1        3.492786      3.477119   1.000000   1.000000
    2        5.762220      5.541685   1.000000   1.000000
    3        6.441116      6.089821   1.000000   1.000000
    4        7.139600      6.646471   1.000000   1.000000
    5        7.260874      6.710631   1.000000   1.000000
    6        7.608527      7.067638   1.000000   1.000000
    7        8.323379      7.837520   1.000000   1.000000
    8        8.493216      7.914865   1.000000   1.000000
    9        8.844811      8.233591   1.006424   1.000000
   10        9.198699      8.695264   0.739091   1.000255
   11        9.323428      8.738100   0.238873   1.000734
   12       11.754402     11.498299  -0.000000  -0.000000
   13       20.768618     20.643024   0.000000   0.000000
   14       21.262064     21.144891   0.000000   0.000000
   15       25.342441     25.266179   0.000000   0.000000
   16       26.128292     26.037098   0.000000   0.000000
 
  0.3750000E+00  0.3750000E+00  0.1250000E+00  0.3750000E+00
    1        4.781882      4.583341   1.000000   1.000000
    2        5.521442      5.182859   1.000000   1.000000
    3        6.677339      6.140499   1.000000   1.000000
    4        6.814847      6.288409   1.000000   1.000000
    5        7.375055      7.075734   1.000000   1.000000
    6        7.504394      7.183490   1.000000   1.000000
    7        8.653250      8.136084   1.000082   1.000000
    8        8.788462      8.281572   1.002226   1.000000
    9        8.972231      8.502854   1.030672   1.000001
   10        9.471801      8.874336  -0.030887   1.010316
   11       10.085794      9.540990  -0.000000  -0.031212
   12       12.288955     12.088589  -0.000000  -0.000000
   13       16.194161     15.928371   0.000000   0.000000
   14       19.328762     19.159165   0.000000   0.000000
   15       23.167935     23.081265   0.000000   0.000000
   16       26.888937     26.878310   0.000000   0.000000
 
  0.3750000E+00  0.3750000E+00  0.3750000E+00  0.1250000E+00
    1        6.172880      5.699244   1.000000   1.000000
    2        6.205313      5.942800   1.000000   1.000000
    3        6.500056      6.022912   1.000000   1.000000
    4        6.500056      6.022912   1.000000   1.000000
    5        6.737258      6.345012   1.000000   1.000000
    6        6.737258      6.345012   1.000000   1.000000
    7        8.975930      8.488858   1.031389   1.000000
    8        8.975930      8.488858   1.031389   1.000000
    9        8.993436      8.496296   1.034166   1.000001
   10        8.993436      8.496296   1.034166   1.000001
   11       12.397411     12.013641  -0.000000  -0.000000
   12       15.902356     15.705324   0.000000   0.000000
   13       15.902356     15.705324   0.000000   0.000000
   14       18.123939     17.947354   0.000000   0.000000
   15       20.865248     20.743011   0.000000   0.000000
   16       20.865248     20.743011   0.000000   0.000000
