LAMMPS (11 Aug 2017)
Reading data file ...
  triclinic box = (0 0 0) to (3.0996 2.2188 22.1883) with tilt (0 0 0)
  1 by 1 by 1 MPI processor grid
  reading atoms ...
  10 atoms
10 atoms in group Ni
Neighbor list info ...
  update every 1 steps, delay 0 steps, check yes
  max neighbors/atom: 2000, page size: 100000
  master list distance cutoff = 5.64464
  ghost atom cutoff = 5.64464
  binsize = 2.82232, bins = 2 1 8
  1 neighbor lists, perpetual/occasional/extra = 1 0 0
  (1) pair eam/alloy, perpetual
      attributes: half, newton on
      pair build: half/bin/newton/tri
      stencil: half/bin/3d/newton/tri
      bin: standard
Setting up cg style minimization ...
  Unit style    : metal
  Current step  : 0
Per MPI rank memory allocation (min/avg/max) = 4.224 | 4.224 | 4.224 Mbytes
Step PotEng Lx Ly Lz Xy Xz Yz Press Pxx Pyy Pzz Pxy Pxz Pyz c_eatoms 
       0   -75.173971       3.0996       2.2188      22.1883            0            0            0   -81996.345   -88834.491   -88839.171   -68315.372 -9.6167139e-12 -5.6826037e-12 3.5698408e-12   -75.173971 
       1   -75.234915       3.0996       2.2188      22.1883            0            0            0   -65521.209   -71734.517   -77438.994   -47390.115 2.4770324e-12 1.4570779e-13 1.5372172e-11   -75.234915 
       2   -75.253117       3.0996       2.2188      22.1883            0            0            0   -56924.934   -63404.895   -72295.376   -35074.531 -3.7884025e-12 -8.9246019e-12 4.6626492e-12   -75.253117 
       3   -75.275859       3.0996       2.2188      22.1883            0            0            0   -39493.986   -47721.476   -62567.799   -8192.6845 -7.4310971e-12 -1.4206509e-12 2.1856168e-12   -75.275859 
       4   -75.280465       3.0996       2.2188      22.1883            0            0            0   -36671.732   -45397.784   -61232.435   -3384.9776 -8.1596361e-12 -9.9081295e-12 5.7554576e-12   -75.280465 
       5   -75.280577       3.0996       2.2188      22.1883            0            0            0   -36275.807   -45226.633    -61147.11    -2453.679 -1.1510915e-11 -1.1656623e-11 -4.5897953e-12   -75.280577 
       6   -75.280682       3.0996       2.2188      22.1883            0            0            0   -35171.952   -44198.465    -60513.75   -803.64063 -4.079818e-12 1.7484934e-12 3.7155486e-12   -75.280682 
       7   -75.280704       3.0996       2.2188      22.1883            0            0            0   -34728.053   -43796.772   -60262.141   -125.24637 5.8283115e-13 -3.5698408e-12 5.464042e-12   -75.280704 
       8   -75.280705       3.0996       2.2188      22.1883            0            0            0   -34697.074   -43767.967   -60244.365   -78.889005 -6.848266e-12 -4.5897953e-12 9.9809834e-12   -75.280705 
       9   -75.280705       3.0996       2.2188      22.1883            0            0            0   -34678.726   -43750.476   -60233.109   -52.592869 -1.0490961e-11 -3.3512791e-12            0   -75.280705 
      10   -75.280705       3.0996       2.2188      22.1883            0            0            0   -34656.251   -43731.544    -60221.65    -15.55842 -1.8942012e-11 1.3113701e-12 2.6955941e-12   -75.280705 
      11   -75.280705       3.0996       2.2188      22.1883            0            0            0   -34650.755   -43726.867   -60218.903   -6.4947997 -4.808357e-12 9.4710061e-13 3.4969869e-12   -75.280705 
      12   -75.280705       3.0996       2.2188      22.1883            0            0            0   -34647.538   -43723.774   -60216.912    -1.929562 -1.5299318e-11 3.2055713e-12 6.9211199e-12   -75.280705 
      13   -75.280705       3.0996       2.2188      22.1883            0            0            0   -34647.208   -43723.438   -60216.696    -1.491708 1.1656623e-12 -3.6426947e-12 -7.1396816e-12   -75.280705 
      14   -75.280705       3.0996       2.2188      22.1883            0            0            0   -34647.059   -43723.297   -60216.616   -1.2646926 -1.1510915e-11 -8.7424672e-13 4.6626492e-12   -75.280705 
      15   -75.280705       3.0996       2.2188      22.1883            0            0            0   -34646.555   -43722.889   -60216.368  -0.40803603 -9.6167139e-12 -7.7225127e-12  9.54386e-12   -75.280705 
      16   -75.280705       3.0996       2.2188      22.1883            0            0            0   -34646.365   -43722.715   -60216.258  -0.12302699 -6.4111426e-12 -6.0833001e-12 -7.7953666e-12   -75.280705 
      17   -75.280705       3.0996       2.2188      22.1883            0            0            0   -34646.312   -43722.657   -60216.223 -0.054864087 -1.253087e-11 -3.3512791e-12 -6.5568504e-13   -75.280705 
      18   -75.280705       3.0996       2.2188      22.1883            0            0            0   -34646.303   -43722.652    -60216.22 -0.037984377 -4.2255258e-12 -1.038168e-11 -3.6426947e-12   -75.280705 
      19   -75.280705       3.0996       2.2188      22.1883            0            0            0   -34646.297   -43722.648   -60216.217 -0.025887987 -4.808357e-12 1.6027857e-12 2.6227402e-12   -75.280705 
Loop time of 0.0011282 on 1 procs for 19 steps with 10 atoms

95.1% CPU use with 1 MPI tasks x no OpenMP threads

Minimization stats:
  Stopping criterion = energy tolerance
  Energy initial, next-to-last, final = 
        -75.1739708812     -75.2807052032     -75.2807052032
  Force two-norm initial, final = 1.3151 3.92063e-07
  Force max component initial, final = 0.889826 2.61237e-07
  Final line search alpha, max atom move = 1 2.61237e-07
  Iterations, force evaluations = 19 38

MPI task timing breakdown:
Section |  min time  |  avg time  |  max time  |%varavg| %total
---------------------------------------------------------------
Pair    | 0.00081992 | 0.00081992 | 0.00081992 |   0.0 | 72.68
Neigh   | 0          | 0          | 0          |   0.0 |  0.00
Comm    | 8.6546e-05 | 8.6546e-05 | 8.6546e-05 |   0.0 |  7.67
Output  | 0.00017953 | 0.00017953 | 0.00017953 |   0.0 | 15.91
Modify  | 0          | 0          | 0          |   0.0 |  0.00
Other   |            | 4.22e-05   |            |       |  3.74

Nlocal:    10 ave 10 max 10 min
Histogram: 1 0 0 0 0 0 0 0 0 0
Nghost:    462 ave 462 max 462 min
Histogram: 1 0 0 0 0 0 0 0 0 0
Neighs:    352 ave 352 max 352 min
Histogram: 1 0 0 0 0 0 0 0 0 0

Total # of neighbors = 352
Ave neighs/atom = 35.2
Neighbor list builds = 0
Dangerous builds = 0
pypospack:output_section:begin
tot_energy = -75.2807052031598
num_atoms = 10
a11 = 3.0996
a22 = 2.2188
a33 = 22.1883
a12 = 0
a13 = 0
a23 = 0
tot_press = -34646.2969033157
pxx = -43722.6478462163
pyy = -60216.2169757439
pzz = -0.0258879867420911
pxy = -4.80835696445024e-12
pxz = 1.60278565481675e-12
pyz = 2.6227401624274e-12
pypospack:output_section:done
pypospack:lammps_sim:done
Total wall time: 0:00:00
