# ['Ni']

20 atoms
1 atom types

    0.0000     3.5165 xlo xhi
    0.0000     3.5165 ylo yhi
    0.0000    35.1653 zlo zhi

    0.0000    -0.0000     0.0000 xy xz yz

Atoms

1 1     0.0000     0.0000     0.0000
2 1     1.7583     1.7583     0.0000
3 1     1.7583     0.0000     1.7583
4 1     0.0000     1.7583     1.7583
5 1     0.0000     0.0000     3.5165
6 1     1.7583     1.7583     3.5165
7 1     1.7583     0.0000     5.2748
8 1     0.0000     1.7583     5.2748
9 1     0.0000     0.0000     7.0331
10 1     1.7583     1.7583     7.0331
11 1     1.7583     0.0000     8.7913
12 1     0.0000     1.7583     8.7913
13 1     0.0000     0.0000    10.5496
14 1     1.7583     1.7583    10.5496
15 1     1.7583     0.0000    12.3079
16 1     0.0000     1.7583    12.3079
17 1     0.0000     0.0000    14.0661
18 1     1.7583     1.7583    14.0661
19 1     1.7583     0.0000    15.8244
20 1     0.0000     1.7583    15.8244
