LAMMPS (11 Aug 2017)
Reading data file ...
  triclinic box = (0 0 0) to (3.4118 2.4423 24.4228) with tilt (0 0 0)
  1 by 1 by 1 MPI processor grid
  reading atoms ...
  10 atoms
10 atoms in group Ni
Neighbor list info ...
  update every 1 steps, delay 0 steps, check yes
  max neighbors/atom: 2000, page size: 100000
  master list distance cutoff = 5.64464
  ghost atom cutoff = 5.64464
  binsize = 2.82232, bins = 2 1 9
  1 neighbor lists, perpetual/occasional/extra = 1 0 0
  (1) pair eam/alloy, perpetual
      attributes: half, newton on
      pair build: half/bin/newton/tri
      stencil: half/bin/3d/newton/tri
      bin: standard
Setting up cg style minimization ...
  Unit style    : metal
  Current step  : 0
Per MPI rank memory allocation (min/avg/max) = 4.214 | 4.214 | 4.214 Mbytes
Step PotEng Lx Ly Lz Xy Xz Yz Press Pxx Pyy Pzz Pxy Pxz Pyz c_eatoms 
       0   -33.980491       3.4118       2.4423      24.4228            0            0            0   -26036.808   -29165.523   -27258.281   -21686.621 -1.2564651e-12 4.9166024e-13   0.89353147   -33.980491 
       1   -33.995703       3.4118       2.4423      24.4228            0            0            0    -21501.49   -24507.884   -24658.428   -15338.158 3.9879108e-12 3.223106e-12   0.28293476   -33.995703 
       2   -34.002679       3.4118       2.4423      24.4228            0            0            0   -18733.308   -21888.651   -23257.332    -11053.94 4.8073445e-12 5.2716903e-12  0.059962115   -34.002679 
       3   -34.011601       3.4118       2.4423      24.4228            0            0            0   -13550.031   -17347.502   -20842.641   -2459.9491 4.3703132e-13 2.4583012e-12   0.06314726   -34.011601 
       4   -34.012553       3.4118       2.4423      24.4228            0            0            0   -12990.936   -16927.763   -20632.469   -1412.5741 1.4203518e-12 2.3763578e-12  0.041946504   -34.012553 
       5   -34.012621       3.4118       2.4423      24.4228            0            0            0   -12725.256   -16759.388   -20549.568   -866.81111 1.6934964e-12 1.966641e-12  0.068060535   -34.012621 
       6   -34.012669       3.4118       2.4423      24.4228            0            0            0   -12328.131   -16422.827   -20371.718   -189.84867 5.5175204e-12 -1.912012e-13   0.14319831   -34.012669 
       7   -34.012682       3.4118       2.4423      24.4228            0            0            0   -12197.701   -16276.734   -20289.547    -26.82044 3.6055084e-12 1.1198928e-12   0.14053215   -34.012682 
       8   -34.012682       3.4118       2.4423      24.4228            0            0            0   -12187.093   -16266.695   -20284.081   -10.503632 1.311094e-12 5.0804891e-12   0.11865653   -34.012682 
       9   -34.012682       3.4118       2.4423      24.4228            0            0            0   -12184.333   -16264.437   -20282.855   -5.7053118 1.5296096e-12 -5.5994638e-13   0.10554912   -34.012682 
      10   -34.012682       3.4118       2.4423      24.4228            0            0            0   -12183.581   -16263.765    -20282.49   -4.4870112 2.2944144e-12 9.2869156e-13  0.093508271   -34.012682 
      11   -34.012682       3.4118       2.4423      24.4228            0            0            0     -12181.4   -16261.985   -20281.557  -0.65802182 5.4082626e-12 -1.0106349e-12  0.056740102   -34.012682 
      12   -34.012682       3.4118       2.4423      24.4228            0            0            0   -12181.035   -16261.623   -20281.358  -0.12460717 5.4628915e-13 -8.1943373e-14  0.064616115   -34.012682 
      13   -34.012682       3.4118       2.4423      24.4228            0            0            0    -12180.95   -16261.532   -20281.307 -0.011288867 3.5508795e-12 2.8270464e-12  0.068781977   -34.012682 
      14   -34.012682       3.4118       2.4423      24.4228            0            0            0   -12180.951   -16261.534   -20281.308 -0.011821628 3.3323638e-12 1.1198928e-12  0.071935909   -34.012682 
      15   -34.012682       3.4118       2.4423      24.4228            0            0            0   -12180.953    -16261.54   -20281.312 -0.0092834316 6.0638096e-12 3.6191656e-12  0.072244395   -34.012682 
      16   -34.012682       3.4118       2.4423      24.4228            0            0            0   -12180.944   -16261.529   -20281.306 0.0028996234 2.2944144e-12 -1.8437259e-12  0.062992822   -34.012682 
      17   -34.012682       3.4118       2.4423      24.4228            0            0            0   -12180.929   -16261.517   -20281.299  0.030607594 1.660719e-11 -2.4064037e-11  0.049332683   -34.012682 
      18   -34.012682       3.4118       2.4423      24.4228            0            0            0   -12180.923   -16261.515   -20281.298  0.045494133 1.0215607e-11 1.1157956e-11   0.02386151   -34.012682 
      19   -34.012682       3.4118       2.4423      24.4228            0            0            0    -12180.93    -16261.52   -20281.301   0.03106778 -7.6480481e-13 -1.9502523e-11  0.010599516   -34.012682 
      20   -34.012682       3.4118       2.4423      24.4228            0            0            0   -12180.929   -16261.518     -20281.3  0.028929214 2.3599691e-11 2.3353861e-12 0.0090421202   -34.012682 
      21   -34.012682       3.4118       2.4423      24.4228            0            0            0   -12180.933    -16261.52   -20281.301  0.022126198 1.7481253e-11 1.1909104e-11 0.0085043543   -34.012682 
      22   -34.012682       3.4118       2.4423      24.4228            0            0            0   -12180.939   -16261.527   -20281.305  0.013612892 -1.6934964e-12 -1.1007726e-11 0.0079536958   -34.012682 
      23   -34.012682       3.4118       2.4423      24.4228            0            0            0   -12180.945   -16261.532   -20281.307 0.0035255103 8.9591421e-12 -2.8543608e-11 0.0069779807   -34.012682 
      24   -34.012682       3.4118       2.4423      24.4228            0            0            0   -12180.948   -16261.534   -20281.308 -0.0014896554 -1.1799846e-11 3.3159752e-11 0.0061249053   -34.012682 
      25   -34.012682       3.4118       2.4423      24.4228            0            0            0   -12180.948   -16261.534   -20281.308 -0.0015497584 3.5508795e-12 -4.2992956e-11 0.0056812743   -34.012682 
      26   -34.012682       3.4118       2.4423      24.4228            0            0            0   -12180.948   -16261.534   -20281.309 -0.002184511 3.9387448e-11 1.3924911e-10  0.005236718   -34.012682 
      27   -34.012682       3.4118       2.4423      24.4228            0            0            0   -12180.949   -16261.535   -20281.309 -0.003437163 -1.6170159e-11 -1.7458036e-10 0.0042130183   -34.012682 
      28   -34.012682       3.4118       2.4423      24.4228            0            0            0   -12180.947   -16261.534   -20281.308 -0.00062217601 -2.217934e-11 4.396262e-10 0.0025498639   -34.012682 
      29   -34.012682       3.4118       2.4423      24.4228            0            0            0   -12180.947   -16261.533   -20281.308 0.00037532264 2.9936646e-11 -7.0909698e-10 0.0011067805   -34.012682 
      30   -34.012682       3.4118       2.4423      24.4228            0            0            0   -12180.947   -16261.533   -20281.308 -0.00020105746 1.5296096e-12 4.5092072e-10 0.0010288568   -34.012682 
      31   -34.012682       3.4118       2.4423      24.4228            0            0            0   -12180.947   -16261.533   -20281.308 -0.00036341375 6.1730674e-12 -5.1837378e-10 0.00095211116   -34.012682 
      32   -34.012682       3.4118       2.4423      24.4228            0            0            0   -12180.947   -16261.533   -20281.308 -0.00018461018 2.9499614e-12 1.4854831e-09 0.00086992886   -34.012682 
      33   -34.012682       3.4118       2.4423      24.4228            0            0            0   -12180.947   -16261.533   -20281.308 5.6306138e-05 -3.4798619e-11 -6.949317e-09 0.00079068135   -34.012682 
      34   -34.012682       3.4118       2.4423      24.4228            0            0            0   -12180.947   -16261.533   -20281.308 0.00062285739 -3.4962506e-12 3.7123899e-08 0.0004675407   -34.012682 
      35   -34.012682       3.4118       2.4423      24.4228            0            0            0   -12180.946   -16261.533   -20281.308 0.00098571387 -3.4962506e-12 -5.9256449e-08 0.00022926528   -34.012682 
      36   -34.012682       3.4118       2.4423      24.4228            0            0            0   -12180.947   -16261.533   -20281.308 0.0008423294 -1.6334046e-11 7.3250424e-08 0.0001622506   -34.012682 
      37   -34.012682       3.4118       2.4423      24.4228            0            0            0   -12180.947   -16261.533   -20281.308 0.00035372157 2.0922875e-11 -2.9725973e-07 6.8176495e-05   -34.012682 
      38   -34.012682       3.4118       2.4423      24.4228            0            0            0   -12180.947   -16261.533   -20281.308 0.00010492212 -2.0813617e-11 3.901216e-07 1.9712622e-05   -34.012682 
      39   -34.012682       3.4118       2.4423      24.4228            0            0            0   -12180.947   -16261.533   -20281.308 2.3819539e-05 -8.6859975e-12 -7.0869147e-07 1.6493994e-06   -34.012682 
      40   -34.012682       3.4118       2.4423      24.4228            0            0            0   -12180.947   -16261.533   -20281.308 3.322934e-06 2.1250648e-11 7.0275937e-07 1.973109e-08   -34.012682 
      41   -34.012682       3.4118       2.4423      24.4228            0            0            0   -12180.947   -16261.533   -20281.308 -1.016633e-06 2.6549653e-11 -2.20728e-08 -1.7768292e-07   -34.012682 
      42   -34.012682       3.4118       2.4423      24.4228            0            0            0   -12180.947   -16261.533   -20281.308 -2.9277023e-07 1.9775667e-11 4.7924309e-09 -5.6669843e-07   -34.012682 
      43   -34.012682       3.4118       2.4423      24.4228            0            0            0   -12180.947   -16261.533   -20281.308 -6.0125316e-07 3.2777349e-12 -1.1037226e-09 4.3506321e-07   -34.012682 
Loop time of 0.0611532 on 1 procs for 43 steps with 10 atoms

3.9% CPU use with 1 MPI tasks x no OpenMP threads

Minimization stats:
  Stopping criterion = energy tolerance
  Energy initial, next-to-last, final = 
         -33.980491077     -34.0126824965     -34.0126824965
  Force two-norm initial, final = 0.40844 1.60804e-10
  Force max component initial, final = 0.278762 6.51332e-11
  Final line search alpha, max atom move = 1 6.51332e-11
  Iterations, force evaluations = 43 85

MPI task timing breakdown:
Section |  min time  |  avg time  |  max time  |%varavg| %total
---------------------------------------------------------------
Pair    | 0.001657   | 0.001657   | 0.001657   |   0.0 |  2.71
Neigh   | 0          | 0          | 0          |   0.0 |  0.00
Comm    | 0.00017548 | 0.00017548 | 0.00017548 |   0.0 |  0.29
Output  | 0.059224   | 0.059224   | 0.059224   |   0.0 | 96.85
Modify  | 0          | 0          | 0          |   0.0 |  0.00
Other   |            | 9.68e-05   |            |       |  0.16

Nlocal:    10 ave 10 max 10 min
Histogram: 1 0 0 0 0 0 0 0 0 0
Nghost:    357 ave 357 max 357 min
Histogram: 1 0 0 0 0 0 0 0 0 0
Neighs:    320 ave 320 max 320 min
Histogram: 1 0 0 0 0 0 0 0 0 0

Total # of neighbors = 320
Ave neighs/atom = 32
Neighbor list builds = 0
Dangerous builds = 0
pypospack:output_section:begin
tot_energy = -34.012682496489
num_atoms = 10
a11 = 3.4118
a22 = 2.4423
a33 = 24.4228
a12 = 0
a13 = 0
a23 = 0
tot_press = -12180.9470624222
pxx = -16261.5332035252
pyy = -20281.3079831402
pzz = -6.01253161911832e-07
pxy = 3.2777349171571e-12
pxz = -1.10372260443737e-09
pyz = 4.35063206356606e-07
pypospack:output_section:done
pypospack:lammps_sim:done
Total wall time: 0:00:00
