   4   4   0   0
  0.1064635E+02  0.3492102E-09  0.3492102E-09  0.3492102E-09  0.5000000E-15
  1.000000000000000E-004
  CAR 
 automatically generated by pyflamestk   
     33.67624712     -0.87844893  301      9.53626490      1.00000000
     -0.878  0.0000E+00  0.0000E+00  0.0000E+00  0.0000E+00
     -0.763  0.0000E+00  0.0000E+00  0.0000E+00  0.0000E+00
     -0.648  0.0000E+00  0.0000E+00  0.0000E+00  0.0000E+00
     -0.533 -0.4837E-29 -0.4721E-29 -0.5572E-30 -0.5438E-30
     -0.418 -0.4438E-25 -0.4339E-25 -0.5113E-26 -0.4998E-26
     -0.303 -0.2086E-21 -0.2043E-21 -0.2403E-22 -0.2353E-22
     -0.187 -0.5017E-18 -0.4921E-18 -0.5781E-19 -0.5671E-19
     -0.072 -0.6165E-15 -0.6059E-15 -0.7107E-16 -0.6984E-16
      0.043 -0.3735E-12 -0.3676E-12 -0.4309E-13 -0.4241E-13
      0.158 -0.1181E-09 -0.1165E-09 -0.1365E-10 -0.1346E-10
      0.273 -0.1886E-07 -0.1864E-07 -0.2186E-08 -0.2160E-08
      0.389 -0.1509E-05 -0.1493E-05 -0.1760E-06 -0.1742E-06
      0.504 -0.5954E-04 -0.5903E-04 -0.7034E-05 -0.6974E-05
      0.619 -0.1124E-02 -0.1116E-02 -0.1365E-03 -0.1355E-03
      0.734 -0.9385E-02 -0.9345E-02 -0.1217E-02 -0.1212E-02
      0.849 -0.2534E-01 -0.2533E-01 -0.4136E-02 -0.4130E-02
      0.964  0.5086E-01  0.5038E-01  0.1722E-02  0.1673E-02
      1.080  0.3399E+00  0.3390E+00  0.4087E-01  0.4072E-01
      1.195  0.5006E+00  0.5008E+00  0.9853E-01  0.9840E-01
      1.310  0.2494E+00  0.2503E+00  0.1273E+00  0.1272E+00
      1.425  0.9520E-02  0.9822E-02  0.1284E+00  0.1284E+00
      1.540 -0.2279E-01 -0.2283E-01  0.1257E+00  0.1257E+00
      1.656 -0.5757E-02 -0.5786E-02  0.1251E+00  0.1251E+00
      1.771 -0.5446E-03 -0.5485E-03  0.1250E+00  0.1250E+00
      1.886 -0.2567E-04 -0.2585E-04  0.1250E+00  0.1250E+00
      2.001 -0.9799E-04 -0.9704E-04  0.1250E+00  0.1250E+00
      2.116 -0.2108E-02 -0.2091E-02  0.1247E+00  0.1247E+00
      2.231 -0.2059E-01 -0.2048E-01  0.1224E+00  0.1224E+00
      2.347 -0.7228E-01 -0.7218E-01  0.1140E+00  0.1141E+00
      2.462  0.6457E-01  0.6336E-01  0.1215E+00  0.1214E+00
      2.577  0.8418E+00  0.8389E+00  0.2184E+00  0.2180E+00
      2.692  0.1515E+01  0.1515E+01  0.3929E+00  0.3924E+00
      2.807  0.9277E+00  0.9306E+00  0.4998E+00  0.4996E+00
      2.923  0.1036E+00  0.1050E+00  0.5117E+00  0.5117E+00
      3.038 -0.7481E-01 -0.7487E-01  0.5031E+00  0.5031E+00
      3.153 -0.2402E-01 -0.2414E-01  0.5003E+00  0.5003E+00
      3.268 -0.2736E-02 -0.2755E-02  0.5000E+00  0.5000E+00
      3.383 -0.2083E-02 -0.2064E-02  0.4998E+00  0.4998E+00
      3.498 -0.1954E-01 -0.1940E-01  0.4975E+00  0.4975E+00
      3.614 -0.7121E-01 -0.7105E-01  0.4893E+00  0.4893E+00
      3.729  0.5299E-01  0.5142E-01  0.4954E+00  0.4953E+00
      3.844  0.8135E+00  0.8095E+00  0.5891E+00  0.5885E+00
      3.959  0.1512E+01  0.1512E+01  0.7633E+00  0.7626E+00
      4.074  0.9526E+00  0.9565E+00  0.8730E+00  0.8728E+00
      4.190  0.9997E-01  0.1021E+00  0.8845E+00  0.8846E+00
      4.305 -0.9589E-01 -0.9627E-01  0.8735E+00  0.8735E+00
      4.420  0.9397E-01  0.9200E-01  0.8843E+00  0.8841E+00
      4.535  0.3847E+00  0.3828E+00  0.9286E+00  0.9282E+00
      4.650  0.6955E+00  0.6931E+00  0.1009E+01  0.1008E+01
      4.765  0.1303E+01  0.1300E+01  0.1159E+01  0.1158E+01
      4.881  0.1385E+01  0.1389E+01  0.1318E+01  0.1318E+01
      4.996  0.4271E+00  0.4337E+00  0.1368E+01  0.1368E+01
      5.111 -0.1693E-01 -0.2168E-01  0.1366E+01  0.1365E+01
      5.226  0.1164E+01  0.1144E+01  0.1500E+01  0.1497E+01
      5.341  0.2886E+01  0.2874E+01  0.1832E+01  0.1828E+01
      5.457  0.3515E+01  0.3518E+01  0.2237E+01  0.2233E+01
      5.572  0.3320E+01  0.3330E+01  0.2619E+01  0.2617E+01
      5.687  0.1822E+01  0.1838E+01  0.2829E+01  0.2828E+01
      5.802  0.7549E+00  0.7442E+00  0.2916E+01  0.2914E+01
      5.917  0.2853E+01  0.2813E+01  0.3245E+01  0.3238E+01
      6.032  0.5206E+01  0.5200E+01  0.3844E+01  0.3837E+01
      6.148  0.3831E+01  0.3861E+01  0.4286E+01  0.4282E+01
      6.263  0.2489E+01  0.2480E+01  0.4572E+01  0.4568E+01
      6.378  0.3920E+01  0.3903E+01  0.5024E+01  0.5017E+01
      6.493  0.3519E+01  0.3542E+01  0.5429E+01  0.5425E+01
      6.608  0.2351E+01  0.2351E+01  0.5700E+01  0.5696E+01
      6.724  0.3420E+01  0.3404E+01  0.6094E+01  0.6088E+01
      6.839  0.3525E+01  0.3535E+01  0.6500E+01  0.6495E+01
      6.954  0.2639E+01  0.2640E+01  0.6804E+01  0.6799E+01
      7.069  0.3233E+01  0.3215E+01  0.7176E+01  0.7170E+01
      7.184  0.4868E+01  0.4840E+01  0.7737E+01  0.7727E+01
      7.299  0.6709E+01  0.6693E+01  0.8510E+01  0.8498E+01
      7.415  0.6493E+01  0.6518E+01  0.9257E+01  0.9249E+01
      7.530  0.4042E+01  0.4071E+01  0.9723E+01  0.9718E+01
      7.645  0.3216E+01  0.3198E+01  0.1009E+02  0.1009E+02
      7.760  0.5477E+01  0.5437E+01  0.1072E+02  0.1071E+02
      7.875  0.7842E+01  0.7827E+01  0.1163E+02  0.1161E+02
      7.991  0.7203E+01  0.7236E+01  0.1246E+02  0.1245E+02
      8.106  0.3827E+01  0.3875E+01  0.1290E+02  0.1289E+02
      8.221  0.1972E+01  0.1968E+01  0.1313E+02  0.1312E+02
      8.336  0.3491E+01  0.3461E+01  0.1353E+02  0.1352E+02
      8.451  0.4232E+01  0.4236E+01  0.1401E+02  0.1401E+02
      8.567  0.4585E+01  0.4557E+01  0.1454E+02  0.1453E+02
      8.682  0.7261E+01  0.7220E+01  0.1538E+02  0.1536E+02
      8.797  0.7451E+01  0.7492E+01  0.1624E+02  0.1623E+02
      8.912  0.3609E+01  0.3671E+01  0.1665E+02  0.1665E+02
      9.027  0.1889E+01  0.1875E+01  0.1687E+02  0.1687E+02
      9.142  0.4449E+01  0.4390E+01  0.1738E+02  0.1737E+02
      9.258  0.6726E+01  0.6717E+01  0.1816E+02  0.1814E+02
      9.373  0.5871E+01  0.5888E+01  0.1883E+02  0.1882E+02
      9.488  0.6604E+01  0.6563E+01  0.1959E+02  0.1958E+02
      9.603  0.8721E+01  0.8718E+01  0.2060E+02  0.2058E+02
      9.718  0.6013E+01  0.6098E+01  0.2129E+02  0.2129E+02
      9.834  0.1306E+01  0.1363E+01  0.2144E+02  0.2144E+02
      9.949 -0.3496E+00 -0.3451E+00  0.2140E+02  0.2140E+02
     10.064 -0.1998E+00 -0.2043E+00  0.2138E+02  0.2138E+02
     10.179 -0.3198E-01 -0.3319E-01  0.2138E+02  0.2138E+02
     10.294 -0.2267E-02 -0.2380E-02  0.2138E+02  0.2138E+02
     10.409 -0.1111E-03 -0.1144E-03  0.2137E+02  0.2137E+02
     10.525 -0.1118E-02 -0.1076E-02  0.2137E+02  0.2137E+02
     10.640 -0.1763E-01 -0.1713E-01  0.2137E+02  0.2137E+02
     10.755 -0.1191E+00 -0.1171E+00  0.2136E+02  0.2136E+02
     10.870 -0.2067E+00 -0.2091E+00  0.2134E+02  0.2134E+02
     10.985  0.8966E+00  0.8700E+00  0.2144E+02  0.2144E+02
     11.101  0.3663E+01  0.3633E+01  0.2186E+02  0.2185E+02
     11.216  0.4248E+01  0.4267E+01  0.2235E+02  0.2235E+02
     11.331  0.1603E+01  0.1636E+01  0.2253E+02  0.2253E+02
     11.446 -0.9493E-01 -0.8756E-01  0.2252E+02  0.2252E+02
     11.561 -0.1687E+00 -0.1708E+00  0.2250E+02  0.2250E+02
     11.676 -0.3324E-01 -0.3409E-01  0.2250E+02  0.2250E+02
     11.792 -0.3433E-02 -0.3506E-02  0.2250E+02  0.2250E+02
     11.907 -0.1045E-01 -0.1028E-01  0.2250E+02  0.2250E+02
     12.022 -0.5459E-01 -0.5411E-01  0.2249E+02  0.2249E+02
     12.137 -0.3823E-01 -0.3975E-01  0.2249E+02  0.2249E+02
     12.252  0.5078E+00  0.5004E+00  0.2255E+02  0.2255E+02
     12.368  0.1403E+01  0.1398E+01  0.2271E+02  0.2271E+02
     12.483  0.1246E+01  0.1252E+01  0.2285E+02  0.2285E+02
     12.598  0.3187E+00  0.3249E+00  0.2289E+02  0.2289E+02
     12.713 -0.6753E-01 -0.6688E-01  0.2288E+02  0.2288E+02
     12.828 -0.4159E-01 -0.4205E-01  0.2288E+02  0.2288E+02
     12.943 -0.1177E-01 -0.1177E-01  0.2287E+02  0.2287E+02
     13.059 -0.3887E-01 -0.3838E-01  0.2287E+02  0.2287E+02
     13.174 -0.7088E-01 -0.7139E-01  0.2286E+02  0.2286E+02
     13.289  0.2820E+00  0.2756E+00  0.2289E+02  0.2289E+02
     13.404  0.1204E+01  0.1197E+01  0.2303E+02  0.2303E+02
     13.519  0.1429E+01  0.1434E+01  0.2320E+02  0.2320E+02
     13.635  0.5532E+00  0.5616E+00  0.2326E+02  0.2326E+02
     13.750 -0.2822E-01 -0.2625E-01  0.2326E+02  0.2326E+02
     13.865 -0.5752E-01 -0.5804E-01  0.2325E+02  0.2325E+02
     13.980 -0.1154E-01 -0.1176E-01  0.2325E+02  0.2325E+02
     14.095 -0.1903E-02 -0.1903E-02  0.2325E+02  0.2325E+02
     14.210 -0.1453E-01 -0.1425E-01  0.2325E+02  0.2325E+02
     14.326 -0.9005E-01 -0.8908E-01  0.2324E+02  0.2324E+02
     14.441 -0.1231E+00 -0.1248E+00  0.2322E+02  0.2322E+02
     14.556  0.7396E+00  0.7263E+00  0.2331E+02  0.2331E+02
     14.671  0.2593E+01  0.2581E+01  0.2361E+02  0.2360E+02
     14.786  0.2727E+01  0.2737E+01  0.2392E+02  0.2392E+02
     14.902  0.8996E+00  0.9141E+00  0.2403E+02  0.2403E+02
     15.017 -0.9864E-01 -0.9607E-01  0.2401E+02  0.2401E+02
     15.132 -0.1014E+00 -0.1024E+00  0.2400E+02  0.2400E+02
     15.247 -0.1796E-01 -0.1830E-01  0.2400E+02  0.2400E+02
     15.362 -0.1312E-02 -0.1345E-02  0.2400E+02  0.2400E+02
     15.477 -0.4490E-04 -0.4631E-04  0.2400E+02  0.2400E+02
     15.593 -0.7611E-05 -0.7378E-05  0.2400E+02  0.2400E+02
     15.708 -0.2513E-03 -0.2434E-03  0.2400E+02  0.2400E+02
     15.823 -0.4378E-02 -0.4273E-02  0.2400E+02  0.2400E+02
     15.938 -0.3327E-01 -0.3277E-01  0.2400E+02  0.2400E+02
     16.053 -0.7488E-01 -0.7512E-01  0.2399E+02  0.2399E+02
     16.169  0.2156E+00  0.2093E+00  0.2401E+02  0.2401E+02
     16.284  0.1118E+01  0.1109E+01  0.2414E+02  0.2414E+02
     16.399  0.1471E+01  0.1474E+01  0.2431E+02  0.2431E+02
     16.514  0.6354E+00  0.6451E+00  0.2438E+02  0.2438E+02
     16.629 -0.5864E-01 -0.5535E-01  0.2438E+02  0.2438E+02
     16.744 -0.1018E+00 -0.1039E+00  0.2436E+02  0.2436E+02
     16.860  0.4913E+00  0.4832E+00  0.2442E+02  0.2442E+02
     16.975  0.1400E+01  0.1395E+01  0.2458E+02  0.2458E+02
     17.090  0.1248E+01  0.1255E+01  0.2473E+02  0.2473E+02
     17.205  0.3207E+00  0.3274E+00  0.2476E+02  0.2476E+02
     17.320 -0.6741E-01 -0.6671E-01  0.2476E+02  0.2476E+02
     17.436 -0.4386E-01 -0.4430E-01  0.2475E+02  0.2475E+02
     17.551 -0.3451E-01 -0.3424E-01  0.2475E+02  0.2475E+02
     17.666 -0.1267E+00 -0.1260E+00  0.2473E+02  0.2473E+02
     17.781 -0.7227E-02 -0.1113E-01  0.2473E+02  0.2473E+02
     17.896  0.1296E+01  0.1282E+01  0.2488E+02  0.2488E+02
     18.011  0.2945E+01  0.2940E+01  0.2522E+02  0.2522E+02
     18.127  0.2232E+01  0.2245E+01  0.2548E+02  0.2548E+02
     18.242  0.4273E+00  0.4364E+00  0.2553E+02  0.2553E+02
     18.357 -0.1587E+00 -0.1582E+00  0.2551E+02  0.2551E+02
     18.472 -0.9157E-01 -0.9226E-01  0.2550E+02  0.2550E+02
     18.587  0.3516E-01  0.3357E-01  0.2550E+02  0.2550E+02
     18.703  0.3269E+00  0.3242E+00  0.2554E+02  0.2554E+02
     18.818  0.5029E+00  0.5033E+00  0.2560E+02  0.2560E+02
     18.933  0.2622E+00  0.2649E+00  0.2563E+02  0.2563E+02
     19.048  0.1418E-01  0.1522E-01  0.2563E+02  0.2563E+02
     19.163 -0.2368E-01 -0.2379E-01  0.2563E+02  0.2563E+02
     19.278 -0.1234E-01 -0.1232E-01  0.2562E+02  0.2562E+02
     19.394 -0.5362E-01 -0.5298E-01  0.2562E+02  0.2562E+02
     19.509 -0.1516E+00 -0.1514E+00  0.2560E+02  0.2560E+02
     19.624  0.2656E+00  0.2580E+00  0.2563E+02  0.2563E+02
     19.739  0.1969E+01  0.1955E+01  0.2586E+02  0.2586E+02
     19.854  0.3017E+01  0.3019E+01  0.2621E+02  0.2620E+02
     19.970  0.1569E+01  0.1583E+01  0.2639E+02  0.2639E+02
     20.085  0.8316E-01  0.8864E-01  0.2640E+02  0.2640E+02
     20.200 -0.1443E+00 -0.1449E+00  0.2638E+02  0.2638E+02
     20.315 -0.6993E-01 -0.7016E-01  0.2637E+02  0.2637E+02
     20.430 -0.7866E-01 -0.7885E-01  0.2636E+02  0.2636E+02
     20.545  0.2111E+00  0.2076E+00  0.2639E+02  0.2639E+02
     20.661  0.1112E+01  0.1107E+01  0.2651E+02  0.2651E+02
     20.776  0.1474E+01  0.1476E+01  0.2668E+02  0.2668E+02
     20.891  0.6522E+00  0.6575E+00  0.2676E+02  0.2676E+02
     21.006 -0.2351E-02 -0.7884E-03  0.2676E+02  0.2676E+02
     21.121 -0.6441E-01 -0.6469E-01  0.2675E+02  0.2675E+02
     21.237 -0.2892E-01 -0.2890E-01  0.2675E+02  0.2675E+02
     21.352 -0.9195E-01 -0.9136E-01  0.2674E+02  0.2674E+02
     21.467 -0.1234E+00 -0.1245E+00  0.2672E+02  0.2672E+02
     21.582  0.7332E+00  0.7250E+00  0.2681E+02  0.2681E+02
     21.697  0.2537E+01  0.2529E+01  0.2710E+02  0.2710E+02
     21.812  0.2722E+01  0.2728E+01  0.2741E+02  0.2741E+02
     21.928  0.1559E+01  0.1562E+01  0.2759E+02  0.2759E+02
     22.043  0.1379E+01  0.1379E+01  0.2775E+02  0.2775E+02
     22.158  0.9962E+00  0.1001E+01  0.2787E+02  0.2787E+02
     22.273  0.1807E+00  0.1839E+00  0.2789E+02  0.2789E+02
     22.388 -0.1017E+00 -0.1013E+00  0.2788E+02  0.2788E+02
     22.504 -0.1255E+00 -0.1255E+00  0.2786E+02  0.2786E+02
     22.619  0.1792E-01  0.1495E-01  0.2786E+02  0.2786E+02
     22.734  0.9536E+00  0.9450E+00  0.2797E+02  0.2797E+02
     22.849  0.2318E+01  0.2313E+01  0.2824E+02  0.2824E+02
     22.964  0.2375E+01  0.2381E+01  0.2851E+02  0.2851E+02
     23.079  0.1041E+01  0.1049E+01  0.2863E+02  0.2863E+02
     23.195  0.5023E-01  0.5259E-01  0.2864E+02  0.2864E+02
     23.310 -0.1016E+00 -0.1018E+00  0.2863E+02  0.2863E+02
     23.425 -0.6369E-01 -0.6362E-01  0.2862E+02  0.2862E+02
     23.540 -0.1008E+00 -0.1008E+00  0.2861E+02  0.2861E+02
     23.655  0.1074E+00  0.1042E+00  0.2862E+02  0.2862E+02
     23.771  0.1074E+01  0.1066E+01  0.2875E+02  0.2874E+02
     23.886  0.2580E+01  0.2574E+01  0.2904E+02  0.2904E+02
     24.001  0.3497E+01  0.3498E+01  0.2945E+02  0.2944E+02
     24.116  0.2396E+01  0.2405E+01  0.2972E+02  0.2972E+02
     24.231  0.4966E+00  0.5032E+00  0.2978E+02  0.2978E+02
     24.346 -0.1559E+00 -0.1555E+00  0.2976E+02  0.2976E+02
     24.462 -0.7773E-01 -0.7828E-01  0.2975E+02  0.2975E+02
     24.577 -0.1104E-01 -0.1116E-01  0.2975E+02  0.2975E+02
     24.692 -0.7072E-03 -0.7171E-03  0.2975E+02  0.2975E+02
     24.807 -0.9191E-03 -0.9067E-03  0.2975E+02  0.2975E+02
     24.922 -0.1358E-01 -0.1344E-01  0.2975E+02  0.2975E+02
     25.038 -0.8685E-01 -0.8632E-01  0.2974E+02  0.2974E+02
     25.153 -0.1307E+00 -0.1315E+00  0.2972E+02  0.2972E+02
     25.268  0.6775E+00  0.6704E+00  0.2980E+02  0.2980E+02
     25.383  0.2500E+01  0.2493E+01  0.3009E+02  0.3009E+02
     25.498  0.2844E+01  0.2848E+01  0.3042E+02  0.3042E+02
     25.613  0.1593E+01  0.1598E+01  0.3060E+02  0.3060E+02
     25.729  0.9178E+00  0.9197E+00  0.3071E+02  0.3071E+02
     25.844  0.4313E+00  0.4333E+00  0.3076E+02  0.3076E+02
     25.959  0.1374E-01  0.1454E-01  0.3076E+02  0.3076E+02
     26.074 -0.4865E-01 -0.4877E-01  0.3075E+02  0.3075E+02
     26.189 -0.1286E-01 -0.1295E-01  0.3075E+02  0.3075E+02
     26.305 -0.1531E-02 -0.1539E-02  0.3075E+02  0.3075E+02
     26.420 -0.4559E-02 -0.4495E-02  0.3075E+02  0.3075E+02
     26.535 -0.3387E-01 -0.3356E-01  0.3075E+02  0.3075E+02
     26.650 -0.7457E-01 -0.7474E-01  0.3074E+02  0.3074E+02
     26.765  0.2230E+00  0.2191E+00  0.3076E+02  0.3076E+02
     26.880  0.1129E+01  0.1123E+01  0.3089E+02  0.3089E+02
     26.996  0.1467E+01  0.1470E+01  0.3106E+02  0.3106E+02
     27.111  0.6346E+00  0.6403E+00  0.3113E+02  0.3113E+02
     27.226 -0.7348E-02 -0.5739E-02  0.3113E+02  0.3113E+02
     27.341 -0.6242E-01 -0.6274E-01  0.3113E+02  0.3113E+02
     27.456 -0.1374E-01 -0.1391E-01  0.3113E+02  0.3113E+02
     27.572 -0.1197E-02 -0.1217E-02  0.3113E+02  0.3113E+02
     27.687 -0.5544E-03 -0.5483E-03  0.3112E+02  0.3112E+02
     27.802 -0.7433E-02 -0.7356E-02  0.3112E+02  0.3112E+02
     27.917 -0.4568E-01 -0.4541E-01  0.3112E+02  0.3112E+02
     28.032 -0.6036E-01 -0.6086E-01  0.3111E+02  0.3111E+02
     28.147  0.3788E+00  0.3751E+00  0.3116E+02  0.3116E+02
     28.263  0.1305E+01  0.1302E+01  0.3131E+02  0.3130E+02
     28.378  0.1356E+01  0.1359E+01  0.3146E+02  0.3146E+02
     28.493  0.4402E+00  0.4441E+00  0.3151E+02  0.3151E+02
     28.608 -0.5099E-01 -0.5032E-01  0.3151E+02  0.3151E+02
     28.723 -0.5061E-01 -0.5088E-01  0.3150E+02  0.3150E+02
     28.839 -0.1703E-01 -0.1707E-01  0.3150E+02  0.3150E+02
     28.954 -0.4908E-01 -0.4893E-01  0.3149E+02  0.3149E+02
     29.069 -0.5469E-01 -0.5504E-01  0.3149E+02  0.3149E+02
     29.184  0.4176E+00  0.4154E+00  0.3154E+02  0.3153E+02
     29.299  0.1338E+01  0.1337E+01  0.3169E+02  0.3169E+02
     29.415  0.1324E+01  0.1326E+01  0.3184E+02  0.3184E+02
     29.530  0.4006E+00  0.4028E+00  0.3189E+02  0.3189E+02
     29.645 -0.5727E-01 -0.5695E-01  0.3188E+02  0.3188E+02
     29.760 -0.4724E-01 -0.4739E-01  0.3188E+02  0.3188E+02
     29.875 -0.7892E-02 -0.7939E-02  0.3188E+02  0.3188E+02
     29.990 -0.5505E-03 -0.5549E-03  0.3188E+02  0.3188E+02
     30.106 -0.1802E-04 -0.1820E-04  0.3188E+02  0.3188E+02
     30.221 -0.2886E-06 -0.2920E-06  0.3188E+02  0.3188E+02
     30.336 -0.2304E-08 -0.2336E-08  0.3188E+02  0.3188E+02
     30.451 -0.9271E-11 -0.9415E-11  0.3188E+02  0.3188E+02
     30.566 -0.8995E-13 -0.8797E-13  0.3187E+02  0.3187E+02
     30.682 -0.2700E-10 -0.2633E-10  0.3187E+02  0.3187E+02
     30.797 -0.5182E-08 -0.5069E-08  0.3187E+02  0.3187E+02
     30.912 -0.4994E-06 -0.4901E-06  0.3187E+02  0.3187E+02
     31.027 -0.2387E-04 -0.2349E-04  0.3187E+02  0.3187E+02
     31.142 -0.5514E-03 -0.5446E-03  0.3187E+02  0.3187E+02
     31.257 -0.5807E-02 -0.5757E-02  0.3187E+02  0.3187E+02
     31.373 -0.2286E-01 -0.2279E-01  0.3187E+02  0.3187E+02
     31.488  0.1005E-01  0.9520E-02  0.3187E+02  0.3187E+02
     31.603  0.2509E+00  0.2494E+00  0.3190E+02  0.3190E+02
     31.718  0.5009E+00  0.5006E+00  0.3196E+02  0.3196E+02
     31.833  0.3384E+00  0.3399E+00  0.3200E+02  0.3200E+02
     31.949  0.5002E-01  0.5086E-01  0.3200E+02  0.3200E+02
     32.064 -0.2533E-01 -0.2534E-01  0.3200E+02  0.3200E+02
     32.179 -0.9316E-02 -0.9385E-02  0.3200E+02  0.3200E+02
     32.294 -0.1111E-02 -0.1124E-02  0.3200E+02  0.3200E+02
     32.409 -0.5866E-04 -0.5954E-04  0.3200E+02  0.3200E+02
     32.524 -0.1482E-05 -0.1509E-05  0.3200E+02  0.3200E+02
     32.640 -0.1847E-07 -0.1886E-07  0.3200E+02  0.3200E+02
     32.755 -0.1153E-09 -0.1181E-09  0.3200E+02  0.3200E+02
     32.870 -0.3634E-12 -0.3735E-12  0.3200E+02  0.3200E+02
     32.985 -0.4819E-15 -0.7229E-15  0.3200E+02  0.3200E+02
     33.100  0.0000E+00  0.0000E+00  0.3200E+02  0.3200E+02
     33.216  0.0000E+00  0.0000E+00  0.3200E+02  0.3200E+02
     33.331  0.0000E+00  0.0000E+00  0.3200E+02  0.3200E+02
     33.446  0.0000E+00  0.0000E+00  0.3200E+02  0.3200E+02
     33.561  0.0000E+00  0.0000E+00  0.3200E+02  0.3200E+02
     33.676  0.0000E+00  0.0000E+00  0.3200E+02  0.3200E+02
