# ['Mg', 'O']

40 atoms
2 atom types

    0.0000     4.1065 xlo xhi
    0.0000     4.1065 ylo yhi
    0.0000    41.0652 zlo zhi

    0.0000     0.0000     0.0000 xy xz yz

Atoms

1 1     1.0000     2.0533     2.0533     0.0000
2 1     1.0000     2.0533     0.0000     2.0533
3 1     1.0000     0.0000     0.0000     0.0000
4 1     1.0000     0.0000     2.0533     2.0533
5 1     1.0000     2.0533     2.0533     4.1065
6 1     1.0000     2.0533     0.0000     6.1598
7 1     1.0000     0.0000     0.0000     4.1065
8 1     1.0000     0.0000     2.0533     6.1598
9 1     1.0000     2.0533     2.0533     8.2130
10 1     1.0000     2.0533     0.0000    10.2663
11 1     1.0000     0.0000     0.0000     8.2130
12 1     1.0000     0.0000     2.0533    10.2663
13 1     1.0000     2.0533     2.0533    12.3195
14 1     1.0000     2.0533     0.0000    14.3728
15 1     1.0000     0.0000     0.0000    12.3195
16 1     1.0000     0.0000     2.0533    14.3728
17 1     1.0000     2.0533     2.0533    16.4261
18 1     1.0000     2.0533     0.0000    18.4793
19 1     1.0000     0.0000     0.0000    16.4261
20 1     1.0000     0.0000     2.0533    18.4793
21 2     1.0000     0.0000     2.0533     0.0000
22 2     1.0000     2.0533     0.0000     0.0000
23 2     1.0000     2.0533     2.0533     2.0533
24 2     1.0000     0.0000     0.0000     2.0533
25 2     1.0000     0.0000     2.0533     4.1065
26 2     1.0000     2.0533     0.0000     4.1065
27 2     1.0000     2.0533     2.0533     6.1598
28 2     1.0000     0.0000     0.0000     6.1598
29 2     1.0000     0.0000     2.0533     8.2130
30 2     1.0000     2.0533     0.0000     8.2130
31 2     1.0000     2.0533     2.0533    10.2663
32 2     1.0000     0.0000     0.0000    10.2663
33 2     1.0000     0.0000     2.0533    12.3195
34 2     1.0000     2.0533     0.0000    12.3195
35 2     1.0000     2.0533     2.0533    14.3728
36 2     1.0000     0.0000     0.0000    14.3728
37 2     1.0000     0.0000     2.0533    16.4261
38 2     1.0000     2.0533     0.0000    16.4261
39 2     1.0000     2.0533     2.0533    18.4793
40 2     1.0000     0.0000     0.0000    18.4793
