# ['Ni']

18 atoms
1 atom types

    0.0000     2.6161 xlo xhi
    0.0000     4.5312 ylo yhi
    0.0000    38.4425 zlo zhi

    0.0000     0.0000    -0.0004 xy xz yz

Atoms

1 1     0.0000     0.0000     0.0000
2 1     1.3080     0.7552     2.1357
3 1     0.0000     1.5104     4.2714
4 1     1.3080     2.2656     0.0000
5 1     0.0000     3.0208     2.1357
6 1     1.3080     3.7760     4.2714
7 1     0.0000     0.0000     6.4071
8 1     1.3080     0.7552     8.5428
9 1     0.0000     1.5104    10.6785
10 1     1.3080     2.2656     6.4071
11 1     0.0000     3.0208     8.5428
12 1     1.3080     3.7760    10.6785
13 1     0.0000     0.0000    12.8141
14 1     1.3080     0.7552    14.9499
15 1     0.0000     1.5104    17.0855
16 1     1.3080     2.2656    12.8141
17 1     0.0000     3.0208    14.9499
18 1     1.3080     3.7760    17.0855
