# ['Ni']

20 atoms
1 atom types

    0.0000     2.9487 xlo xhi
    0.0000     2.9487 ylo yhi
    0.0000    29.4868 zlo zhi

    0.0000    -0.0000     0.0000 xy xz yz

Atoms

1 1     0.0000     0.0000     0.0000
2 1     1.4743     1.4743     0.0000
3 1     1.4743     0.0000     1.4743
4 1     0.0000     1.4743     1.4743
5 1     0.0000     0.0000     2.9487
6 1     1.4743     1.4743     2.9487
7 1     1.4743     0.0000     4.4230
8 1     0.0000     1.4743     4.4230
9 1     0.0000     0.0000     5.8974
10 1     1.4743     1.4743     5.8974
11 1     1.4743     0.0000     7.3717
12 1     0.0000     1.4743     7.3717
13 1     0.0000     0.0000     8.8460
14 1     1.4743     1.4743     8.8460
15 1     1.4743     0.0000    10.3204
16 1     0.0000     1.4743    10.3204
17 1     0.0000     0.0000    11.7947
18 1     1.4743     1.4743    11.7947
19 1     1.4743     0.0000    13.2691
20 1     0.0000     1.4743    13.2691
