LAMMPS (11 Aug 2017)
Reading data file ...
  triclinic box = (0 0 0) to (10.5496 10.5496 10.5496) with tilt (0 -0 -0)
  1 by 1 by 1 MPI processor grid
  reading atoms ...
  107 atoms
107 atoms in group Ni
Neighbor list info ...
  update every 1 steps, delay 0 steps, check yes
  max neighbors/atom: 2000, page size: 100000
  master list distance cutoff = 11
  ghost atom cutoff = 11
  binsize = 5.5, bins = 2 2 2
  1 neighbor lists, perpetual/occasional/extra = 1 0 0
  (1) pair eam/alloy, perpetual
      attributes: half, newton on
      pair build: half/bin/newton/tri
      stencil: half/bin/3d/newton/tri
      bin: standard
Setting up cg style minimization ...
  Unit style    : metal
  Current step  : 0
Per MPI rank memory allocation (min/avg/max) = 4.384 | 4.384 | 4.384 Mbytes
Step PotEng Lx Ly Lz Xy Xz Yz Press Pxx Pyy Pzz Pxy Pxz Pyz c_eatoms 
       0   -478.22696      10.5496      10.5496      10.5496            0           -0           -0   -6873.5283   -6873.5283   -6873.5283   -6873.5283 -1.5077954e-11 -3.5472314e-11 -4.232768e-11   -478.22696 
       1   -478.33595      10.5496      10.5496      10.5496            0           -0           -0    -8759.963    -8759.963    -8759.963    -8759.963 -1.6096757e-11 1.3289561e-12 4.4350296e-12   -478.33595 
       2   -478.35382      10.5496      10.5496      10.5496            0           -0           -0    -8986.171    -8986.171    -8986.171    -8986.171 2.0700681e-11 -4.1547023e-11 -3.9220883e-11   -478.35382 
       3   -478.35638      10.5496      10.5496      10.5496            0           -0           -0   -9155.7447   -9155.7447   -9155.7447   -9155.7447 -2.5215763e-11 -5.7666684e-12 -2.5539683e-11   -478.35638 
       4   -478.35644      10.5496      10.5496      10.5496            0           -0           -0   -9162.9827   -9162.9827   -9162.9827   -9162.9827 2.1885552e-11 2.2023028e-11 3.3494529e-11   -478.35644 
       5   -478.35646      10.5496      10.5496      10.5496            0           -0           -0   -9166.4959   -9166.4959   -9166.4959   -9166.4959 2.1695467e-11 1.6736894e-11 2.3627777e-11   -478.35646 
       6   -478.35646      10.5496      10.5496      10.5496            0           -0           -0   -9164.8303   -9164.8303   -9164.8303   -9164.8303 1.4284616e-11 1.6957989e-11 6.341154e-12   -478.35646 
       7   -478.35646      10.5496      10.5496      10.5496            0           -0           -0   -9164.9492   -9164.9492   -9164.9492   -9164.9492 -3.5379259e-12 3.2919017e-11  2.51887e-13   -478.35646 
       8   -478.35646      10.5496      10.5496      10.5496            0           -0           -0   -9164.9522   -9164.9522   -9164.9522   -9164.9522 1.4533262e-11 -2.0479948e-11 -2.6391203e-11   -478.35646 
       9   -478.35646      10.5496      10.5496      10.5496            0           -0           -0   -9164.9387   -9164.9387   -9164.9387   -9164.9387 -2.2141703e-12 1.998437e-11 1.6219598e-11   -478.35646 
      10   -478.35646      10.5496      10.5496      10.5496            0           -0           -0   -9164.9334   -9164.9334   -9164.9334   -9164.9334 1.415692e-11 -1.0818071e-11 -2.4753528e-11   -478.35646 
      11   -478.35646      10.5496      10.5496      10.5496            0           -0           -0   -9164.9347   -9164.9347   -9164.9347   -9164.9347 1.6719265e-11 1.0927702e-11 3.0778861e-11   -478.35646 
      12   -478.35646      10.5496      10.5496      10.5496            0           -0           -0   -9164.9347   -9164.9347   -9164.9347   -9164.9347 1.818265e-11 -2.5473171e-11 -2.3723728e-11   -478.35646 
      13   -478.35646      10.5496      10.5496      10.5496            0           -0           -0   -9164.9344   -9164.9344   -9164.9344   -9164.9344 -2.9349627e-12 1.0150173e-11 4.3895844e-11   -478.35646 
      14   -478.35646      10.5496      10.5496      10.5496            0           -0           -0   -9164.9344   -9164.9344   -9164.9344   -9164.9344 3.0972439e-12 -2.3128305e-11 -1.6898932e-11   -478.35646 
      15   -478.35646      10.5496      10.5496      10.5496            0           -0           -0   -9164.9344   -9164.9344   -9164.9344   -9164.9344 3.0460809e-11 4.0385832e-11 2.6544831e-11   -478.35646 
      16   -478.35646      10.5496      10.5496      10.5496            0           -0           -0   -9164.9344   -9164.9344   -9164.9344   -9164.9344 1.0914736e-11 3.3184661e-13 6.2877987e-12   -478.35646 
      17   -478.35646      10.5496      10.5496      10.5496            0           -0           -0   -9164.9344   -9164.9344   -9164.9344   -9164.9344 1.1875779e-11 1.1895464e-11 8.7115593e-12   -478.35646 
      18   -478.35646      10.5496      10.5496      10.5496            0           -0           -0   -9164.9344   -9164.9344   -9164.9344   -9164.9344 -1.7594327e-11 1.320923e-11 7.5871765e-12   -478.35646 
      19   -478.35646      10.5496      10.5496      10.5496            0           -0           -0   -9164.9344   -9164.9344   -9164.9344   -9164.9344 -1.4797977e-11 2.8991819e-11 3.1659482e-11   -478.35646 
      20   -478.35646      10.5496      10.5496      10.5496            0           -0           -0   -9164.9344   -9164.9344   -9164.9344   -9164.9344 1.623585e-11 3.9365133e-11 3.1150474e-11   -478.35646 
      21   -478.35646      10.5496      10.5496      10.5496            0           -0           -0   -9164.9344   -9164.9344   -9164.9344   -9164.9344 -1.9242497e-11 3.0299902e-11 4.6300285e-11   -478.35646 
      22   -478.35646      10.5496      10.5496      10.5496            0           -0           -0   -9164.9344   -9164.9344   -9164.9344   -9164.9344 6.0644196e-12 3.6225833e-11 3.1156001e-11   -478.35646 
      23   -478.35646      10.5496      10.5496      10.5496            0           -0           -0   -9164.9344   -9164.9344   -9164.9344   -9164.9344 1.0762539e-11 2.2143781e-11 4.5487984e-11   -478.35646 
      24   -478.35646      10.5496      10.5496      10.5496            0           -0           -0   -9164.9344   -9164.9344   -9164.9344   -9164.9344 3.7971768e-11 5.2333993e-11 3.3361744e-11   -478.35646 
      25   -478.35646      10.5496      10.5496      10.5496            0           -0           -0   -9164.9344   -9164.9344   -9164.9344   -9164.9344 1.8684369e-11 4.3161439e-11 3.2908872e-11   -478.35646 
      26   -478.35646      10.5496      10.5496      10.5496            0           -0           -0   -9164.9344   -9164.9344   -9164.9344   -9164.9344 1.8941514e-11 5.1820018e-11 4.0272562e-11   -478.35646 
      27   -478.35646      10.5496      10.5496      10.5496            0           -0           -0   -9164.9344   -9164.9344   -9164.9344   -9164.9344 1.0414896e-11 4.0611387e-11 3.092221e-11   -478.35646 
      28   -478.35646      10.5496      10.5496      10.5496            0           -0           -0   -9164.9344   -9164.9344   -9164.9344   -9164.9344 1.4923205e-11 6.1897135e-11 3.554296e-11   -478.35646 
      29   -478.35646      10.5496      10.5496      10.5496            0           -0           -0   -9164.9344   -9164.9344   -9164.9344   -9164.9344 2.7344438e-11 5.3112503e-11 3.9745901e-11   -478.35646 
      30   -478.35646      10.5496      10.5496      10.5496            0           -0           -0   -9164.9344   -9164.9344   -9164.9344   -9164.9344 -4.3137337e-12 3.7311527e-11 2.5955851e-11   -478.35646 
      31   -478.35646      10.5496      10.5496      10.5496            0           -0           -0   -9164.9344   -9164.9344   -9164.9344   -9164.9344 -3.428633e-11 3.2251387e-11 3.4982686e-11   -478.35646 
      32   -478.35646      10.5496      10.5496      10.5496            0           -0           -0   -9164.9344   -9164.9344   -9164.9344   -9164.9344 3.056366e-12 4.321973e-11 4.8572698e-11   -478.35646 
      33   -478.35646      10.5496      10.5496      10.5496            0           -0           -0   -9164.9344   -9164.9344   -9164.9344   -9164.9344 -5.417588e-13 2.9793043e-11 3.8895636e-11   -478.35646 
      34   -478.35646      10.5496      10.5496      10.5496            0           -0           -0   -9164.9344   -9164.9344   -9164.9344   -9164.9344 -2.5808979e-11 3.8887522e-11 2.9882445e-11   -478.35646 
Loop time of 0.17261 on 1 procs for 34 steps with 107 atoms

70.6% CPU use with 1 MPI tasks x no OpenMP threads

Minimization stats:
  Stopping criterion = energy tolerance
  Energy initial, next-to-last, final = 
        -478.226961426     -478.356463177     -478.356463177
  Force two-norm initial, final = 1.01218 3.11586e-14
  Force max component initial, final = 0.204047 6.50174e-15
  Final line search alpha, max atom move = 1 6.50174e-15
  Iterations, force evaluations = 34 68

MPI task timing breakdown:
Section |  min time  |  avg time  |  max time  |%varavg| %total
---------------------------------------------------------------
Pair    | 0.17038    | 0.17038    | 0.17038    |   0.0 | 98.71
Neigh   | 0          | 0          | 0          |   0.0 |  0.00
Comm    | 0.0010476  | 0.0010476  | 0.0010476  |   0.0 |  0.61
Output  | 0.0007391  | 0.0007391  | 0.0007391  |   0.0 |  0.43
Modify  | 0          | 0          | 0          |   0.0 |  0.00
Other   |            | 0.0004458  |            |       |  0.26

Nlocal:    107 ave 107 max 107 min
Histogram: 1 0 0 0 0 0 0 0 0 0
Nghost:    3259 ave 3259 max 3259 min
Histogram: 1 0 0 0 0 0 0 0 0 0
Neighs:    28093 ave 28093 max 28093 min
Histogram: 1 0 0 0 0 0 0 0 0 0

Total # of neighbors = 28093
Ave neighs/atom = 262.551
Neighbor list builds = 0
Dangerous builds = 0
pypospack:output_section:begin
tot_energy = -478.356463176721
num_atoms = 107
a11 = 10.5496
a22 = 10.5496
a33 = 10.5496
a12 = 0
a13 = -0
a23 = -0
tot_press = -9164.93443062679
pxx = -9164.93443062681
pyy = -9164.93443062678
pzz = -9164.93443062678
pxy = -2.58089785865285e-11
pxz = 3.88875217456336e-11
pyz = 2.98824451188307e-11
pypospack:output_section:done
pypospack:lammps_sim:done
Total wall time: 0:00:00
