LAMMPS (10 Feb 2015)
Reading data file ...
  triclinic box = (0 0 0) to (4.2565 4.2565 4.2565) with tilt (0 0 0)
  1 by 1 by 1 MPI processor grid
  reading atoms ...
  8 atoms
4 atoms in group Mg
4 atoms in group O
Setting atom values ...
  4 settings made for charge
Setting atom values ...
  4 settings made for charge
PPPM initialization ...
  G vector (1/distance) = 0.352799
  grid = 8 8 8
  stencil order = 5
  estimated absolute RMS force accuracy = 3.93787e-05
  estimated relative force accuracy = 2.7347e-06
  using double precision FFTs
  3d grid and FFT values/proc = 3375 512
Neighbor list info ...
  1 neighbor list requests
  update every 1 steps, delay 0 steps, check yes
  master list distance cutoff = 11
Setting up minimization ...
Memory usage per processor = 4.06549 Mbytes
Step PotEng Lx Ly Lz Xy Xz Yz Press Pxx Pyy Pzz Pxy Pxz Pyz eatoms 
       0   -110.27609       4.2565       4.2565       4.2565            0            0            0    110960.29    110960.29    110960.29    110960.29 9.3314123e-11 1.6239754e-10 5.8891323e-11   -110.27609 
      10   -110.39349     4.299065     4.299065     4.299065            0            0            0    52923.265    52923.265    52923.265    52923.265 1.8718586e-11 -3.674075e-11 -9.001309e-11   -110.39349 
      20   -110.43343      4.34163      4.34163      4.34163            0            0            0    2089.5567    2089.5567    2089.5567    2089.5567 6.9298069e-11 -1.296578e-10 -9.997383e-11   -110.43343 
      22   -110.43352     4.343513     4.343513     4.343513            0            0            0   -5.7193123   -5.7193123   -5.7193123   -5.7193123 4.586585e-11 9.062077e-11 2.6249224e-10   -110.43352 
Loop time of 0.0137589 on 1 procs for 22 steps with 8 atoms

Minimization stats:
  Stopping criterion = linesearch alpha is zero
  Energy initial, next-to-last, final = 
        -110.276087498     -110.433524975     -110.433524975
  Force two-norm initial, final = 16.0227 0.00180648
  Force max component initial, final = 16.0227 0.000859982
  Final line search alpha, max atom move = 0.00390625 3.35931e-06
  Iterations, force evaluations = 22 39

Pair  time (%) = 0.00366044 (26.6042)
Kspce time (%) = 0.00219679 (15.9663)
Neigh time (%) = 0 (0)
Comm  time (%) = 0.000452042 (3.28545)
Outpt time (%) = 3.19481e-05 (0.232199)
Other time (%) = 0.00741768 (53.9119)

Nlocal:    8 ave 8 max 8 min
Histogram: 1 0 0 0 0 0 0 0 0 0
Nghost:    2189 ave 2189 max 2189 min
Histogram: 1 0 0 0 0 0 0 0 0 0
Neighs:    2344 ave 2344 max 2344 min
Histogram: 1 0 0 0 0 0 0 0 0 0

Total # of neighbors = 2344
Ave neighs/atom = 293
Neighbor list builds = 0
Dangerous builds = 0
pypospack:output_section:begin
tot_energy = -110.433524975286
num_atoms = 8
xx = 4.34351296178449
yy = 4.34351296178449
zz = 4.34351296178449
xy = 0
xz = 0
yz = 0
tot_press = -5.71931225965551
pxx = -5.71931225981032
pyy = -5.71931225968463
pzz = -5.71931225947158
pxy = 4.5865850341772e-11
pxz = 9.06207702771322e-11
pyz = 2.62492238241466e-10
pypospack:output_section:done
pypospack:lammps_sim:done
PPPM initialization ...
  G vector (1/distance) = 0.351923
  grid = 8 8 8
  stencil order = 5
  estimated absolute RMS force accuracy = 4.10067e-05
  estimated relative force accuracy = 2.84776e-06
  using double precision FFTs
  3d grid and FFT values/proc = 3375 512
Setting up run ...
Memory usage per processor = 3.06549 Mbytes
Step Temp PotEng KinEng TotEng Press Lx Ly Lz Press Pxx Pyy Pzz Pxy Pxz Pyz Volume 
       0          900   -110.43354   0.81433891    -109.6192    10606.739     4.343513     4.343513     4.343513    10606.739    7395.1463    13700.815    10724.257     -5711.61   -6435.0115    6961.8038    81.945171 
     100    301.14968   -109.78424   0.27248656   -109.51176    4094.2786    4.3793785    4.3793785    4.3793785    4094.2786   -12628.684    27892.502    -2980.982    736.49825    2573.6349   -7648.8666     83.99191 
     200    742.70222   -109.96444   0.67201257   -109.29243   -29397.237    4.3952168    4.3952168    4.3952168   -29397.237    -37683.81   -11695.901   -38811.999    6059.4076   -2990.0157    4734.9073    84.906493 
     300    520.73653   -109.56352   0.47117335   -109.09235     35472.02    4.3679772    4.3679772    4.3679772     35472.02   -15635.446    81064.337    40987.171   -1390.6331   -141.91259   -5533.4096     83.33762 
     400     672.5287   -109.56498    0.6085181   -108.95646   -20406.648    4.3938006    4.3938006    4.3938006   -20406.648   -45487.375   -11308.852   -4423.7165    11529.833    1681.7849    -2449.373    84.824445 
     500    918.71767   -109.67597   0.83127506   -108.84469   -21703.084    4.3998113    4.3998113    4.3998113   -21703.084   -30194.182    -18345.35    -16569.72    8571.0424   -2364.9359    11796.993    85.173039 
     600    871.77464   -109.58211   0.78880002   -108.79331    26684.287     4.384854     4.384854     4.384854    26684.287     -5441.62    8360.0197    77134.461   -1052.1165    10315.826   -21846.977    84.307348 
     700     1190.103   -109.86382    1.0768302   -108.78699   -28214.159    4.4007557    4.4007557    4.4007557   -28214.159   -50679.623    -43971.87    10009.018    12002.253   -9974.6295    8548.9379    85.227899 
     800      959.994   -109.64965   0.86862274   -108.78103    6764.7067    4.3947669    4.3947669    4.3947669    6764.7067   -23620.784   -36449.436    80364.341   -1423.6161    3708.7018    3655.1361    84.880422 
     900    891.24815   -109.59456   0.80642006   -108.78814    -7545.727     4.396737     4.396737     4.396737    -7545.727   -28497.821   -9186.5233    15047.163    7599.9849    568.88447   -6667.6253    84.994627 
    1000    653.20769   -109.38447   0.59103605   -108.79344    1094.2227    4.3923717    4.3923717    4.3923717    1094.2227   -32366.083   -2552.7556    38201.507    10683.075   -982.22404    11398.314    84.741713 
    1100    976.13944   -109.68235   0.88323148   -108.79912    677.73825    4.3900215    4.3900215    4.3900215    677.73825   -26507.161    -23209.21    51749.585   -5741.7319    4884.5226   -1979.7716    84.605764 
    1200    1030.2933   -109.73773   0.93223107    -108.8055   -22201.519    4.3984708    4.3984708    4.3984708   -22201.519   -33662.417   -35724.979    2782.8389    12628.914    2194.6693    3119.6708    85.095214 
    1300    1104.0788   -109.79732   0.99899368   -108.79832   -343.68102    4.3868006    4.3868006    4.3868006   -343.68102   -16222.521    478.56891    14712.909     12147.99   -4436.6924    5478.6528    84.419674 
    1400    1026.5468   -109.72972    0.9288411   -108.80088   -12725.205    4.3964745    4.3964745    4.3964745   -12725.205   -29534.626    -22138.86    13497.871    1548.7414   -6014.8001   -5609.6507    84.979405 
    1500    859.26929   -109.57977   0.77748492   -108.80228   -12201.268     4.389022     4.389022     4.389022   -12201.268   -35684.472    2748.3551   -3667.6885     16211.43    7206.3563    -620.7312    84.547985 
    1600    696.85474   -109.43741   0.63052882   -108.80688    24327.764    4.3816414    4.3816414    4.3816414    24327.764   -15955.878     25015.41     63923.76   -75.059028   -8397.5891    6193.3275    84.122174 
    1700    923.77404   -109.64227   0.83585017   -108.80642   -24018.155    4.4032644    4.4032644    4.4032644   -24018.155   -35064.199   -24017.444   -12972.822    7387.0162     5134.905    6013.7849    85.373734 
    1800    721.26195   -109.44645   0.65261297   -108.79383    10433.287    4.3879341    4.3879341    4.3879341    10433.287   -24823.409    33069.256    23054.015    8804.9979   -2226.3028   -6306.1196    84.485133 
    1900     916.6433   -109.62189   0.82939812   -108.79249    12123.871    4.3915584    4.3915584    4.3915584    12123.871   -17407.797    1367.7251    52411.684   -9592.6263   -5194.1429    10463.422    84.694652 
    2000    1290.5211   -109.95841    1.1676906   -108.79072   -26981.943    4.4011206    4.4011206    4.4011206   -26981.943   -24392.419   -40440.546   -16112.863     346.8704    3908.2862   -1949.9543    85.249099 
    2100    648.00611   -109.37842   0.58632955    -108.7921    24402.987    4.3814506    4.3814506    4.3814506    24402.987   -8991.0174    28513.295    53686.683    11183.184   -70.514608    12886.189    84.111186 
    2200    1192.7759   -109.87545    1.0792487    -108.7962   -19353.009    4.3935008    4.3935008    4.3935008   -19353.009    -26453.61   -13635.711   -17969.705    3725.1423    12175.871   -9257.8276    84.807081 
    2300    819.56124   -109.53354   0.74155623   -108.79198   -23310.818    4.4096863    4.4096863    4.4096863   -23310.818   -4637.3087   -45385.019   -19910.127   -1083.3872   -7807.8788    9220.6771    85.747821 
    2400    798.34779   -109.50967   0.72236186    -108.7873    31967.748    4.3784879    4.3784879    4.3784879    31967.748   -596.80512    26423.043    70077.005    1711.3302    6002.2607   -17487.703    83.940676 
    2500    1072.8205    -109.7784   0.97071055   -108.80769   -11803.704    4.3947858    4.3947858    4.3947858   -11803.704    16462.142   -25784.913   -26088.342    2458.4025    5758.5906    2164.6054     84.88152 
    2600    855.49034   -109.56593   0.77406563   -108.79186   -8161.6918     4.409689     4.409689     4.409689   -8161.6918   -2651.7375   -43536.016    21702.678    5703.5489    1222.0794   -10227.581    85.747975 
    2700    1158.9225   -109.83132    1.0486175    -108.7827    12104.589    4.3801288    4.3801288    4.3801288    12104.589   -5790.2918    9721.1022    32382.957   -734.34083   -9206.6297    113.04559    84.035085 
    2800     1220.787   -109.91013    1.1045938   -108.80553   -17375.019     4.397068     4.397068     4.397068   -17375.019   -8913.3688   -35674.571   -7537.1174   -3010.9853    4513.7002   -9563.5795    85.013821 
    2900    616.05576   -109.35418   0.55742019   -108.79676   -536.50145     4.414116     4.414116     4.414116   -536.50145   -1939.2829   -32044.642    32374.421    1370.6081   -5680.5127    7880.7971    86.006488 
    3000    1219.0731   -109.88558     1.103043   -108.78254   -4223.2477     4.381135     4.381135     4.381135   -4223.2477   -21515.291     7798.956    1046.5924    757.80587    9884.7513    -8988.786    84.093012 
    3100    914.90492   -109.63911    0.8278252   -108.81128   -3836.8063     4.393021     4.393021     4.393021   -3836.8063    18690.486   -19072.955    -11127.95   -4421.3944   -4254.8727    2401.0994      84.7793 
    3200    660.21974   -109.39584   0.59738069   -108.79846    2787.0972    4.4130071    4.4130071    4.4130071    2787.0972   -18140.221     -14970.1    41471.613   -5491.4841    5555.5872   -7818.1547     85.94169 
    3300    1263.4977   -109.92301    1.1432392   -108.77977   -6726.8142    4.3895936    4.3895936    4.3895936   -6726.8142   -13856.146   -282.66104   -6041.6355    448.14839    2752.5581   -1667.5901    84.581023 
    3400      781.966   -109.50566   0.70753927   -108.79812     9091.039    4.3916727    4.3916727    4.3916727     9091.039    17008.454   -15740.795    26005.459   -9392.6191   -9787.0022   -6037.2258    84.701267 
    3500    534.27774    -109.2888   0.48342572   -108.80538    5132.1491    4.4016604    4.4016604    4.4016604    5132.1491   -22196.773    2714.6541    34878.567   -13555.992   -2608.1667    5371.3029    85.280473 
    3600    1211.9549    -109.8897    1.0966023    -108.7931   -13282.958    4.3873494    4.3873494    4.3873494   -13282.958   -13955.875   -6621.5932   -19271.406    1874.8474    5974.0721   -18098.308    84.451365 
    3700    339.36303   -109.10988    0.3070628   -108.80282    32062.385    4.3953843    4.3953843    4.3953843    32062.385    5814.5795    18263.847    72108.729    -8329.839   -12625.669    3589.8166    84.916202 
    3800    1182.2498   -109.86311    1.0697244   -108.79339   -24313.784    4.3986898    4.3986898    4.3986898   -24313.784   -21159.936   -27017.084   -24764.332   -6548.9822    9066.3016    2853.3173    85.107929 
    3900    455.57857   -109.20456   0.41221706   -108.79234    14248.191    4.3927278    4.3927278    4.3927278    14248.191   -12106.501    34577.375      20273.7   -9159.9761   -4293.1171   -1739.5929    84.762329 
    4000    998.79776   -109.69014    0.9037332   -108.78641   -3099.3375    4.3958756    4.3958756    4.3958756   -3099.3375    21667.679    1379.4589    -32345.15   -8345.6573   -4983.6836    9670.8492    84.944678 
    4100    911.40622   -109.60896    0.8246595    -108.7843    16705.527    4.3915274    4.3915274    4.3915274    16705.527   -10640.006    1667.0148    59089.573   -156.82966    9996.0231    -2417.641    84.692861 
    4200    968.61446   -109.67088   0.87642272   -108.79445   -15984.416    4.4017103    4.4017103    4.4017103   -15984.416   -24875.935    4772.2051   -27849.519   -8350.2377    2170.6634   -7046.5536    85.283375 
    4300    921.27945   -109.62611   0.83359301   -108.79252    16483.542    4.3863622    4.3863622    4.3863622    16483.542    11887.571     8481.036     29082.02    4517.1571    7139.3652   -156.92816     84.39437 
    4400    883.79753   -109.60044   0.79967858   -108.80076   -3121.6244    4.3955512    4.3955512    4.3955512   -3121.6244   -8431.6425    6132.3711   -7065.6018    -3898.582   -298.56483   -2096.7084    84.925872 
    4500    924.78345   -109.62977    0.8367635     -108.793   -33396.116    4.4032992    4.4032992    4.4032992   -33396.116   -33504.418   -31148.233   -35535.696    -5363.794   -7113.7076   -12546.709    85.375759 
    4600     631.3248   -109.35753   0.57123594    -108.7863    42260.437    4.3724381    4.3724381    4.3724381    42260.437    34748.718    21080.353    70952.241    286.91394    -11630.59       1165.9    83.593212 
    4700    1148.4393   -109.84259     1.039132   -108.80346   -18348.153    4.3981113    4.3981113    4.3981113   -18348.153   -28166.125    1750.2611   -28628.595   -3147.5252    7316.2584    1639.5722    85.074349 
    4800    827.48292   -109.54153   0.74872394   -108.79281   -16082.447    4.4100966    4.4100966    4.4100966   -16082.447   -26365.949    -40878.01    18996.619    6689.5985   -6980.3395   -1436.6094    85.771756 
    4900    1132.3207   -109.80408    1.0245475   -108.77954    14263.756    4.3734345    4.3734345    4.3734345    14263.756     26065.92    9862.5972     6862.751    2450.7557    500.86362    771.48162    83.650375 
    5000    943.81728   -109.64887   0.85398571   -108.79488   -4719.0848    4.3922646    4.3922646    4.3922646   -4719.0848   -11187.884     1966.845    -4936.216   -1611.4362    7954.1177   -3619.2854    84.735516 
    5100    864.65338   -109.57112   0.78235655   -108.78877   -26188.599     4.407534     4.407534     4.407534   -26188.599   -32445.498   -37208.208   -8912.0905    7976.8751   -7027.0237   -11674.318    85.622323 
    5200    1002.8266   -109.68467   0.90737855   -108.77729    26316.134    4.3688633    4.3688633    4.3688633    26316.134     31371.16     21434.22    26143.023     2170.256    3891.2204    7068.7858    83.388347 
    5300    629.00406   -109.37849   0.56913609   -108.80935   -7192.7956    4.4025641    4.4025641    4.4025641   -7192.7956   -10150.415   -4534.5926   -6893.3797   -514.11051   -2921.4513   -13926.693    85.333009 
    5400    1125.9828   -109.81541    1.0188129    -108.7966   -27469.075    4.4025221    4.4025221    4.4025221   -27469.075   -38643.084   -39142.825   -4621.3167    2218.3955    8314.6673   -9238.1929    85.330569 
    5500    1105.7376    -109.7885    1.0004947   -108.78801     20137.98    4.3684103    4.3684103    4.3684103     20137.98    19727.017    16839.448    23847.477    4595.6346   -7771.2288   -2691.1262    83.362411 
    5600    915.97577     -109.647   0.82879412   -108.81821    6812.8122    4.3962994    4.3962994    4.3962994    6812.8122   -3324.4124   -10248.701     34011.55    2796.9014    9677.4861    8421.6306    84.969248 
    5700    1014.3173    -109.7247    0.9177756   -108.80692   -40526.762    4.4078788    4.4078788    4.4078788   -40526.762   -36527.282   -47312.973   -37740.031   -1321.5743   -10324.398   -9795.9865    85.642419 
    5800     794.2781   -109.50197   0.71867952   -108.78329    20135.769    4.3596182    4.3596182    4.3596182    20135.769    17579.241    40680.382    2147.6851    632.83617    8325.3851   -8204.9071    82.860086 
    5900    684.61125   -109.43641   0.61945065   -108.81696    18940.632    4.3914819    4.3914819    4.3914819    18940.632    3099.8303   -5451.4583    59173.523    644.01346    8967.0286    7731.3418    84.690223 
    6000    761.53406   -109.48848   0.68905202   -108.79943   -24153.855    4.4097551    4.4097551    4.4097551   -24153.855   -44333.997    -9578.743   -18548.825    7822.1046   -15973.135   -933.74694    85.751836 
    6100    1021.1019   -109.70104   0.92391445   -108.77712    13769.977    4.3648516    4.3648516    4.3648516    13769.977   -5011.1525    23135.961    23185.122    480.51363    11843.659   -11856.547    83.158847 
    6200    783.93659    -109.5095    0.7093223   -108.80017   -7617.9921    4.3956856    4.3956856    4.3956856   -7617.9921    -44708.03   -646.05598     22500.11    2044.9437    2287.0639    922.55919    84.933666 
    6300    1024.1971   -109.72445   0.92671505   -108.79773   -32591.541    4.3976018    4.3976018    4.3976018   -32591.541   -48126.912   -27683.831   -21963.881    3759.0123    -16189.49   -6302.2639    85.044789 
    6400    723.75035   -109.45265   0.65486452   -108.79779    32127.289     4.371875     4.371875     4.371875    32127.289   -21565.097    50961.339    66985.626   -1363.1469    17404.903    2658.7031    83.560917 
    6500    1039.1945   -109.75079   0.94028506    -108.8105   -18221.349     4.397224     4.397224     4.397224   -18221.349   -20129.714   -22342.413   -12191.919    4071.0083   -7200.2965   -4021.8926    85.022869 
    6600    763.96015    -109.4952    0.6912472   -108.80395   -10921.228    4.3960523    4.3960523    4.3960523   -10921.228   -35127.598   -7801.2028    10165.116      2666.43   -6244.5031   -5445.5112    84.954925 
    6700    1164.1841    -109.8473    1.0533782   -108.79392    7201.4986    4.3763812    4.3763812    4.3763812    7201.4986   -8293.9334    17074.387    12824.043    2981.9008    9121.5855     9331.925    83.819573 
    6800    701.62789   -109.44683   0.63484766   -108.81199    10828.845    4.3879367    4.3879367    4.3879367    10828.845   -21596.881   -12024.648    66108.064   -2532.8115   -11357.526   -1338.6559     84.48528 
    6900     776.1023   -109.51548   0.70223367   -108.81324   -16049.444    4.4001552    4.4001552    4.4001552   -16049.444   -22677.574    2505.2358   -27975.993    78.798377   -2842.9382   -475.83634    85.193016 
    7000    939.41511   -109.64763   0.85000253   -108.79762    23035.837    4.3771575    4.3771575    4.3771575    23035.837    3356.4409     20185.13    45565.941   -4099.1022    7718.2389    2382.6634    83.864181 
    7100    858.82632   -109.58541   0.77708411   -108.80832    8576.9006     4.385022     4.385022     4.385022    8576.9006   -7794.9436   -11829.237    45354.882   -1168.1529   -3982.5461    5964.3422    84.317035 
    7200    908.47013   -109.62745   0.82200286   -108.80545   -18390.684    4.4020393    4.4020393    4.4020393   -18390.684   -15107.213   -6718.7624   -33346.076   -2766.2739   -664.63885   -7827.8919    85.302497 
    7300    889.28222   -109.60436   0.80464124   -108.79972   -1860.6668    4.3878513    4.3878513    4.3878513   -1860.6668   -16333.213    2400.0369    8351.1757    1933.7432    -4948.128   -8942.0035    84.480352 
    7400    854.97667   -109.57406   0.77360086   -108.80046    21353.768    4.3771342    4.3771342    4.3771342    21353.768   -13477.274    16807.918     60730.66   -3090.4256   -8754.6321    2261.9952    83.862844 
    7500    982.95703   -109.69599   0.88940018   -108.80659   -14374.966    4.4034366    4.4034366    4.4034366   -14374.966   -15980.306   -10601.794   -16542.798   -1410.4031    397.46077   -4267.6825    85.383756 
    7600    894.82424   -109.60131   0.80965577   -108.79166   -13678.483    4.3989735    4.3989735    4.3989735   -13678.483   -34084.708   -19262.053    12311.313    4389.7829    -1109.854    -639.5492    85.124394 
    7700    1095.7085   -109.76968   0.99142005   -108.77826    5378.7002    4.3655773    4.3655773    4.3655773    5378.7002   -6449.9767    14235.774    8350.3033   -1317.0579   -9964.3086     6417.084    83.200329 
    7800    619.25676   -109.36307   0.56031653   -108.80276    8598.6823     4.396537     4.396537     4.396537    8598.6823   -18232.927   -6747.8473    50776.821   -830.29011    845.88714   -1785.2201    84.983027 
    7900    1270.5076   -109.93295    1.1495819   -108.78337   -46948.978    4.4144452    4.4144452    4.4144452   -46948.978   -60351.505   -32177.054   -48318.376    -2941.282   -1512.7224   -5044.1822    86.025732 
    8000     646.9024   -109.36416   0.58533088   -108.77883    41964.026    4.3664082    4.3664082    4.3664082    41964.026    9417.5109     36979.51    79495.057   -1111.7354   -8845.7677    1758.9901    83.247843 
    8100    1109.0687   -109.80125    1.0035086   -108.79775    383.82364    4.3801565    4.3801565    4.3801565    383.82364   -12634.767    19331.854   -5545.6163    1582.2737    4770.6472   -2652.3567    84.036681 
    8200    893.05748   -109.60132   0.80805718   -108.79326    -35420.99    4.4172156    4.4172156    4.4172156    -35420.99   -53083.878     -11486.8   -41692.292   -485.49803   -4967.4576    705.10069    86.187802 
    8300    663.50284   -109.38705   0.60035132    -108.7867    40840.817    4.3741789    4.3741789    4.3741789    40840.817    9219.0486    16683.837    96619.566   -1055.6757   -875.82835   -14880.954    83.693096 
    8400    1070.9636    -109.7715   0.96903041   -108.80247   -16651.692    4.3836416    4.3836416    4.3836416   -16651.692   -28054.864   -5816.6336   -16083.577    840.58181     6485.806   -2134.7477    84.237434 
    8500    871.23633    -109.5851   0.78831294   -108.79679   -10219.105    4.4007118    4.4007118    4.4007118   -10219.105   -32219.583   -5141.6069    6703.8758    969.77709    3066.5512   -3075.1134     85.22535 
    8600    744.66199   -109.46809   0.67378582    -108.7943    22508.939    4.3822076    4.3822076    4.3822076    22508.939   -18989.886    26572.243    59944.461   -1257.3617    3647.6482   -3706.2894    84.154793 
    8700    921.89193   -109.64089   0.83414719   -108.80674    -9776.059    4.3895898    4.3895898    4.3895898    -9776.059   -38328.841   -8731.2841    17731.948    770.34477    2213.5333   -18320.515    84.580803 
    8800    776.26179   -109.49995   0.70237798   -108.79757     16034.04    4.3954855    4.3954855    4.3954855     16034.04   -32401.201     22515.44    57987.879   -460.56348   -7469.1814   -1234.3359    84.922065 
    8900     1057.336   -109.74308   0.95669981   -108.78638   -10168.247    4.3866739    4.3866739    4.3866739   -10168.247     -19370.7    3860.3967   -14994.437    5360.1884    6174.9624   -2729.3963    84.412363 
    9000    677.38725   -109.40307   0.61291422   -108.79016   -6824.8365    4.3918873    4.3918873    4.3918873   -6824.8365   -34726.063    8670.8158    5580.7376   -2177.9515   -1402.6105   -11094.727     84.71368 
    9100     1072.705   -109.75844     0.970606   -108.78784    6373.0947    4.3902141    4.3902141    4.3902141    6373.0947   -13796.711    2377.4979    30538.498     366.2658   -3685.0334    4613.8985    84.616899 
    9200    921.28902    -109.6299   0.83360166    -108.7963   -10363.255    4.3863394    4.3863394    4.3863394   -10363.255   -22412.677   -37809.978    29132.889    4492.3209     2973.371   -286.16034    84.393053 
    9300    556.78152   -109.30381   0.50378762   -108.80002    4215.3805    4.3883449    4.3883449    4.3883449    4215.3805   -22073.001   -8783.8233    43502.965    1158.5144    6637.4073   -14792.584    84.508862 
    9400    1309.3836   -109.97362    1.1847578   -108.78886   -4118.0873    4.3802888    4.3802888    4.3802888   -4118.0873   -15562.301   -2298.9382    5506.9776    5861.5556    4516.6228    2473.4183    84.044296 
    9500    822.81624    -109.5424   0.74450143   -108.79789   -13458.534    4.3932238    4.3932238    4.3932238   -13458.534   -13888.506   -15067.824    -11419.27   -4276.4357   -47.359372   -1506.5003    84.791044 
    9600    921.55074   -109.62646   0.83383847   -108.79263   -10779.246    4.3925438    4.3925438    4.3925438   -10779.246   -17355.437   -27156.286    12173.985     437.0142     11376.96   -8083.4255    84.751675 
    9700     994.7214   -109.68963   0.90004483   -108.78958    16107.137    4.3780487    4.3780487    4.3780487    16107.137   -953.33236    10624.521    38650.223    8636.9575    3613.6449    3111.9854    83.915421 
    9800    686.78073   -109.42302   0.62141364   -108.80161   -8016.5924    4.3948307    4.3948307    4.3948307   -8016.5924    1245.4374   -34386.361     9091.146    2099.8113   -6756.5595   -1857.3299    84.884121 
    9900       982.73    -109.6791   0.88919476    -108.7899   -10740.314    4.3885958    4.3885958    4.3885958   -10740.314   -11287.706   -21673.256    740.02071   -2492.3039    6066.4127   -13032.825    84.523358 
   10000    805.58653   -109.51749   0.72891162   -108.78858    7785.6288    4.3843105    4.3843105    4.3843105    7785.6288   -1056.1679   -22600.584    47013.639     1944.269   -1668.5639    11527.208    84.275999 
   10100    1222.5367   -109.89526    1.1061769   -108.78908   -22989.857    4.3872083    4.3872083    4.3872083   -22989.857   -17332.104   -28675.689   -22961.779    3861.8509   -7711.7811   -15339.114    84.443214 
   10200    705.53947   -109.43721   0.63838694   -108.79883    19528.584    4.3857767    4.3857767    4.3857767    19528.584    3394.5761   -4853.4879    60044.663   -1164.9235   -532.86781   -9024.0676     84.36058 
   10300    1065.7811   -109.76672   0.96434111   -108.80238   -7883.7879    4.3896008    4.3896008    4.3896008   -7883.7879   -14637.996   -14215.981     5202.614   -6173.2879    4703.3233      2753.57     84.58144 
   10400     846.0141   -109.56951   0.76549134   -108.80402    7915.2131    4.3819983    4.3819983    4.3819983    7915.2131    6123.7419   -2965.7513    20587.649    89.582535   -5822.3688   -2107.4333    84.142735 
   10500    828.27423   -109.54813   0.74943993   -108.79869   -4158.6278       4.3941       4.3941       4.3941   -4158.6278   -25205.744   -6848.3757    19578.237    -3134.934    8038.7448   -14551.841    84.841787 
   10600    1019.3992    -109.7091   0.92237378   -108.78673    2034.5662    4.3824636    4.3824636    4.3824636    2034.5662   -7489.2704   -10025.958    23618.927    1959.6294    2744.6422    9665.0151    84.169537 
   10700    860.48214   -109.57284   0.77858233   -108.79426   -4129.5977    4.3861898    4.3861898    4.3861898   -4129.5977   -12824.639    -20832.28    21268.126   -4226.3903   -5624.4705   -14513.761    84.384417 
   10800    1066.4873   -109.74889   0.96498008   -108.78391   -18064.865    4.3991428    4.3991428    4.3991428   -18064.865   -47982.516   -10985.857    4773.7788   -11373.334    9750.2382   -10352.387    85.134224 
   10900     1046.002   -109.72538    0.9464446   -108.77893    10478.023    4.3753713    4.3753713    4.3753713    10478.023    5971.5462    21124.628    4337.8958     5176.319    -2306.505   -2198.5333    83.761558 
   11000    801.50697   -109.52195   0.72522035   -108.79673   -397.25315    4.3870655    4.3870655    4.3870655   -397.25315   -26342.277   -20075.294    45225.811   -3337.7808   -1222.9538    -13987.68    84.434969 
   11100    1001.0409   -109.69473   0.90576287   -108.78897   -4953.5583    4.4005334    4.4005334    4.4005334   -4953.5583   -24237.634    31854.395   -22477.436   -6517.6736    1127.6385    4345.1117    85.214983 
   11200    825.21788   -109.53341   0.74667448   -108.78673    7378.8516    4.3828855    4.3828855    4.3828855    7378.8516   -3608.7431   -16420.162     42165.46    5097.0303   -6723.7383   -7476.0415    84.193853 
   11300     924.3143   -109.62578     0.836339   -108.78944   -8616.1676    4.3826514    4.3826514    4.3826514   -8616.1676   -22075.764    -4380.311    607.57263   -4128.8564   -2109.6081   -6594.9811    84.180363 
   11400    924.84607   -109.62692   0.83682016    -108.7901    5128.2641    4.3950968    4.3950968    4.3950968    5128.2641   -32646.551   -3713.4685    51744.812     3897.345   -5006.6777    12775.342    84.899542 
   11500    875.97916    -109.5807   0.79260435    -108.7881   -5112.0909    4.3944746    4.3944746    4.3944746   -5112.0909   -13172.872   -8935.6752    6772.2749   -2906.2475   -6507.3796   -22352.397    84.863486 
   11600    731.44922   -109.44709   0.66183062   -108.78526    21572.071    4.3809832    4.3809832    4.3809832    21572.071   -2987.2123    1888.9447    65814.482   -8981.9352   -4124.6118    1140.7302    84.084274 
   11700    1212.7817   -109.88972    1.0973504   -108.79237   -5904.5938    4.3880832    4.3880832    4.3880832   -5904.5938   -1667.1364   -4470.3782   -11576.267    5377.1561     229.2458    8018.0762    84.493745 
   11800    580.96236   -109.32531   0.52566695   -108.79965   -2070.4726     4.395913     4.395913     4.395913   -2070.4726   -4431.9061    6802.4305   -8581.9422   -1448.4846    3478.1044   -14731.396    84.946849 
   11900    712.93634   -109.43655   0.64507979   -108.79147    16736.628    4.3813816    4.3813816    4.3813816    16736.628   -5280.0367   -14405.527    69895.448   -6226.5005    6888.8989    5074.3822    84.107215 
   12000    836.63438   -109.54931   0.75700437   -108.79231    11558.264    4.3872243    4.3872243    4.3872243    11558.264   -8262.0308   -10330.437     53267.26    2070.7832    9033.4495    1499.4296    84.444143 
   12100    859.03328   -109.57662   0.77727137   -108.79935   -14530.149    4.3964009    4.3964009    4.3964009   -14530.149   -15062.252   -25521.686   -3006.5095   -4425.4805    3293.4275   -9244.6016    84.975133 
   12200    892.02538    -109.6076   0.80712331   -108.80048    4746.6815     4.388687     4.388687     4.388687    4746.6815    -14119.72   -4516.3272    32876.092    957.36342   -4539.9831   -1297.6736    84.528629 
   12300    1473.3597   -110.12388    1.3331268   -108.79075   -10638.619     4.382308     4.382308     4.382308   -10638.619   -20215.703   -16203.714    4503.5589    464.81297    4136.8032     7879.689    84.160577 
   12400    443.63282   -109.20363    0.4014083   -108.80222    16404.542    4.3928351    4.3928351    4.3928351    16404.542   -22429.908    3141.3362    68502.198   -3952.1108   -7151.3662    -17997.28    84.768543 
   12500    967.96809   -109.66382   0.87583787   -108.78798   -8769.4087    4.3946676    4.3946676    4.3946676   -8769.4087   -24690.059    6393.4619   -8011.6286    1984.8887    8705.1917    1854.8082    84.874669 
   12600    809.64379   -109.51724   0.73258271   -108.78466    13429.289    4.3774216    4.3774216    4.3774216    13429.289   -20213.883    4734.5445    55767.206   -1597.0484     4597.428    1096.7669    83.879365 
   12700    730.36834   -109.46215   0.66085262    -108.8013    -5390.028    4.3889803    4.3889803    4.3889803    -5390.028   -40021.449    18178.615    5672.7496   -4012.0581    -13214.35   -7292.3437    84.545578 
   12800    977.56741   -109.68276   0.88452354   -108.79824   -6231.4528    4.3915746    4.3915746    4.3915746   -6231.4528   -36623.155    1298.2763     16630.52    5006.9109     1159.161    3153.5091    84.695591 
   12900    1110.2362   -109.79757     1.004565     -108.793   -4875.0368    4.3813069    4.3813069    4.3813069   -4875.0368   -23141.709   -2197.8324    10714.431    4216.4912   -2279.0361    14713.989    84.102913 
   13000    966.77934   -109.67201   0.87476227   -108.79725   -7916.9413    4.3850444    4.3850444    4.3850444   -7916.9413   -38167.148    14191.907    224.41675   -7369.3491   -14028.864   -21539.259    84.318329 
   13100    764.01776   -109.49115   0.69129933   -108.79986   -1372.7446    4.3918172    4.3918172    4.3918172   -1372.7446   -35946.271    1500.3432    30327.694   -544.00622    4929.3678    5202.0909    84.709628 
   13200    741.64891   -109.47157   0.67105952   -108.80051   -1969.7122     4.390435     4.390435     4.390435   -1969.7122   -41301.893   -9615.8451    45008.602    3193.2954   -9191.7265    4925.0641    84.629669 
   13300    881.84671   -109.59371   0.79791344    -108.7958    2282.7792    4.3828153    4.3828153    4.3828153    2282.7792   -25528.706   -20455.995    52833.039    307.76089   -5593.8129   -3769.9332    84.189806 
   13400    977.37549    -109.6836   0.88434988   -108.79925    -15905.93    4.3962276    4.3962276    4.3962276    -15905.93    -23424.47   -9716.5986   -14576.721    -5316.813     -42.2608    15755.707    84.965087 
   13500    1105.7312   -109.79026    1.0004888   -108.78977    -13275.33     4.400797     4.400797     4.400797    -13275.33   -31844.851   -9136.5391    1155.4006    345.98001   -5181.5618    10592.637      85.2303 
   13600    1268.1189    -109.9325    1.1474206   -108.78508    8546.6437    4.3779244    4.3779244    4.3779244    8546.6437      10727.8   -10336.221    25248.352    529.65216   -4416.9702   -360.61199    83.908272 
   13700    726.25032   -109.45553   0.65712656    -108.7984    25665.098    4.3866816    4.3866816    4.3866816    25665.098    4060.5039    15153.465    57781.326   -13095.182   -3001.4397    8135.1404    84.412806 
   13800    865.22199   -109.57118   0.78287104   -108.78831   -13412.591    4.4067271    4.4067271    4.4067271   -13412.591   -35860.512   -42245.033    37867.773    5196.7332   -14455.527    381.15214    85.575308 
   13900    1103.0639   -109.77529   0.99807543   -108.77721    7481.5675     4.378052     4.378052     4.378052    7481.5675    2535.6474   -5982.7973    25891.852     707.1461   -9195.7302   -12258.271    83.915607 
   14000    700.29783   -109.42664   0.63364419     -108.793    1659.8856     4.382261     4.382261     4.382261    1659.8856    462.33154    10328.422   -5811.0964   -10972.363    4681.5806    4577.3835    84.157867 
   14100    910.90335   -109.61524   0.82420449   -108.79104   -14148.753    4.3993665    4.3993665    4.3993665   -14148.753   -4715.6166   -28546.301   -9184.3428    6357.9715   -14584.707    7039.9516    85.147209 
   14200    1277.9342   -109.93952    1.1563017   -108.78322   -10225.411    4.3861983    4.3861983    4.3861983   -10225.411   -22860.746   -5223.2758   -2592.2109    -1620.735    5346.8915   -6466.5067    84.384912 
   14300    755.08355   -109.47804   0.68321546   -108.79482    13227.632    4.3845442    4.3845442    4.3845442    13227.632    4455.7116    4581.5736    30645.611    -4552.345   -8048.6894    7845.5521    84.289476 
   14400    807.98496   -109.52615   0.73108178   -108.79507   -2938.9369    4.4037539    4.4037539    4.4037539   -2938.9369     -25109.8   -45168.882    61461.871   -3470.1493   -5112.2103     10541.83    85.402212 
   14500     908.0446   -109.61194   0.82161784   -108.79033    1853.6795    4.3907007    4.3907007    4.3907007    1853.6795   -26566.984   -35583.296    67711.319   -4234.6713    7059.5713    1457.7483    84.645039 
   14600    976.05655    -109.6761   0.88315648   -108.79294    3101.3869    4.3823092    4.3823092    4.3823092    3101.3869   -9017.1763   -8095.3741    26416.711    1071.8821     7396.377    13090.878    84.160646 
   14700    1227.3582   -109.90335    1.1105395   -108.79281   -34677.738    4.4059096    4.4059096    4.4059096   -34677.738   -36155.503   -39473.014   -28404.698   -8203.8017    1416.3205    3347.0889    85.527691 
   14800     978.6973   -109.67511   0.88554589   -108.78957       -11855    4.3936505    4.3936505    4.3936505       -11855   -29331.083   -23023.663    16789.746   -425.57743     1670.573    341.99204    84.815754 
   14900    521.69037   -109.26209   0.47203641   -108.79006    19066.363    4.3836946    4.3836946    4.3836946    19066.363   -1385.4872   -8181.1572    66765.734    1809.4697    12913.789    11197.869     84.24049 
   15000     724.7019   -109.44806   0.65572551   -108.79234    3215.2304    4.3901596    4.3901596    4.3901596    3215.2304   -27414.991   -15823.854    52884.536    -9577.178    -3022.868    6175.3447    84.613748 
   15100    711.32754   -109.43669    0.6436241   -108.79307   -4949.7577    4.3919153    4.3919153    4.3919153   -4949.7577   -24863.982   -5254.2459    15268.955   -657.94315   -816.85153    8578.2896    84.715305 
   15200    1192.4858   -109.86647    1.0789862   -108.78748   -18475.273    4.3893349    4.3893349    4.3893349   -18475.273   -21254.008   -26726.715   -7445.0962    3602.2952    4379.7966    5871.9093    84.566071 
   15300    1107.0813   -109.79642    1.0017105   -108.79471   -7760.4308    4.3834372    4.3834372    4.3834372   -7760.4308   -33559.111   -19736.839    30014.657   -9071.6142   -7915.3287   -3668.0243    84.225646 
   15400    770.51725   -109.49611    0.6971802   -108.79893    20496.695     4.378364     4.378364     4.378364    20496.695    -9584.539    12962.479    58112.147    1877.8882    11639.133    3779.6136     83.93355 
   15500    737.55225   -109.46692   0.66735278   -108.79957     -9081.67    4.3983291    4.3983291    4.3983291     -9081.67   -30078.277   -36687.714    39520.981    4753.7287   -3895.4506    9781.9502    85.086991 
   15600    855.04282   -109.57264   0.77366072   -108.79898   -4669.8322    4.3809449    4.3809449    4.3809449   -4669.8322   -22733.494   -28067.037    36791.035   -9619.8482   -5593.8795   -4845.4589    84.082066 
   15700    997.83104   -109.70466    0.9028585    -108.8018    14541.753    4.3716782    4.3716782    4.3716782    14541.753   -2040.3452    12417.376    33248.229    6681.5216   -549.44301   -5427.9475    83.549633 
   15800    832.97937    -109.5504   0.75369724   -108.79671   -49520.416    4.4155365    4.4155365    4.4155365   -49520.416   -58675.105    -50599.08   -39287.064   -6139.3137    11156.724    9227.5924    86.089548 
   15900    869.17556   -109.57507   0.78644832   -108.78862   -10059.489    4.3782439    4.3782439    4.3782439   -10059.489   -18780.836   -15735.452    4337.8205    -5028.439   -3159.2496   -2618.6303    83.926643 
   16000    876.84024   -109.57354   0.79338348   -108.78016    37557.961     4.359894     4.359894     4.359894    37557.961    22897.746      25100.4    64675.737    6763.6926    6997.5708    4765.1767    82.875809 
   16100    877.88484   -109.58618   0.79432866   -108.79185   -32092.543    4.4170628    4.4170628    4.4170628   -32092.543   -64814.652   -60245.291    28782.313   -12340.359    -760.4498    5678.4658    86.178854 
   16200    894.84089   -109.58888   0.80967084   -108.77921   -2484.8438    4.3926237    4.3926237    4.3926237   -2484.8438   -23886.131   -34698.376    51129.975   -2944.2592     7165.022   -7464.9946      84.7563 
   16300    847.26277   -109.53401   0.76662116   -108.76739    27953.249    4.3648468    4.3648468    4.3648468    27953.249    8932.2999    35659.285    39268.162   -3431.5081    14168.114       1993.2    83.158568 
   16400    739.34946   -109.45412   0.66897893   -108.78514   -18901.294    4.4035687    4.4035687    4.4035687   -18901.294   -10543.096   -38388.507   -7772.2789   -2972.1989    12977.365    1983.8394    85.391436 
   16500    964.14787   -109.64496   0.87238126   -108.77258   -15932.787     4.401344     4.401344     4.401344   -15932.787    567.92814   -37562.278   -10804.011   -1909.2139   -825.44208   -8507.2904    85.262081 
   16600    658.89586   -109.36786   0.59618282   -108.77168    22368.457    4.3798599    4.3798599    4.3798599    22368.457    55759.676    21446.545   -10100.851   -12658.194    17231.389    6186.1425    84.019611 
   16700    808.55745   -109.51614   0.73159978   -108.78454    5983.2789    4.3802176    4.3802176    4.3802176    5983.2789    24152.416   -11694.262    5491.6834    104.81162   -680.63387   -8992.3812    84.040194 
   16800    889.02135   -109.59714    0.8044052   -108.79273   -9201.0731     4.403054     4.403054     4.403054   -9201.0731    22632.614   -19734.247   -30501.586   -2522.0959   -6038.0997    -6450.118    85.361501 
   16900    913.09263   -109.60448    0.8261854   -108.77829   -4741.8625    4.3992741    4.3992741    4.3992741   -4741.8625   -9221.9571    17467.254   -22470.884   -3367.8209    3515.4214    6834.0565    85.141849 
   17000    862.66626   -109.55223   0.78055856   -108.77168    15391.791    4.3692033    4.3692033    4.3692033    15391.791    34544.608    4349.1506    7281.6147   -3073.2308   -11909.727   -18701.748    83.407819 
   17100    963.26343   -109.66255     0.871581   -108.79096    -11265.48    4.3962092    4.3962092    4.3962092    -11265.48    3580.0186   -7296.8947   -30079.563    3755.8274    1324.0687   -9641.2776    84.964021 
   17200     1027.094   -109.70475   0.92933627   -108.77541   -26145.178    4.4085798    4.4085798    4.4085798   -26145.178   -24561.455   -7522.2826   -46351.798   -856.72473   -7596.4599   -4589.0577    85.683286 
   17300    858.23643   -109.54694   0.77655036   -108.77039     14257.63    4.3700376    4.3700376    4.3700376     14257.63    36662.179   -8298.1175     14408.83    10030.191   -11925.198   -21928.118    83.455605 
   17400    1171.6405   -109.84888    1.0601249   -108.78876   -10311.682    4.3859808    4.3859808    4.3859808   -10311.682   -16004.511   -4834.2848   -10096.251    5446.0032   -447.97529   -4875.3129    84.372354 
   17500    1104.6499   -109.77881   0.99951048    -108.7793   -23093.744    4.4074633    4.4074633    4.4074633   -23093.744    -5021.414   -31892.748    -32367.07    5037.4021   -13305.077   -5235.8987    85.618203 
   17600    1080.2902   -109.75209   0.97746926   -108.77462    -7648.896    4.3784853    4.3784853    4.3784853    -7648.896    16592.258   -26038.635   -13500.311    12814.532    112.11432   -21696.679    83.940526 
   17700    1000.5796   -109.69023   0.90534542   -108.78489   -2296.8103    4.3822412    4.3822412    4.3822412   -2296.8103    18017.495   -5749.3001   -19158.626    4532.2698    1823.4667   -2328.3583    84.156724 
   17800    1210.4109   -109.87686    1.0952052   -108.78166   -36758.338    4.4053255    4.4053255    4.4053255   -36758.338   -28044.876   -24909.125   -57321.014    3499.2425    -6372.904   -8367.7669     85.49368 
   17900    966.48319   -109.65419    0.8744943    -108.7797    2223.5284    4.3773077    4.3773077    4.3773077    2223.5284    18077.029   -4830.0137   -6576.4301    2922.0365    7719.4294   -21353.327    83.872815 
   18000    1026.7303    -109.7091   0.92900718   -108.78009    16109.115    4.3777859    4.3777859    4.3777859    16109.115    4338.4291     37281.69    6707.2248    5626.3523    5432.5779   -1644.7879    83.900307 
   18100    950.33825   -109.64019   0.85988602   -108.78031   -4215.8378    4.4003572    4.4003572    4.4003572   -4215.8378    2779.2303    11402.265   -26829.008   -4160.6939   -9008.4314   -14737.129     85.20475 
   18200    635.32559   -109.35472   0.57485594   -108.77986    21920.014     4.383123     4.383123     4.383123    21920.014    11861.359    50270.078    3628.6047    2860.7424    7087.8886   -19886.969    84.207537 
   18300    1013.4204   -109.69382   0.91696407   -108.77685    8212.6179    4.3815664    4.3815664    4.3815664    8212.6179   -166.35222    20213.777    4590.4291    1911.4996   -773.81935   -815.01973    84.117855 
   18400     849.1762   -109.55204   0.76835247   -108.78369    3636.7056    4.3842655    4.3842655    4.3842655    3636.7056    9573.5482    26001.327   -24664.759   -9283.0351   -9847.5904   -13467.067    84.273404 
   18500     743.1595    -109.4634   0.67242634   -108.79097    6159.0949    4.3836568    4.3836568    4.3836568    6159.0949    8628.4924    4672.3732    5176.4192    4914.5763    9695.5362   -12428.201     84.23831 
   18600    1103.1641   -109.78499   0.99816602   -108.78682    3484.6691    4.3864555    4.3864555    4.3864555    3484.6691   -12254.134     14118.39    8589.7511   -5438.2669   -3824.2879    5585.0711    84.399753 
   18700    1000.5263   -109.69301   0.90529726   -108.78771    7748.4797     4.377306     4.377306     4.377306    7748.4797    16128.249    4175.3344    2941.8556   -6988.2908    4618.3296   -7033.9655    83.872717 
   18800    695.16042    -109.4232   0.62899576   -108.79421    5089.7997    4.3886365    4.3886365    4.3886365    5089.7997    11792.319   -9120.2158    12597.296    3078.1004    6553.0461   -571.07739    84.525711 
   18900    1267.7471   -109.93214    1.1470843   -108.78505   -21144.209     4.387147     4.387147     4.387147   -21144.209   -34752.687   -8865.6242   -19814.317   -8304.0742   -3245.0617    6260.5779    84.439674 
   19000    606.88918   -109.34062   0.54912609   -108.79149    12231.326    4.3706273    4.3706273    4.3706273    12231.326    17439.381   -11893.338    31147.936   -4264.5143    10641.552    -4567.857    83.489398 
   19100    953.90763   -109.65977   0.86311567   -108.79665    -27883.87    4.3921832    4.3921832    4.3921832    -27883.87   -13097.734   -23915.538   -46638.337   -2679.4567    4976.1878    2856.9955    84.730807 
   19200    1033.4564   -109.72241   0.93509304   -108.78732    12192.066    4.3793975    4.3793975    4.3793975    12192.066    12392.962   -13271.617    37454.852    3912.8317   -10761.555    2420.3076    83.993003 
   19300    931.21992   -109.63656   0.84258735   -108.79398   -3054.5649    4.3754838    4.3754838    4.3754838   -3054.5649    4556.6097   -20697.353    6977.0491   -1296.5405    16655.809   -7542.0802    83.768017 
   19400     702.7216   -109.43064   0.63583727    -108.7948   -4507.7306    4.3894657    4.3894657    4.3894657   -4507.7306    8868.7683   -21119.566   -1272.3943   -479.89996    11521.122   -6921.2471    84.573632 
   19500    1427.4385   -110.07525    1.2915764   -108.78368   -7838.2135    4.3717902    4.3717902    4.3717902   -7838.2135   -21458.312    -19977.52    17921.192    5056.0895   -5884.9006      7256.69    83.556058 
   19600    568.32514   -109.31523   0.51423253     -108.801   -19245.352    4.3871352    4.3871352    4.3871352   -19245.352   -10477.295   -18854.881    -28403.88   -4343.9131    13408.076   -15626.715    84.438998 
   19700    1027.6303   -109.71623    0.9298215   -108.78641   -20791.566    4.3830514    4.3830514    4.3830514   -20791.566   -24088.738   -26207.969   -12077.991    10103.271    11600.226   -10396.896    84.203414 
   19800    922.44428   -109.61614   0.83464697   -108.78149    15374.272    4.3729987    4.3729987    4.3729987    15374.272    25257.595   -12701.649    33566.868    3236.5953   -1609.8904    2781.6025     83.62537 
   19900    700.04818   -109.42329    0.6334183   -108.78987   -28269.974    4.3916591    4.3916591    4.3916591   -28269.974   -15406.189   -37301.391    -32102.34   -7824.7945    7887.8765   -12611.905     84.70048 
   20000    877.47296    -109.5797   0.79395597   -108.78575   -3970.3864     4.376027     4.376027     4.376027   -3970.3864    12866.025   -27842.023    3064.8387    16093.426    7706.4106   -2197.7921     83.79922 
   20100    973.40905   -109.67138   0.88076096   -108.79062    6323.4608    4.3809767    4.3809767    4.3809767    6323.4608   -7480.7162   -6343.9813     32795.08    1661.6006   -3131.0646    2628.8182      84.0839 
   20200    968.50355    -109.6664   0.87632236   -108.79008    -20662.55    4.3908243    4.3908243    4.3908243    -20662.55   -11018.353   -29415.159   -21554.136    332.73708    15873.378   -5890.6924    84.652187 
   20300    994.23585   -109.68342   0.89960549   -108.78382    6089.1665    4.3767572    4.3767572    4.3767572    6089.1665   -17949.354   -9916.4237    46133.278    9743.7114    752.86331     9093.782    83.841177 
   20400    1299.4051   -109.95829     1.175729   -108.78256    -14973.25    4.3873851    4.3873851    4.3873851    -14973.25   -28691.691   -11713.736   -4514.3241      1390.37   -1088.3172   -5080.8766    84.453424 
   20500    807.41038   -109.52103   0.73056188   -108.79047   -7384.3663    4.3844384    4.3844384    4.3844384   -7384.3663   -16773.253   -25161.689    19781.843    6169.5362    9064.1761   -6791.3801    84.283375 
   20600    794.14842   -109.51518   0.71856218   -108.79662   -1166.1768     4.376874     4.376874     4.376874   -1166.1768   -17556.567    -20421.17    34479.207    13725.647    6632.8564   -138.93156    83.847888 
   20700    1088.0927   -109.77908   0.98452918   -108.79455   -485.37244    4.3825614    4.3825614    4.3825614   -485.37244   -9153.7503   -20954.128    28651.761   -2814.8893   -9758.5535   -1124.9974    84.175174 
   20800     526.1531     -109.275   0.47607439   -108.79892    5372.1744    4.3866774    4.3866774    4.3866774    5372.1744   -27111.172   -2598.1783    45825.873    6948.2436    5831.1753   -10637.162    84.412566 
   20900    1124.4057   -109.80766    1.0173859   -108.79028   -28680.474    4.3880027    4.3880027    4.3880027   -28680.474   -34888.835   -42873.805   -8278.7808    18693.908    4183.1321   -854.76252    84.489093 
   21000    1027.6884   -109.71573   0.92987407   -108.78585     22387.64    4.3741542    4.3741542    4.3741542     22387.64   -1037.7153    929.76319    67270.872   -4740.1075    -11274.47     368.8008    83.691674 
   21100    906.93599   -109.62206   0.82061474   -108.80144   -19037.222    4.3882621    4.3882621    4.3882621   -19037.222   -28302.248   -29948.424    1139.0053    12698.318    15920.419     -11382.1    84.504079 
   21200     1001.036   -109.69843   0.90575838   -108.79268   -14079.545    4.3893882    4.3893882    4.3893882   -14079.545   -31085.599   -14298.856    3145.8201    371.86756    3805.8382    2932.3065    84.569151 
   21300    1183.0704   -109.85295     1.070467   -108.78249   -1633.8914    4.3798014    4.3798014    4.3798014   -1633.8914   -8333.4288   -19543.524    22975.279   -2338.8362   -2653.0769    7413.5629    84.016244 
   21400    718.46837   -109.44166   0.65008528   -108.79157   -24029.008    4.3855619    4.3855619    4.3855619   -24029.008   -27550.553   -32687.788   -11848.683    21475.912    12375.131   -8105.6578    84.348185 
   21500     770.8184   -109.48815   0.69745269    -108.7907    9434.4506    4.3788097    4.3788097    4.3788097    9434.4506    8978.6535    17159.173    2165.5257   -1921.8696    1969.5941   -4841.7044    83.959183 
   21600    892.83459   -109.60135    0.8078555    -108.7935    2352.0258    4.3850785    4.3850785    4.3850785    2352.0258   -17245.412   -24003.941     48305.43   -4031.3179   -4616.6902   -1403.5142    84.320297 
   21700    676.13729    -109.4148   0.61178323   -108.80302    -3079.316    4.3853098    4.3853098    4.3853098    -3079.316    -1921.655   -6172.9585   -1143.3345    8317.0529     3620.279   -10545.662    84.333641 
   21800    871.79341   -109.58202     0.788817   -108.79321    23304.978    4.3863576    4.3863576    4.3863576    23304.978   -646.52862    13235.244    57326.218    -5714.947   -2171.4128   -14804.792    84.394104 
   21900    1049.6493   -109.73743   0.94974476   -108.78769   -15673.462    4.3942282    4.3942282    4.3942282   -15673.462    -28510.68   -10756.398   -7753.3081    3350.7483   -3820.5073    6559.1643    84.849213 
   22000    737.68624   -109.45234   0.66747401   -108.78487    21878.329    4.3675281    4.3675281    4.3675281    21878.329    4062.6363    37941.617    23630.735    3424.5606    257.39824   -5713.4682    83.311915 
   22100    953.56069   -109.66355   0.86280175   -108.80075    17945.584    4.3848603    4.3848603    4.3848603    17945.584   -2656.6728     40811.26    15682.166   -8986.6784   -2306.7043   -6779.0934    84.307708 
   22200    864.20036    -109.5732   0.78194665   -108.79125    -4171.789    4.3974451    4.3974451    4.3974451    -4171.789    -2291.961    5305.5953   -15529.001    791.25631    1906.5518    4437.4018    85.035698 
   22300    673.88309   -109.39154   0.60974359    -108.7818     10079.31    4.3725926    4.3725926    4.3725926     10079.31    10101.813    12266.458    7869.6579    2826.1284   -59.835698   -1839.1275    83.602071 
   22400    926.99145   -109.62653   0.83876135   -108.78777    -3421.952      4.38035      4.38035      4.38035    -3421.952    1526.8352   -1559.2037   -10233.488   -7867.6244    2593.3437   -3074.5311    84.047815 
   22500    839.76402   -109.55222   0.75983614   -108.79238    9836.4155    4.3829905    4.3829905    4.3829905    9836.4155    2876.8728    8494.8687    18137.505   -5415.6684     285.2376    4574.8352    84.199904 
   22600    891.56321   -109.60354   0.80670513   -108.79684   -22327.274    4.3881511    4.3881511    4.3881511   -22327.274   -21081.135   -33691.157   -12209.529    6738.2294    8374.0343    5925.7075    84.497667 
   22700    843.87169   -109.55739   0.76355284   -108.79384   -5060.8007    4.3790645    4.3790645    4.3790645   -5060.8007   -17041.213   -10419.042    12277.853   -11703.518    5883.5959   -11835.617    83.973841 
   22800     1215.893   -109.89095    1.1001655   -108.79078    5401.4052    4.3692106    4.3692106    4.3692106    5401.4052    7068.7995   -12714.173    21849.589   -2954.2387   -5080.0156    4282.8717    83.408237 
   22900    775.11822   -109.50148   0.70134325   -108.80014   -14730.378    4.3912295    4.3912295    4.3912295   -14730.378    -949.8458   -20383.601   -22857.686    11423.553    9571.9104   -10195.509    84.675621 
   23000     936.1673   -109.64058   0.84706385   -108.79352   -8878.8685    4.3791771    4.3791771    4.3791771   -8878.8685   -10616.314   -3295.8635   -12724.428   -17025.636    7518.8815   -4883.0204    83.980323 
   23100    918.90703   -109.62172   0.83144639   -108.79028    26759.857    4.3716745    4.3716745    4.3716745    26759.857    44090.942    40343.138   -4154.5077    5113.2182   -4251.6923    5985.5612    83.549425 
   23200    892.58855   -109.59873   0.80763288    -108.7911   -20486.495    4.3911815    4.3911815    4.3911815   -20486.495   -14225.285    -17080.38   -30153.819    7331.9612    5702.9118   -11483.804    84.672847 
   23300     458.2428   -109.21012   0.41462771    -108.7955    4250.7285    4.3729897    4.3729897    4.3729897    4250.7285   -12721.378    38491.823    -13018.26   -16028.167    5463.5686   -10908.668    83.624851 
   23400    1267.1244   -109.94168    1.1465208   -108.79516    7948.2408    4.3667699    4.3667699    4.3667699    7948.2408     1933.494    21962.757   -51.528629    6599.7527   -5394.5468   -1773.6881    83.268535 
   23500     830.5895   -109.55083   0.75153484    -108.7993    197.49247    4.3898606    4.3898606    4.3898606    197.49247   -1275.6801    31594.631   -29726.474    -438.3885    8762.8124    3432.7667    84.596459 
   23600    768.53962   -109.49019    0.6953908    -108.7948   -15308.779    4.3833933    4.3833933    4.3833933   -15308.779   -7536.8859    -9698.831   -28690.621   -12283.338    11579.745   -10925.184    84.223118 
   23700    1157.9635   -109.83021    1.0477497   -108.78246    15705.447    4.3653199    4.3653199    4.3653199    15705.447    30323.612    15231.671    1561.0568   -275.61626   -3923.4239      4356.43    83.185611 
   23800    995.16141   -109.69318   0.90044296   -108.79274   -13331.214    4.3843332    4.3843332    4.3843332   -13331.214   -12379.812    11925.269   -39539.099    3148.8351    6216.0389   -9186.6647    84.277309 
   23900    551.96406   -109.29908   0.49942868   -108.79966   -8896.9133    4.3828919    4.3828919    4.3828919   -8896.9133   -1730.4737    2565.0524   -27525.319   -12675.859    8907.2143   -7763.6443     84.19422 
   24000    1252.5365   -109.92183    1.1333213   -108.78851    10035.414    4.3665856    4.3665856    4.3665856    10035.414    2214.0353    25753.439    2138.7687   -9131.4395   -4203.0931     8186.012    83.257991 
   24100    727.86169   -109.45625   0.65858455   -108.79766    2049.4966    4.3836954    4.3836954    4.3836954    2049.4966    1803.7359    30731.847   -26387.093    5157.7336    18744.504   -12826.324    84.240531 
   24200     893.4655   -109.59993   0.80842636    -108.7915    -9765.131    4.3787634    4.3787634    4.3787634    -9765.131    7236.2303   -17164.187   -19367.436   -17558.061   -1405.1643   -1399.1255    83.956523 
   24300    1006.5886   -109.69673   0.91078249   -108.78595   -5901.6482     4.379789     4.379789     4.379789   -5901.6482   -11612.609    113.48729   -6205.8228    7359.5591   -2264.0607   -3169.1123    84.015529 
   24400    776.43568   -109.49214   0.70253532   -108.78961   -3110.7062    4.3784184    4.3784184    4.3784184   -3110.7062    8395.2849    9083.6951   -26811.099   -3161.7954    19990.345    1610.3454     83.93668 
   24500    840.53875   -109.55111   0.76053713   -108.79057    9845.9037    4.3755782    4.3755782    4.3755782    9845.9037    6067.2529    30372.356   -6901.8974   -10179.469   -2185.5917   -10359.982    83.773442 
   24600    1029.2628   -109.72278    0.9312986   -108.79148   -16694.628    4.3835698    4.3835698    4.3835698   -16694.628   -26118.261   -5780.3715   -18185.251    12313.491    9276.2751   -553.87052    84.233291 
   24700    790.43234   -109.50854   0.71519979   -108.79334    8146.5416    4.3739642    4.3739642    4.3739642    8146.5416    24973.378    13964.871   -14498.624   -822.23515    11967.525    2422.9892    83.680768 
   24800    996.07428   -109.69615   0.90126894   -108.79488   -20218.701    4.3857195    4.3857195    4.3857195   -20218.701   -28903.502   -19623.425   -12129.175   -13593.187    486.38571   -4848.4627    84.357278 
   24900     961.0626   -109.66534   0.86958964   -108.79575   -5341.6124    4.3705166    4.3705166    4.3705166   -5341.6124   -3027.2618   -12234.194   -763.38097    5701.5208    13539.034    3582.5959    83.483055 
   25000    714.06632   -109.45271   0.64610221   -108.80661    16522.852    4.3758721    4.3758721    4.3758721    16522.852    1547.3401    45068.426    2952.7913    8050.1377    4828.2549   -10160.553     83.79032 
   25100    1297.5526    -109.9719    1.1740528   -108.79785   -25380.535    4.3884418    4.3884418    4.3884418   -25380.535    -25259.14   -28540.236   -22342.228   -15953.213   -3358.2333    4502.9165    84.514463 
   25200    497.86129   -109.24909   0.45047536   -108.79862    20297.112    4.3660717    4.3660717    4.3660717    20297.112    5444.9924    56601.562   -1155.2176    14266.831    13803.156    1538.9791    83.228601 
   25300    884.21607   -109.59876   0.80005728    -108.7987   -392.40381    4.3817139    4.3817139    4.3817139   -392.40381    -12314.35    12778.643   -1641.5046     1980.054    4873.5159     5128.636    84.126349 
   25400    1115.8584   -109.79786    1.0096521   -108.78821   -8184.5527    4.3853798    4.3853798    4.3853798   -8184.5527   -21231.822    26772.252   -30094.088    3562.9441    578.32092   -5301.5219     84.33768 
   25500    504.89602   -109.25121   0.45684053   -108.79437    5878.9781    4.3731519    4.3731519    4.3731519    5878.9781    -9868.326    24196.507    3308.7535    7615.5116    14503.974    -1314.097    83.634155 
   25600    1268.7739   -109.93987    1.1480133   -108.79186   -3610.1359    4.3756262    4.3756262    4.3756262   -3610.1359   -19107.135   -1003.8732    9280.6002    6644.1911    1415.5965    2872.5136    83.776197 
   25700    1084.8579   -109.77384   0.98160226   -108.79224    7396.5956    4.3796893    4.3796893    4.3796893    7396.5956   -5070.9738    35985.552   -8724.7914   -3626.9033    3790.8146    7332.3224    84.009794 
   25800    660.43532    -109.3959   0.59757576   -108.79833   -9500.9898    4.3816455    4.3816455    4.3816455   -9500.9898   -23269.634   -19204.467    13971.131    17095.993    10284.713   -1369.2887    84.122413 
   25900     1024.304   -109.71665   0.92681174   -108.78984    6771.0785    4.3742287    4.3742287    4.3742287    6771.0785   -4814.0232    16683.515    8443.7442    5061.3653   -5610.7586    6017.7888    83.695954 
   26000    897.08082   -109.60196   0.81169758   -108.79027   -3913.2139    4.3757186    4.3757186    4.3757186   -3913.2139    9846.5412   -1227.5678   -20358.615   -3344.5544    7421.2228    3972.4998    83.781504 
   26100     285.7114   -109.05661   0.25851768   -108.79809   -8879.3151    4.3846677    4.3846677    4.3846677   -8879.3151   -26385.363   -17316.088    17063.506    16682.552    2518.0238    2730.7329    84.296597 
   26200    1210.9714    -109.8816    1.0957124   -108.78589   -2303.9451    4.3752631    4.3752631    4.3752631   -2303.9451   -9759.4994   -15257.449    18105.113   -3887.1615   -6059.4402    6398.6007    83.755345 
   26300    979.00756   -109.67429   0.88582661   -108.78847    11364.071    4.3768465    4.3768465    4.3768465    11364.071    4776.5743    11434.348    17881.291     5240.303    8107.9245   -10105.129    83.846309 
   26400    714.81162   -109.44014   0.64677657   -108.79336   -10277.368     4.384783     4.384783     4.384783   -10277.368   -34435.495   -26818.452    30421.843     14558.18    5497.2769    7664.7249    84.303249 
   26500    1335.9062   -109.99178     1.208756   -108.78302     967.7521    4.3731478    4.3731478    4.3731478     967.7521   -2345.3977   -3177.7241    8426.3781   -10546.065    2993.6379    2083.6501    83.633921 
   26600    951.81883   -109.65199   0.86122568   -108.79076   -2115.2274    4.3796308    4.3796308    4.3796308   -2115.2274    2787.5706   -11287.775    2154.5222    5244.9731   -4305.3664    -1470.441    84.006424 
   26700    670.25929   -109.40279   0.60646469   -108.79633   -17548.525    4.3850704    4.3850704    4.3850704   -17548.525   -12484.151   -23623.097   -16538.327    9802.1134    12851.095    8786.7238    84.319829 
   26800    1022.2254   -109.71129   0.92493105   -108.78636    9936.6358    4.3712757    4.3712757    4.3712757    9936.6358    5487.3175    2326.1087    21996.481   -6105.1545    413.09731   -2523.9789     83.52656 
   26900    732.53531   -109.45365   0.66281334   -108.79083   -112.93829    4.3838671    4.3838671    4.3838671   -112.93829   -5436.1298   -6967.7497    12065.065    3934.5117   -820.36511    7295.7969    84.250433 
   27000    678.51907   -109.40633   0.61393831   -108.79239   -11197.557    4.3807324    4.3807324    4.3807324   -11197.557   -22859.707   -11992.796    1259.8329    9070.8711     13109.17    4717.2294    84.069833 
   27100    1141.0305   -109.81887    1.0324284   -108.78644    5452.3942    4.3705359    4.3705359    4.3705359    5452.3942     6909.797    2803.3021    6644.0836    -8592.299   -2018.3353   -1360.6108    83.484157 
   27200    881.79855   -109.58969   0.79786986   -108.79182   -9615.3482     4.386188     4.386188     4.386188   -9615.3482   -27404.742   -18401.038    16959.736    5707.4403   -630.83847    6273.3928    84.384316 
   27300    865.60298   -109.57409   0.78321576   -108.79087   -685.44995    4.3747042    4.3747042    4.3747042   -685.44995   -12554.692    6861.0854    3637.2563    8420.7111    9763.1123     -2190.08    83.723249 
   27400    1000.0971   -109.69525   0.90490889   -108.79034    13559.692    4.3772401    4.3772401    4.3772401    13559.692    -6159.707    27783.152    19055.631   -17838.461   -4467.4042    700.58973    83.868928 
   27500    938.53837   -109.64175   0.84920924   -108.79254   -14561.073     4.388569     4.388569     4.388569   -14561.073   -18616.432    -15428.85   -9637.9381    9644.1155    940.16257   -4693.4995    84.521813 
   27600    705.77665   -109.43214   0.63860154   -108.79354    4747.0677    4.3684283    4.3684283    4.3684283    4747.0677   -1846.2313    21845.946   -5758.5119    9174.8348    11969.443    9660.5342    83.363443 
   27700    1004.6043   -109.70453   0.90898711   -108.79554    5537.3653    4.3725883    4.3725883    4.3725883    5537.3653    17282.978     5273.757    -5944.639   -17753.085   -3866.6858   -6028.6859    83.601826 
   27800    934.35502   -109.63836   0.84542406   -108.79294    -14930.42    4.3911826    4.3911826    4.3911826    -14930.42    -17539.98   -20825.065   -6426.2143    6836.1703    4957.8415   -1457.0363    84.672911 
   27900    756.28795   -109.47271   0.68430523    -108.7884    8212.0618    4.3743937    4.3743937    4.3743937    8212.0618    11565.952    8305.2608    4764.9723    5505.4931    10773.189    10709.642    83.705425 
   28000    1044.4022   -109.73261   0.94499705   -108.78761    5321.9914    4.3732829    4.3732829    4.3732829    5321.9914    8778.6865   -1165.7291    8353.0167   -14872.802   -9581.2172   -11692.333    83.641672 
   28100    864.56816   -109.57577   0.78227944   -108.79349     1558.887    4.3812386    4.3812386    4.3812386     1558.887    3086.1285    23149.028   -21558.496    12632.384    9043.7201   -3836.1373     84.09898 
   28200    1022.2322   -109.72088   0.92493714   -108.79595   -3254.3795    4.3766789    4.3766789    4.3766789   -3254.3795    1440.8793    8382.4461   -19586.464    3083.3491    798.41593    9284.6755    83.836678 
   28300    808.96014   -109.52862   0.73196413   -108.79666    41.248329    4.3811475    4.3811475    4.3811475    41.248329    20024.757    9318.7496   -29219.762   -1596.2772   -2913.1836   -22949.324    84.093732 
   28400    920.37859   -109.62178   0.83277789     -108.789    5665.5649     4.375129     4.375129     4.375129    5665.5649    31233.253    2804.1667   -17040.725    3109.2347    12128.456   -3252.2382    83.747642 
   28500    927.03505   -109.63189    0.8388008   -108.79309   -441.03845    4.3803221    4.3803221    4.3803221   -441.03845   -7915.1266    28202.799   -21610.788   -6168.5604   -1584.5944    10486.911    84.046211 
   28600    657.91104   -109.39227   0.59529173   -108.79698   -1038.7059    4.3841076    4.3841076    4.3841076   -1038.7059    23054.452   -5355.3848   -20815.185   -10602.334     4008.065   -18892.456      84.2643 
   28700    1134.4278   -109.81559    1.0264541   -108.78914   -1171.3719    4.3720204    4.3720204    4.3720204   -1171.3719   -7442.1925    11324.919   -7396.8426   -820.88497    594.66261    582.16286    83.569256 
   28800    754.67947    -109.4799   0.68284985   -108.79705    10624.935    4.3751343    4.3751343    4.3751343    10624.935    17551.501    29272.515   -14949.209    2473.7567    2175.5518    9552.2914    83.747945 
   28900    903.69179   -109.61563   0.81767932   -108.79795   -25346.735    4.3892642    4.3892642    4.3892642   -25346.735   -13622.505   -20207.249   -42210.451   -9673.9424     3196.776   -15081.186    84.561985 
   29000    866.92272   -109.57659    0.7844099   -108.79218      16002.7    4.3800456    4.3800456    4.3800456      16002.7     23358.69    49412.897   -24763.486    1102.4741    190.99995    7624.9103    84.030297 
   29100     1175.565   -109.85402    1.0636759   -108.79034   -4286.0378     4.370283     4.370283     4.370283   -4286.0378    7103.8719    -1890.963   -18071.022    2466.2548     2705.267   -3951.3681    83.469669 
   29200    527.88441   -109.27933   0.47764091   -108.80169    2427.4199    4.3847616    4.3847616    4.3847616    2427.4199    8408.0642    28763.408   -29889.212   -5951.9195    5336.2173   -9120.7413    84.302013 
   29300    1178.0754   -109.85345    1.0659474    -108.7875   -2480.2385    4.3867772    4.3867772    4.3867772   -2480.2385   -10664.399    13896.091   -10672.408     9439.892     3678.421    9339.8299    84.418328 
   29400     942.7233   -109.63764   0.85299585   -108.78465    17417.193        4.367        4.367        4.367    17417.193    38598.674    20118.349   -6465.4443    1756.5646   -3797.2356   -13855.901    83.281698 
   29500    594.43751   -109.33768   0.53785955   -108.79982    -7904.129    4.3848145    4.3848145    4.3848145    -7904.129   -15153.158    11956.007   -20515.237   -7868.4405    2378.2473   -9132.9784    84.305067 
   29600    1141.4739   -109.82139    1.0328296   -108.78856   -9600.5639    4.3865462    4.3865462    4.3865462   -9600.5639   -2978.5996   -7338.3399   -18484.752    8694.8398   -1488.3123    -2226.468    84.404988 
   29700     1001.595   -109.69436   0.90626423    -108.7881    5080.2883    4.3688187    4.3688187    4.3688187    5080.2883    19137.947    24107.496   -28004.578   -6432.8654   -804.36457   -9964.8575    83.385796 
   29800    701.90864   -109.43619   0.63510169   -108.80109   -16217.543    4.3822693    4.3822693    4.3822693   -16217.543   -5708.1874   -24312.306   -18632.135    -14612.37    3263.8403   -6544.5413    84.158344 
   29900    967.74994   -109.66925   0.87564048   -108.79361   -577.39726    4.3866274    4.3866274    4.3866274   -577.39726   -6464.0998    6203.4469   -1471.5389    3110.7854   -1786.9093    2601.1109    84.409676 
   30000    1201.7899   -109.87691    1.0874047   -108.78951   -1001.7566    4.3797122    4.3797122    4.3797122   -1001.7566   -8034.2092    20065.086   -15036.147   -9951.4646    10408.162   -5926.1467    84.011109 
   30100    717.21084   -109.44492   0.64894744   -108.79597    11641.963    4.3707295    4.3707295    4.3707295    11641.963    -429.7423    13759.925    21595.705   -5672.0108    1448.4298   -6370.9072    83.495254 
   30200    863.37136   -109.58379   0.78119655    -108.8026    8452.0827    4.3818816    4.3818816    4.3818816    8452.0827   -20342.941    27058.278    18640.912    4638.1708    -3201.068    4980.3824    84.136009 
   30300    1138.3389    -109.8167    1.0299929   -108.78671   -12516.631    4.3925039    4.3925039    4.3925039   -12516.631   -15046.855     7165.739   -29668.779   -5167.7331    1299.6065    5541.3957    84.749366 
   30400    608.26075   -109.34016   0.55036711   -108.78979    4243.9699    4.3677871    4.3677871    4.3677871    4243.9699   -7396.6668    10272.552    9856.0243   -10270.187   -1212.6219   -3543.5297    83.326736 
   30500    923.65337   -109.63746   0.83574098   -108.80172   -8605.8609     4.371739     4.371739     4.371739   -8605.8609   -9682.9124   -8677.7565   -7456.9137    17264.546    5981.1625    18163.089    83.553119 
   30600    1090.9626   -109.78559   0.98712585   -108.79846   -10914.599    4.3953693    4.3953693    4.3953693   -10914.599   -18851.807   -16136.021    2244.0319    7154.7198   -7156.4793   -6160.2525    84.915334 
   30700    910.12657   -109.62465   0.82350165   -108.80114   -15706.422    4.3792765    4.3792765    4.3792765   -15706.422   -19017.583   -11938.192   -16163.493   -8723.6364   -62.667815   -9570.9203    83.986038 
   30800     873.8204   -109.58793   0.79065106   -108.79728    8285.5693    4.3583717    4.3583717    4.3583717    8285.5693    5070.6556    -3076.904    22862.956    16275.277   -2471.6536    11569.044    82.789029 
   30900     1022.599   -109.72835   0.92526905   -108.80308   -9335.4011    4.3964526    4.3964526    4.3964526   -9335.4011       395.82    5581.6752   -33983.698   -2657.8198    -1604.026   -8138.9188    84.978136 
   31000    896.81436   -109.60791   0.81145648   -108.79645   -6854.4672    4.3854827    4.3854827    4.3854827   -6854.4672   -29590.046    33075.083   -24048.438   -1935.8657   -2232.0274    4302.1467    84.343612 
   31100    502.00478     -109.244   0.45422448   -108.78977    29265.555    4.3606363    4.3606363    4.3606363    29265.555    23134.329    52392.914     12269.42    7925.0547   -4028.7304   -5711.0849    82.918147 
   31200    891.77176   -109.60287   0.80689383   -108.79598   -6296.6999    4.3941329    4.3941329    4.3941329   -6296.6999    2885.2822   -1353.6177   -20421.764   -7572.2093   -1565.9014    776.13729    84.843693 
   31300    1262.3599   -109.92997    1.1422097   -108.78776   -10648.905    4.3815454    4.3815454    4.3815454   -10648.905   -20012.623    2596.7017   -14530.794    4801.2982     3417.285    1377.4281    84.116646 
   31400    726.89254   -109.45342   0.65770765   -108.79571    1456.8238    4.3632553    4.3632553    4.3632553    1456.8238    12425.862   -9085.3591    1029.9687    10917.759   -599.70836    5875.2565    83.067641 
   31500    992.40733   -109.70208   0.89795101   -108.80412   -1664.6581    4.3829558    4.3829558    4.3829558   -1664.6581    17337.242    -18491.72   -3839.4957    511.08655   -6655.3245     550.6657    84.197901 
   31600    1075.7872   -109.76464   0.97339486   -108.79125   -11618.985    4.3978844    4.3978844    4.3978844   -11618.985   -34970.258    6104.3034   -5990.9996   -1601.3672    3720.5564    112.30543    85.061185 
   31700    782.63461   -109.49634   0.70814424   -108.78819   -4474.3168    4.3687316    4.3687316    4.3687316   -4474.3168   -6739.7144    7352.2828   -14035.519    7621.9911    1246.0548    12351.944    83.380807 
   31800    405.16225   -109.16317   0.36659932   -108.79657    27794.545    4.3647358    4.3647358    4.3647358    27794.545    37718.249    24620.327    21045.059   -2773.0975   -91.082266    5181.5885    83.152227 
   31900    915.09899   -109.62023    0.8280008   -108.79223   -5939.8758    4.3939258    4.3939258    4.3939258   -5939.8758   -5137.3616      13492.6   -26174.866    -897.5093   -6487.5592    3350.6327    84.831699 
   32000    979.74262   -109.67232   0.88649172   -108.78583   -3354.1727    4.3820736    4.3820736    4.3820736   -3354.1727    -4896.665    16091.353   -21257.206    9522.8635    -4392.461    11975.304     84.14707 
   32100    637.29327   -109.36469   0.57663634   -108.78805    16500.833    4.3728673    4.3728673    4.3728673    16500.833    31328.099    11610.196     6564.203   -10015.329   -400.52445   -2720.4209     83.61783 
   32200    1194.5406   -109.86643    1.0808455   -108.78558    412.38392     4.383416     4.383416     4.383416    412.38392    -7060.553    -2954.738    11252.443    3241.0284   -4843.6144   -7474.9924     84.22443 
   32300    935.09087   -109.63603   0.84608987   -108.78994   -6662.8361      4.38359      4.38359      4.38359   -6662.8361   -20364.753    4471.2513   -4095.0066    5780.5411    -1385.974   -655.15699     84.23446 
   32400    493.65142   -109.24214   0.44666618   -108.79548    6173.2791    4.3760432    4.3760432    4.3760432    6173.2791     17987.01    3508.6803   -2975.8527   -11042.438   -4078.5647   -19808.256    83.800153 
   32500    790.75218   -109.51049   0.71548919     -108.795    15105.705     4.382399     4.382399     4.382399    15105.705   -3322.4991    49704.358   -1064.7438   -5619.7549   -7217.4018   -12230.531     84.16582 
   32600    805.90415   -109.52414   0.72919901   -108.79494    2631.5872    4.3830747    4.3830747    4.3830747    2631.5872   -5117.1171     34459.64   -21447.761   -6619.8547    1097.9829   -2021.9715    84.204756 
   32700    529.47713   -109.28028   0.47908203    -108.8012   -168.10233    4.3781528    4.3781528    4.3781528   -168.10233    976.42079    11455.662   -12936.389   -10889.864   -1043.3202   -13385.188    83.921407 
   32800    1108.1707   -109.79495    1.0026961   -108.79226    3196.7517    4.3824733    4.3824733    4.3824733    3196.7517    1103.4596    952.43355     7534.362   -5523.9571    -10111.46    1841.6584    84.170099 
   32900    1299.8182   -109.96866    1.1761028   -108.79256    2570.3708    4.3715698    4.3715698    4.3715698    2570.3708   -9414.4119    17207.223   -81.698727   -5765.3901   -2825.5709   -9651.3175    83.543418 
   33000    544.56518     -109.299   0.49273402   -108.80626    17185.695    4.3739566    4.3739566    4.3739566    17185.695    14472.563    27271.496    9813.0243   -7137.8366   -1568.6528   -7464.5035    83.680333 
   33100    1031.1233   -109.72726     0.932982   -108.79428   -6671.4684    4.3940245    4.3940245    4.3940245   -6671.4684     -17578.2    16095.597   -18531.803   -2134.5485   -8677.1843    16610.412    84.837414 
   33200    1041.3282   -109.73106   0.94221565   -108.78884    11321.294    4.3675885    4.3675885    4.3675885    11321.294    1905.8704    44840.031   -12782.019    8521.9119   -2145.6689   -9454.0575    83.315373 
   33300    460.54781   -109.21624   0.41671334   -108.79953    7667.8332    4.3649198    4.3649198    4.3649198    7667.8332    26283.564   -1337.1095   -1942.9551   -5005.3043   -4937.1714   -4243.7591    83.162743 
   33400    972.36572   -109.67764   0.87981694   -108.79782   -19686.621    4.3938719    4.3938719    4.3938719   -19686.621   -12700.097   -11850.785   -34508.981    622.89115   -4715.5776     9059.731    84.828578 
   33500     1165.319      -109.84    1.0544051   -108.78559    7011.8723     4.379458     4.379458     4.379458    7011.8723   -2733.8437    24379.151   -609.69053    7810.7363    3597.3501   -14016.961    83.996484 
   33600    833.37734    -109.5389   0.75405733   -108.78484    8134.2531    4.3697219    4.3697219    4.3697219    8134.2531   -838.54819    21799.811    3441.4969   -5626.2069   -1946.6325   -3053.4258    83.437519 
   33700    1010.7062   -109.70762   0.91450817   -108.79311   -9435.8531     4.387144     4.387144     4.387144   -9435.8531   -7319.4725   -1154.9708   -19833.116    9916.1207    72.100022    9227.5419    84.439502 
   33800    1161.8233   -109.83986    1.0512421   -108.78862   -10175.105    4.3837781    4.3837781    4.3837781   -10175.105   -16070.025   -2515.9247   -11939.365    5076.5088    1916.2579   -8126.5755    84.245301 
   33900    641.81475   -109.37047   0.58072747   -108.78974    8797.6934    4.3690184    4.3690184    4.3690184    8797.6934    21457.977    10054.021   -5118.9179   -14348.876   -2112.5893    8348.1157    83.397229 
   34000    909.02445   -109.61488   0.82250442   -108.79238   -21063.954    4.3827476    4.3827476    4.3827476   -21063.954   -8862.1441   -33153.248    -21176.47    14445.331   -544.78613    11226.983    84.185907 
   34100    1002.4185   -109.69222   0.90700936   -108.78521   -3197.7643    4.3868447    4.3868447    4.3868447   -3197.7643   -2996.1613   -9104.5078    2507.3764    2575.5002    1713.1183   -1954.3983    84.422223 
   34200    877.58532   -109.58041   0.79405764   -108.78635   -4785.9712     4.376331     4.376331     4.376331   -4785.9712    8362.4157    1613.5608    -24333.89    -9298.047   -3687.4271     11420.96    83.816685 
   34300    848.89915   -109.55988   0.76810179   -108.79177    -2244.545    4.3770261    4.3770261    4.3770261    -2244.545    20078.817    -23364.51   -3447.9425    13932.532   -20.232705    2556.2007    83.856631 
   34400    1292.6555   -109.95349    1.1696219   -108.78387   -8239.3972    4.3859745    4.3859745    4.3859745   -8239.3972   -12064.732   -1037.4648   -11615.995     -1691.67      2689.88    -9324.009    84.371994 
   34500    862.63497   -109.56721   0.78053025   -108.78668   -13589.758    4.3793054    4.3793054    4.3793054   -13589.758    8384.6462   -8724.6752   -40429.245    4761.5745   -4450.6169    13678.612    83.987701 
   34600    509.56358   -109.25338   0.46106383   -108.79231    2363.0832     4.368828     4.368828     4.368828    2363.0832    12418.873   -27779.631    22450.007    17571.351    212.47479     -855.633    83.386326 
   34700    1128.1306   -109.81709    1.0207562   -108.79634   -7581.4468    4.3813232    4.3813232    4.3813232   -7581.4468   -3673.6139   -1131.2313   -17939.495    440.46543   -4799.5413    1601.8269    84.103849 
   34800    736.95683   -109.46685   0.66681402   -108.80004   -5426.3994    4.3819162    4.3819162    4.3819162   -5426.3994    22840.417    2162.7413   -41282.356     12491.92   -3230.3681    10348.289    84.138001 
   34900    688.08244   -109.41781   0.62259145   -108.79522    2754.6927    4.3700925    4.3700925    4.3700925    2754.6927    4228.5946    3403.8349    631.64851    20154.435     2990.977    411.92352    83.458754 
   35000    1275.5422   -109.94399    1.1541374   -108.78985   -8693.2967    4.3856498    4.3856498    4.3856498   -8693.2967    -22321.47    17761.073   -21519.493   -3814.1893   -8023.8509    6419.2375    84.353255 
[...]
   91200    907.54068   -109.61918   0.82116188   -108.79802   -7998.7504    4.3631908    4.3631908    4.3631908   -7998.7504   -15919.856   -7077.5149   -998.88064    9048.3177    5302.9078     6105.196    83.063959 
   91300    613.40766   -109.35842   0.55502414   -108.80339   -48.664026    4.3599899    4.3599899    4.3599899   -48.664026   -23388.639    10927.706    12314.942    32338.487   -3389.7548    -10535.01    82.881282 
   91400    1237.6957   -109.91289    1.1198931     -108.793    6846.4398    4.3643715    4.3643715    4.3643715    6846.4398    4186.9049    10181.126    6171.2884   -8132.7801    3004.5088   -5929.2559    83.131408 
   91500    789.82798   -109.51332   0.71465295   -108.79867    11281.667    4.3618486    4.3618486    4.3618486    11281.667   -9050.3819    20385.672     22509.71    12834.943   -2975.8264    5694.9045    82.987326 
   91600    515.25842   -109.27006   0.46621664   -108.80384   -6832.3614    4.3638003    4.3638003    4.3638003   -6832.3614   -21470.374   -6737.2089    7710.4984    22210.028   -2258.7222   -15489.053    83.098771 
   91700    1182.6144   -109.86555    1.0700544   -108.79549    9626.6295    4.3589972    4.3589972    4.3589972    9626.6295    15352.373    12400.065    1127.4506   -9901.6621    732.64716   -5388.6153    82.824683 
   91800    1007.6335   -109.71184   0.91172796   -108.80012    3293.0233    4.3626159    4.3626159    4.3626159    3293.0233    2326.3583    6329.6211    1223.0906    18761.516   -774.78442    3246.7256    83.031126 
   91900    566.61215   -109.31823   0.51268258   -108.80554   -10576.276     4.368726     4.368726     4.368726   -10576.276    10084.241   -22820.022   -18993.049    15955.211   -7225.1039   -19869.704    83.380484 
   92000    1193.7179   -109.87188    1.0801011   -108.79178    15158.033    4.3565875    4.3565875    4.3565875    15158.033    36795.241    15235.315   -6556.4571   -12171.266   -3061.1054    2942.0138      82.6874 
   92100    973.05584   -109.67603   0.88044138   -108.79558   -2907.2637    4.3647118    4.3647118    4.3647118   -2907.2637   -1848.4061   -7180.2536    306.86858    26029.862    7680.0542    2923.4337    83.150855 
   92200    504.93355   -109.25879   0.45687449   -108.80192   -11617.326    4.3633067    4.3633067    4.3633067   -11617.326   -11535.069   -13222.712   -10094.196    8647.9004   -6327.3706     -21848.7    83.070577 
   92300    810.26223   -109.52908   0.73314229   -108.79593   -1381.2265     4.359436     4.359436     4.359436   -1381.2265   -3554.0218    12038.649   -12628.307   -4443.6256   -2180.4832    10569.106    82.849696 
   92400    918.32314   -109.62508   0.83091808   -108.79416   -7458.6351    4.3665772    4.3665772    4.3665772   -7458.6351   -5120.5297   -12196.038   -5059.3378    20378.177   -1032.4397    5314.5174    83.257512 
   92500    686.16289   -109.41909    0.6208546   -108.79823    6311.8605    4.3582935    4.3582935    4.3582935    6311.8605    11818.725    15635.116     -8518.26    3047.8696   -2221.5022    -23319.96    82.784573 
   92600    989.68775   -109.69213   0.89549027   -108.79664   -7332.4123    4.3672758    4.3672758    4.3672758   -7332.4123    159.65539    4982.1975    -27139.09   -1990.5954    1142.1402    19107.159    83.297482 
   92700    1257.2768   -109.93059    1.1376104   -108.79298   -1576.7901     4.360869     4.360869     4.360869   -1576.7901    7471.3373   -3777.5482   -8424.1593    5518.6193   -1931.5061    3774.1717    82.931421 
   92800    909.64665   -109.62175   0.82306741   -108.79868    9818.4487    4.3553528    4.3553528    4.3553528    9818.4487     21875.72    11738.925   -4159.2988    9407.1759   -7199.7584   -27554.845    82.617115 
   92900    914.14397   -109.62566   0.82713667   -108.79852   -18768.884    4.3723687    4.3723687    4.3723687   -18768.884    311.93821   -25923.229   -30695.362   -6494.4411   -6027.0386    25634.842    83.589232 
   93000    1053.7578   -109.74652   0.95346221   -108.79306    8248.8379    4.3549811    4.3549811    4.3549811    8248.8379    20058.411   -3949.2937    8637.3962   -3065.5773    11166.591    3046.3461    82.595963 
   93100    650.67483   -109.38973   0.58874426   -108.80098   -1804.5863    4.3615031    4.3615031    4.3615031   -1804.5863     7397.677   -4656.2186   -8155.2172    11317.291    -8267.971   -29379.867    82.967604 
   93200      830.922   -109.54707   0.75183569   -108.79524   -15518.647     4.370318     4.370318     4.370318   -15518.647   -14842.886   -14153.003   -17560.052   -4329.9688   -5442.3792    21582.034    83.471671 
   93300    960.27914   -109.65917   0.86888074   -108.79029    10041.952    4.3554533    4.3554533    4.3554533    10041.952    10924.339    2819.8712    16381.645   -4978.6054    6389.0912   -100.19565    82.622832 
   93400    747.33005   -109.47262   0.67619994   -108.79642   -6182.1306    4.3671847    4.3671847    4.3671847   -6182.1306    4588.0146   -7341.4596   -15792.947    4432.0297   -8070.1227   -22970.222    83.292269 
   93500    1055.7756   -109.74835   0.95528794   -108.79306     812.0838    4.3588509    4.3588509    4.3588509     812.0838     6955.244   -629.64627   -3889.3463    -2119.083   -460.79659    15006.423     82.81634 
   93600    884.19163    -109.5981   0.80003517   -108.79807   -4876.6339     4.360111     4.360111     4.360111   -4876.6339    4714.5566   -13616.974   -5727.4838   -15995.206    4495.6694   -6634.2877    82.888188 
   93700    734.81699   -109.46422   0.66487785   -108.79935   -18429.647    4.3692028    4.3692028    4.3692028   -18429.647   -9792.1679   -19057.473   -26439.299    10336.051   -5701.0339   -15243.639    83.407791 
   93800    1104.4294    -109.7895   0.99931091   -108.79019    10685.808    4.3560591    4.3560591    4.3560591    10685.808    7408.2949     10007.77     14641.36   -2752.1377   -5836.5789    7952.0411    82.657315 
   93900    942.40777   -109.64693   0.85271035   -108.79422    -16444.92    4.3678253    4.3678253    4.3678253    -16444.92   -9831.9285   -29707.975   -9794.8578   -22671.456    6797.5962   -14100.025    83.328925 
   94000    890.74698   -109.60197   0.80596659   -108.79601   -5675.1899    4.3624062    4.3624062    4.3624062   -5675.1899   -4132.7807   -4687.0869   -8205.7021    15813.401   -3919.3038    -13953.89    83.019155 
   94100    1310.6421   -109.97751    1.1858966   -108.79161    8501.6839     4.355057     4.355057     4.355057    8501.6839   -1669.0393    6880.1555    20293.935   -4357.8544   -10892.817    6486.8886    82.600285 
   94200    1000.0156   -109.70315   0.90483513   -108.79831   -10916.693    4.3670719    4.3670719    4.3670719   -10916.693   -1677.5472   -20276.782   -10795.749   -20167.203    8832.9946   -9378.1245    83.285812 
   94300    700.32414   -109.43411     0.633668   -108.80044    2757.4349    4.3600094    4.3600094    4.3600094    2757.4349    16008.648   -1569.5034   -6166.8398    12032.586   -7601.2721   -15714.394     82.88239 
   94400    929.26011   -109.63452   0.84081407    -108.7937    6246.1681    4.3629415    4.3629415    4.3629415    6246.1681     17303.67   -7522.0747    8956.9086   -956.37408   -4151.2066    6267.4468    83.049717 
   94500    702.64112    -109.4318   0.63576445   -108.79604   -7396.1475    4.3637635    4.3637635    4.3637635   -7396.1475     16832.07   -25810.192   -13210.321   -15970.005     10176.09   -10154.111    83.096668 
   94600    644.88984   -109.38271   0.58350988    -108.7992   -1197.2469    4.3555774    4.3555774    4.3555774   -1197.2469    4864.8854    -8617.373    160.74696    16585.784   -5415.6387   -12909.573    82.629895 
   94700    968.78368   -109.67556   0.87657584   -108.79898    764.07576    4.3617809    4.3617809    4.3617809    764.07576    9831.6517   -16494.895    8955.4705    3551.4593   -4392.4795    14671.174    82.983461 
   94800    1053.6316   -109.75158     0.953348   -108.79823   -1610.6898    4.3632681    4.3632681    4.3632681   -1610.6898    15348.277   -14203.438   -5976.9088    -11683.16   -416.41092   -12126.007    83.068374 
   94900    1040.9324   -109.73874   0.94185749   -108.79688   -2405.0309    4.3623518    4.3623518    4.3623518   -2405.0309    -6329.114   -1544.8428    658.86422    12576.769   -6817.8836   -13841.914    83.016049 
   95000    1082.2994   -109.77259   0.97928728   -108.79331    4162.8826    4.3601156    4.3601156    4.3601156    4162.8826    10154.565   -1762.7213    4096.8044   -2539.8807    -5901.125    23795.028    82.888449 
   95100    984.80694    -109.6849   0.89107401   -108.79383    56.175058    4.3611346    4.3611346    4.3611346    56.175058    8935.1938   -1604.5953   -7162.0734    -6710.103    4295.3122   -16513.194     82.94658 
   95200    757.27046    -109.4815   0.68519423   -108.79631   -6333.3391    4.3635366    4.3635366    4.3635366   -6333.3391    -33.95859   -12611.375   -6354.6837    3521.4668   -5334.5686    -10196.42     83.08371 
   95300    675.34658   -109.40863   0.61106778   -108.79756    1698.5159    4.3582957    4.3582957    4.3582957    1698.5159     12959.89   -6288.3696   -1575.9727   -507.80934   -10772.923    31613.186    82.784701 
   95400    929.54334   -109.63703   0.84107035   -108.79595    467.91282    4.3631517    4.3631517    4.3631517    467.91282    5442.5145   -550.07437   -3488.7017   -8246.1722    7893.5719   -19070.281    83.061721 
   95500    877.53473   -109.58809   0.79401186   -108.79408   -7500.4469    4.3670082    4.3670082    4.3670082   -7500.4469   -11736.828   -4918.0097   -5846.5026   -1995.9685   -3972.2455    2192.0357    83.282169 
   95600    850.75024   -109.56612    0.7697767   -108.79634   -5978.7076    4.3607037    4.3607037    4.3607037   -5978.7076   -10670.384      2135.38    -9401.119    104.25642   -7594.7257    35959.703    82.921991 
   95700    1353.4999   -110.01471    1.2246752   -108.79004    2892.3256    4.3607193    4.3607193    4.3607193    2892.3256   -13688.012     4200.917    18164.072   -10461.252    4628.1177   -16607.643    82.922884 
   95800    995.58278    -109.6986   0.90082422   -108.79778   -9955.6553    4.3646707    4.3646707    4.3646707   -9955.6553     -3813.72   -18525.587   -7527.6593    -1992.657   -6810.9674    11563.512    83.148508 
   95900    558.44651   -109.30821   0.50529414   -108.80292   -12413.135    4.3627507    4.3627507    4.3627507   -12413.135   -10794.793   -12115.913   -14328.699    460.56686   -2423.1422    26514.646    83.038825 
   96000    1161.3395   -109.84326    1.0508044   -108.79246   -4103.4032    4.3610897    4.3610897    4.3610897   -4103.4032   -15247.098   -7133.8953    10070.784   -8841.4577    7439.2053   -6294.1154    82.944017 
   96100    825.37145   -109.54453   0.74681343   -108.79771   -11549.755    4.3650894    4.3650894    4.3650894   -11549.755    6948.8678   -25036.081   -16562.052   -3797.8127   -7535.4172    22508.582    83.172436 
   96200    642.22463   -109.37977   0.58109834   -108.79867   -11111.897     4.363797     4.363797     4.363797   -11111.897   -12259.013   -7413.7045   -13662.973    3426.9238   -2806.9374    12351.862    83.098581 
   96300    1154.1609   -109.83601     1.044309    -108.7917   -2628.4227    4.3607892    4.3607892    4.3607892   -2628.4227   -22701.817   -74.999182    14891.548   -7080.3507    13012.268   -5740.7073     82.92687 
   96400    1103.4846   -109.79318   0.99845605   -108.79472   -5552.4928    4.3609785    4.3609785    4.3609785   -5552.4928    8903.7856   -20060.646   -5500.6177   -7623.1713   -4682.8493    25848.467     82.93767 
   96500    883.33173   -109.59535   0.79925712   -108.79609   -4110.1671    4.3629615    4.3629615    4.3629615   -4110.1671   -20497.657     10387.78   -2220.6243    672.20003   -1006.9737    11020.234     83.05086 
   96600    947.01575   -109.65219   0.85687976   -108.79531   -11205.837     4.363796     4.363796     4.363796   -11205.837   -29249.948    4242.8899    -8610.452   -4835.6853     15262.19   -11330.674    83.098524 
   96700    843.33395   -109.55819   0.76306628   -108.79512    215.17105    4.3582192    4.3582192    4.3582192    215.17105    15940.148   -7020.7945   -8273.8408   -1324.7165   -1401.5993    17903.682     82.78034 
   96800    737.41499   -109.46444   0.66722858   -108.79721   -1665.6824    4.3616536    4.3616536    4.3616536   -1665.6824   -10840.055    9513.5689   -3670.5608   -1467.5473   -2365.0461    11834.069    82.976194 
   96900     785.3232   -109.50839   0.71057693   -108.79781   -9127.8444    4.3650316    4.3650316    4.3650316   -9127.8444   -20712.307   -3545.6563   -3125.5696   -7491.4976    11838.322   -7998.3536    83.169131 
   97000    978.45657   -109.67935   0.88532807   -108.79402    1822.5255    4.3596441    4.3596441    4.3596441    1822.5255    15276.883   -14296.825    4487.5192   -346.23607    711.13895    9531.9665    82.861562 
   97100     865.1075   -109.57845   0.78276745   -108.79568   -971.52883    4.3629225    4.3629225    4.3629225   -971.52883   -23837.275    20634.822    287.86609    1746.7322     2385.967   -199.44387    83.048637 
   97200    951.69183    -109.6589   0.86111077   -108.79779   -7724.2695    4.3626712    4.3626712    4.3626712   -7724.2695     -27563.1    14987.286   -10596.994   -3938.7886    12130.787   -9672.1778    83.034283 
   97300    1294.1196   -109.96419    1.1709466   -108.79324    4640.7924    4.3593593    4.3593593    4.3593593    4640.7924     5353.865    1024.9406    7543.5716   -4012.4012   -2999.6795    4362.6683    82.845325 
   97400    906.37597   -109.62149   0.82010803   -108.80138   -5434.2827    4.3628029    4.3628029    4.3628029   -5434.2827    -36186.75    26404.065   -6520.1627    3490.4358    2332.0147    3199.9887    83.041806 
   97500    648.02793   -109.39161   0.58634929   -108.80526    -6261.219    4.3617025    4.3617025    4.3617025    -6261.219    -26704.13    15854.525   -7934.0523    4510.5052     10338.56    -12663.52    82.978988 
   97600    1252.9616   -109.92672     1.133706   -108.79302    -3167.321    4.3641983    4.3641983    4.3641983    -3167.321         1775    -16426.96    5149.9969   -4721.0159   -2973.9672    -8353.491     83.12151 
   97700    690.16188   -109.42457   0.62447297   -108.80009   -8025.9309    4.3635117    4.3635117    4.3635117   -8025.9309    -31795.53    16345.641    -8627.904   -94.795445    7089.4945    9032.4215    83.082287 
   97800    440.78867   -109.20128   0.39883485   -108.80244   -3618.2868    4.3593104    4.3593104    4.3593104   -3618.2868   -20349.852    632.27904    8862.7126   -396.86268    4004.7693     -8626.81    82.842536 
   97900     1163.918   -109.84502    1.0531375   -108.79189   -9442.0071    4.3685631    4.3685631    4.3685631   -9442.0071    -7722.569   -37820.934    17217.482    -7383.999   -1044.2307    -6186.607    83.371162 
   98000    831.39848   -109.55101   0.75226682   -108.79874   -2810.9421    4.3573699    4.3573699    4.3573699   -2810.9421   -22366.237    5961.4991    7971.9111    108.63564    10246.706    5356.5998    82.731956 
   98100    695.23015    -109.4339   0.62905885   -108.80484    1745.4112    4.3599885    4.3599885    4.3599885    1745.4112   -23401.823    13423.204    15214.853   -4568.4045   -217.50825   -16282.358    82.881202 
   98200    1333.8162    -109.9993    1.2068649   -108.79243   -12967.605    4.3717906    4.3717906    4.3717906   -12967.605   -23419.244    -18446.19    2962.6188   -13468.379   -4336.1638    5770.5795    83.556081 
   98300    1036.2901    -109.7312   0.93765705   -108.79355    9517.1898    4.3522456    4.3522456    4.3522456    9517.1898   -19666.715    35089.841    13128.444    2878.8467    14477.118    6437.5385    82.440418 
   98400    963.97273   -109.67054   0.87222278   -108.79831   -6296.9461    4.3648042    4.3648042    4.3648042   -6296.9461   -27770.947    14251.593   -5371.4841    586.57161   -1250.6166   -14140.306    83.156134 
   98500    1031.0168   -109.72729   0.93288565   -108.79441   -12393.181    4.3664323    4.3664323    4.3664323   -12393.181   -13524.514   -25299.551    1644.5219   -17465.262   -5429.8238    12332.099    83.249222 
   98600    785.69217   -109.50484   0.71091079   -108.79393    8775.9462    4.3520476    4.3520476    4.3520476    8775.9462   -457.00568    13691.107    13093.738   -4822.8558    12768.941     9403.378    82.429168 
   98700    778.03486   -109.49736   0.70398229   -108.79337   -10677.848      4.36876      4.36876      4.36876   -10677.848   -17405.479   -6142.1774   -8485.8877    1593.5269   -4264.7211     -9522.24    83.382432 
   98800    650.28696   -109.38364    0.5883933   -108.79524    7673.1995    4.3573593    4.3573593    4.3573593    7673.1995    3805.2979    2871.5123    16342.788   -12056.703   -2965.7592    18723.443     82.73135 
   98900    859.47018   -109.57375   0.77766668   -108.79609    3045.9988    4.3596898    4.3596898    4.3596898    3045.9988    1137.9406   -4960.7203    12960.776    -2807.933    10429.227    6302.0957    82.864165 
   99000    1166.5343   -109.84938    1.0555047   -108.79388   -5010.1019     4.365015     4.365015     4.365015   -5010.1019   -18500.983     6795.399   -3324.7219    893.86707   -1992.0272    -9684.524    83.168183 
   99100    775.86483    -109.5034    0.7020188   -108.80138    19821.651    4.3505217    4.3505217    4.3505217    19821.651    16870.399     8395.588    34198.965   -14473.274   -4839.7132    27263.892    82.342493 
   99200    1231.9075   -109.91283    1.1146558   -108.79818   -2699.7384    4.3691803    4.3691803    4.3691803   -2699.7384   -4469.6748   -8062.0898    4432.5493     1720.176    7134.1839    6156.0885    83.406503 
   99300    1159.7793   -109.84475    1.0493927   -108.79535    9463.3051    4.3601526    4.3601526    4.3601526    9463.3051   -7627.5463     11260.76    24756.702    4520.9155   -2103.5903   -2151.0152    82.890559 
   99400    422.47478   -109.18583   0.38226406   -108.80357    13072.994    4.3517985    4.3517985    4.3517985    13072.994    20916.514   -15975.618    34278.085   -21850.225   -7277.0313    34176.577    82.415014 
   99500    1001.3136   -109.70271   0.90600954    -108.7967   -7673.2915    4.3667952    4.3667952    4.3667952   -7673.2915   -2788.5855   -35092.345    14861.056   -3930.6701    5069.2495    -1059.252    83.269984 
   99600    962.78289   -109.66755   0.87114619   -108.79641    1089.5675    4.3591325    4.3591325    4.3591325    1089.5675    1268.4524   -24071.405    26071.655    8981.6773   -493.93364    3291.6143    82.832395 
   99700    394.50048   -109.16457   0.35695233   -108.80761   -10665.606    4.3595397    4.3595397    4.3595397   -10665.606   -1549.6549   -32888.256    2441.0938   -22775.224   -8940.5475    37755.562    82.855606 
   99800    1254.3239   -109.93348    1.1349387   -108.79854    1120.7434    4.3600642    4.3600642    4.3600642    1120.7434   -5916.9631    2345.4736    6933.7198   -5137.4178    698.53664   -9225.4743    82.885519 
   99900    1188.7989   -109.87457    1.0756502   -108.79892   -5570.2535    4.3635608    4.3635608    4.3635608   -5570.2535   -9565.5393   -1594.1778   -5551.0432    8053.0469    820.73058    2213.8696     83.08509 
  100000    510.01188   -109.26889   0.46146946   -108.80743   -7801.6691    4.3603836    4.3603836    4.3603836   -7801.6691   -12111.603   -3788.9251   -7504.4793    -25641.49   -6730.4201    29635.909    82.903736 
Loop time of 22.5081 on 1 procs for 100000 steps with 8 atoms

Pair  time (%) = 6.934 (30.8067)
Kspce time (%) = 5.49957 (24.4337)
Neigh time (%) = 0 (0)
Comm  time (%) = 1.12174 (4.98371)
Outpt time (%) = 0.0379932 (0.168798)
Other time (%) = 8.91483 (39.6071)

Nlocal:    8 ave 8 max 8 min
Histogram: 1 0 0 0 0 0 0 0 0 0
Nghost:    2189 ave 2189 max 2189 min
Histogram: 1 0 0 0 0 0 0 0 0 0
Neighs:    2056 ave 2056 max 2056 min
Histogram: 1 0 0 0 0 0 0 0 0 0

Total # of neighbors = 2056
Ave neighs/atom = 257
Neighbor list builds = 0
Dangerous builds = 0
seeds:4009050
