# ['Ni']

28 atoms
1 atom types

    0.0000     2.4862 xlo xhi
    0.0000     4.3063 ylo yhi
    0.0000    28.4198 zlo zhi

    0.0000     0.0000     0.0000 xy xz yz

Atoms

1 1     0.0000     0.0000     0.0000
2 1     1.2431     2.1531     0.0000
3 1     1.2431     0.7177     2.0300
4 1     0.0000     2.8708     2.0300
5 1     0.0000     1.4354     4.0600
6 1     1.2431     3.5885     4.0600
7 1     0.0000     0.0000     6.0900
8 1     1.2431     2.1531     6.0900
9 1     1.2431     0.7177     8.1199
10 1     0.0000     2.8708     8.1199
11 1     0.0000     1.4354    10.1499
12 1     1.2431     3.5885    10.1499
13 1     0.0000     0.0000    12.1799
14 1     1.2431     2.1531    12.1799
15 1     0.0000     1.4354    14.2099
16 1     1.2431     3.5885    14.2099
17 1     0.0000     0.0000    16.2399
18 1     1.2431     2.1531    16.2399
19 1     1.2431     0.7177    18.2699
20 1     0.0000     2.8708    18.2699
21 1     0.0000     1.4354    20.2999
22 1     1.2431     3.5885    20.2999
23 1     0.0000     0.0000    22.3298
24 1     1.2431     2.1531    22.3298
25 1     1.2431     0.7177    24.3598
26 1     0.0000     2.8708    24.3598
27 1     0.0000     1.4354    26.3898
28 1     1.2431     3.5885    26.3898
