   4   4   0   0
  0.1064635E+02  0.3492102E-09  0.3492102E-09  0.3492102E-09  0.5000000E-15
  1.000000000000000E-004
  CAR 
 automatically generated by pyflamestk   
     33.67591124     -0.88021804  301      9.54118208      1.00000000
     -0.880  0.0000E+00  0.0000E+00  0.0000E+00  0.0000E+00
     -0.765  0.0000E+00  0.0000E+00  0.0000E+00  0.0000E+00
     -0.650  0.0000E+00  0.0000E+00  0.0000E+00  0.0000E+00
     -0.535 -0.4841E-29 -0.4843E-29 -0.5576E-30 -0.5578E-30
     -0.419 -0.4443E-25 -0.4445E-25 -0.5118E-26 -0.5120E-26
     -0.304 -0.2088E-21 -0.2089E-21 -0.2406E-22 -0.2407E-22
     -0.189 -0.5024E-18 -0.5026E-18 -0.5789E-19 -0.5791E-19
     -0.074 -0.6175E-15 -0.6177E-15 -0.7119E-16 -0.7121E-16
      0.041 -0.3740E-12 -0.3742E-12 -0.4316E-13 -0.4317E-13
      0.156 -0.1183E-09 -0.1183E-09 -0.1367E-10 -0.1367E-10
      0.272 -0.1890E-07 -0.1890E-07 -0.2190E-08 -0.2191E-08
      0.387 -0.1511E-05 -0.1512E-05 -0.1763E-06 -0.1763E-06
      0.502 -0.5963E-04 -0.5964E-04 -0.7045E-05 -0.7046E-05
      0.617 -0.1125E-02 -0.1125E-02 -0.1366E-03 -0.1366E-03
      0.732 -0.9393E-02 -0.9394E-02 -0.1219E-02 -0.1219E-02
      0.848 -0.2534E-01 -0.2534E-01 -0.4137E-02 -0.4137E-02
      0.963  0.5097E-01  0.5098E-01  0.1734E-02  0.1735E-02
      1.078  0.3401E+00  0.3401E+00  0.4091E-01  0.4091E-01
      1.193  0.5005E+00  0.5005E+00  0.9856E-01  0.9856E-01
      1.308  0.2492E+00  0.2492E+00  0.1273E+00  0.1273E+00
      1.424  0.9432E-02  0.9426E-02  0.1284E+00  0.1284E+00
      1.539 -0.2278E-01 -0.2278E-01  0.1257E+00  0.1257E+00
      1.654 -0.5748E-02 -0.5747E-02  0.1251E+00  0.1251E+00
      1.769 -0.5433E-03 -0.5432E-03  0.1250E+00  0.1250E+00
      1.884 -0.2558E-04 -0.2558E-04  0.1250E+00  0.1250E+00
      1.999 -0.9763E-04 -0.9764E-04  0.1250E+00  0.1250E+00
      2.115 -0.2102E-02 -0.2102E-02  0.1247E+00  0.1247E+00
      2.230 -0.2055E-01 -0.2055E-01  0.1224E+00  0.1224E+00
      2.345 -0.7225E-01 -0.7225E-01  0.1141E+00  0.1141E+00
      2.460  0.6418E-01  0.6419E-01  0.1215E+00  0.1215E+00
      2.575  0.8409E+00  0.8409E+00  0.2183E+00  0.2183E+00
      2.691  0.1515E+01  0.1515E+01  0.3928E+00  0.3928E+00
      2.806  0.9285E+00  0.9285E+00  0.4997E+00  0.4997E+00
      2.921  0.1039E+00  0.1039E+00  0.5117E+00  0.5117E+00
      3.036 -0.7483E-01 -0.7482E-01  0.5031E+00  0.5031E+00
      3.151 -0.2404E-01 -0.2404E-01  0.5003E+00  0.5003E+00
      3.267 -0.2739E-02 -0.2739E-02  0.5000E+00  0.5000E+00
      3.382 -0.2052E-02 -0.2051E-02  0.4998E+00  0.4998E+00
      3.497 -0.1932E-01 -0.1931E-01  0.4975E+00  0.4975E+00
      3.612 -0.7097E-01 -0.7096E-01  0.4894E+00  0.4894E+00
      3.727  0.5064E-01  0.5054E-01  0.4952E+00  0.4952E+00
      3.842  0.8076E+00  0.8073E+00  0.5882E+00  0.5882E+00
      3.958  0.1511E+01  0.1511E+01  0.7623E+00  0.7623E+00
      4.073  0.9585E+00  0.9587E+00  0.8727E+00  0.8727E+00
      4.188  0.1034E+00  0.1035E+00  0.8846E+00  0.8846E+00
      4.303 -0.9687E-01 -0.9692E-01  0.8735E+00  0.8735E+00
      4.418  0.8859E-01  0.8829E-01  0.8837E+00  0.8836E+00
      4.534  0.3793E+00  0.3790E+00  0.9274E+00  0.9273E+00
      4.649  0.6876E+00  0.6877E+00  0.1007E+01  0.1007E+01
      4.764  0.1293E+01  0.1293E+01  0.1155E+01  0.1155E+01
      4.879  0.1396E+01  0.1397E+01  0.1316E+01  0.1316E+01
      4.994  0.4483E+00  0.4486E+00  0.1368E+01  0.1368E+01
      5.110 -0.3248E-01 -0.3325E-01  0.1364E+01  0.1364E+01
      5.225  0.1094E+01  0.1092E+01  0.1490E+01  0.1490E+01
      5.340  0.2841E+01  0.2840E+01  0.1818E+01  0.1817E+01
      5.455  0.3531E+01  0.3531E+01  0.2224E+01  0.2224E+01
      5.570  0.3360E+01  0.3361E+01  0.2611E+01  0.2611E+01
      5.685  0.1874E+01  0.1875E+01  0.2827E+01  0.2827E+01
      5.801  0.7081E+00  0.7066E+00  0.2909E+01  0.2908E+01
      5.916  0.2700E+01  0.2696E+01  0.3220E+01  0.3219E+01
      6.031  0.5183E+01  0.5183E+01  0.3817E+01  0.3816E+01
      6.146  0.3951E+01  0.3954E+01  0.4272E+01  0.4271E+01
      6.261  0.2457E+01  0.2454E+01  0.4555E+01  0.4554E+01
      6.377  0.3852E+01  0.3849E+01  0.4998E+01  0.4997E+01
      6.492  0.3605E+01  0.3610E+01  0.5414E+01  0.5413E+01
      6.607  0.2351E+01  0.2353E+01  0.5684E+01  0.5684E+01
      6.722  0.3357E+01  0.3355E+01  0.6071E+01  0.6071E+01
      6.837  0.3569E+01  0.3568E+01  0.6482E+01  0.6482E+01
      6.953  0.2650E+01  0.2649E+01  0.6788E+01  0.6787E+01
      7.068  0.3166E+01  0.3164E+01  0.7152E+01  0.7151E+01
      7.183  0.4764E+01  0.4762E+01  0.7701E+01  0.7700E+01
      7.298  0.6650E+01  0.6647E+01  0.8467E+01  0.8465E+01
      7.413  0.6587E+01  0.6589E+01  0.9226E+01  0.9224E+01
      7.528  0.4153E+01  0.4159E+01  0.9704E+01  0.9703E+01
      7.644  0.3152E+01  0.3151E+01  0.1007E+02  0.1007E+02
      7.759  0.5326E+01  0.5320E+01  0.1068E+02  0.1068E+02
      7.874  0.7785E+01  0.7782E+01  0.1158E+02  0.1158E+02
      7.989  0.7323E+01  0.7327E+01  0.1242E+02  0.1242E+02
      8.104  0.4007E+01  0.4014E+01  0.1288E+02  0.1288E+02
      8.220  0.1958E+01  0.1960E+01  0.1311E+02  0.1311E+02
      8.335  0.3374E+01  0.3371E+01  0.1350E+02  0.1350E+02
      8.450  0.4249E+01  0.4248E+01  0.1399E+02  0.1399E+02
      8.565  0.4492E+01  0.4488E+01  0.1450E+02  0.1450E+02
      8.680  0.7110E+01  0.7106E+01  0.1532E+02  0.1532E+02
      8.795  0.7594E+01  0.7600E+01  0.1620E+02  0.1620E+02
      8.911  0.3838E+01  0.3846E+01  0.1664E+02  0.1664E+02
      9.026  0.1843E+01  0.1840E+01  0.1685E+02  0.1685E+02
      9.141  0.4232E+01  0.4222E+01  0.1734E+02  0.1734E+02
      9.256  0.6687E+01  0.6685E+01  0.1811E+02  0.1811E+02
      9.371  0.5939E+01  0.5941E+01  0.1879E+02  0.1879E+02
      9.487  0.6461E+01  0.6453E+01  0.1954E+02  0.1953E+02
      9.602  0.8709E+01  0.8707E+01  0.2054E+02  0.2054E+02
      9.717  0.6317E+01  0.6330E+01  0.2127E+02  0.2127E+02
      9.832  0.1515E+01  0.1525E+01  0.2144E+02  0.2144E+02
      9.947 -0.3322E+00 -0.3313E+00  0.2140E+02  0.2140E+02
     10.063 -0.2162E+00 -0.2170E+00  0.2138E+02  0.2138E+02
     10.178 -0.3641E-01 -0.3662E-01  0.2138E+02  0.2138E+02
     10.293 -0.2689E-02 -0.2709E-02  0.2138E+02  0.2138E+02
     10.408 -0.1244E-03 -0.1251E-03  0.2137E+02  0.2137E+02
     10.523 -0.9887E-03 -0.9837E-03  0.2137E+02  0.2137E+02
     10.638 -0.1606E-01 -0.1600E-01  0.2137E+02  0.2137E+02
     10.754 -0.1127E+00 -0.1125E+00  0.2136E+02  0.2136E+02
     10.869 -0.2138E+00 -0.2141E+00  0.2134E+02  0.2134E+02
     10.984  0.8127E+00  0.8093E+00  0.2143E+02  0.2143E+02
     11.099  0.3566E+01  0.3562E+01  0.2184E+02  0.2184E+02
     11.214  0.4307E+01  0.4309E+01  0.2234E+02  0.2234E+02
     11.330  0.1710E+01  0.1714E+01  0.2253E+02  0.2253E+02
     11.445 -0.7036E-01 -0.6930E-01  0.2252E+02  0.2252E+02
     11.560 -0.1754E+00 -0.1757E+00  0.2250E+02  0.2250E+02
     11.675 -0.3600E-01 -0.3612E-01  0.2250E+02  0.2250E+02
     11.790 -0.3702E-02 -0.3713E-02  0.2250E+02  0.2250E+02
     11.906 -0.1012E-01 -0.1010E-01  0.2250E+02  0.2250E+02
     12.021 -0.5364E-01 -0.5359E-01  0.2249E+02  0.2249E+02
     12.136 -0.4114E-01 -0.4130E-01  0.2249E+02  0.2249E+02
     12.251  0.4935E+00  0.4927E+00  0.2254E+02  0.2254E+02
     12.366  0.1394E+01  0.1393E+01  0.2271E+02  0.2271E+02
     12.481  0.1258E+01  0.1259E+01  0.2285E+02  0.2285E+02
     12.597  0.3307E+00  0.3314E+00  0.2289E+02  0.2289E+02
     12.712 -0.6626E-01 -0.6619E-01  0.2288E+02  0.2288E+02
     12.827 -0.4246E-01 -0.4251E-01  0.2288E+02  0.2288E+02
     12.942 -0.1167E-01 -0.1167E-01  0.2287E+02  0.2287E+02
     13.057 -0.3748E-01 -0.3742E-01  0.2287E+02  0.2287E+02
     13.173 -0.7226E-01 -0.7231E-01  0.2286E+02  0.2286E+02
     13.288  0.2638E+00  0.2630E+00  0.2289E+02  0.2289E+02
     13.403  0.1182E+01  0.1181E+01  0.2303E+02  0.2303E+02
     13.518  0.1442E+01  0.1442E+01  0.2319E+02  0.2319E+02
     13.633  0.5772E+00  0.5781E+00  0.2326E+02  0.2326E+02
     13.749 -0.2249E-01 -0.2225E-01  0.2326E+02  0.2326E+02
     13.864 -0.5900E-01 -0.5906E-01  0.2325E+02  0.2325E+02
     13.979 -0.1217E-01 -0.1219E-01  0.2325E+02  0.2325E+02
     14.094 -0.1918E-02 -0.1918E-02  0.2325E+02  0.2325E+02
     14.209 -0.1391E-01 -0.1388E-01  0.2325E+02  0.2325E+02
     14.324 -0.8784E-01 -0.8773E-01  0.2324E+02  0.2324E+02
     14.440 -0.1269E+00 -0.1271E+00  0.2322E+02  0.2322E+02
     14.555  0.7095E+00  0.7080E+00  0.2331E+02  0.2331E+02
     14.670  0.2565E+01  0.2563E+01  0.2360E+02  0.2360E+02
     14.785  0.2751E+01  0.2752E+01  0.2392E+02  0.2392E+02
     14.900  0.9323E+00  0.9339E+00  0.2402E+02  0.2402E+02
     15.016 -0.9276E-01 -0.9246E-01  0.2401E+02  0.2401E+02
     15.131 -0.1036E+00 -0.1037E+00  0.2400E+02  0.2400E+02
     15.246 -0.1871E-01 -0.1875E-01  0.2400E+02  0.2400E+02
     15.361 -0.1387E-02 -0.1391E-02  0.2400E+02  0.2400E+02
     15.476 -0.4810E-04 -0.4826E-04  0.2400E+02  0.2400E+02
     15.592 -0.7252E-05 -0.7218E-05  0.2400E+02  0.2400E+02
     15.707 -0.2386E-03 -0.2374E-03  0.2400E+02  0.2400E+02
     15.822 -0.4208E-02 -0.4193E-02  0.2400E+02  0.2400E+02
     15.937 -0.3246E-01 -0.3239E-01  0.2400E+02  0.2400E+02
     16.052 -0.7525E-01 -0.7528E-01  0.2399E+02  0.2399E+02
     16.167  0.2054E+00  0.2045E+00  0.2401E+02  0.2401E+02
     16.283  0.1104E+01  0.1102E+01  0.2414E+02  0.2414E+02
     16.398  0.1476E+01  0.1477E+01  0.2431E+02  0.2431E+02
     16.513  0.6510E+00  0.6525E+00  0.2438E+02  0.2438E+02
     16.628 -0.5333E-01 -0.5284E-01  0.2438E+02  0.2438E+02
     16.743 -0.1052E+00 -0.1055E+00  0.2436E+02  0.2436E+02
     16.859  0.4781E+00  0.4770E+00  0.2442E+02  0.2442E+02
     16.974  0.1392E+01  0.1391E+01  0.2458E+02  0.2458E+02
     17.089  0.1259E+01  0.1260E+01  0.2473E+02  0.2472E+02
     17.204  0.3315E+00  0.3323E+00  0.2476E+02  0.2476E+02
     17.319 -0.6626E-01 -0.6617E-01  0.2476E+02  0.2476E+02
     17.435 -0.4457E-01 -0.4463E-01  0.2475E+02  0.2475E+02
     17.550 -0.3405E-01 -0.3402E-01  0.2475E+02  0.2475E+02
     17.665 -0.1254E+00 -0.1254E+00  0.2473E+02  0.2473E+02
     17.780 -0.1375E-01 -0.1416E-01  0.2473E+02  0.2473E+02
     17.895  0.1273E+01  0.1271E+01  0.2488E+02  0.2488E+02
     18.010  0.2936E+01  0.2936E+01  0.2522E+02  0.2522E+02
     18.126  0.2254E+01  0.2255E+01  0.2547E+02  0.2547E+02
     18.241  0.4425E+00  0.4435E+00  0.2553E+02  0.2553E+02
     18.356 -0.1578E+00 -0.1577E+00  0.2551E+02  0.2551E+02
     18.471 -0.9269E-01 -0.9276E-01  0.2550E+02  0.2550E+02
     18.586  0.3184E-01  0.3164E-01  0.2550E+02  0.2550E+02
     18.702  0.3211E+00  0.3208E+00  0.2554E+02  0.2554E+02
     18.817  0.5037E+00  0.5037E+00  0.2560E+02  0.2560E+02
     18.932  0.2680E+00  0.2684E+00  0.2563E+02  0.2563E+02
     19.047  0.1641E-01  0.1656E-01  0.2563E+02  0.2563E+02
     19.162 -0.2391E-01 -0.2392E-01  0.2563E+02  0.2563E+02
     19.278 -0.1231E-01 -0.1231E-01  0.2562E+02  0.2562E+02
     19.393 -0.5231E-01 -0.5224E-01  0.2562E+02  0.2562E+02
     19.508 -0.1512E+00 -0.1512E+00  0.2560E+02  0.2560E+02
     19.623  0.2499E+00  0.2491E+00  0.2563E+02  0.2563E+02
     19.738  0.1939E+01  0.1938E+01  0.2585E+02  0.2585E+02
     19.853  0.3021E+01  0.3021E+01  0.2620E+02  0.2620E+02
     19.969  0.1598E+01  0.1600E+01  0.2639E+02  0.2639E+02
     20.084  0.9449E-01  0.9512E-01  0.2640E+02  0.2640E+02
     20.199 -0.1453E+00 -0.1454E+00  0.2638E+02  0.2638E+02
     20.314 -0.6970E-01 -0.6974E-01  0.2637E+02  0.2637E+02
     20.429 -0.7930E-01 -0.7931E-01  0.2636E+02  0.2636E+02
     20.545  0.1953E+00  0.1951E+00  0.2638E+02  0.2638E+02
     20.660  0.1089E+01  0.1089E+01  0.2651E+02  0.2651E+02
     20.775  0.1482E+01  0.1483E+01  0.2668E+02  0.2668E+02
     20.890  0.6764E+00  0.6768E+00  0.2676E+02  0.2676E+02
     21.005  0.4876E-02  0.4973E-02  0.2676E+02  0.2676E+02
     21.121 -0.6567E-01 -0.6569E-01  0.2675E+02  0.2675E+02
     21.236 -0.2893E-01 -0.2893E-01  0.2675E+02  0.2675E+02
     21.351 -0.8952E-01 -0.8948E-01  0.2674E+02  0.2674E+02
     21.466 -0.1278E+00 -0.1279E+00  0.2672E+02  0.2672E+02
     21.581  0.6988E+00  0.6983E+00  0.2680E+02  0.2680E+02
     21.696  0.2504E+01  0.2504E+01  0.2709E+02  0.2709E+02
     21.812  0.2750E+01  0.2750E+01  0.2741E+02  0.2741E+02
     21.927  0.1597E+01  0.1597E+01  0.2759E+02  0.2759E+02
     22.042  0.1387E+01  0.1386E+01  0.2775E+02  0.2775E+02
     22.157  0.9922E+00  0.9925E+00  0.2787E+02  0.2787E+02
     22.272  0.1789E+00  0.1792E+00  0.2789E+02  0.2789E+02
     22.388 -0.1009E+00 -0.1009E+00  0.2788E+02  0.2788E+02
     22.503 -0.1243E+00 -0.1243E+00  0.2786E+02  0.2786E+02
     22.618  0.9806E-02  0.9500E-02  0.2786E+02  0.2786E+02
     22.733  0.9275E+00  0.9267E+00  0.2797E+02  0.2797E+02
     22.848  0.2300E+01  0.2300E+01  0.2823E+02  0.2823E+02
     22.964  0.2392E+01  0.2392E+01  0.2851E+02  0.2851E+02
     23.079  0.1067E+01  0.1068E+01  0.2863E+02  0.2863E+02
     23.194  0.5898E-01  0.5914E-01  0.2864E+02  0.2864E+02
     23.309 -0.1023E+00 -0.1023E+00  0.2863E+02  0.2863E+02
     23.424 -0.6334E-01 -0.6334E-01  0.2862E+02  0.2862E+02
     23.539 -0.1011E+00 -0.1011E+00  0.2861E+02  0.2861E+02
     23.655  0.9337E-01  0.9309E-01  0.2862E+02  0.2862E+02
     23.770  0.1049E+01  0.1048E+01  0.2874E+02  0.2874E+02
     23.885  0.2574E+01  0.2573E+01  0.2904E+02  0.2904E+02
     24.000  0.3511E+01  0.3511E+01  0.2944E+02  0.2944E+02
     24.115  0.2416E+01  0.2416E+01  0.2972E+02  0.2972E+02
     24.231  0.5068E+00  0.5072E+00  0.2978E+02  0.2978E+02
     24.346 -0.1556E+00 -0.1556E+00  0.2976E+02  0.2976E+02
     24.461 -0.7868E-01 -0.7871E-01  0.2975E+02  0.2975E+02
     24.576 -0.1125E-01 -0.1125E-01  0.2975E+02  0.2975E+02
     24.691 -0.7223E-03 -0.7229E-03  0.2975E+02  0.2975E+02
     24.807 -0.8708E-03 -0.8700E-03  0.2975E+02  0.2975E+02
     24.922 -0.1303E-01 -0.1302E-01  0.2975E+02  0.2975E+02
     25.037 -0.8478E-01 -0.8475E-01  0.2974E+02  0.2974E+02
     25.152 -0.1339E+00 -0.1339E+00  0.2972E+02  0.2972E+02
     25.267  0.6496E+00  0.6491E+00  0.2980E+02  0.2980E+02
     25.382  0.2472E+01  0.2471E+01  0.3008E+02  0.3008E+02
     25.498  0.2867E+01  0.2867E+01  0.3041E+02  0.3041E+02
     25.613  0.1627E+01  0.1628E+01  0.3060E+02  0.3060E+02
     25.728  0.9234E+00  0.9236E+00  0.3071E+02  0.3071E+02
     25.843  0.4258E+00  0.4258E+00  0.3076E+02  0.3076E+02
     25.958  0.1165E-01  0.1165E-01  0.3076E+02  0.3076E+02
     26.074 -0.4858E-01 -0.4859E-01  0.3075E+02  0.3075E+02
     26.189 -0.1273E-01 -0.1273E-01  0.3075E+02  0.3075E+02
     26.304 -0.1494E-02 -0.1312E-02  0.3075E+02  0.3075E+02
     26.419 -0.4305E-02 -0.1491E-02  0.3075E+02  0.3075E+02
     26.534 -0.3266E-01 -0.1577E-01  0.3075E+02  0.3075E+02
     26.649 -0.7517E-01 -0.6610E-01  0.3074E+02  0.3074E+02
     26.765  0.2079E+00  0.1300E-01  0.3076E+02  0.3074E+02
     26.880  0.1107E+01  0.7022E+00  0.3089E+02  0.3082E+02
     26.995  0.1476E+01  0.1490E+01  0.3106E+02  0.3099E+02
     27.110  0.6572E+00  0.1064E+01  0.3113E+02  0.3112E+02
     27.225 -0.8682E-03  0.1795E+00  0.3113E+02  0.3114E+02
     27.341 -0.6369E-01 -0.7587E-01  0.3113E+02  0.3113E+02
     27.456 -0.1440E-01 -0.3037E-01  0.3113E+02  0.3113E+02
     27.571 -0.1276E-02 -0.3804E-02  0.3113E+02  0.3113E+02
     27.686 -0.5200E-03 -0.6768E-03  0.3112E+02  0.3112E+02
     27.801 -0.7011E-02 -0.7010E-02  0.3112E+02  0.3112E+02
     27.917 -0.4418E-01 -0.4416E-01  0.3112E+02  0.3112E+02
     28.032 -0.6303E-01 -0.6306E-01  0.3111E+02  0.3111E+02
     28.147  0.3583E+00  0.3581E+00  0.3115E+02  0.3115E+02
     28.262  0.1286E+01  0.1286E+01  0.3130E+02  0.3130E+02
     28.377  0.1372E+01  0.1373E+01  0.3146E+02  0.3146E+02
     28.492  0.4622E+00  0.4625E+00  0.3151E+02  0.3151E+02
     28.608 -0.4712E-01 -0.4708E-01  0.3151E+02  0.3151E+02
     28.723 -0.5207E-01 -0.5208E-01  0.3150E+02  0.3150E+02
     28.838 -0.1697E-01 -0.1697E-01  0.3150E+02  0.3150E+02
     28.953 -0.4729E-01 -0.4729E-01  0.3149E+02  0.3149E+02
     29.068 -0.5858E-01 -0.5859E-01  0.3149E+02  0.3149E+02
     29.184  0.3918E+00  0.3917E+00  0.3153E+02  0.3153E+02
     29.299  0.1317E+01  0.1316E+01  0.3168E+02  0.3168E+02
     29.414  0.1346E+01  0.1346E+01  0.3184E+02  0.3184E+02
     29.529  0.4265E+00  0.4266E+00  0.3189E+02  0.3189E+02
     29.644 -0.5325E-01 -0.5324E-01  0.3188E+02  0.3188E+02
     29.760 -0.4907E-01 -0.4907E-01  0.3188E+02  0.3188E+02
     29.875 -0.8456E-02 -0.8457E-02  0.3188E+02  0.3188E+02
     29.990 -0.6043E-03 -0.6044E-03  0.3188E+02  0.3188E+02
     30.105 -0.2023E-04 -0.2023E-04  0.3188E+02  0.3188E+02
     30.220 -0.3309E-06 -0.3310E-06  0.3188E+02  0.3188E+02
     30.335 -0.2699E-08 -0.2699E-08  0.3188E+02  0.3188E+02
     30.451 -0.1108E-10 -0.1109E-10  0.3188E+02  0.3188E+02
     30.566 -0.9188E-13 -0.9181E-13  0.3187E+02  0.3187E+02
     30.681 -0.2619E-10 -0.2617E-10  0.3187E+02  0.3187E+02
     30.796 -0.5047E-08 -0.5043E-08  0.3187E+02  0.3187E+02
     30.911 -0.4883E-06 -0.4880E-06  0.3187E+02  0.3187E+02
     31.027 -0.2343E-04 -0.2341E-04  0.3187E+02  0.3187E+02
     31.142 -0.5434E-03 -0.5432E-03  0.3187E+02  0.3187E+02
     31.257 -0.5749E-02 -0.5747E-02  0.3187E+02  0.3187E+02
     31.372 -0.2278E-01 -0.2278E-01  0.3187E+02  0.3187E+02
     31.487  0.9445E-02  0.9426E-02  0.3187E+02  0.3187E+02
     31.603  0.2492E+00  0.2492E+00  0.3190E+02  0.3190E+02
     31.718  0.5005E+00  0.5005E+00  0.3196E+02  0.3196E+02
     31.833  0.3400E+00  0.3401E+00  0.3200E+02  0.3200E+02
     31.948  0.5095E-01  0.5098E-01  0.3200E+02  0.3200E+02
     32.063 -0.2534E-01 -0.2534E-01  0.3200E+02  0.3200E+02
     32.178 -0.9392E-02 -0.9394E-02  0.3200E+02  0.3200E+02
     32.294 -0.1125E-02 -0.1125E-02  0.3200E+02  0.3200E+02
     32.409 -0.5961E-04 -0.5964E-04  0.3200E+02  0.3200E+02
     32.524 -0.1511E-05 -0.1512E-05  0.3200E+02  0.3200E+02
     32.639 -0.1889E-07 -0.1890E-07  0.3200E+02  0.3200E+02
     32.754 -0.1182E-09 -0.1183E-09  0.3200E+02  0.3200E+02
     32.870 -0.3737E-12 -0.3740E-12  0.3200E+02  0.3200E+02
     32.985 -0.7229E-15 -0.7229E-15  0.3200E+02  0.3200E+02
     33.100  0.0000E+00  0.0000E+00  0.3200E+02  0.3200E+02
     33.215  0.0000E+00  0.0000E+00  0.3200E+02  0.3200E+02
     33.330  0.0000E+00  0.0000E+00  0.3200E+02  0.3200E+02
     33.446  0.0000E+00  0.0000E+00  0.3200E+02  0.3200E+02
     33.561  0.0000E+00  0.0000E+00  0.3200E+02  0.3200E+02
     33.676  0.0000E+00  0.0000E+00  0.3200E+02  0.3200E+02
