    4    4    1    2
  0.1064635E+02  0.3492102E-09  0.3492102E-09  0.3492102E-09  0.5000000E-15
  1.000000000000000E-004
  CAR 
 automatically generated by pyflamestk   
     40      4     32
 
  0.1250000E+00  0.1250000E+00  0.1250000E+00  0.1250000E+00
    1        1.119788      1.119782   1.000000   1.000000
    2        5.338353      5.338418   1.000000   1.000000
    3        5.338353      5.338418   1.000000   1.000000
    4        5.338353      5.338418   1.000000   1.000000
    5        5.909503      5.909801   1.000000   1.000000
    6        5.909503      5.909801   1.000000   1.000000
    7        5.909503      5.909801   1.000000   1.000000
    8        7.449288      7.449638   1.000000   1.000000
    9        7.733421      7.733778   1.000000   1.000000
   10        7.733421      7.733778   1.000000   1.000000
   11        8.712787      8.712905   1.000000   1.000000
   12        8.712787      8.712905   1.000000   1.000000
   13        8.732359      8.732668   1.000000   1.000000
   14        8.732359      8.732668   1.000000   1.000000
   15        8.732359      8.732668   1.000000   1.000000
   16        9.214640      9.214817   1.021560   1.021601
   17        9.214640      9.214817   1.021560   1.021601
   18        9.214640      9.214817   1.021560   1.021601
   19        9.618134      9.618479   0.199573   0.198437
   20        9.618134      9.618479   0.199573   0.198437
   21        9.618134      9.618479   0.199573   0.198437
   22       12.355100     12.355203  -0.000000  -0.000000
   23       12.355100     12.355203  -0.000000  -0.000000
   24       12.355100     12.355203  -0.000000  -0.000000
   25       20.693310     20.693347   0.000000   0.000000
   26       20.693310     20.693347   0.000000   0.000000
   27       20.693310     20.693347   0.000000   0.000000
   28       22.009303     22.009347   0.000000   0.000000
   29       22.009303     22.009347   0.000000   0.000000
   30       22.009303     22.009347   0.000000   0.000000
   31       25.660552     25.660558   0.000000   0.000000
   32       25.660552     25.660558   0.000000   0.000000
 
  0.3750000E+00  0.1250000E+00  0.1250000E+00  0.3750000E+00
    1        2.638028      2.638027   1.000000   1.000000
    2        4.786856      4.786885   1.000000   1.000000
    3        6.003602      6.003687   1.000000   1.000000
    4        6.003602      6.003687   1.000000   1.000000
    5        6.356637      6.356945   1.000000   1.000000
    6        6.366271      6.366542   1.000000   1.000000
    7        6.366271      6.366542   1.000000   1.000000
    8        7.007632      7.007963   1.000000   1.000000
    9        7.406837      7.407124   1.000000   1.000000
   10        7.406837      7.407124   1.000000   1.000000
   11        7.818597      7.818786   1.000000   1.000000
   12        7.889222      7.889474   1.000000   1.000000
   13        8.041712      8.042041   1.000000   1.000000
   14        8.560415      8.560635   1.000000   1.000000
   15        8.628128      8.628411   1.000000   1.000000
   16        8.762017      8.762146   1.000000   1.000000
   17        8.762017      8.762146   1.000000   1.000000
   18        9.021042      9.021198   1.000730   1.000732
   19        9.412058      9.412277   0.939437   0.938994
   20        9.531716      9.532106   0.540006   0.538361
   21        9.531716      9.532106   0.540006   0.538361
   22        9.629444      9.629704   0.163818   0.163032
   23       14.677698     14.677806  -0.000000  -0.000000
   24       14.677698     14.677806  -0.000000  -0.000000
   25       17.981667     17.981752   0.000000   0.000000
   26       17.981667     17.981752   0.000000   0.000000
   27       21.703818     21.703855   0.000000   0.000000
   28       21.703818     21.703855   0.000000   0.000000
   29       23.801071     23.801126   0.000000   0.000000
   30       23.981998     23.982030   0.000000   0.000000
   31       23.981998     23.982030   0.000000   0.000000
   32       26.911146     26.958504   0.000000   0.000000
 
  0.3750000E+00  0.3750000E+00  0.1250000E+00  0.3750000E+00
    1        3.908913      3.908941   1.000000   1.000000
    2        5.539051      5.539170   1.000000   1.000000
    3        5.539051      5.539170   1.000000   1.000000
    4        6.050863      6.051109   1.000000   1.000000
    5        6.645625      6.645698   1.000000   1.000000
    6        6.753285      6.753499   1.000000   1.000000
    7        6.753285      6.753499   1.000000   1.000000
    8        7.031209      7.031509   1.000000   1.000000
    9        7.217024      7.217260   1.000000   1.000000
   10        7.217024      7.217260   1.000000   1.000000
   11        7.334981      7.335275   1.000000   1.000000
   12        7.655446      7.655670   1.000000   1.000000
   13        7.991963      7.992195   1.000000   1.000000
   14        8.343755      8.343913   1.000000   1.000000
   15        8.344585      8.344777   1.000000   1.000000
   16        8.344585      8.344777   1.000000   1.000000
   17        8.650531      8.650784   1.000000   1.000000
   18        9.180195      9.180500   1.014242   1.014301
   19        9.180195      9.180500   1.014242   1.014301
   20        9.247804      9.248151   1.029100   1.029174
   21        9.592762      9.593002   0.289587   0.288679
   22       11.115396     11.115601  -0.000000  -0.000000
   23       11.115396     11.115601  -0.000000  -0.000000
   24       13.424646     13.424767  -0.000000  -0.000000
   25       16.962698     16.962825   0.000000   0.000000
   26       19.786037     19.786130   0.000000   0.000000
   27       19.786037     19.786130   0.000000   0.000000
   28       22.790578     22.790658   0.000000   0.000000
   29       22.917476     22.917515   0.000000   0.000000
   30       25.393239     25.393275   0.000000   0.000000
   31       25.393239     25.393275   0.000000   0.000000
   32       28.269257     28.269292   0.000000   0.000000
 
  0.3750000E+00  0.3750000E+00  0.3750000E+00  0.1250000E+00
    1        4.527834      4.527956   1.000000   1.000000
    2        5.284987      5.285201   1.000000   1.000000
    3        5.284987      5.285201   1.000000   1.000000
    4        5.284987      5.285201   1.000000   1.000000
    5        7.254071      7.254195   1.000000   1.000000
    6        7.254071      7.254195   1.000000   1.000000
    7        7.254071      7.254195   1.000000   1.000000
    8        7.660522      7.660743   1.000000   1.000000
    9        7.660522      7.660743   1.000000   1.000000
   10        7.818002      7.818209   1.000000   1.000000
   11        7.818002      7.818209   1.000000   1.000000
   12        7.818002      7.818209   1.000000   1.000000
   13        7.872343      7.872492   1.000000   1.000000
   14        7.905042      7.905283   1.000000   1.000000
   15        7.905042      7.905283   1.000000   1.000000
   16        7.905042      7.905283   1.000000   1.000000
   17        9.288008      9.288278   1.035211   1.035227
   18        9.288008      9.288278   1.035211   1.035227
   19        9.526646      9.526938   0.561329   0.560102
   20        9.526646      9.526938   0.561329   0.560102
   21        9.526646      9.526938   0.561329   0.560102
   22       11.129020     11.129157  -0.000000  -0.000000
   23       11.129020     11.129157  -0.000000  -0.000000
   24       11.129020     11.129157  -0.000000  -0.000000
   25       16.314381     16.314548   0.000000   0.000000
   26       16.314381     16.314548   0.000000   0.000000
   27       16.314381     16.314548   0.000000   0.000000
   28       18.749915     18.750039   0.000000   0.000000
   29       29.301191     29.301197   0.000000   0.000000
   30       29.301191     29.301197   0.000000   0.000000
   31       29.301191     29.301197   0.000000   0.000000
   32       31.675893     31.675911   0.000000   0.000000
