 running on   16 total cores
 distrk:  each k-point on   16 cores,    1 groups
 distr:  one band on    1 cores,   16 groups
 using from now: INCAR     
 vasp.5.4.1 24Jun15 (build Jun 05 2017 10:38:15) complex                        
  
 POSCAR found type information on POSCAR  Ni
 POSCAR found :  1 types and       4 ions
 scaLAPACK will be used

 ----------------------------------------------------------------------------- 
|                                                                             |
|           W    W    AA    RRRRR   N    N  II  N    N   GGGG   !!!           |
|           W    W   A  A   R    R  NN   N  II  NN   N  G    G  !!!           |
|           W    W  A    A  R    R  N N  N  II  N N  N  G       !!!           |
|           W WW W  AAAAAA  RRRRR   N  N N  II  N  N N  G  GGG   !            |
|           WW  WW  A    A  R   R   N   NN  II  N   NN  G    G                |
|           W    W  A    A  R    R  N    N  II  N    N   GGGG   !!!           |
|                                                                             |
|      For optimal performance we recommend to set                            |
|        NCORE= 4 - approx SQRT( number of cores)                             |
|      NCORE specifies how many cores store one orbital (NPAR=cpu/NCORE).     |
|      This setting can  greatly improve the performance of VASP for DFT.     |
|      The default, NPAR=number of cores might be grossly inefficient         |
|      on modern multi-core architectures or massively parallel machines.     |
|      Do your own testing !!!!                                               |
|      Unfortunately you need to use the default for GW and RPA calculations. |
|      (for HF NCORE is supported but not extensively tested yet)             |
|                                                                             |
 ----------------------------------------------------------------------------- 

 LDA part: xc-table for Pade appr. of Perdew
 POSCAR, INCAR and KPOINTS ok, starting setup
 FFT: planning ...
 WAVECAR not read
 initial charge from wavefunction
 entering main loop
       N       E                     dE             d eps       ncg     rms          rms(c)
DAV:   1    -0.852376461778E+03   -0.85238E+03   -0.26857E+04   512   0.238E+03
DAV:   2    -0.100217978050E+04   -0.14980E+03   -0.14893E+03   768   0.319E+02
DAV:   3    -0.100385549050E+04   -0.16757E+01   -0.16299E+01   512   0.312E+01
DAV:   4    -0.100389881385E+04   -0.43323E-01   -0.43293E-01   816   0.477E+00
DAV:   5    -0.100389947780E+04   -0.66395E-03   -0.66393E-03   592   0.511E-01    0.140E+02
DAV:   6    -0.130483524613E+03    0.87342E+03   -0.58373E+02   768   0.176E+02    0.714E+01
DAV:   7    -0.289281382716E+03   -0.15880E+03   -0.34748E+03   640   0.377E+02    0.111E+02
DAV:   8    -0.348726084772E+02    0.25441E+03   -0.16691E+03   512   0.541E+02    0.359E+01
DAV:   9    -0.218231680923E+02    0.13049E+02   -0.11537E+02   704   0.109E+02    0.599E+00
DAV:  10    -0.401990898251E+02   -0.18376E+02   -0.38631E+01   576   0.884E+01    0.311E+01
DAV:  11    -0.223683018272E+02    0.17831E+02   -0.97959E+01   576   0.101E+02    0.715E+00
DAV:  12    -0.223738318565E+02   -0.55300E-02   -0.45933E-01   560   0.419E+00    0.793E+00
DAV:  13    -0.216749708857E+02    0.69886E+00   -0.87649E-01   512   0.131E+01    0.279E+00
DAV:  14    -0.216358318590E+02    0.39139E-01   -0.20087E-01   704   0.575E+00    0.203E+00
DAV:  15    -0.216358009544E+02    0.30905E-04   -0.20086E-02   608   0.152E+00    0.875E-01
DAV:  16    -0.216306689324E+02    0.51320E-02   -0.49397E-03   640   0.999E-01    0.407E-01
DAV:  17    -0.216286320893E+02    0.20368E-02   -0.31710E-03   560   0.755E-01    0.163E-01
DAV:  18    -0.216283977812E+02    0.23431E-03   -0.22383E-04   720   0.178E-01    0.756E-02
DAV:  19    -0.216283306364E+02    0.67145E-04   -0.35703E-04   528   0.266E-01    0.439E-02
DAV:  20    -0.216283244801E+02    0.61563E-05   -0.11183E-05   624   0.398E-02    0.164E-02
DAV:  21    -0.216283242564E+02    0.22365E-06   -0.11231E-06   416   0.139E-02
   1 F= -.21628324E+02 E0= -.21603093E+02  d E =-.756928E-01  mag=     0.0001
