LAMMPS (10 Feb 2015)
Reading data file ...
  triclinic box = (0 0 0) to (3.6 3.6 3.6) with tilt (0 0 0)
  1 by 1 by 1 MPI processor grid
  reading atoms ...
  4 atoms
4 atoms in group Ni
Neighbor list info ...
  1 neighbor list requests
  update every 1 steps, delay 0 steps, check yes
  master list distance cutoff = 7
Setting up minimization ...
Memory usage per processor = 3.38644 Mbytes
Step PotEng Lx Ly Lz Xy Xz Yz Press Pxx Pyy Pzz Pxy Pxz Pyz eatoms 
       0    -17.45616          3.6          3.6          3.6            0            0            0   -68139.746   -68139.746   -68139.746   -68139.746 -1.4296981e-12 -9.5313209e-13 3.3359623e-12    -17.45616 
       1    -17.45616          3.6          3.6          3.6            0            0            0   -68139.746   -68139.746   -68139.746   -68139.746 -1.4296981e-12 -9.5313209e-13 3.3359623e-12    -17.45616 
Loop time of 5.6982e-05 on 1 procs for 1 steps with 4 atoms

Minimization stats:
  Stopping criterion = quadratic factors are zero
  Energy initial, next-to-last, final = 
        -17.4561600283     -17.4561600283     -17.4561600283
  Force two-norm initial, final = 1.30926e-16 1.30926e-16
  Force max component initial, final = 8.32667e-17 8.32667e-17
  Final line search alpha, max atom move = 1 8.32667e-17
  Iterations, force evaluations = 1 2

Pair  time (%) = 3.67165e-05 (64.4351)
Neigh time (%) = 0 (0)
Comm  time (%) = 6.4373e-06 (11.2971)
Outpt time (%) = 0 (0)
Other time (%) = 1.38283e-05 (24.2678)

Nlocal:    4 ave 4 max 4 min
Histogram: 1 0 0 0 0 0 0 0 0 0
Nghost:    360 ave 360 max 360 min
Histogram: 1 0 0 0 0 0 0 0 0 0
Neighs:    268 ave 268 max 268 min
Histogram: 1 0 0 0 0 0 0 0 0 0

Total # of neighbors = 268
Ave neighs/atom = 67
Neighbor list builds = 0
Dangerous builds = 0
pypospack:output_section:begin
tot_energy = -17.4561600282854
num_atoms = 4
xx = 3.6
yy = 3.6
zz = 3.6
xy = 0
xz = 0
yz = 0
tot_press = -68139.7456098567
pxx = -68139.7456098566
pyy = -68139.7456098566
pzz = -68139.7456098567
pxy = -1.42969814156808e-12
pxz = -9.53132094378722e-13
pyz = 3.33596233032553e-12
pypospack:output_section:done
pypospack:lammps_sim:done
