# ['Ni']

4 atoms
1 atom types

    0.0000     3.6000 xlo xhi
    0.0000     3.6000 ylo yhi
    0.0000     3.6000 zlo zhi

    0.0000     0.0000     0.0000 xy xz yz

Atoms

1 1     0.0000     0.0000     0.0000
2 1     0.0000     1.8000     1.8000
3 1     1.8000     0.0000     1.8000
4 1     1.8000     1.8000     0.0000
