# ['Ni']

107 atoms
1 atom types

    0.0000    10.7707 xlo xhi
    0.0000    10.7707 ylo yhi
    0.0000    10.7707 zlo zhi

    0.0000    -0.0000    -0.0000 xy xz yz

Atoms

1 1     1.7951     1.7951     0.0000
2 1     1.7951     0.0000     1.7951
3 1     0.0000     1.7951     1.7951
4 1     0.0000     0.0000     3.5902
5 1     1.7951     1.7951     3.5902
6 1     1.7951     0.0000     5.3854
7 1     0.0000     1.7951     5.3854
8 1     0.0000     0.0000     7.1805
9 1     1.7951     1.7951     7.1805
10 1     1.7951     0.0000     8.9756
11 1     0.0000     1.7951     8.9756
12 1     0.0000     3.5902     0.0000
13 1     1.7951     5.3854     0.0000
14 1     1.7951     3.5902     1.7951
15 1     0.0000     5.3854     1.7951
16 1     0.0000     3.5902     3.5902
17 1     1.7951     5.3854     3.5902
18 1     1.7951     3.5902     5.3854
19 1     0.0000     5.3854     5.3854
20 1     0.0000     3.5902     7.1805
21 1     1.7951     5.3854     7.1805
22 1     1.7951     3.5902     8.9756
23 1     0.0000     5.3854     8.9756
24 1     0.0000     7.1805     0.0000
25 1     1.7951     8.9756     0.0000
26 1     1.7951     7.1805     1.7951
27 1     0.0000     8.9756     1.7951
28 1     0.0000     7.1805     3.5902
29 1     1.7951     8.9756     3.5902
30 1     1.7951     7.1805     5.3854
31 1     0.0000     8.9756     5.3854
32 1     0.0000     7.1805     7.1805
33 1     1.7951     8.9756     7.1805
34 1     1.7951     7.1805     8.9756
35 1     0.0000     8.9756     8.9756
36 1     3.5902     0.0000     0.0000
37 1     5.3854     1.7951     0.0000
38 1     5.3854     0.0000     1.7951
39 1     3.5902     1.7951     1.7951
40 1     3.5902     0.0000     3.5902
41 1     5.3854     1.7951     3.5902
42 1     5.3854     0.0000     5.3854
43 1     3.5902     1.7951     5.3854
44 1     3.5902     0.0000     7.1805
45 1     5.3854     1.7951     7.1805
46 1     5.3854     0.0000     8.9756
47 1     3.5902     1.7951     8.9756
48 1     3.5902     3.5902     0.0000
49 1     5.3854     5.3854     0.0000
50 1     5.3854     3.5902     1.7951
51 1     3.5902     5.3854     1.7951
52 1     3.5902     3.5902     3.5902
53 1     5.3854     5.3854     3.5902
54 1     5.3854     3.5902     5.3854
55 1     3.5902     5.3854     5.3854
56 1     3.5902     3.5902     7.1805
57 1     5.3854     5.3854     7.1805
58 1     5.3854     3.5902     8.9756
59 1     3.5902     5.3854     8.9756
60 1     3.5902     7.1805     0.0000
61 1     5.3854     8.9756     0.0000
62 1     5.3854     7.1805     1.7951
63 1     3.5902     8.9756     1.7951
64 1     3.5902     7.1805     3.5902
65 1     5.3854     8.9756     3.5902
66 1     5.3854     7.1805     5.3854
67 1     3.5902     8.9756     5.3854
68 1     3.5902     7.1805     7.1805
69 1     5.3854     8.9756     7.1805
70 1     5.3854     7.1805     8.9756
71 1     3.5902     8.9756     8.9756
72 1     7.1805     0.0000     0.0000
73 1     8.9756     1.7951     0.0000
74 1     8.9756     0.0000     1.7951
75 1     7.1805     1.7951     1.7951
76 1     7.1805     0.0000     3.5902
77 1     8.9756     1.7951     3.5902
78 1     8.9756     0.0000     5.3854
79 1     7.1805     1.7951     5.3854
80 1     7.1805     0.0000     7.1805
81 1     8.9756     1.7951     7.1805
82 1     8.9756     0.0000     8.9756
83 1     7.1805     1.7951     8.9756
84 1     7.1805     3.5902     0.0000
85 1     8.9756     5.3854     0.0000
86 1     8.9756     3.5902     1.7951
87 1     7.1805     5.3854     1.7951
88 1     7.1805     3.5902     3.5902
89 1     8.9756     5.3854     3.5902
90 1     8.9756     3.5902     5.3854
91 1     7.1805     5.3854     5.3854
92 1     7.1805     3.5902     7.1805
93 1     8.9756     5.3854     7.1805
94 1     8.9756     3.5902     8.9756
95 1     7.1805     5.3854     8.9756
96 1     7.1805     7.1805     0.0000
97 1     8.9756     8.9756     0.0000
98 1     8.9756     7.1805     1.7951
99 1     7.1805     8.9756     1.7951
100 1     7.1805     7.1805     3.5902
101 1     8.9756     8.9756     3.5902
102 1     8.9756     7.1805     5.3854
103 1     7.1805     8.9756     5.3854
104 1     7.1805     7.1805     7.1805
105 1     8.9756     8.9756     7.1805
106 1     8.9756     7.1805     8.9756
107 1     7.1805     8.9756     8.9756
