    2    2    1    1
  0.9563318E+01  0.3001819E-09  0.3001820E-09  0.3001819E-09  0.5000000E-15
  1.000000000000000E-004
  CAR 
 automatically generated by pyflamestk   
      8     10     16
 
  0.1250000E+00  0.1250000E+00  0.1250000E+00  0.3125000E-01
    1      -13.669505   1.000000
    2        2.481618   1.000000
    3        3.359749   1.000000
    4        3.359750   1.000000
    5        8.796246   0.000000
    6       17.415249   0.000000
    7       19.428436   0.000000
    8       19.428438   0.000000
    9       23.683120   0.000000
   10       23.683124   0.000000
   11       25.024048   0.000000
   12       27.462193   0.000000
   13       28.906604   0.000000
   14       28.906607   0.000000
   15       39.200378   0.000000
   16       41.139392   0.000000
 
  0.3750000E+00  0.1250000E+00  0.1250000E+00  0.9375000E-01
    1      -13.018227   1.000000
    2        0.305326   1.000000
    3        2.475742   1.000000
    4        3.059508   1.000000
    5       11.236662   0.000000
    6       15.365965   0.000000
    7       18.772782   0.000000
    8       20.432497   0.000000
    9       22.255356   0.000000
   10       24.493806   0.000000
   11       26.609388   0.000000
   12       31.279626   0.000000
   13       32.591552   0.000000
   14       33.413775   0.000000
   15       35.782224   0.000000
   16       39.097672   0.000000
 
 -0.3750000E+00  0.1250000E+00  0.1250000E+00  0.9375000E-01
    1      -12.583433   1.000000
    2       -0.833609   1.000000
    3        2.330482   1.000000
    4        2.726425   1.000000
    5       11.822603   0.000000
    6       15.589105   0.000000
    7       18.057224   0.000000
    8       19.876116   0.000000
    9       23.865219   0.000000
   10       26.135974   0.000000
   11       26.208359   0.000000
   12       32.483404   0.000000
   13       33.119486   0.000000
   14       33.443569   0.000000
   15       36.038627   0.000000
   16       37.729998   0.000000
 
 -0.1250000E+00  0.1250000E+00  0.1250000E+00  0.9375000E-01
    1      -13.306619   1.000000
    2        1.196946   1.000000
    3        2.978055   1.000000
    4        2.984433   1.000000
    5       10.405799   0.000000
    6       15.597901   0.000000
    7       19.562033   0.000000
    8       20.047296   0.000000
    9       21.219914   0.000000
   10       25.064001   0.000000
   11       27.066011   0.000000
   12       30.170624   0.000000
   13       30.449489   0.000000
   14       31.226264   0.000000
   15       37.436277   0.000000
   16       39.221194   0.000000
 
  0.3750000E+00  0.3750000E+00  0.1250000E+00  0.9375000E-01
    1      -12.783450   1.000000
    2        0.121052   1.000000
    3        2.271329   1.000000
    4        2.521978   1.000000
    5       12.350815   0.000000
    6       14.001765   0.000000
    7       17.317004   0.000000
    8       20.961276   0.000000
    9       21.413616   0.000000
   10       27.250215   0.000000
   11       30.351243   0.000000
   12       30.623733   0.000000
   13       32.533169   0.000000
   14       35.028791   0.000000
   15       36.686506   0.000000
   16       38.097314   0.000000
 
 -0.3750000E+00  0.3750000E+00  0.1250000E+00  0.1875000E+00
    1      -12.373490   1.000000
    2       -0.000733   1.000000
    3        1.005774   1.000000
    4        2.097752   1.000000
    5       13.872785   0.000000
    6       14.927053   0.000000
    7       15.715381   0.000000
    8       19.708145   0.000000
    9       23.170213   0.000000
   10       26.615932   0.000000
   11       30.176375   0.000000
   12       31.628385   0.000000
   13       32.869492   0.000000
   14       36.546318   0.000000
   15       39.114506   0.000000
   16       41.337580   0.000000
 
 -0.1250000E+00  0.3750000E+00  0.1250000E+00  0.1875000E+00
    1      -12.628539   1.000000
    2       -0.207615   1.000000
    3        1.751192   1.000000
    4        2.610082   1.000000
    5       12.704485   0.000000
    6       14.923977   0.000000
    7       17.089271   0.000000
    8       20.283717   0.000000
    9       22.848934   0.000000
   10       25.525283   0.000000
   11       29.058477   0.000000
   12       31.878631   0.000000
   13       32.443097   0.000000
   14       35.100740   0.000000
   15       35.746801   0.000000
   16       41.240391   0.000000
 
 -0.3750000E+00 -0.3750000E+00  0.1250000E+00  0.9375000E-01
    1      -12.409723   1.000000
    2       -0.370378   1.000000
    3        1.748317   1.000000
    4        2.220064   1.000000
    5       12.941360   0.000000
    6       13.622658   0.000000
    7       16.172037   0.000000
    8       21.662198   0.000000
    9       21.690699   0.000000
   10       29.113394   0.000000
   11       29.571563   0.000000
   12       32.144020   0.000000
   13       32.861848   0.000000
   14       38.011713   0.000000
   15       38.388669   0.000000
   16       41.318616   0.000000
 
  0.3750000E+00  0.3750000E+00  0.3750000E+00  0.3125000E-01
    1      -12.819173   1.000000
    2       -0.555147   1.000000
    3        2.924931   1.000000
    4        2.924932   1.000000
    5       11.025193   0.000000
    6       15.604957   0.000000
    7       19.666512   0.000000
    8       19.666514   0.000000
    9       24.259693   0.000000
   10       24.613292   0.000000
   11       24.613295   0.000000
   12       32.106143   0.000000
   13       33.474919   0.000000
   14       33.474922   0.000000
   15       37.047376   0.000000
   16       37.047382   0.000000
 
 -0.3750000E+00  0.3750000E+00  0.3750000E+00  0.9375000E-01
    1      -12.456552   1.000000
    2       -0.245587   1.000000
    3        1.109563   1.000000
    4        2.584215   1.000000
    5       13.185792   0.000000
    6       15.389135   0.000000
    7       16.281613   0.000000
    8       20.602660   0.000000
    9       22.656272   0.000000
   10       25.698171   0.000000
   11       29.281267   0.000000
   12       31.839066   0.000000
   13       32.283793   0.000000
   14       35.589868   0.000000
   15       37.460404   0.000000
   16       40.341899   0.000000
