LAMMPS (11 Aug 2017)
Reading data file ...
  triclinic box = (0 0 0) to (2.481 4.2972 28.3603) with tilt (0 0 0)
  1 by 1 by 1 MPI processor grid
  reading atoms ...
  28 atoms
28 atoms in group Ni
Neighbor list info ...
  update every 1 steps, delay 0 steps, check yes
  max neighbors/atom: 2000, page size: 100000
  master list distance cutoff = 11
  ghost atom cutoff = 11
  binsize = 5.5, bins = 1 1 6
  1 neighbor lists, perpetual/occasional/extra = 1 0 0
  (1) pair eam/alloy, perpetual
      attributes: half, newton on
      pair build: half/bin/newton/tri
      stencil: half/bin/3d/newton/tri
      bin: standard
Setting up cg style minimization ...
  Unit style    : metal
  Current step  : 0
WARNING: Energy due to 3 extra global DOFs will be included in minimizer energies
Per MPI rank memory allocation (min/avg/max) = 4.356 | 4.356 | 4.356 Mbytes
Step PotEng Lx Ly Lz Xy Xz Yz Press Pxx Pyy Pzz Pxy Pxz Pyz c_eatoms 
       0   -126.65594        2.481       4.2972      28.3603            0            0            0    41.718729    26.625051    30.689842    67.841296 -1.1273239e-11 1.8144231e-11  -0.91927106   -126.65594 
     100   -126.65594    2.4809877    4.2971968    28.361053            0            0            0 -4.1788077e-07 2.3884454e-07 2.6339204e-07 -1.7558789e-06 1.6681793e-11 -3.7006966e-11 -6.6837189e-06   -126.65594 
     200   -126.65594    2.4809877    4.2971968    28.361053            0            0            0 2.2532559e-09 2.1763084e-09 2.9906191e-09 1.5928403e-09 -2.2253372e-11 -3.1667771e-11 7.2616493e-11   -126.65594 
     300   -126.65594    2.4809877    4.2971968    28.361053            0            0            0 1.1682861e-09 2.5994052e-09 4.1942279e-10 4.8603036e-10 7.1473368e-11 6.7289161e-12 6.8709432e-10   -126.65594 
     400   -126.65594    2.4809877    4.2971968    28.361053            0            0            0 -6.8919061e-11 -2.6244886e-10 -6.8768973e-11 1.2446065e-10 1.5476416e-11 -2.3326989e-11 -1.4131732e-11   -126.65594 
     441   -126.65594    2.4809877    4.2971968    28.361053            0            0            0 -9.0912205e-10 -8.9872798e-10 -7.1739141e-10 -1.1112467e-09 1.9613967e-11 -3.3536458e-11 8.7954024e-11   -126.65594 
Loop time of 0.43016 on 1 procs for 441 steps with 28 atoms

98.0% CPU use with 1 MPI tasks x no OpenMP threads

Minimization stats:
  Stopping criterion = energy tolerance
  Energy initial, next-to-last, final = 
        -126.655939395     -126.655940142     -126.655940142
  Force two-norm initial, final = 0.0151639 3.23519e-13
  Force max component initial, final = 0.0128029 2.09711e-13
  Final line search alpha, max atom move = 1 2.09711e-13
  Iterations, force evaluations = 441 882

MPI task timing breakdown:
Section |  min time  |  avg time  |  max time  |%varavg| %total
---------------------------------------------------------------
Pair    | 0.3811     | 0.3811     | 0.3811     |   0.0 | 88.59
Neigh   | 0          | 0          | 0          |   0.0 |  0.00
Comm    | 0.012628   | 0.012628   | 0.012628   |   0.0 |  2.94
Output  | 0.00014806 | 0.00014806 | 0.00014806 |   0.0 |  0.03
Modify  | 0          | 0          | 0          |   0.0 |  0.00
Other   |            | 0.03628    |            |       |  8.44

Nlocal:    28 ave 28 max 28 min
Histogram: 1 0 0 0 0 0 0 0 0 0
Nghost:    2894 ave 2894 max 2894 min
Histogram: 1 0 0 0 0 0 0 0 0 0
Neighs:    7320 ave 7320 max 7320 min
Histogram: 1 0 0 0 0 0 0 0 0 0

Total # of neighbors = 7320
Ave neighs/atom = 261.429
Neighbor list builds = 0
Dangerous builds = 0
Setting up cg style minimization ...
  Unit style    : metal
  Current step  : 441
Per MPI rank memory allocation (min/avg/max) = 4.481 | 4.481 | 4.481 Mbytes
Step PotEng Lx Ly Lz Xy Xz Yz Press Pxx Pyy Pzz Pxy Pxz Pyz c_eatoms 
     441   -126.65594    2.4809877    4.2971968    28.361053            0            0            0 -3.4507187e-10 -4.5582009e-10 -3.672344e-10 -2.1216112e-10 -1.875556e-13 -3.5473133e-11 1.1868167e-10   -126.65594 
     443   -126.65594    2.4809877    4.2971968    28.361053            0            0            0 -8.3237055e-10 -6.9291736e-10 -7.2604637e-10 -1.0781479e-09 -7.8808538e-13 -2.5059556e-11 1.1511368e-10   -126.65594 
Loop time of 0.00225496 on 1 procs for 2 steps with 28 atoms

99.9% CPU use with 1 MPI tasks x no OpenMP threads

Minimization stats:
  Stopping criterion = energy tolerance
  Energy initial, next-to-last, final = 
        -126.655940142     -126.655940142     -126.655940142
  Force two-norm initial, final = 1.2988e-13 7.40139e-14
  Force max component initial, final = 4.14391e-14 3.1225e-14
  Final line search alpha, max atom move = 1 3.1225e-14
  Iterations, force evaluations = 2 4

MPI task timing breakdown:
Section |  min time  |  avg time  |  max time  |%varavg| %total
---------------------------------------------------------------
Pair    | 0.002136   | 0.002136   | 0.002136   |   0.0 | 94.72
Neigh   | 0          | 0          | 0          |   0.0 |  0.00
Comm    | 7.1049e-05 | 7.1049e-05 | 7.1049e-05 |   0.0 |  3.15
Output  | 0          | 0          | 0          |   0.0 |  0.00
Modify  | 0          | 0          | 0          |   0.0 |  0.00
Other   |            | 4.792e-05  |            |       |  2.13

Nlocal:    28 ave 28 max 28 min
Histogram: 1 0 0 0 0 0 0 0 0 0
Nghost:    2894 ave 2894 max 2894 min
Histogram: 1 0 0 0 0 0 0 0 0 0
Neighs:    7320 ave 7320 max 7320 min
Histogram: 1 0 0 0 0 0 0 0 0 0

Total # of neighbors = 7320
Ave neighs/atom = 261.429
Neighbor list builds = 0
Dangerous builds = 0
pypospack:output_section:begin
tot_energy = -126.655940142055
num_atoms = 28
a11 = 2.480987736852
a22 = 4.29719681318298
a33 = 28.3610533519734
a12 = 0
a13 = 0
a23 = 0
tot_press = -8.3237054683322e-10
pxx = -6.9291735803483e-10
pyy = -7.26046367020838e-10
pzz = -1.07814791544399e-09
pxy = -7.88085384956084e-13
pxz = -2.50595560185203e-11
pyz = 1.15113679067361e-10
pypospack:output_section:done
pypospack:lammps_sim:done
Total wall time: 0:00:00
