LAMMPS (11 Aug 2017)
Reading data file ...
  triclinic box = (0 0 0) to (3.5167 3.5167 3.5167) with tilt (0 -0 0)
  1 by 1 by 1 MPI processor grid
  reading atoms ...
  4 atoms
4 atoms in group Ni
Neighbor list info ...
  update every 1 steps, delay 0 steps, check yes
  max neighbors/atom: 2000, page size: 100000
  master list distance cutoff = 11
  ghost atom cutoff = 11
  binsize = 5.5, bins = 1 1 1
  1 neighbor lists, perpetual/occasional/extra = 1 0 0
  (1) pair eam/alloy, perpetual
      attributes: half, newton on
      pair build: half/bin/newton/tri
      stencil: half/bin/3d/newton/tri
      bin: standard
Setting up cg style minimization ...
  Unit style    : metal
  Current step  : 0
WARNING: Energy due to 3 extra global DOFs will be included in minimizer energies
Per MPI rank memory allocation (min/avg/max) = 4.307 | 4.307 | 4.307 Mbytes
Step PotEng Xhi Xlo Yhi Ylo Zhi Xy Xz Yz Press Pxx Pyy Pzz Pxy Pxz Pyz c_eatoms 
       0   -18.017764       3.5167            0       3.5167            0       3.5167            0           -0            0   -13175.527   -13175.527   -13175.527   -13175.527 -4.0741604e-12 9.3124896e-11 7.4005952e-11   -18.017764 
      10   -18.019044    3.5125235    0.0041765    3.5125235    0.0041765    3.5125235            0           -0            0 2.4648479e-08 2.460467e-08 2.4684523e-08 2.4656246e-08 -1.4955406e-10 -7.0927489e-11 -1.3418993e-10   -18.019044 
      12   -18.019044    3.5125235    0.0041765    3.5125235    0.0041765    3.5125235            0           -0            0 -3.2233076e-10 -3.216663e-10 -1.4840063e-10 -4.9692536e-10 1.5269195e-10 -2.8462498e-10 -1.4736916e-10   -18.019044 
Loop time of 0.00801992 on 1 procs for 12 steps with 4 atoms

28.7% CPU use with 1 MPI tasks x no OpenMP threads

Minimization stats:
  Stopping criterion = energy tolerance
  Energy initial, next-to-last, final = 
         -18.017763962     -18.0190441676     -18.0190441676
  Force two-norm initial, final = 0.619477 2.02191e-14
  Force max component initial, final = 0.357654 1.34252e-14
  Final line search alpha, max atom move = 1 1.34252e-14
  Iterations, force evaluations = 12 22

MPI task timing breakdown:
Section |  min time  |  avg time  |  max time  |%varavg| %total
---------------------------------------------------------------
Pair    | 0.0072682  | 0.0072682  | 0.0072682  |   0.0 | 90.63
Neigh   | 0          | 0          | 0          |   0.0 |  0.00
Comm    | 0.00017881 | 0.00017881 | 0.00017881 |   0.0 |  2.23
Output  | 1.9073e-05 | 1.9073e-05 | 1.9073e-05 |   0.0 |  0.24
Modify  | 0          | 0          | 0          |   0.0 |  0.00
Other   |            | 0.0005538  |            |       |  6.91

Nlocal:    4 ave 4 max 4 min
Histogram: 1 0 0 0 0 0 0 0 0 0
Nghost:    1684 ave 1684 max 1684 min
Histogram: 1 0 0 0 0 0 0 0 0 0
Neighs:    1060 ave 1060 max 1060 min
Histogram: 1 0 0 0 0 0 0 0 0 0

Total # of neighbors = 1060
Ave neighs/atom = 265
Neighbor list builds = 0
Dangerous builds = 0
pypospack:output_section:begin
tot_energy = -18.0190441676133
num_atoms = 4
a11 = 3.5083470000618
a22 = 3.5083470000618
a33 = 3.5083470000618
a12 = 0
a13 = -0
a23 = 0
tot_press = -3.22330761926715e-10
pxx = -3.21666300696423e-10
pyy = -1.48400625980642e-10
pzz = -4.9692535910308e-10
pxy = 1.5269195249699e-10
pxz = -2.84624983417004e-10
pyz = -1.47369160150844e-10
pypospack:output_section:done
pypospack:lammps_sim:done
Total wall time: 0:00:00
