LAMMPS (11 Aug 2017)
# ---- initialize simulations
clear
units metal
dimension 3
boundary p p p
atom_style atomic
atom_modify map array
# ---- create atoms
read_data /home/sullberg/repos/pypospack/examples/Ni__eam__born_exp_rose/01_preconditioning_3.5NN/rank_25/Ni_fcc_111_s.lmps_min_pos/lammps.structure
  triclinic box = (0 0 0) to (2.4909 4.3144 36.603) with tilt (0 0 -0.0004)
  1 by 1 by 1 MPI processor grid
  reading atoms ...
  18 atoms
# ---- define interatomic potential
include potential.mod
mass 1 58.6934

group Ni type 1
18 atoms in group Ni

pair_style eam/alloy
pair_coeff * * /home/sullberg/repos/pypospack/examples/Ni__eam__born_exp_rose/01_preconditioning_3.5NN/rank_25/Ni_fcc_111_s.lmps_min_pos/Ni.eam.alloy Ni

neighbor 1.0 bin
neigh_modify every 1 delay 0 check yes
# ---- define settings
compute eng all pe/atom
compute eatoms all reduce sum c_eng

# ---- run minimization
reset_timestep 0
thermo 1
thermo_style custom step pe lx ly lz xy xz yz press pxx pyy pzz pxy pxz pyz c_eatoms
min_style cg
minimize 1e-20 1e-20 1000 100000
Neighbor list info ...
  update every 1 steps, delay 0 steps, check yes
  max neighbors/atom: 2000, page size: 100000
  master list distance cutoff = 11
  ghost atom cutoff = 11
  binsize = 5.5, bins = 1 1 7
  1 neighbor lists, perpetual/occasional/extra = 1 0 0
  (1) pair eam/alloy, perpetual
      attributes: half, newton on
      pair build: half/bin/newton/tri
      stencil: half/bin/3d/newton/tri
      bin: standard
Per MPI rank memory allocation (min/avg/max) = 4.343 | 4.343 | 4.343 Mbytes
Step PotEng Lx Ly Lz Xy Xz Yz Press Pxx Pyy Pzz Pxy Pxz Pyz c_eatoms 
       0   -79.117217       2.4909       4.3144       36.603            0            0      -0.0004    -26169.81   -30145.676   -30146.305   -18217.449 0.00010038876 3.6745781e-05   0.14228804   -79.117217 
       1   -79.360405       2.4909       4.3144       36.603            0            0      -0.0004   -15285.846   -18525.303   -18525.955   -8806.2798 5.5785236e-05 1.7079272e-05   0.14433843   -79.360405 
       2   -79.371127       2.4909       4.3144       36.603            0            0      -0.0004   -11936.935   -15071.547   -15072.203   -5667.0544 3.6501931e-05 7.8408165e-06   0.14775301   -79.371127 
       3    -79.37381       2.4909       4.3144       36.603            0            0      -0.0004   -10315.362   -13492.199    -13492.86   -3961.0264  7.02755e-06 -5.6524738e-06   0.14978208    -79.37381 
       4   -79.375762       2.4909       4.3144       36.603            0            0      -0.0004   -8142.4856   -11396.944   -11397.595   -1632.9169 3.5021512e-06 -3.2661545e-06   0.14453423   -79.375762 
       5   -79.376775       2.4909       4.3144       36.603            0            0      -0.0004   -7210.0863    -10538.23   -10538.881   -553.14732 2.0421478e-06 -4.4934097e-06   0.14410659   -79.376775 
       6   -79.376821       2.4909       4.3144       36.603            0            0      -0.0004   -6891.6479   -10216.409    -10217.06   -241.47515 1.4283644e-06 -3.0788726e-06   0.14401537   -79.376821 
       7   -79.376829       2.4909       4.3144       36.603            0            0      -0.0004   -6798.4582   -10125.286   -10125.937   -144.15145 5.6118637e-07 -1.2009598e-06   0.14397825   -79.376829 
       8   -79.376831       2.4909       4.3144       36.603            0            0      -0.0004   -6794.3443    -10124.38    -10125.03   -133.62323 4.4565999e-07 -8.8797534e-07   0.14383691   -79.376831 
       9   -79.376833       2.4909       4.3144       36.603            0            0      -0.0004   -6710.6798   -10042.842   -10043.491    -45.70633 9.3921713e-07 -3.8078979e-07   0.14321988   -79.376833 
      10   -79.376834       2.4909       4.3144       36.603            0            0      -0.0004   -6680.0847   -10013.204   -10013.852   -13.197972 6.9774045e-07 -1.854367e-07   0.14237048   -79.376834 
      11   -79.376834       2.4909       4.3144       36.603            0            0      -0.0004    -6683.635   -10017.321   -10017.968   -15.615758 4.742452e-07 -1.5187647e-07   0.14190013   -79.376834 
      12   -79.376834       2.4909       4.3144       36.603            0            0      -0.0004   -6677.0914   -10010.921   -10011.568   -8.7853352 2.1693295e-07 -8.7570526e-08   0.14088466   -79.376834 
      13   -79.376834       2.4909       4.3144       36.603            0            0      -0.0004   -6673.5303   -10007.347   -10007.992   -5.2514203 1.4054386e-07 -6.464131e-08   0.13998623   -79.376834 
      14   -79.376834       2.4909       4.3144       36.603            0            0      -0.0004   -6671.3107    -10005.35   -10005.991   -2.5904032 1.8569699e-08 -5.352182e-08   0.13755617   -79.376834 
      15   -79.376834       2.4909       4.3144       36.603            0            0      -0.0004   -6670.2847   -10004.399   -10005.038   -1.4165355 1.3565238e-08 -3.5217898e-08   0.13631522   -79.376834 
      16   -79.376834       2.4909       4.3144       36.603            0            0      -0.0004   -6669.4058   -10003.514   -10004.152  -0.55200357 1.2633311e-08 -2.9858034e-08   0.13560845   -79.376834 
      17   -79.376834       2.4909       4.3144       36.603            0            0      -0.0004   -6669.2853   -10003.403    -10004.04  -0.41340473 1.4510666e-08 -2.4476053e-08   0.13472922   -79.376834 
      18   -79.376834       2.4909       4.3144       36.603            0            0      -0.0004   -6669.2855   -10003.415    -10004.05  -0.39144034 1.5828557e-08 -1.6817028e-08   0.13347932   -79.376834 
      19   -79.376834       2.4909       4.3144       36.603            0            0      -0.0004   -6669.0101   -10003.147   -10003.778   -0.1055265 1.7420191e-08 -3.8891568e-09   0.13117327   -79.376834 
      20   -79.376834       2.4909       4.3144       36.603            0            0      -0.0004   -6668.8612   -10003.002    -10003.63  0.048766976 1.4826391e-08 7.4236753e-09   0.12914184   -79.376834 
      21   -79.376834       2.4909       4.3144       36.603            0            0      -0.0004   -6668.8717   -10003.017   -10003.643  0.044947749 1.3767631e-08 1.2192676e-08   0.12803739   -79.376834 
      22   -79.376834       2.4909       4.3144       36.603            0            0      -0.0004   -6668.8286   -10002.977   -10003.598  0.089845529 1.6403027e-08 2.4494344e-08   0.12452429   -79.376834 
      23   -79.376834       2.4909       4.3144       36.603            0            0      -0.0004   -6668.7812   -10002.936   -10003.543     0.134908 3.5868386e-08 4.4751527e-08   0.11579126   -79.376834 
      24   -79.376834       2.4909       4.3144       36.603            0            0      -0.0004    -6668.846   -10003.009   -10003.605   0.07581312 6.0468161e-08 6.2028546e-08   0.10885707   -79.376834 
      25   -79.376834       2.4909       4.3144       36.603            0            0      -0.0004   -6668.8273   -10002.994   -10003.579   0.09143129 7.7190375e-08 7.8740366e-08   0.10165437   -79.376834 
      26   -79.376834       2.4909       4.3144       36.603            0            0      -0.0004   -6668.8261   -10002.994   -10003.573  0.088765884 7.9743984e-08 8.4037657e-08  0.097764455   -79.376834 
      27   -79.376834       2.4909       4.3144       36.603            0            0      -0.0004   -6668.9399   -10003.113   -10003.681 -0.025981272 7.8144227e-08 8.9118039e-08  0.090773151   -79.376834 
      28   -79.376834       2.4909       4.3144       36.603            0            0      -0.0004   -6668.9785   -10003.154   -10003.709 -0.072386975 6.8162654e-08 8.7007538e-08  0.082917104   -79.376834 
      29   -79.376834       2.4909       4.3144       36.603            0            0      -0.0004    -6669.004   -10003.186   -10003.719  -0.10665745 5.5979293e-08 8.1348059e-08  0.068604643   -79.376834 
      30   -79.376834       2.4909       4.3144       36.603            0            0      -0.0004   -6669.0779   -10003.268    -10003.79   -0.1765737 4.8754626e-08 7.3783124e-08  0.061657441   -79.376834 
      31   -79.376834       2.4909       4.3144       36.603            0            0      -0.0004   -6669.0838    -10003.29   -10003.779   -0.1826179 2.6175111e-08 4.3875641e-08  0.040279541   -79.376834 
      32   -79.376834       2.4909       4.3144       36.603            0            0      -0.0004   -6668.9805   -10003.197   -10003.662 -0.082039142 1.4566157e-08 2.7011711e-08  0.025202007   -79.376834 
      33   -79.376834       2.4909       4.3144       36.603            0            0      -0.0004   -6668.9843   -10003.211   -10003.663 -0.078558865 8.1442426e-09 1.7969778e-08  0.016528099   -79.376834 
      34   -79.376834       2.4909       4.3144       36.603            0            0      -0.0004   -6668.9659   -10003.199   -10003.642 -0.056332188 5.7502728e-09 1.2725858e-08  0.011386179   -79.376834 
      35   -79.376834       2.4909       4.3144       36.603            0            0      -0.0004   -6668.9307   -10003.164   -10003.606 -0.022410852 6.1765632e-09 1.1612681e-08  0.010099781   -79.376834 
      36   -79.376834       2.4909       4.3144       36.603            0            0      -0.0004   -6668.9221   -10003.157   -10003.597 -0.012364905  7.52214e-09 1.171198e-08 0.0093082551   -79.376834 
      37   -79.376834       2.4909       4.3144       36.603            0            0      -0.0004   -6668.9254   -10003.161   -10003.601 -0.014500189 8.2685192e-09 1.2041489e-08 0.0090416321   -79.376834 
      38   -79.376834       2.4909       4.3144       36.603            0            0      -0.0004   -6668.9134   -10003.149   -10003.589 -0.002523451 9.3249997e-09 1.2554691e-08 0.0087575641   -79.376834 
      39   -79.376834       2.4909       4.3144       36.603            0            0      -0.0004   -6668.9049   -10003.141    -10003.58 0.0064536874 1.0299965e-08 1.3051133e-08 0.0084740023   -79.376834 
      40   -79.376834       2.4909       4.3144       36.603            0            0      -0.0004   -6668.9047   -10003.141    -10003.58 0.0075679499 1.0413494e-08 1.2963042e-08 0.0082181034   -79.376834 
      41   -79.376834       2.4909       4.3144       36.603            0            0      -0.0004   -6668.8998   -10003.137   -10003.575  0.012158048 9.9661663e-09 1.2376148e-08 0.0080049065   -79.376834 
      42   -79.376834       2.4909       4.3144       36.603            0            0      -0.0004   -6668.9018   -10003.139   -10003.577  0.010033481 8.8656317e-09 1.1033776e-08 0.0077695003   -79.376834 
      43   -79.376834       2.4909       4.3144       36.603            0            0      -0.0004   -6668.9076   -10003.145   -10003.583  0.004455784 7.4955884e-09 9.3723325e-09 0.0075772269   -79.376834 
      44   -79.376834       2.4909       4.3144       36.603            0            0      -0.0004   -6668.9081   -10003.145   -10003.582 0.0033681592 4.6759535e-09 5.9440662e-09 0.0072104806   -79.376834 
      45   -79.376834       2.4909       4.3144       36.603            0            0      -0.0004   -6668.9108   -10003.148   -10003.584 7.5372076e-06 2.0880663e-09 2.7956131e-09 0.0068610422   -79.376834 
      46   -79.376834       2.4909       4.3144       36.603            0            0      -0.0004   -6668.9172   -10003.155   -10003.591 -0.0062284508 7.0813181e-10 1.0785584e-09 0.0066426074   -79.376834 
      47   -79.376834       2.4909       4.3144       36.603            0            0      -0.0004   -6668.9183   -10003.156   -10003.592 -0.0074355088 -8.4129592e-10 -9.0733513e-10 0.0062934845   -79.376834 
      48   -79.376834       2.4909       4.3144       36.603            0            0      -0.0004   -6668.9137   -10003.151   -10003.586 -0.0031915531 -2.1345942e-09 -2.6085386e-09 0.0058645074   -79.376834 
      49   -79.376834       2.4909       4.3144       36.603            0            0      -0.0004   -6668.9151   -10003.154   -10003.587 -0.0042843092 -4.1070824e-09 -5.2021033e-09 0.0050205735   -79.376834 
      50   -79.376834       2.4909       4.3144       36.603            0            0      -0.0004    -6668.916   -10003.155   -10003.588 -0.0047859839 -4.463864e-09 -5.6733778e-09 0.0045968318   -79.376834 
      51   -79.376834       2.4909       4.3144       36.603            0            0      -0.0004   -6668.9121   -10003.151   -10003.584 -0.0010328544 -4.3214481e-09 -5.4716479e-09 0.0043182964   -79.376834 
      52   -79.376834       2.4909       4.3144       36.603            0            0      -0.0004   -6668.9112   -10003.151   -10003.583 -4.9364688e-05 -3.5854927e-09 -4.4979846e-09 0.0040553951   -79.376834 
      53   -79.376834       2.4909       4.3144       36.603            0            0      -0.0004    -6668.912   -10003.152   -10003.584 -0.00053793212 -2.537936e-09 -3.1516326e-09 0.0038173487   -79.376834 
      54   -79.376834       2.4909       4.3144       36.603            0            0      -0.0004   -6668.9098    -10003.15   -10003.581 0.0014134376 -2.3909489e-09 -2.9688378e-09 0.0038041243   -79.376834 
      55   -79.376834       2.4909       4.3144       36.603            0            0      -0.0004   -6668.9109   -10003.151   -10003.582 0.00047275598 -1.8293624e-09 -2.2594261e-09 0.0037521412   -79.376834 
      56   -79.376834       2.4909       4.3144       36.603            0            0      -0.0004   -6668.9109   -10003.151   -10003.582 0.00047275598 -1.8293624e-09 -2.2594261e-09 0.0037521412   -79.376834 
Loop time of 0.027709 on 1 procs for 56 steps with 18 atoms

94.9% CPU use with 1 MPI tasks x no OpenMP threads

Minimization stats:
  Stopping criterion = linesearch alpha is zero
  Energy initial, next-to-last, final = 
        -79.1172170541     -79.3768343862     -79.3768343862
  Force two-norm initial, final = 1.37848 1.41476e-07
  Force max component initial, final = 0.507249 4.85218e-08
  Final line search alpha, max atom move = 0.5 2.42609e-08
  Iterations, force evaluations = 56 108

MPI task timing breakdown:
Section |  min time  |  avg time  |  max time  |%varavg| %total
---------------------------------------------------------------
Pair    | 0.025573   | 0.025573   | 0.025573   |   0.0 | 92.29
Neigh   | 0          | 0          | 0          |   0.0 |  0.00
Comm    | 0.001054   | 0.001054   | 0.001054   |   0.0 |  3.80
Output  | 0.00078106 | 0.00078106 | 0.00078106 |   0.0 |  2.82
Modify  | 0          | 0          | 0          |   0.0 |  0.00
Other   |            | 0.0003004  |            |       |  1.08

Nlocal:    18 ave 18 max 18 min
Histogram: 1 0 0 0 0 0 0 0 0 0
Nghost:    1737 ave 1737 max 1737 min
Histogram: 1 0 0 0 0 0 0 0 0 0
Neighs:    3690 ave 3690 max 3690 min
Histogram: 1 0 0 0 0 0 0 0 0 0

Total # of neighbors = 3690
Ave neighs/atom = 205
Neighbor list builds = 0
Dangerous builds = 0

# ---- define output variables ----
variable natoms equal "count(all)"
variable tot_energy equal "c_eatoms"
variable a11 equal "xhi-xlo"
variable a22 equal "yhi-ylo"
variable a33 equal "zhi-zlo"
variable tilt_xy equal "xy"
variable tilt_xz equal "xz"
variable tilt_yz equal "yz"
variable tot_press equal "press"
variable press_xx equal "pxx"
variable press_yy equal "pyy"
variable press_zz equal "pzz"
variable press_xy equal "pxy"
variable press_xz equal "pxz"
variable press_yz equal "pyz"

# ---- output ----
print "pypospack:output_section:begin"
pypospack:output_section:begin
print "tot_energy = ${tot_energy}"
tot_energy = -79.3768343862456
print "num_atoms = ${natoms}"
num_atoms = 18
print "a11 = ${a11}"
a11 = 2.4909
print "a22 = ${a22}"
a22 = 4.3144
print "a33 = ${a33}"
a33 = 36.603
print "a12 = ${tilt_xy}"
a12 = 0
print "a13 = ${tilt_xz}"
a13 = 0
print "a23 = ${tilt_yz}"
a23 = -0.0004
print "tot_press = ${tot_press}"
tot_press = -6668.91086924641
print "pxx = ${press_xx}"
pxx = -10003.1506929318
print "pyy = ${press_yy}"
pyy = -10003.5823875634
print "pzz = ${press_zz}"
pzz = 0.000472755980191398
print "pxy = ${press_xy}"
pxy = -1.82936244177066e-09
print "pxz = ${press_xz}"
pxz = -2.25942605273664e-09
print "pyz = ${press_yz}"
pyz = 0.00375214117415769
print "pypospack:output_section:done"
pypospack:output_section:done
print "pypospack:lammps_sim:done"
pypospack:lammps_sim:done
Total wall time: 0:00:00
