# ['Ni']

107 atoms
1 atom types

    0.0000    10.5313 xlo xhi
    0.0000    10.5313 ylo yhi
    0.0000    10.5313 zlo zhi

    0.0000    -0.0000    -0.0000 xy xz yz

Atoms

1 1     1.7552     1.7552     0.0000
2 1     1.7552     0.0000     1.7552
3 1     0.0000     1.7552     1.7552
4 1     0.0000     0.0000     3.5104
5 1     1.7552     1.7552     3.5104
6 1     1.7552     0.0000     5.2656
7 1     0.0000     1.7552     5.2656
8 1     0.0000     0.0000     7.0208
9 1     1.7552     1.7552     7.0208
10 1     1.7552     0.0000     8.7760
11 1     0.0000     1.7552     8.7760
12 1     0.0000     3.5104     0.0000
13 1     1.7552     5.2656     0.0000
14 1     1.7552     3.5104     1.7552
15 1     0.0000     5.2656     1.7552
16 1     0.0000     3.5104     3.5104
17 1     1.7552     5.2656     3.5104
18 1     1.7552     3.5104     5.2656
19 1     0.0000     5.2656     5.2656
20 1     0.0000     3.5104     7.0208
21 1     1.7552     5.2656     7.0208
22 1     1.7552     3.5104     8.7760
23 1     0.0000     5.2656     8.7760
24 1     0.0000     7.0208     0.0000
25 1     1.7552     8.7760     0.0000
26 1     1.7552     7.0208     1.7552
27 1     0.0000     8.7760     1.7552
28 1     0.0000     7.0208     3.5104
29 1     1.7552     8.7760     3.5104
30 1     1.7552     7.0208     5.2656
31 1     0.0000     8.7760     5.2656
32 1     0.0000     7.0208     7.0208
33 1     1.7552     8.7760     7.0208
34 1     1.7552     7.0208     8.7760
35 1     0.0000     8.7760     8.7760
36 1     3.5104     0.0000     0.0000
37 1     5.2656     1.7552     0.0000
38 1     5.2656     0.0000     1.7552
39 1     3.5104     1.7552     1.7552
40 1     3.5104     0.0000     3.5104
41 1     5.2656     1.7552     3.5104
42 1     5.2656     0.0000     5.2656
43 1     3.5104     1.7552     5.2656
44 1     3.5104     0.0000     7.0208
45 1     5.2656     1.7552     7.0208
46 1     5.2656     0.0000     8.7760
47 1     3.5104     1.7552     8.7760
48 1     3.5104     3.5104     0.0000
49 1     5.2656     5.2656     0.0000
50 1     5.2656     3.5104     1.7552
51 1     3.5104     5.2656     1.7552
52 1     3.5104     3.5104     3.5104
53 1     5.2656     5.2656     3.5104
54 1     5.2656     3.5104     5.2656
55 1     3.5104     5.2656     5.2656
56 1     3.5104     3.5104     7.0208
57 1     5.2656     5.2656     7.0208
58 1     5.2656     3.5104     8.7760
59 1     3.5104     5.2656     8.7760
60 1     3.5104     7.0208     0.0000
61 1     5.2656     8.7760     0.0000
62 1     5.2656     7.0208     1.7552
63 1     3.5104     8.7760     1.7552
64 1     3.5104     7.0208     3.5104
65 1     5.2656     8.7760     3.5104
66 1     5.2656     7.0208     5.2656
67 1     3.5104     8.7760     5.2656
68 1     3.5104     7.0208     7.0208
69 1     5.2656     8.7760     7.0208
70 1     5.2656     7.0208     8.7760
71 1     3.5104     8.7760     8.7760
72 1     7.0208     0.0000     0.0000
73 1     8.7760     1.7552     0.0000
74 1     8.7760     0.0000     1.7552
75 1     7.0208     1.7552     1.7552
76 1     7.0208     0.0000     3.5104
77 1     8.7760     1.7552     3.5104
78 1     8.7760     0.0000     5.2656
79 1     7.0208     1.7552     5.2656
80 1     7.0208     0.0000     7.0208
81 1     8.7760     1.7552     7.0208
82 1     8.7760     0.0000     8.7760
83 1     7.0208     1.7552     8.7760
84 1     7.0208     3.5104     0.0000
85 1     8.7760     5.2656     0.0000
86 1     8.7760     3.5104     1.7552
87 1     7.0208     5.2656     1.7552
88 1     7.0208     3.5104     3.5104
89 1     8.7760     5.2656     3.5104
90 1     8.7760     3.5104     5.2656
91 1     7.0208     5.2656     5.2656
92 1     7.0208     3.5104     7.0208
93 1     8.7760     5.2656     7.0208
94 1     8.7760     3.5104     8.7760
95 1     7.0208     5.2656     8.7760
96 1     7.0208     7.0208     0.0000
97 1     8.7760     8.7760     0.0000
98 1     8.7760     7.0208     1.7552
99 1     7.0208     8.7760     1.7552
100 1     7.0208     7.0208     3.5104
101 1     8.7760     8.7760     3.5104
102 1     8.7760     7.0208     5.2656
103 1     7.0208     8.7760     5.2656
104 1     7.0208     7.0208     7.0208
105 1     8.7760     8.7760     7.0208
106 1     8.7760     7.0208     8.7760
107 1     7.0208     8.7760     8.7760
