    2    2    1    1
  0.9639684E+01  0.3009788E-09  0.3009788E-09  0.3009788E-09  0.5000000E-15
  1.000000000000000E-004
  CAR 
 automatically generated by pyflamestk   
      8     10     16
 
  0.1250000E+00  0.1250000E+00  0.1250000E+00  0.3125000E-01
    1      -13.841708   1.000000
    2        2.431391   1.000000
    3        3.293041   1.000000
    4        3.293041   1.000000
    5        8.612946   0.000000
    6       17.319642   0.000000
    7       19.327383   0.000000
    8       19.327386   0.000000
    9       23.545637   0.000000
   10       23.545638   0.000000
   11       24.873554   0.000000
   12       27.283097   0.000000
   13       28.727166   0.000000
   14       28.727167   0.000000
   15       39.002916   0.000000
   16       40.950799   0.000000
 
  0.3750000E+00  0.1250000E+00  0.1250000E+00  0.9375000E-01
    1      -13.211288   1.000000
    2        0.296780   1.000000
    3        2.452414   1.000000
    4        3.005540   1.000000
    5       11.100133   0.000000
    6       15.297155   0.000000
    7       18.653741   0.000000
    8       20.304934   0.000000
    9       22.132209   0.000000
   10       24.372367   0.000000
   11       26.439294   0.000000
   12       31.109851   0.000000
   13       32.433614   0.000000
   14       33.218931   0.000000
   15       35.574709   0.000000
   16       38.905773   0.000000
 
 -0.3750000E+00  0.1250000E+00  0.1250000E+00  0.9375000E-01
    1      -12.793272   1.000000
    2       -0.838910   1.000000
    3        2.296880   1.000000
    4        2.680240   1.000000
    5       11.689723   0.000000
    6       15.533736   0.000000
    7       17.930042   0.000000
    8       19.745855   0.000000
    9       23.722334   0.000000
   10       26.010338   0.000000
   11       26.040549   0.000000
   12       32.274348   0.000000
   13       32.957456   0.000000
   14       33.269632   0.000000
   15       35.853963   0.000000
   16       37.527178   0.000000
 
 -0.1250000E+00  0.1250000E+00  0.1250000E+00  0.9375000E-01
    1      -13.489933   1.000000
    2        1.153365   1.000000
    3        2.930147   1.000000
    4        2.945267   1.000000
    5       10.245916   0.000000
    6       15.511791   0.000000
    7       19.438290   0.000000
    8       19.932983   0.000000
    9       21.096575   0.000000
   10       24.928790   0.000000
   11       26.893277   0.000000
   12       29.992975   0.000000
   13       30.279364   0.000000
   14       31.060591   0.000000
   15       37.216759   0.000000
   16       39.044116   0.000000
 
  0.3750000E+00  0.3750000E+00  0.1250000E+00  0.9375000E-01
    1      -12.984740   1.000000
    2        0.104375   1.000000
    3        2.249571   1.000000
    4        2.480598   1.000000
    5       12.220935   0.000000
    6       13.927143   0.000000
    7       17.197409   0.000000
    8       20.835255   0.000000
    9       21.302090   0.000000
   10       27.113339   0.000000
   11       30.171091   0.000000
   12       30.434305   0.000000
   13       32.351522   0.000000
   14       34.840782   0.000000
   15       36.496124   0.000000
   16       37.889346   0.000000
 
 -0.3750000E+00  0.3750000E+00  0.1250000E+00  0.1875000E+00
    1      -12.590494   1.000000
    2        0.012482   1.000000
    3        1.004849   1.000000
    4        2.075132   1.000000
    5       13.787248   0.000000
    6       14.852625   0.000000
    7       15.632068   0.000000
    8       19.558966   0.000000
    9       23.039788   0.000000
   10       26.472369   0.000000
   11       29.993437   0.000000
   12       31.489147   0.000000
   13       32.692010   0.000000
   14       36.355782   0.000000
   15       38.903696   0.000000
   16       41.114708   0.000000
 
 -0.1250000E+00  0.3750000E+00  0.1250000E+00  0.1875000E+00
    1      -12.835944   1.000000
    2       -0.202383   1.000000
    3        1.736069   1.000000
    4        2.565677   1.000000
    5       12.583546   0.000000
    6       14.874997   0.000000
    7       16.962649   0.000000
    8       20.156918   0.000000
    9       22.729981   0.000000
   10       25.383101   0.000000
   11       28.884408   0.000000
   12       31.706981   0.000000
   13       32.276130   0.000000
   14       34.911405   0.000000
   15       35.558218   0.000000
   16       41.019259   0.000000
 
 -0.3750000E+00 -0.3750000E+00  0.1250000E+00  0.9375000E-01
    1      -12.624995   1.000000
    2       -0.349127   1.000000
    3        1.751093   1.000000
    4        2.196567   1.000000
    5       12.857833   0.000000
    6       13.506826   0.000000
    7       16.137800   0.000000
    8       21.543778   0.000000
    9       21.570776   0.000000
   10       28.896701   0.000000
   11       29.427339   0.000000
   12       31.976272   0.000000
   13       32.684900   0.000000
   14       37.812844   0.000000
   15       38.182945   0.000000
   16       41.109236   0.000000
 
  0.3750000E+00  0.3750000E+00  0.3750000E+00  0.3125000E-01
    1      -13.020108   1.000000
    2       -0.553831   1.000000
    3        2.860902   1.000000
    4        2.860902   1.000000
    5       10.883176   0.000000
    6       15.561390   0.000000
    7       19.538680   0.000000
    8       19.538682   0.000000
    9       24.091390   0.000000
   10       24.481039   0.000000
   11       24.481042   0.000000
   12       31.894936   0.000000
   13       33.307048   0.000000
   14       33.307050   0.000000
   15       36.851506   0.000000
   16       36.851510   0.000000
 
 -0.3750000E+00  0.3750000E+00  0.3750000E+00  0.9375000E-01
    1      -12.670722   1.000000
    2       -0.239100   1.000000
    3        1.094666   1.000000
    4        2.546425   1.000000
    5       13.070140   0.000000
    6       15.348933   0.000000
    7       16.162462   0.000000
    8       20.467269   0.000000
    9       22.490932   0.000000
   10       25.567649   0.000000
   11       29.104834   0.000000
   12       31.682367   0.000000
   13       32.142884   0.000000
   14       35.408872   0.000000
   15       37.242506   0.000000
   16       40.129184   0.000000
