# ['Ni']

28 atoms
1 atom types

    0.0000     2.8778 xlo xhi
    0.0000     4.9845 ylo yhi
    0.0000    32.8963 zlo zhi

    0.0000     0.0000     0.0000 xy xz yz

Atoms

1 1     0.0000     0.0000     0.0000
2 1     1.4389     2.4923     0.0000
3 1     1.4389     0.8308     2.3498
4 1     0.0000     3.3230     2.3498
5 1     0.0000     1.6615     4.6995
6 1     1.4389     4.1538     4.6995
7 1     0.0000     0.0000     7.0492
8 1     1.4389     2.4923     7.0492
9 1     1.4389     0.8308     9.3989
10 1     0.0000     3.3230     9.3989
11 1     0.0000     1.6615    11.7487
12 1     1.4389     4.1538    11.7487
13 1     0.0000     0.0000    14.0984
14 1     1.4389     2.4923    14.0984
15 1     0.0000     1.6615    16.4482
16 1     1.4389     4.1538    16.4482
17 1     0.0000     0.0000    18.7979
18 1     1.4389     2.4923    18.7979
19 1     1.4389     0.8308    21.1476
20 1     0.0000     3.3230    21.1476
21 1     0.0000     1.6615    23.4974
22 1     1.4389     4.1538    23.4974
23 1     0.0000     0.0000    25.8471
24 1     1.4389     2.4923    25.8471
25 1     1.4389     0.8308    28.1969
26 1     0.0000     3.3230    28.1969
27 1     0.0000     1.6615    30.5466
28 1     1.4389     4.1538    30.5466
