# ['Si']

215 atoms
1 atom types

    0.0000    87.7489 xlo xhi
    0.0000    87.7489 ylo yhi
    0.0000    87.7489 zlo zhi

    0.0000     0.0000     0.0000 xy xz yz

Atoms

1 1     7.3124     7.3124     7.3124
2 1     0.0000    14.6249    14.6249
3 1     7.3124    21.9372    21.9372
4 1    14.6249     0.0000    14.6249
5 1    21.9372     7.3124    21.9372
6 1    14.6249    14.6249     0.0000
7 1    21.9372    21.9372     7.3124
8 1     0.0000     0.0000    29.2496
9 1     7.3124     7.3124    36.5621
10 1     0.0000    14.6249    43.8745
11 1     7.3124    21.9372    51.1868
12 1    14.6249     0.0000    43.8745
13 1    21.9372     7.3124    51.1868
14 1    14.6249    14.6249    29.2496
15 1    21.9372    21.9372    36.5621
16 1     0.0000     0.0000    58.4993
17 1     7.3124     7.3124    65.8117
18 1     0.0000    14.6249    73.1241
19 1     7.3124    21.9372    80.4365
20 1    14.6249     0.0000    73.1241
21 1    21.9372     7.3124    80.4365
22 1    14.6249    14.6249    58.4993
23 1    21.9372    21.9372    65.8117
24 1     0.0000    29.2496     0.0000
25 1     7.3124    36.5621     7.3124
26 1     0.0000    43.8745    14.6249
27 1     7.3124    51.1868    21.9372
28 1    14.6249    29.2496    14.6249
29 1    21.9372    36.5621    21.9372
30 1    14.6249    43.8745     0.0000
31 1    21.9372    51.1868     7.3124
32 1     0.0000    29.2496    29.2496
33 1     7.3124    36.5621    36.5621
34 1     0.0000    43.8745    43.8745
35 1     7.3124    51.1868    51.1868
36 1    14.6249    29.2496    43.8745
37 1    21.9372    36.5621    51.1868
38 1    14.6249    43.8745    29.2496
39 1    21.9372    51.1868    36.5621
40 1     0.0000    29.2496    58.4993
41 1     7.3124    36.5621    65.8117
42 1     0.0000    43.8745    73.1241
43 1     7.3124    51.1868    80.4365
44 1    14.6249    29.2496    73.1241
45 1    21.9372    36.5621    80.4365
46 1    14.6249    43.8745    58.4993
47 1    21.9372    51.1868    65.8117
48 1     0.0000    58.4993     0.0000
49 1     7.3124    65.8117     7.3124
50 1     0.0000    73.1241    14.6249
51 1     7.3124    80.4365    21.9372
52 1    14.6249    58.4993    14.6249
53 1    21.9372    65.8117    21.9372
54 1    14.6249    73.1241     0.0000
55 1    21.9372    80.4365     7.3124
56 1     0.0000    58.4993    29.2496
57 1     7.3124    65.8117    36.5621
58 1     0.0000    73.1241    43.8745
59 1     7.3124    80.4365    51.1868
60 1    14.6249    58.4993    43.8745
61 1    21.9372    65.8117    51.1868
62 1    14.6249    73.1241    29.2496
63 1    21.9372    80.4365    36.5621
64 1     0.0000    58.4993    58.4993
65 1     7.3124    65.8117    65.8117
66 1     0.0000    73.1241    73.1241
67 1     7.3124    80.4365    80.4365
68 1    14.6249    58.4993    73.1241
69 1    21.9372    65.8117    80.4365
70 1    14.6249    73.1241    58.4993
71 1    21.9372    80.4365    65.8117
72 1    29.2496     0.0000     0.0000
73 1    36.5621     7.3124     7.3124
74 1    29.2496    14.6249    14.6249
75 1    36.5621    21.9372    21.9372
76 1    43.8745     0.0000    14.6249
77 1    51.1868     7.3124    21.9372
78 1    43.8745    14.6249     0.0000
79 1    51.1868    21.9372     7.3124
80 1    29.2496     0.0000    29.2496
81 1    36.5621     7.3124    36.5621
82 1    29.2496    14.6249    43.8745
83 1    36.5621    21.9372    51.1868
84 1    43.8745     0.0000    43.8745
85 1    51.1868     7.3124    51.1868
86 1    43.8745    14.6249    29.2496
87 1    51.1868    21.9372    36.5621
88 1    29.2496     0.0000    58.4993
89 1    36.5621     7.3124    65.8117
90 1    29.2496    14.6249    73.1241
91 1    36.5621    21.9372    80.4365
92 1    43.8745     0.0000    73.1241
93 1    51.1868     7.3124    80.4365
94 1    43.8745    14.6249    58.4993
95 1    51.1868    21.9372    65.8117
96 1    29.2496    29.2496     0.0000
97 1    36.5621    36.5621     7.3124
98 1    29.2496    43.8745    14.6249
99 1    36.5621    51.1868    21.9372
100 1    43.8745    29.2496    14.6249
101 1    51.1868    36.5621    21.9372
102 1    43.8745    43.8745     0.0000
103 1    51.1868    51.1868     7.3124
104 1    29.2496    29.2496    29.2496
105 1    36.5621    36.5621    36.5621
106 1    29.2496    43.8745    43.8745
107 1    36.5621    51.1868    51.1868
108 1    43.8745    29.2496    43.8745
109 1    51.1868    36.5621    51.1868
110 1    43.8745    43.8745    29.2496
111 1    51.1868    51.1868    36.5621
112 1    29.2496    29.2496    58.4993
113 1    36.5621    36.5621    65.8117
114 1    29.2496    43.8745    73.1241
115 1    36.5621    51.1868    80.4365
116 1    43.8745    29.2496    73.1241
117 1    51.1868    36.5621    80.4365
118 1    43.8745    43.8745    58.4993
119 1    51.1868    51.1868    65.8117
120 1    29.2496    58.4993     0.0000
121 1    36.5621    65.8117     7.3124
122 1    29.2496    73.1241    14.6249
123 1    36.5621    80.4365    21.9372
124 1    43.8745    58.4993    14.6249
125 1    51.1868    65.8117    21.9372
126 1    43.8745    73.1241     0.0000
127 1    51.1868    80.4365     7.3124
128 1    29.2496    58.4993    29.2496
129 1    36.5621    65.8117    36.5621
130 1    29.2496    73.1241    43.8745
131 1    36.5621    80.4365    51.1868
132 1    43.8745    58.4993    43.8745
133 1    51.1868    65.8117    51.1868
134 1    43.8745    73.1241    29.2496
135 1    51.1868    80.4365    36.5621
136 1    29.2496    58.4993    58.4993
137 1    36.5621    65.8117    65.8117
138 1    29.2496    73.1241    73.1241
139 1    36.5621    80.4365    80.4365
140 1    43.8745    58.4993    73.1241
141 1    51.1868    65.8117    80.4365
142 1    43.8745    73.1241    58.4993
143 1    51.1868    80.4365    65.8117
144 1    58.4993     0.0000     0.0000
145 1    65.8117     7.3124     7.3124
146 1    58.4993    14.6249    14.6249
147 1    65.8117    21.9372    21.9372
148 1    73.1241     0.0000    14.6249
149 1    80.4365     7.3124    21.9372
150 1    73.1241    14.6249     0.0000
151 1    80.4365    21.9372     7.3124
152 1    58.4993     0.0000    29.2496
153 1    65.8117     7.3124    36.5621
154 1    58.4993    14.6249    43.8745
155 1    65.8117    21.9372    51.1868
156 1    73.1241     0.0000    43.8745
157 1    80.4365     7.3124    51.1868
158 1    73.1241    14.6249    29.2496
159 1    80.4365    21.9372    36.5621
160 1    58.4993     0.0000    58.4993
161 1    65.8117     7.3124    65.8117
162 1    58.4993    14.6249    73.1241
163 1    65.8117    21.9372    80.4365
164 1    73.1241     0.0000    73.1241
165 1    80.4365     7.3124    80.4365
166 1    73.1241    14.6249    58.4993
167 1    80.4365    21.9372    65.8117
168 1    58.4993    29.2496     0.0000
169 1    65.8117    36.5621     7.3124
170 1    58.4993    43.8745    14.6249
171 1    65.8117    51.1868    21.9372
172 1    73.1241    29.2496    14.6249
173 1    80.4365    36.5621    21.9372
174 1    73.1241    43.8745     0.0000
175 1    80.4365    51.1868     7.3124
176 1    58.4993    29.2496    29.2496
177 1    65.8117    36.5621    36.5621
178 1    58.4993    43.8745    43.8745
179 1    65.8117    51.1868    51.1868
180 1    73.1241    29.2496    43.8745
181 1    80.4365    36.5621    51.1868
182 1    73.1241    43.8745    29.2496
183 1    80.4365    51.1868    36.5621
184 1    58.4993    29.2496    58.4993
185 1    65.8117    36.5621    65.8117
186 1    58.4993    43.8745    73.1241
187 1    65.8117    51.1868    80.4365
188 1    73.1241    29.2496    73.1241
189 1    80.4365    36.5621    80.4365
190 1    73.1241    43.8745    58.4993
191 1    80.4365    51.1868    65.8117
192 1    58.4993    58.4993     0.0000
193 1    65.8117    65.8117     7.3124
194 1    58.4993    73.1241    14.6249
195 1    65.8117    80.4365    21.9372
196 1    73.1241    58.4993    14.6249
197 1    80.4365    65.8117    21.9372
198 1    73.1241    73.1241     0.0000
199 1    80.4365    80.4365     7.3124
200 1    58.4993    58.4993    29.2496
201 1    65.8117    65.8117    36.5621
202 1    58.4993    73.1241    43.8745
203 1    65.8117    80.4365    51.1868
204 1    73.1241    58.4993    43.8745
205 1    80.4365    65.8117    51.1868
206 1    73.1241    73.1241    29.2496
207 1    80.4365    80.4365    36.5621
208 1    58.4993    58.4993    58.4993
209 1    65.8117    65.8117    65.8117
210 1    58.4993    73.1241    73.1241
211 1    65.8117    80.4365    80.4365
212 1    73.1241    58.4993    73.1241
213 1    80.4365    65.8117    80.4365
214 1    73.1241    73.1241    58.4993
215 1    80.4365    80.4365    65.8117
