# ['Ni']

28 atoms
1 atom types

    0.0000     2.3044 xlo xhi
    0.0000     3.9914 ylo yhi
    0.0000    26.3420 zlo zhi

    0.0000     0.0000     0.0000 xy xz yz

Atoms

1 1     0.0000     0.0000     0.0000
2 1     1.1522     1.9957     0.0000
3 1     1.1522     0.6652     1.8816
4 1     0.0000     2.6609     1.8816
5 1     0.0000     1.3305     3.7631
6 1     1.1522     3.3262     3.7631
7 1     0.0000     0.0000     5.6447
8 1     1.1522     1.9957     5.6447
9 1     1.1522     0.6652     7.5263
10 1     0.0000     2.6609     7.5263
11 1     0.0000     1.3305     9.4079
12 1     1.1522     3.3262     9.4079
13 1     0.0000     0.0000    11.2894
14 1     1.1522     1.9957    11.2894
15 1     0.0000     1.3305    13.1710
16 1     1.1522     3.3262    13.1710
17 1     0.0000     0.0000    15.0526
18 1     1.1522     1.9957    15.0526
19 1     1.1522     0.6652    16.9342
20 1     0.0000     2.6609    16.9342
21 1     0.0000     1.3305    18.8157
22 1     1.1522     3.3262    18.8157
23 1     0.0000     0.0000    20.6973
24 1     1.1522     1.9957    20.6973
25 1     1.1522     0.6652    22.5789
26 1     0.0000     2.6609    22.5789
27 1     0.0000     1.3305    24.4604
28 1     1.1522     3.3262    24.4604
