   4   4   0   0
  0.1064635E+02  0.3492102E-09  0.3492102E-09  0.3492102E-09  0.5000000E-15
  1.000000000000000E-004
  CAR 
 automatically generated by pyflamestk   
     33.68914117     -0.88036585  301      9.54377721      1.00000000
     -0.880  0.0000E+00  0.0000E+00  0.0000E+00  0.0000E+00
     -0.765  0.0000E+00  0.0000E+00  0.0000E+00  0.0000E+00
     -0.650  0.0000E+00  0.0000E+00  0.0000E+00  0.0000E+00
     -0.535 -0.4894E-29 -0.4894E-29 -0.5640E-30 -0.5640E-30
     -0.419 -0.4504E-25 -0.4504E-25 -0.5190E-26 -0.5190E-26
     -0.304 -0.2122E-21 -0.2122E-21 -0.2445E-22 -0.2445E-22
     -0.189 -0.5111E-18 -0.5111E-18 -0.5892E-19 -0.5892E-19
     -0.074 -0.6289E-15 -0.6289E-15 -0.7253E-16 -0.7253E-16
      0.041 -0.3812E-12 -0.3812E-12 -0.4399E-13 -0.4400E-13
      0.157 -0.1205E-09 -0.1205E-09 -0.1393E-10 -0.1394E-10
      0.272 -0.1924E-07 -0.1924E-07 -0.2231E-08 -0.2231E-08
      0.387 -0.1537E-05 -0.1537E-05 -0.1794E-06 -0.1794E-06
      0.502 -0.6054E-04 -0.6054E-04 -0.7155E-05 -0.7156E-05
      0.618 -0.1139E-02 -0.1139E-02 -0.1384E-03 -0.1384E-03
      0.733 -0.9476E-02 -0.9476E-02 -0.1230E-02 -0.1230E-02
      0.848 -0.2534E-01 -0.2534E-01 -0.4150E-02 -0.4150E-02
      0.963  0.5212E-01  0.5212E-01  0.1856E-02  0.1856E-02
      1.079  0.3421E+00  0.3421E+00  0.4128E-01  0.4128E-01
      1.194  0.5000E+00  0.5000E+00  0.9890E-01  0.9890E-01
      1.309  0.2468E+00  0.2468E+00  0.1273E+00  0.1273E+00
      1.424  0.8559E-02  0.8558E-02  0.1283E+00  0.1283E+00
      1.539 -0.2265E-01 -0.2265E-01  0.1257E+00  0.1257E+00
      1.655 -0.5656E-02 -0.5656E-02  0.1251E+00  0.1251E+00
      1.770 -0.5304E-03 -0.5304E-03  0.1250E+00  0.1250E+00
      1.885 -0.2493E-04 -0.2493E-04  0.1250E+00  0.1250E+00
      2.000 -0.1007E-03 -0.1007E-03  0.1250E+00  0.1250E+00
      2.116 -0.2156E-02 -0.2156E-02  0.1247E+00  0.1247E+00
      2.231 -0.2092E-01 -0.2092E-01  0.1223E+00  0.1223E+00
      2.346 -0.7260E-01 -0.7260E-01  0.1140E+00  0.1140E+00
      2.461  0.6871E-01  0.6871E-01  0.1219E+00  0.1219E+00
      2.577  0.8519E+00  0.8519E+00  0.2200E+00  0.2201E+00
      2.692  0.1515E+01  0.1515E+01  0.3947E+00  0.3947E+00
      2.807  0.9168E+00  0.9168E+00  0.5003E+00  0.5003E+00
      2.922  0.9809E-01  0.9809E-01  0.5116E+00  0.5116E+00
      3.038 -0.7453E-01 -0.7453E-01  0.5030E+00  0.5030E+00
      3.153 -0.2351E-01 -0.2351E-01  0.5003E+00  0.5003E+00
      3.268 -0.2652E-02 -0.2652E-02  0.5000E+00  0.5000E+00
      3.383 -0.2111E-02 -0.2111E-02  0.4998E+00  0.4998E+00
      3.498 -0.1978E-01 -0.1978E-01  0.4975E+00  0.4975E+00
      3.614 -0.7148E-01 -0.7148E-01  0.4892E+00  0.4892E+00
      3.729  0.5601E-01  0.5601E-01  0.4957E+00  0.4957E+00
      3.844  0.8213E+00  0.8213E+00  0.5903E+00  0.5903E+00
      3.959  0.1513E+01  0.1513E+01  0.7647E+00  0.7647E+00
      4.075  0.9440E+00  0.9440E+00  0.8734E+00  0.8734E+00
      4.190  0.9560E-01  0.9559E-01  0.8845E+00  0.8845E+00
      4.305 -0.9617E-01 -0.9617E-01  0.8734E+00  0.8734E+00
      4.420  0.9189E-01  0.9190E-01  0.8840E+00  0.8840E+00
      4.536  0.3824E+00  0.3824E+00  0.9280E+00  0.9280E+00
      4.651  0.6931E+00  0.6931E+00  0.1008E+01  0.1008E+01
      4.766  0.1300E+01  0.1300E+01  0.1158E+01  0.1158E+01
      4.881  0.1390E+01  0.1390E+01  0.1318E+01  0.1318E+01
      4.996  0.4359E+00  0.4359E+00  0.1368E+01  0.1368E+01
      5.112 -0.3431E-01 -0.3431E-01  0.1364E+01  0.1364E+01
      5.227  0.1100E+01  0.1100E+01  0.1491E+01  0.1491E+01
      5.342  0.2849E+01  0.2849E+01  0.1819E+01  0.1819E+01
      5.457  0.3545E+01  0.3545E+01  0.2228E+01  0.2228E+01
      5.573  0.3362E+01  0.3362E+01  0.2615E+01  0.2615E+01
      5.688  0.1852E+01  0.1852E+01  0.2828E+01  0.2828E+01
      5.803  0.7007E+00  0.7006E+00  0.2909E+01  0.2909E+01
      5.918  0.2717E+01  0.2717E+01  0.3222E+01  0.3222E+01
      6.034  0.5189E+01  0.5189E+01  0.3820E+01  0.3820E+01
      6.149  0.3935E+01  0.3935E+01  0.4274E+01  0.4274E+01
      6.264  0.2458E+01  0.2458E+01  0.4557E+01  0.4557E+01
      6.379  0.3861E+01  0.3861E+01  0.5002E+01  0.5002E+01
      6.494  0.3593E+01  0.3593E+01  0.5416E+01  0.5416E+01
      6.610  0.2352E+01  0.2352E+01  0.5687E+01  0.5687E+01
      6.725  0.3369E+01  0.3369E+01  0.6075E+01  0.6075E+01
      6.840  0.3559E+01  0.3559E+01  0.6485E+01  0.6485E+01
      6.955  0.2641E+01  0.2641E+01  0.6790E+01  0.6790E+01
      7.071  0.3172E+01  0.3172E+01  0.7155E+01  0.7155E+01
      7.186  0.4780E+01  0.4780E+01  0.7706E+01  0.7706E+01
      7.301  0.6666E+01  0.6666E+01  0.8474E+01  0.8474E+01
      7.416  0.6575E+01  0.6576E+01  0.9232E+01  0.9232E+01
      7.532  0.4125E+01  0.4125E+01  0.9707E+01  0.9707E+01
      7.647  0.3154E+01  0.3154E+01  0.1007E+02  0.1007E+02
      7.762  0.5361E+01  0.5361E+01  0.1069E+02  0.1069E+02
      7.877  0.7805E+01  0.7805E+01  0.1159E+02  0.1159E+02
      7.992  0.7293E+01  0.7293E+01  0.1243E+02  0.1243E+02
      8.108  0.3963E+01  0.3964E+01  0.1288E+02  0.1288E+02
      8.223  0.1954E+01  0.1954E+01  0.1311E+02  0.1311E+02
      8.338  0.3391E+01  0.3391E+01  0.1350E+02  0.1350E+02
      8.453  0.4247E+01  0.4247E+01  0.1399E+02  0.1399E+02
      8.569  0.4506E+01  0.4506E+01  0.1451E+02  0.1451E+02
      8.684  0.7137E+01  0.7136E+01  0.1533E+02  0.1533E+02
      8.799  0.7573E+01  0.7573E+01  0.1620E+02  0.1620E+02
      8.914  0.3795E+01  0.3796E+01  0.1664E+02  0.1664E+02
      9.030  0.1843E+01  0.1843E+01  0.1685E+02  0.1685E+02
      9.145  0.4262E+01  0.4262E+01  0.1735E+02  0.1735E+02
      9.260  0.6692E+01  0.6692E+01  0.1812E+02  0.1812E+02
      9.375  0.5926E+01  0.5926E+01  0.1880E+02  0.1880E+02
      9.490  0.6482E+01  0.6482E+01  0.1955E+02  0.1955E+02
      9.606  0.8717E+01  0.8717E+01  0.2055E+02  0.2055E+02
      9.721  0.6268E+01  0.6268E+01  0.2127E+02  0.2127E+02
      9.836  0.1474E+01  0.1474E+01  0.2144E+02  0.2144E+02
      9.951 -0.3374E+00 -0.3374E+00  0.2140E+02  0.2140E+02
     10.067 -0.2130E+00 -0.2130E+00  0.2138E+02  0.2138E+02
     10.182 -0.3539E-01 -0.3539E-01  0.2138E+02  0.2138E+02
     10.297 -0.2582E-02 -0.2582E-02  0.2138E+02  0.2138E+02
     10.412 -0.1213E-03 -0.1213E-03  0.2137E+02  0.2137E+02
     10.528 -0.1040E-02 -0.1040E-02  0.2137E+02  0.2137E+02
     10.643 -0.1671E-01 -0.1671E-01  0.2137E+02  0.2137E+02
     10.758 -0.1155E+00 -0.1155E+00  0.2136E+02  0.2136E+02
     10.873 -0.2110E+00 -0.2110E+00  0.2134E+02  0.2134E+02
     10.988  0.8510E+00  0.8509E+00  0.2143E+02  0.2143E+02
     11.104  0.3613E+01  0.3613E+01  0.2185E+02  0.2185E+02
     11.219  0.4280E+01  0.4280E+01  0.2234E+02  0.2234E+02
     11.334  0.1656E+01  0.1656E+01  0.2253E+02  0.2253E+02
     11.449 -0.8367E-01 -0.8365E-01  0.2252E+02  0.2252E+02
     11.565 -0.1719E+00 -0.1719E+00  0.2250E+02  0.2250E+02
     11.680 -0.3448E-01 -0.3449E-01  0.2250E+02  0.2250E+02
     11.795 -0.3597E-02 -0.3597E-02  0.2250E+02  0.2250E+02
     11.910 -0.1078E-01 -0.1078E-01  0.2250E+02  0.2250E+02
     12.026 -0.5547E-01 -0.5547E-01  0.2249E+02  0.2249E+02
     12.141 -0.3529E-01 -0.3529E-01  0.2249E+02  0.2249E+02
     12.256  0.5220E+00  0.5220E+00  0.2255E+02  0.2255E+02
     12.371  0.1412E+01  0.1412E+01  0.2271E+02  0.2271E+02
     12.487  0.1232E+01  0.1232E+01  0.2285E+02  0.2285E+02
     12.602  0.3060E+00  0.3060E+00  0.2289E+02  0.2289E+02
     12.717 -0.6880E-01 -0.6880E-01  0.2288E+02  0.2288E+02
     12.832 -0.4059E-01 -0.4059E-01  0.2288E+02  0.2288E+02
     12.947 -0.1152E-01 -0.1152E-01  0.2287E+02  0.2287E+02
     13.063 -0.3892E-01 -0.3892E-01  0.2287E+02  0.2287E+02
     13.178 -0.7077E-01 -0.7077E-01  0.2286E+02  0.2286E+02
     13.293  0.2836E+00  0.2836E+00  0.2289E+02  0.2289E+02
     13.408  0.1207E+01  0.1207E+01  0.2303E+02  0.2303E+02
     13.524  0.1428E+01  0.1428E+01  0.2320E+02  0.2320E+02
     13.639  0.5500E+00  0.5500E+00  0.2326E+02  0.2326E+02
     13.754 -0.2905E-01 -0.2904E-01  0.2326E+02  0.2326E+02
     13.869 -0.5726E-01 -0.5726E-01  0.2325E+02  0.2325E+02
     13.985 -0.1142E-01 -0.1143E-01  0.2325E+02  0.2325E+02
     14.100 -0.1905E-02 -0.1905E-02  0.2325E+02  0.2325E+02
     14.215 -0.1471E-01 -0.1471E-01  0.2325E+02  0.2325E+02
     14.330 -0.9074E-01 -0.9074E-01  0.2324E+02  0.2324E+02
     14.445 -0.1217E+00 -0.1217E+00  0.2322E+02  0.2322E+02
     14.561  0.7506E+00  0.7506E+00  0.2331E+02  0.2331E+02
     14.676  0.2604E+01  0.2604E+01  0.2361E+02  0.2361E+02
     14.791  0.2717E+01  0.2717E+01  0.2392E+02  0.2392E+02
     14.906  0.8857E+00  0.8857E+00  0.2403E+02  0.2403E+02
     15.022 -0.1011E+00 -0.1011E+00  0.2401E+02  0.2401E+02
     15.137 -0.1003E+00 -0.1003E+00  0.2400E+02  0.2400E+02
     15.252 -0.1760E-01 -0.1760E-01  0.2400E+02  0.2400E+02
     15.367 -0.1274E-02 -0.1274E-02  0.2400E+02  0.2400E+02
     15.483 -0.4324E-04 -0.4324E-04  0.2400E+02  0.2400E+02
     15.598 -0.7643E-05 -0.7644E-05  0.2400E+02  0.2400E+02
     15.713 -0.2536E-03 -0.2536E-03  0.2400E+02  0.2400E+02
     15.828 -0.4413E-02 -0.4413E-02  0.2400E+02  0.2400E+02
     15.943 -0.3346E-01 -0.3346E-01  0.2400E+02  0.2400E+02
     16.059 -0.7477E-01 -0.7477E-01  0.2399E+02  0.2399E+02
     16.174  0.2185E+00  0.2185E+00  0.2401E+02  0.2401E+02
     16.289  0.1123E+01  0.1123E+01  0.2414E+02  0.2414E+02
     16.404  0.1469E+01  0.1469E+01  0.2431E+02  0.2431E+02
     16.520  0.6294E+00  0.6294E+00  0.2438E+02  0.2438E+02
     16.635 -0.6139E-01 -0.6140E-01  0.2438E+02  0.2438E+02
     16.750 -0.9785E-01 -0.9784E-01  0.2436E+02  0.2436E+02
     16.865  0.5087E+00  0.5087E+00  0.2442E+02  0.2442E+02
     16.981  0.1411E+01  0.1411E+01  0.2459E+02  0.2459E+02
     17.096  0.1232E+01  0.1232E+01  0.2473E+02  0.2473E+02
     17.211  0.3055E+00  0.3055E+00  0.2476E+02  0.2476E+02
     17.326 -0.6894E-01 -0.6894E-01  0.2476E+02  0.2476E+02
     17.441 -0.4277E-01 -0.4277E-01  0.2475E+02  0.2475E+02
     17.557 -0.3513E-01 -0.3513E-01  0.2475E+02  0.2475E+02
     17.672 -0.1285E+00 -0.1285E+00  0.2473E+02  0.2473E+02
     17.787  0.2457E-02  0.2461E-02  0.2473E+02  0.2473E+02
     17.902  0.1329E+01  0.1329E+01  0.2489E+02  0.2489E+02
     18.018  0.2957E+01  0.2957E+01  0.2523E+02  0.2523E+02
     18.133  0.2199E+01  0.2199E+01  0.2548E+02  0.2548E+02
     18.248  0.4038E+00  0.4038E+00  0.2553E+02  0.2553E+02
     18.363 -0.1591E+00 -0.1591E+00  0.2551E+02  0.2551E+02
     18.479 -0.8946E-01 -0.8946E-01  0.2550E+02  0.2550E+02
     18.594  0.3070E-01  0.3070E-01  0.2550E+02  0.2550E+02
     18.709  0.3178E+00  0.3178E+00  0.2554E+02  0.2554E+02
     18.824  0.5041E+00  0.5041E+00  0.2560E+02  0.2560E+02
     18.939  0.2712E+00  0.2712E+00  0.2563E+02  0.2563E+02
     19.055  0.1762E-01  0.1762E-01  0.2563E+02  0.2563E+02
     19.170 -0.2406E-01 -0.2406E-01  0.2563E+02  0.2563E+02
     19.285 -0.1297E-01 -0.1297E-01  0.2562E+02  0.2562E+02
     19.400 -0.5554E-01 -0.5554E-01  0.2562E+02  0.2562E+02
     19.516 -0.1519E+00 -0.1519E+00  0.2560E+02  0.2560E+02
     19.631  0.2890E+00  0.2890E+00  0.2563E+02  0.2563E+02
     19.746  0.2012E+01  0.2012E+01  0.2587E+02  0.2587E+02
     19.861  0.3009E+01  0.3009E+01  0.2621E+02  0.2621E+02
     19.977  0.1523E+01  0.1523E+01  0.2639E+02  0.2639E+02
     20.092  0.6608E-01  0.6608E-01  0.2640E+02  0.2640E+02
     20.207 -0.1420E+00 -0.1420E+00  0.2638E+02  0.2638E+02
     20.322 -0.6730E-01 -0.6730E-01  0.2637E+02  0.2637E+02
     20.437 -0.7880E-01 -0.7880E-01  0.2636E+02  0.2636E+02
     20.553  0.1994E+00  0.1994E+00  0.2639E+02  0.2639E+02
     20.668  0.1095E+01  0.1095E+01  0.2651E+02  0.2651E+02
     20.783  0.1480E+01  0.1480E+01  0.2668E+02  0.2668E+02
     20.898  0.6690E+00  0.6690E+00  0.2676E+02  0.2676E+02
     21.014  0.2506E-02  0.2529E-02  0.2676E+02  0.2676E+02
     21.129 -0.6531E-01 -0.6532E-01  0.2675E+02  0.2675E+02
     21.244 -0.2969E-01 -0.2969E-01  0.2675E+02  0.2675E+02
     21.359 -0.9312E-01 -0.9311E-01  0.2674E+02  0.2674E+02
     21.475 -0.1214E+00 -0.1214E+00  0.2672E+02  0.2672E+02
     21.590  0.7480E+00  0.7480E+00  0.2681E+02  0.2681E+02
     21.705  0.2549E+01  0.2549E+01  0.2710E+02  0.2710E+02
     21.820  0.2727E+01  0.2727E+01  0.2742E+02  0.2742E+02
     21.936  0.1599E+01  0.1599E+01  0.2760E+02  0.2760E+02
     22.051  0.1394E+01  0.1394E+01  0.2776E+02  0.2776E+02
     22.166  0.9390E+00  0.9389E+00  0.2787E+02  0.2787E+02
     22.281  0.1435E+00  0.1434E+00  0.2789E+02  0.2789E+02
     22.396 -0.1034E+00 -0.1034E+00  0.2788E+02  0.2788E+02
     22.512 -0.1240E+00 -0.1240E+00  0.2786E+02  0.2786E+02
     22.627  0.2975E-01  0.2976E-01  0.2786E+02  0.2786E+02
     22.742  0.9901E+00  0.9901E+00  0.2798E+02  0.2798E+02
     22.857  0.2344E+01  0.2343E+01  0.2825E+02  0.2825E+02
     22.973  0.2351E+01  0.2351E+01  0.2852E+02  0.2852E+02
     23.088  0.1002E+01  0.1002E+01  0.2864E+02  0.2864E+02
     23.203  0.3681E-01  0.3682E-01  0.2864E+02  0.2864E+02
     23.318 -0.1003E+00 -0.1003E+00  0.2863E+02  0.2863E+02
     23.434 -0.6406E-01 -0.6406E-01  0.2862E+02  0.2862E+02
     23.549 -0.1011E+00 -0.1011E+00  0.2861E+02  0.2861E+02
     23.664  0.1249E+00  0.1249E+00  0.2862E+02  0.2862E+02
     23.779  0.1117E+01  0.1117E+01  0.2875E+02  0.2875E+02
     23.894  0.2628E+01  0.2628E+01  0.2905E+02  0.2905E+02
     24.010  0.3496E+01  0.3496E+01  0.2946E+02  0.2946E+02
     24.125  0.2329E+01  0.2329E+01  0.2973E+02  0.2973E+02
     24.240  0.4508E+00  0.4508E+00  0.2978E+02  0.2978E+02
     24.355 -0.1584E+00 -0.1584E+00  0.2976E+02  0.2976E+02
     24.471 -0.7384E-01 -0.7384E-01  0.2975E+02  0.2975E+02
     24.586 -0.1014E-01 -0.1014E-01  0.2975E+02  0.2975E+02
     24.701 -0.6360E-03 -0.6360E-03  0.2975E+02  0.2975E+02
     24.816 -0.9485E-03 -0.9485E-03  0.2975E+02  0.2975E+02
     24.932 -0.1396E-01 -0.1395E-01  0.2975E+02  0.2975E+02
     25.047 -0.8828E-01 -0.8828E-01  0.2974E+02  0.2974E+02
     25.162 -0.1286E+00 -0.1286E+00  0.2972E+02  0.2972E+02
     25.277  0.6961E+00  0.6961E+00  0.2980E+02  0.2980E+02
     25.392  0.2520E+01  0.2520E+01  0.3009E+02  0.3009E+02
     25.508  0.2851E+01  0.2851E+01  0.3042E+02  0.3042E+02
     25.623  0.1611E+01  0.1611E+01  0.3061E+02  0.3061E+02
     25.738  0.9052E+00  0.9052E+00  0.3071E+02  0.3071E+02
     25.853  0.3885E+00  0.3885E+00  0.3076E+02  0.3076E+02
     25.969 -0.2121E-02 -0.2126E-02  0.3076E+02  0.3076E+02
     26.084 -0.4656E-01 -0.4656E-01  0.3075E+02  0.3075E+02
     26.199 -0.1129E-01 -0.1129E-01  0.3075E+02  0.3075E+02
     26.314 -0.1312E-02 -0.1312E-02  0.3075E+02  0.3075E+02
     26.430 -0.4550E-02 -0.4551E-02  0.3075E+02  0.3075E+02
     26.545 -0.3390E-01 -0.3390E-01  0.3075E+02  0.3075E+02
     26.660 -0.7453E-01 -0.7453E-01  0.3074E+02  0.3074E+02
     26.775  0.2240E+00  0.2240E+00  0.3076E+02  0.3076E+02
     26.890  0.1130E+01  0.1130E+01  0.3089E+02  0.3089E+02
     27.006  0.1466E+01  0.1466E+01  0.3106E+02  0.3106E+02
     27.121  0.6319E+00  0.6319E+00  0.3113E+02  0.3113E+02
     27.236 -0.8192E-02 -0.8195E-02  0.3113E+02  0.3113E+02
     27.351 -0.6221E-01 -0.6221E-01  0.3113E+02  0.3113E+02
     27.467 -0.1363E-01 -0.1363E-01  0.3113E+02  0.3113E+02
     27.582 -0.1182E-02 -0.1182E-02  0.3113E+02  0.3113E+02
     27.697 -0.5465E-03 -0.5465E-03  0.3112E+02  0.3112E+02
     27.812 -0.7362E-02 -0.7362E-02  0.3112E+02  0.3112E+02
     27.928 -0.4545E-01 -0.4545E-01  0.3112E+02  0.3112E+02
     28.043 -0.6072E-01 -0.6072E-01  0.3111E+02  0.3111E+02
     28.158  0.3764E+00  0.3764E+00  0.3116E+02  0.3116E+02
     28.273  0.1303E+01  0.1303E+01  0.3131E+02  0.3131E+02
     28.388  0.1358E+01  0.1358E+01  0.3146E+02  0.3146E+02
     28.504  0.4417E+00  0.4417E+00  0.3151E+02  0.3151E+02
     28.619 -0.5079E-01 -0.5079E-01  0.3151E+02  0.3151E+02
     28.734 -0.5063E-01 -0.5063E-01  0.3150E+02  0.3150E+02
     28.849 -0.1670E-01 -0.1670E-01  0.3150E+02  0.3150E+02
     28.965 -0.4801E-01 -0.4800E-01  0.3149E+02  0.3149E+02
     29.080 -0.5695E-01 -0.5695E-01  0.3149E+02  0.3149E+02
     29.195  0.4031E+00  0.4031E+00  0.3153E+02  0.3153E+02
     29.310  0.1327E+01  0.1327E+01  0.3169E+02  0.3169E+02
     29.426  0.1336E+01  0.1336E+01  0.3184E+02  0.3184E+02
     29.541  0.4140E+00  0.4140E+00  0.3189E+02  0.3189E+02
     29.656 -0.5528E-01 -0.5528E-01  0.3188E+02  0.3188E+02
     29.771 -0.4814E-01 -0.4814E-01  0.3188E+02  0.3188E+02
     29.886 -0.8159E-02 -0.8159E-02  0.3188E+02  0.3188E+02
     30.002 -0.5751E-03 -0.5751E-03  0.3188E+02  0.3188E+02
     30.117 -0.1899E-04 -0.1900E-04  0.3188E+02  0.3188E+02
     30.232 -0.3066E-06 -0.3067E-06  0.3188E+02  0.3188E+02
     30.347 -0.2466E-08 -0.2466E-08  0.3188E+02  0.3188E+02
     30.463 -0.9986E-11 -0.9988E-11  0.3188E+02  0.3188E+02
     30.578 -0.8455E-13 -0.8455E-13  0.3187E+02  0.3187E+02
     30.693 -0.2472E-10 -0.2473E-10  0.3187E+02  0.3187E+02
     30.808 -0.4807E-08 -0.4807E-08  0.3187E+02  0.3187E+02
     30.924 -0.4690E-06 -0.4691E-06  0.3187E+02  0.3187E+02
     31.039 -0.2268E-04 -0.2269E-04  0.3187E+02  0.3187E+02
     31.154 -0.5304E-03 -0.5304E-03  0.3187E+02  0.3187E+02
     31.269 -0.5656E-02 -0.5656E-02  0.3187E+02  0.3187E+02
     31.385 -0.2265E-01 -0.2265E-01  0.3187E+02  0.3187E+02
     31.500  0.8558E-02  0.8560E-02  0.3187E+02  0.3187E+02
     31.615  0.2468E+00  0.2468E+00  0.3190E+02  0.3190E+02
     31.730  0.5000E+00  0.5000E+00  0.3196E+02  0.3196E+02
     31.845  0.3421E+00  0.3421E+00  0.3200E+02  0.3200E+02
     31.961  0.5212E-01  0.5212E-01  0.3200E+02  0.3200E+02
     32.076 -0.2534E-01 -0.2534E-01  0.3200E+02  0.3200E+02
     32.191 -0.9476E-02 -0.9476E-02  0.3200E+02  0.3200E+02
     32.306 -0.1139E-02 -0.1139E-02  0.3200E+02  0.3200E+02
     32.422 -0.6054E-04 -0.6054E-04  0.3200E+02  0.3200E+02
     32.537 -0.1537E-05 -0.1537E-05  0.3200E+02  0.3200E+02
     32.652 -0.1924E-07 -0.1924E-07  0.3200E+02  0.3200E+02
     32.767 -0.1205E-09 -0.1205E-09  0.3200E+02  0.3200E+02
     32.883 -0.3811E-12 -0.3811E-12  0.3200E+02  0.3200E+02
     32.998 -0.7226E-15 -0.7226E-15  0.3200E+02  0.3200E+02
     33.113  0.0000E+00  0.0000E+00  0.3200E+02  0.3200E+02
     33.228  0.0000E+00  0.0000E+00  0.3200E+02  0.3200E+02
     33.343  0.0000E+00  0.0000E+00  0.3200E+02  0.3200E+02
     33.459  0.0000E+00  0.0000E+00  0.3200E+02  0.3200E+02
     33.574  0.0000E+00  0.0000E+00  0.3200E+02  0.3200E+02
     33.689  0.0000E+00  0.0000E+00  0.3200E+02  0.3200E+02
