    4    4    1    2
  0.1064635E+02  0.3492102E-09  0.3492102E-09  0.3492102E-09  0.5000000E-15
  1.000000000000000E-004
  CAR 
 automatically generated by pyflamestk   
     40      4     32
 
  0.1250000E+00  0.1250000E+00  0.1250000E+00  0.1250000E+00
    1        1.119635      1.119634   1.000000   1.000000
    2        5.340341      5.340355   1.000000   1.000000
    3        5.340341      5.340355   1.000000   1.000000
    4        5.340341      5.340355   1.000000   1.000000
    5        5.911433      5.911431   1.000000   1.000000
    6        5.911433      5.911431   1.000000   1.000000
    7        5.911433      5.911431   1.000000   1.000000
    8        7.451470      7.451467   1.000000   1.000000
    9        7.735726      7.735724   1.000000   1.000000
   10        7.735726      7.735724   1.000000   1.000000
   11        8.715350      8.715372   1.000000   1.000000
   12        8.715350      8.715372   1.000000   1.000000
   13        8.734525      8.734523   1.000000   1.000000
   14        8.734525      8.734523   1.000000   1.000000
   15        8.734525      8.734523   1.000000   1.000000
   16        9.217491      9.217508   1.021619   1.021623
   17        9.217491      9.217508   1.021619   1.021623
   18        9.217491      9.217508   1.021619   1.021623
   19        9.621194      9.621197   0.198044   0.198034
   20        9.621194      9.621197   0.198044   0.198034
   21        9.621194      9.621197   0.198044   0.198034
   22       12.356391     12.356390  -0.000000  -0.000000
   23       12.356391     12.356390  -0.000000  -0.000000
   24       12.356391     12.356390  -0.000000  -0.000000
   25       20.700686     20.700695   0.000000   0.000000
   26       20.700686     20.700695   0.000000   0.000000
   27       20.700686     20.700695   0.000000   0.000000
   28       22.011106     22.011104   0.000000   0.000000
   29       22.011106     22.011104   0.000000   0.000000
   30       22.011106     22.011104   0.000000   0.000000
   31       25.663603     25.663600   0.000000   0.000000
   32       25.663603     25.663600   0.000000   0.000000
 
  0.3750000E+00  0.1250000E+00  0.1250000E+00  0.3750000E+00
    1        2.637931      2.637930   1.000000   1.000000
    2        4.787440      4.787445   1.000000   1.000000
    3        6.005402      6.005416   1.000000   1.000000
    4        6.005402      6.005416   1.000000   1.000000
    5        6.358576      6.358574   1.000000   1.000000
    6        6.368084      6.368083   1.000000   1.000000
    7        6.368084      6.368083   1.000000   1.000000
    8        7.009784      7.009782   1.000000   1.000000
    9        7.408697      7.408696   1.000000   1.000000
   10        7.408697      7.408696   1.000000   1.000000
   11        7.820389      7.820397   1.000000   1.000000
   12        7.891437      7.891444   1.000000   1.000000
   13        8.044088      8.044089   1.000000   1.000000
   14        8.562777      8.562788   1.000000   1.000000
   15        8.630579      8.630585   1.000000   1.000000
   16        8.764443      8.764463   1.000000   1.000000
   17        8.764443      8.764463   1.000000   1.000000
   18        9.023618      9.023637   1.000729   1.000730
   19        9.414709      9.414723   0.939324   0.939295
   20        9.534572      9.534570   0.538906   0.538912
   21        9.534572      9.534570   0.538906   0.538912
   22        9.631562      9.631565   0.165266   0.165258
   23       14.680556     14.680556  -0.000000  -0.000000
   24       14.680556     14.680556  -0.000000  -0.000000
   25       17.985418     17.985417   0.000000   0.000000
   26       17.985418     17.985417   0.000000   0.000000
   27       21.708698     21.708703   0.000000   0.000000
   28       21.708698     21.708703   0.000000   0.000000
   29       23.804080     23.804079   0.000000   0.000000
   30       23.986744     23.986744   0.000000   0.000000
   31       23.986744     23.986744   0.000000   0.000000
   32       26.918810     26.918809   0.000000   0.000000
 
  0.3750000E+00  0.3750000E+00  0.1250000E+00  0.3750000E+00
    1        3.908989      3.908988   1.000000   1.000000
    2        5.540120      5.540121   1.000000   1.000000
    3        5.540120      5.540121   1.000000   1.000000
    4        6.052696      6.052694   1.000000   1.000000
    5        6.647460      6.647476   1.000000   1.000000
    6        6.755003      6.755007   1.000000   1.000000
    7        6.755003      6.755007   1.000000   1.000000
    8        7.033238      7.033236   1.000000   1.000000
    9        7.219203      7.219209   1.000000   1.000000
   10        7.219203      7.219209   1.000000   1.000000
   11        7.336949      7.336947   1.000000   1.000000
   12        7.657681      7.657689   1.000000   1.000000
   13        7.994236      7.994245   1.000000   1.000000
   14        8.346004      8.346021   1.000000   1.000000
   15        8.347058      8.347071   1.000000   1.000000
   16        8.347058      8.347071   1.000000   1.000000
   17        8.653026      8.653035   1.000000   1.000000
   18        9.182833      9.182839   1.014251   1.014252
   19        9.182833      9.182839   1.014251   1.014252
   20        9.250405      9.250407   1.029101   1.029101
   21        9.595398      9.595408   0.289432   0.289394
   22       11.118004     11.118009  -0.000000  -0.000000
   23       11.118004     11.118009  -0.000000  -0.000000
   24       13.426752     13.426756  -0.000000  -0.000000
   25       16.965584     16.965582   0.000000   0.000000
   26       19.789610     19.789608   0.000000   0.000000
   27       19.789610     19.789608   0.000000   0.000000
   28       22.794362     22.794361   0.000000   0.000000
   29       22.921327     22.921330   0.000000   0.000000
   30       25.399647     25.399648   0.000000   0.000000
   31       25.399647     25.399648   0.000000   0.000000
   32       28.277737     28.277737   0.000000   0.000000
 
  0.3750000E+00  0.3750000E+00  0.3750000E+00  0.1250000E+00
    1        4.528439      4.528437   1.000000   1.000000
    2        5.286717      5.286715   1.000000   1.000000
    3        5.286717      5.286715   1.000000   1.000000
    4        5.286717      5.286715   1.000000   1.000000
    5        7.255978      7.255993   1.000000   1.000000
    6        7.255978      7.255993   1.000000   1.000000
    7        7.255978      7.255993   1.000000   1.000000
    8        7.662796      7.662806   1.000000   1.000000
    9        7.662796      7.662806   1.000000   1.000000
   10        7.820207      7.820218   1.000000   1.000000
   11        7.820207      7.820218   1.000000   1.000000
   12        7.820207      7.820218   1.000000   1.000000
   13        7.873281      7.873279   1.000000   1.000000
   14        7.906586      7.906584   1.000000   1.000000
   15        7.906586      7.906584   1.000000   1.000000
   16        7.906586      7.906584   1.000000   1.000000
   17        9.290744      9.290753   1.035220   1.035220
   18        9.290744      9.290753   1.035220   1.035220
   19        9.529540      9.529548   0.560074   0.560042
   20        9.529540      9.529548   0.560074   0.560042
   21        9.529540      9.529548   0.560074   0.560042
   22       11.130848     11.130852  -0.000000  -0.000000
   23       11.130848     11.130852  -0.000000  -0.000000
   24       11.130848     11.130852  -0.000000  -0.000000
   25       16.318470     16.318468   0.000000   0.000000
   26       16.318470     16.318468   0.000000   0.000000
   27       16.318470     16.318468   0.000000   0.000000
   28       18.758504     18.758502   0.000000   0.000000
   29       29.311080     29.311084   0.000000   0.000000
   30       29.311080     29.311084   0.000000   0.000000
   31       29.311080     29.311084   0.000000   0.000000
   32       31.689141     31.689139   0.000000   0.000000
