 running on   16 total cores
 distrk:  each k-point on   16 cores,    1 groups
 distr:  one band on    1 cores,   16 groups
 using from now: INCAR     
 vasp.5.4.1 24Jun15 (build Jun 05 2017 10:38:15) complex                        
  
 POSCAR found type information on POSCAR  Ni
 POSCAR found :  1 types and       4 ions
 scaLAPACK will be used

 ----------------------------------------------------------------------------- 
|                                                                             |
|           W    W    AA    RRRRR   N    N  II  N    N   GGGG   !!!           |
|           W    W   A  A   R    R  NN   N  II  NN   N  G    G  !!!           |
|           W    W  A    A  R    R  N N  N  II  N N  N  G       !!!           |
|           W WW W  AAAAAA  RRRRR   N  N N  II  N  N N  G  GGG   !            |
|           WW  WW  A    A  R   R   N   NN  II  N   NN  G    G                |
|           W    W  A    A  R    R  N    N  II  N    N   GGGG   !!!           |
|                                                                             |
|      For optimal performance we recommend to set                            |
|        NCORE= 4 - approx SQRT( number of cores)                             |
|      NCORE specifies how many cores store one orbital (NPAR=cpu/NCORE).     |
|      This setting can  greatly improve the performance of VASP for DFT.     |
|      The default, NPAR=number of cores might be grossly inefficient         |
|      on modern multi-core architectures or massively parallel machines.     |
|      Do your own testing !!!!                                               |
|      Unfortunately you need to use the default for GW and RPA calculations. |
|      (for HF NCORE is supported but not extensively tested yet)             |
|                                                                             |
 ----------------------------------------------------------------------------- 

 LDA part: xc-table for Pade appr. of Perdew
 POSCAR, INCAR and KPOINTS ok, starting setup
 FFT: planning ...
 WAVECAR not read
 initial charge from wavefunction
 entering main loop
       N       E                     dE             d eps       ncg     rms          rms(c)
DAV:   1    -0.881888890505E+03   -0.88189E+03   -0.25648E+04   512   0.219E+03
DAV:   2    -0.102410474370E+04   -0.14222E+03   -0.14143E+03   768   0.297E+02
DAV:   3    -0.102566499794E+04   -0.15603E+01   -0.15425E+01   512   0.305E+01
DAV:   4    -0.102570272182E+04   -0.37724E-01   -0.37703E-01   784   0.434E+00
DAV:   5    -0.102570352126E+04   -0.79944E-03   -0.79943E-03   560   0.546E-01    0.141E+02
DAV:   6    -0.142718711112E+03    0.88298E+03   -0.55494E+02   720   0.166E+02    0.729E+01
DAV:   7    -0.309875221240E+03   -0.16716E+03   -0.36973E+03   624   0.364E+02    0.114E+02
DAV:   8    -0.624480443954E+02    0.24743E+03   -0.22111E+03   512   0.604E+02    0.537E+01
DAV:   9    -0.216218975040E+02    0.40826E+02   -0.28210E+02   640   0.138E+02    0.634E+00
DAV:  10    -0.336834397810E+02   -0.12062E+02   -0.28203E+01   656   0.654E+01    0.263E+01
DAV:  11    -0.227819257464E+02    0.10902E+02   -0.72164E+01   560   0.856E+01    0.886E+00
DAV:  12    -0.219055945485E+02    0.87633E+00   -0.58860E+00   608   0.345E+01    0.484E+00
DAV:  13    -0.217812074533E+02    0.12439E+00   -0.12018E-01   688   0.391E+00    0.347E+00
DAV:  14    -0.217291845010E+02    0.52023E-01   -0.10730E+00   528   0.142E+01    0.236E+00
DAV:  15    -0.217346721385E+02   -0.54876E-02   -0.17223E-02   560   0.801E-01    0.230E+00
DAV:  16    -0.216536105655E+02    0.81062E-01   -0.10134E-01   528   0.445E+00    0.748E-01
DAV:  17    -0.216460298133E+02    0.75808E-02   -0.37409E-02   656   0.252E+00    0.235E-01
DAV:  18    -0.216469064084E+02   -0.87660E-03   -0.15535E-03   656   0.282E-01    0.304E-01
DAV:  19    -0.216459388636E+02    0.96754E-03   -0.64038E-04   640   0.348E-01    0.180E-01
DAV:  20    -0.216454514913E+02    0.48737E-03   -0.16210E-03   576   0.552E-01    0.311E-02
DAV:  21    -0.216454457255E+02    0.57658E-05   -0.33119E-05   592   0.549E-02    0.187E-02
DAV:  22    -0.216454428602E+02    0.28653E-05   -0.24104E-06   640   0.197E-02    0.104E-02
DAV:  23    -0.216454417741E+02    0.10862E-05   -0.10204E-06   368   0.137E-02    0.551E-03
DAV:  24    -0.216454415142E+02    0.25981E-06   -0.27136E-07   288   0.576E-03
   1 F= -.21645442E+02 E0= -.21620181E+02  d E =-.757805E-01  mag=    -0.0000
