LAMMPS (11 Aug 2017)
Reading data file ...
  triclinic box = (0 0 0) to (2.9348 5.0831 33.547) with tilt (0 0 0)
  1 by 1 by 1 MPI processor grid
  reading atoms ...
  28 atoms
28 atoms in group Ni
Neighbor list info ...
  update every 1 steps, delay 0 steps, check yes
  max neighbors/atom: 2000, page size: 100000
  master list distance cutoff = 5.64464
  ghost atom cutoff = 5.64464
  binsize = 2.82232, bins = 2 2 12
  1 neighbor lists, perpetual/occasional/extra = 1 0 0
  (1) pair eam/alloy, perpetual
      attributes: half, newton on
      pair build: half/bin/newton/tri
      stencil: half/bin/3d/newton/tri
      bin: standard
Setting up cg style minimization ...
  Unit style    : metal
  Current step  : 0
WARNING: Energy due to 3 extra global DOFs will be included in minimizer energies
Per MPI rank memory allocation (min/avg/max) = 4.207 | 4.207 | 4.207 Mbytes
Step PotEng Lx Ly Lz Xy Xz Yz Press Pxx Pyy Pzz Pxy Pxz Pyz c_eatoms 
       0   -9.5438272       2.9348       5.0831       33.547            0            0            0    -1.265213   -3.0322498  0.013353764  -0.77674306 -2.9295588e-13 6.220106e-13  -0.52947776   -9.5438272 
     100   -9.5438273    2.9347508    5.0831374    33.546996            0            0            0 3.7873218e-06 9.4644168e-06 -5.412272e-05 5.6020268e-05 -7.0532231e-13 -1.0552066e-12 -9.4165677e-06   -9.5438273 
     101   -9.5438273    2.9347508    5.0831374    33.546996            0            0            0 3.7873218e-06 9.4644168e-06 -5.412272e-05 5.6020268e-05 -7.0532231e-13 -1.0552066e-12 -9.4165677e-06   -9.5438273 
Loop time of 0.00678897 on 1 procs for 101 steps with 28 atoms

100.0% CPU use with 1 MPI tasks x no OpenMP threads

Minimization stats:
  Stopping criterion = linesearch alpha is zero
  Energy initial, next-to-last, final = 
        -9.54382724723     -9.54382728368     -9.54382728368
  Force two-norm initial, final = 0.0010162 8.42172e-08
  Force max component initial, final = 0.000947143 2.57574e-08
  Final line search alpha, max atom move = 0.5 1.28787e-08
  Iterations, force evaluations = 101 199

MPI task timing breakdown:
Section |  min time  |  avg time  |  max time  |%varavg| %total
---------------------------------------------------------------
Pair    | 0.004632   | 0.004632   | 0.004632   |   0.0 | 68.23
Neigh   | 0          | 0          | 0          |   0.0 |  0.00
Comm    | 0.00045919 | 0.00045919 | 0.00045919 |   0.0 |  6.76
Output  | 1.1206e-05 | 1.1206e-05 | 1.1206e-05 |   0.0 |  0.17
Modify  | 0          | 0          | 0          |   0.0 |  0.00
Other   |            | 0.001687   |            |       | 24.84

Nlocal:    28 ave 28 max 28 min
Histogram: 1 0 0 0 0 0 0 0 0 0
Nghost:    509 ave 509 max 509 min
Histogram: 1 0 0 0 0 0 0 0 0 0
Neighs:    604 ave 604 max 604 min
Histogram: 1 0 0 0 0 0 0 0 0 0

Total # of neighbors = 604
Ave neighs/atom = 21.5714
Neighbor list builds = 0
Dangerous builds = 0
Setting up cg style minimization ...
  Unit style    : metal
  Current step  : 101
Per MPI rank memory allocation (min/avg/max) = 4.332 | 4.332 | 4.332 Mbytes
Step PotEng Lx Ly Lz Xy Xz Yz Press Pxx Pyy Pzz Pxy Pxz Pyz c_eatoms 
     101   -9.5438273    2.9347508    5.0831374    33.546996            0            0            0 3.7872937e-06 9.4643717e-06 -5.4122728e-05 5.6020237e-05 -9.8579118e-13 -1.0962219e-12 -9.4165697e-06   -9.5438273 
     104   -9.5438273    2.9347508    5.0831374    33.546996            0            0            0 3.7872722e-06 9.4643788e-06 -5.4122754e-05 5.6020192e-05 1.3745915e-12 2.3703221e-12 -9.4165729e-06   -9.5438273 
Loop time of 0.000171185 on 1 procs for 3 steps with 28 atoms

80.0% CPU use with 1 MPI tasks x no OpenMP threads

Minimization stats:
  Stopping criterion = linesearch alpha is zero
  Energy initial, next-to-last, final = 
        -9.54382728368     -9.54382728368     -9.54382728368
  Force two-norm initial, final = 5.62913e-08 1.41753e-08
  Force max component initial, final = 2.57574e-08 4.64449e-09
  Final line search alpha, max atom move = 0.5 2.32225e-09
  Iterations, force evaluations = 3 5

MPI task timing breakdown:
Section |  min time  |  avg time  |  max time  |%varavg| %total
---------------------------------------------------------------
Pair    | 0.00013614 | 0.00013614 | 0.00013614 |   0.0 | 79.53
Neigh   | 0          | 0          | 0          |   0.0 |  0.00
Comm    | 1.6451e-05 | 1.6451e-05 | 1.6451e-05 |   0.0 |  9.61
Output  | 0          | 0          | 0          |   0.0 |  0.00
Modify  | 9.5367e-07 | 9.5367e-07 | 9.5367e-07 |   0.0 |  0.56
Other   |            | 1.764e-05  |            |       | 10.31

Nlocal:    28 ave 28 max 28 min
Histogram: 1 0 0 0 0 0 0 0 0 0
Nghost:    509 ave 509 max 509 min
Histogram: 1 0 0 0 0 0 0 0 0 0
Neighs:    604 ave 604 max 604 min
Histogram: 1 0 0 0 0 0 0 0 0 0

Total # of neighbors = 604
Ave neighs/atom = 21.5714
Neighbor list builds = 0
Dangerous builds = 0
pypospack:output_section:begin
tot_energy = -9.54382728367947
num_atoms = 28
a11 = 2.9347507741313
a22 = 5.08313744616533
a33 = 33.5469955977425
a12 = 0
a13 = 0
a23 = 0
tot_press = 3.78727215243088e-06
pxx = 9.4643788088106e-06
pyy = -5.41227542132678e-05
pzz = 5.60201918617499e-05
pxy = 1.37459146978348e-12
pxz = 2.3703221199623e-12
pyz = -9.41657289683501e-06
pypospack:output_section:done
pypospack:lammps_sim:done
Total wall time: 0:00:00
