LAMMPS (11 Aug 2017)
include init.mod
# ---- init.mod file
variable up equal 1.0e-6
units metal
dimension 3
boundary p p p
atom_style atomic
atom_modify map array
variable cfac equal 1.0e-4
variable cunits string GPa
# ---- define minimization parameters
variable etol equal 0.0
variable ftol equal 1.0e-10
variable maxiter equal 100
variable maxeval equal 1000
variable dmax equal 1.0e-2
# --- read data structure
read_data lammps.structure
  triclinic box = (0 0 0) to (3.5167 3.5167 3.5167) with tilt (0 -0 0)
  1 by 1 by 1 MPI processor grid
  reading atoms ...
  4 atoms
include potential.mod
mass 1 58.6934

group Ni type 1
4 atoms in group Ni

pair_style eam/alloy
pair_coeff * * /ufrc/phillpot/eragasa/pareto_optimization_3.5NN/rank_52/Ni_fcc.lmps_elastic/Ni.eam.alloy Ni

neighbor 1.0 bin
neigh_modify every 1 delay 0 check yes
thermo	1
thermo_style custom step temp pe press pxx pyy pzz pxy pxz pyz lx ly lz vol
thermo_modify norm no
# ---- Compute initial state
fix 3 all box/relax aniso 0.0
minimize ${etol} ${ftol} ${maxiter} ${maxeval}
minimize 0 ${ftol} ${maxiter} ${maxeval}
minimize 0 1e-10 ${maxiter} ${maxeval}
minimize 0 1e-10 100 ${maxeval}
minimize 0 1e-10 100 1000
Neighbor list info ...
  update every 1 steps, delay 0 steps, check yes
  max neighbors/atom: 2000, page size: 100000
  master list distance cutoff = 5.64464
  ghost atom cutoff = 5.64464
  binsize = 2.82232, bins = 2 2 2
  1 neighbor lists, perpetual/occasional/extra = 1 0 0
  (1) pair eam/alloy, perpetual
      attributes: half, newton on
      pair build: half/bin/newton/tri
      stencil: half/bin/3d/newton/tri
      bin: standard
Per MPI rank memory allocation (min/avg/max) = 4.086 | 4.086 | 4.086 Mbytes
Step Temp PotEng Press Pxx Pyy Pzz Pxy Pxz Pyz Lx Ly Lz Volume 
       0            0   -19.017514   -231979.31   -231979.31   -231979.31   -231979.31 -1.1247275e-11 2.1472071e-11 4.601158e-12       3.5167       3.5167       3.5167    43.491658 
       1            0   -19.019402   -231803.33   -231803.33   -231803.33   -231803.33 1.9944334e-11 3.8865882e-11 3.4263343e-11    3.5163483    3.5163483    3.5163483    43.478612 
       2            0   -19.021289    -231626.9    -231626.9    -231626.9    -231626.9 1.5346399e-11 1.4834853e-11 1.5857946e-11    3.5159967    3.5159967    3.5159967    43.465568 
       3            0   -19.023173   -231450.02   -231450.02   -231450.02   -231450.02 -2.0979707e-11 2.2003107e-11 1.3304204e-11     3.515645     3.515645     3.515645    43.452527 
       4            0   -19.025056   -231272.68   -231272.68   -231272.68   -231272.68 -2.2009711e-11 2.5592688e-12 -7.1659526e-12    3.5152933    3.5152933    3.5152933    43.439489 
       5            0   -19.026937   -231094.88   -231094.88   -231094.88   -231094.88 -7.1681036e-12 1.7408252e-11 1.5872229e-11    3.5149417    3.5149417    3.5149417    43.426453 
       6            0   -19.028816   -230916.62   -230916.62   -230916.62   -230916.62 2.2022928e-11 2.5608056e-11 1.4852672e-11      3.51459      3.51459      3.51459     43.41342 
       7            0   -19.030693   -230737.91   -230737.91   -230737.91   -230737.91 -1.5369447e-11 -1.6906391e-11 -3.1251208e-11    3.5142383    3.5142383    3.5142383    43.400389 
       8            0   -19.032569   -230558.73   -230558.73   -230558.73   -230558.73 -2.3061092e-11 -1.2299249e-11 -1.0249374e-11    3.5138866    3.5138866    3.5138866    43.387362 
       9            0   -19.034443    -230379.1    -230379.1    -230379.1    -230379.1 2.4605885e-11 -1.8454414e-11 -3.2807847e-11     3.513535     3.513535     3.513535    43.374336 
      10            0   -19.036314   -230199.01   -230199.01   -230199.01   -230199.01 2.6664382e-11 3.0766594e-11 1.1281084e-11    3.5131833    3.5131833    3.5131833    43.361313 
      11            0   -19.038184   -230018.45   -230018.45   -230018.45   -230018.45 2.7185321e-11 7.0784421e-11 4.2060308e-11    3.5128316    3.5128316    3.5128316    43.348293 
      12            0   -19.040053   -229837.43   -229837.43   -229837.43   -229837.43 5.6439313e-11 6.3109414e-11 7.3371107e-11      3.51248      3.51248      3.51248    43.335276 
      13            0   -19.041919   -229655.96   -229655.96   -229655.96   -229655.96 4.6191493e-12 1.283097e-11 1.5397164e-12    3.5121283    3.5121283    3.5121283    43.322261 
      14            0   -19.043783   -229474.01   -229474.01   -229474.01   -229474.01 -2.1562506e-11 -1.6428576e-11 -5.1339301e-13    3.5117766    3.5117766    3.5117766    43.309249 
      15            0   -19.045646   -229291.61   -229291.61   -229291.61   -229291.61 -1.9514796e-11 -8.2167564e-12 6.6761146e-12     3.511425     3.511425     3.511425    43.296239 
      16            0   -19.047507   -229108.74   -229108.74   -229108.74   -229108.74 1.2328838e-11 1.1301435e-11 -1.284254e-11    3.5110733    3.5110733    3.5110733    43.283232 
      17            0   -19.049365    -228925.4    -228925.4    -228925.4    -228925.4 -1.798496e-11 1.5929536e-11 2.5692799e-12    3.5107216    3.5107216    3.5107216    43.270227 
      18            0   -19.051222    -228741.6    -228741.6    -228741.6    -228741.6 -3.0840626e-12 1.4392292e-11 1.6448334e-11    3.5103699    3.5103699    3.5103699    43.257226 
      19            0   -19.053078   -228557.33   -228557.33   -228557.33   -228557.33 -1.0797464e-11 -2.3651588e-11 -3.1878227e-11    3.5100183    3.5100183    3.5100183    43.244226 
      20            0   -19.054931    -228372.6    -228372.6    -228372.6    -228372.6 -1.7486864e-11 4.6288757e-12 5.1431953e-12    3.5096666    3.5096666    3.5096666     43.23123 
      21            0   -19.056782    -228187.4    -228187.4    -228187.4    -228187.4 -1.5948699e-11 -2.5723708e-12 -6.1736899e-12    3.5093149    3.5093149    3.5093149    43.218236 
      22            0   -19.058632   -228001.73   -228001.73   -228001.73   -228001.73 -8.7486906e-12 -8.2340618e-12 -5.6609175e-12    3.5089633    3.5089633    3.5089633    43.205244 
      23            0    -19.06048   -227815.59   -227815.59   -227815.59   -227815.59 4.118269e-12 -7.7217543e-12 -1.5443509e-12    3.5086116    3.5086116    3.5086116    43.192255 
      24            0   -19.062325   -227628.98   -227628.98   -227628.98   -227628.98 3.6045691e-12 2.4202107e-11 3.4500876e-11    3.5082599    3.5082599    3.5082599    43.179269 
      25            0   -19.064169    -227441.9    -227441.9    -227441.9    -227441.9 -1.8028266e-11 5.1509333e-13 -1.699808e-11    3.5079083    3.5079083    3.5079083    43.166285 
      26            0   -19.066011   -227254.35   -227254.35   -227254.35   -227254.35 2.5762414e-12 -1.9064186e-11 -9.7897172e-12    3.5075566    3.5075566    3.5075566    43.153304 
      27            0   -19.067851   -227066.32   -227066.32   -227066.32   -227066.32 -1.8554518e-11 8.2464525e-12 -2.5770164e-12    3.5072049    3.5072049    3.5072049    43.140326 
      28            0    -19.06969   -226877.83   -226877.83   -226877.83   -226877.83 -2.8871268e-11 -1.3920075e-11 -1.5466751e-11    3.5068532    3.5068532    3.5068532     43.12735 
      29            0   -19.071526   -226688.86   -226688.86   -226688.86   -226688.86 -3.0942809e-11 -3.0942809e-11 -4.2804219e-11    3.5065016    3.5065016    3.5065016    43.114377 
      30            0    -19.07336   -226499.42   -226499.42   -226499.42   -226499.42 2.0634747e-12 -4.1269494e-12 -1.186498e-11    3.5061499    3.5061499    3.5061499    43.101406 
      31            0   -19.075193    -226309.5    -226309.5    -226309.5    -226309.5 2.9929388e-11 -3.6121676e-12 -2.0124934e-11    3.5057982    3.5057982    3.5057982    43.088438 
      32            0   -19.077023   -226119.11   -226119.11   -226119.11   -226119.11 -1.2904481e-11 -2.116335e-11 -8.7750474e-12    3.5054466    3.5054466    3.5054466    43.075473 
      33            0   -19.078852   -225928.25   -225928.25   -225928.25   -225928.25 -1.8071712e-11 6.1960157e-12 2.0653386e-12    3.5050949    3.5050949    3.5050949     43.06251 
      34            0   -19.080679    -225736.9    -225736.9    -225736.9    -225736.9 6.197881e-12 1.2395762e-11 1.2912252e-11    3.5047432    3.5047432    3.5047432     43.04955 
      35            0   -19.082504   -225545.08   -225545.08   -225545.08   -225545.08 -2.0665824e-12 1.0332912e-11 1.0849557e-11    3.5043916    3.5043916    3.5043916    43.036592 
      36            0   -19.084327   -225352.78   -225352.78   -225352.78   -225352.78 -1.3953631e-11 -7.7520174e-12 -1.343683e-11    3.5040399    3.5040399    3.5040399    43.023637 
      37            0   -19.086148   -225160.01   -225160.01   -225160.01   -225160.01 -1.2406963e-11 -4.1356543e-12 -9.822179e-12    3.5036882    3.5036882    3.5036882    43.010685 
      38            0   -19.087967   -224966.75   -224966.75   -224966.75   -224966.75 -8.7909123e-12 -9.3080247e-12 -2.3270062e-11    3.5033365    3.5033365    3.5033365    42.997735 
      39            0   -19.089784   -224773.02   -224773.02   -224773.02   -224773.02 1.0862633e-11 -2.2759803e-11            0    3.5029849    3.5029849    3.5029849    42.984788 
      40            0   -19.091599    -224578.8    -224578.8    -224578.8    -224578.8 2.0696962e-12 1.7074994e-11 7.7613609e-12    3.5026332    3.5026332    3.5026332    42.971843 
      41            0   -19.093413    -224384.1    -224384.1    -224384.1    -224384.1 2.0703198e-12 5.6933794e-12 -6.7285393e-12    3.5022815    3.5022815    3.5022815    42.958901 
      42            0   -19.095224   -224188.93   -224188.93   -224188.93   -224188.93 -2.01917e-11 -9.8369819e-12 -4.659623e-12    3.5019299    3.5019299    3.5019299    42.945961 
      43            0   -19.097033   -223993.26   -223993.26   -223993.26   -223993.26 3.2627189e-11 3.9877676e-11 5.6450217e-11    3.5015782    3.5015782    3.5015782    42.933025 
      44            0   -19.098841   -223797.12   -223797.12   -223797.12   -223797.12 1.2433151e-11 -1.5541439e-12 -1.7095583e-11    3.5012265    3.5012265    3.5012265     42.92009 
      45            0   -19.100646   -223600.49   -223600.49   -223600.49   -223600.49 9.8458779e-12 7.7730615e-12 8.8094697e-12    3.5008749    3.5008749    3.5008749    42.907159 
      46            0    -19.10245   -223403.38   -223403.38   -223403.38   -223403.38            0 -2.5918015e-12 -2.5918015e-12    3.5005232    3.5005232    3.5005232     42.89423 
      47            0   -19.104252   -223205.78   -223205.78   -223205.78   -223205.78 -2.9036927e-11 -1.3999947e-11 -1.3999947e-11    3.5001715    3.5001715    3.5001715    42.881303 
      48            0   -19.106051    -223007.7    -223007.7    -223007.7    -223007.7 -1.452284e-11 2.0746915e-12 3.1120372e-12    3.4998198    3.4998198    3.4998198    42.868379 
      49            0   -19.107849   -222809.13   -222809.13   -222809.13   -222809.13 1.0376585e-11 2.5422634e-11 3.9431023e-11    3.4994682    3.4994682    3.4994682    42.855458 
      50            0   -19.109645   -222610.07   -222610.07   -222610.07   -222610.07 3.7366971e-11 -5.189857e-13 6.7468141e-12    3.4991165    3.4991165    3.4991165     42.84254 
      51            0   -19.111439   -222410.52   -222410.52   -222410.52   -222410.52 -1.7650835e-11 -1.0382844e-11 -1.5055124e-11    3.4987648    3.4987648    3.4987648    42.829624 
      52            0    -19.11323   -222210.49   -222210.49   -222210.49   -222210.49 5.0891281e-11 2.9080732e-11 2.1810549e-11    3.4984132    3.4984132    3.4984132     42.81671 
      53            0    -19.11502   -222009.96   -222009.96   -222009.96   -222009.96 2.5972771e-12 -5.1945542e-13 3.6361879e-12    3.4980615    3.4980615    3.4980615    42.803799 
      54            0   -19.116808   -221808.95   -221808.95   -221808.95   -221808.95 4.6765091e-12 -7.2745697e-12            0    3.4977098    3.4977098    3.4977098    42.790891 
      55            0   -19.118594   -221607.44   -221607.44   -221607.44   -221607.44 8.3163021e-12 2.7027982e-11 2.7027982e-11    3.4973582    3.4973582    3.4973582    42.777985 
      56            0   -19.120378   -221405.45   -221405.45   -221405.45   -221405.45 -8.3188113e-12 6.7590342e-12 6.7590342e-12    3.4970065    3.4970065    3.4970065    42.765082 
      57            0    -19.12216   -221202.96   -221202.96   -221202.96   -221202.96 -5.7209085e-12 1.7682808e-11 3.016479e-11    3.4966548    3.4966548    3.4966548    42.752182 
      58            0    -19.12394   -220999.97   -220999.97   -220999.97   -220999.97 -2.3931019e-11 -1.9769103e-11 -2.4971498e-11    3.4963031    3.4963031    3.4963031    42.739284 
      59            0   -19.125718    -220796.5    -220796.5    -220796.5    -220796.5 -1.3009914e-11  -3.0183e-11 -3.7468552e-11    3.4959515    3.4959515    3.4959515    42.726389 
      60            0   -19.127494   -220592.53   -220592.53   -220592.53   -220592.53 5.2055363e-12 -1.6137163e-11 -6.2466436e-12    3.4955998    3.4955998    3.4955998    42.713496 
      61            0   -19.129267   -220388.06   -220388.06   -220388.06   -220388.06 -5.7278185e-12 9.8935047e-12 6.7692401e-12    3.4952481    3.4952481    3.4952481    42.700606 
      62            0   -19.131039    -220183.1    -220183.1    -220183.1    -220183.1 -3.1772947e-11 -1.5626039e-12 6.2504157e-12    3.4948965    3.4948965    3.4948965    42.687718 
      63            0   -19.132809   -219977.65   -219977.65   -219977.65   -219977.65 7.8153787e-12 1.3025631e-11 1.1462555e-11    3.4945448    3.4945448    3.4945448    42.674833 
      64            0   -19.134577   -219771.69   -219771.69   -219771.69   -219771.69 4.6906432e-12 -1.5635477e-12 8.3389212e-12    3.4941931    3.4941931    3.4941931    42.661951 
      65            0   -19.136343   -219565.24   -219565.24   -219565.24   -219565.24 -5.2133997e-12 -1.3033499e-11 -2.1896279e-11    3.4938415    3.4938415    3.4938415    42.649071 
      66            0   -19.138107   -219358.29   -219358.29   -219358.29   -219358.29 -6.2579691e-12 -1.616642e-11 -1.7730912e-11    3.4934898    3.4934898    3.4934898    42.636194 
      67            0   -19.139869   -219150.84   -219150.84   -219150.84   -219150.84 7.3031692e-12 -2.6082747e-12 1.5649648e-12    3.4931381    3.4931381    3.4931381     42.62332 
      68            0   -19.141629   -218942.89   -218942.89   -218942.89   -218942.89 2.0872501e-12 6.7835629e-12 1.4088938e-11    3.4927864    3.4927864    3.4927864    42.610448 
      69            0   -19.143386   -218734.44   -218734.44   -218734.44   -218734.44 -9.3954632e-12 2.1400777e-11 1.2005314e-11    3.4924348    3.4924348    3.4924348    42.597578 
      70            0   -19.145142   -218525.49   -218525.49   -218525.49   -218525.49 -1.5663837e-12 5.7434068e-12 -4.1770231e-12    3.4920831    3.4920831    3.4920831    42.584712 
      71            0   -19.146896   -218316.04   -218316.04   -218316.04   -218316.04 -1.566857e-11 -1.4623999e-11 -7.3119993e-12    3.4917314    3.4917314    3.4917314    42.571847 
      72            0   -19.148648   -218106.08   -218106.08   -218106.08   -218106.08 -9.9264265e-12 -2.977928e-11 1.5673305e-12    3.4913798    3.4913798    3.4913798    42.558986 
      73            0   -19.150397   -217895.62   -217895.62   -217895.62   -217895.62 -1.9858853e-11 -7.3164196e-12 2.613007e-12    3.4910281    3.4910281    3.4910281    42.546127 
      74            0   -19.152145   -217684.66   -217684.66   -217684.66   -217684.66 2.0910375e-12 -9.4096686e-12 -1.3591744e-11    3.4906764    3.4906764    3.4906764     42.53327 
      75            0   -19.153891   -217473.19   -217473.19   -217473.19   -217473.19 -2.8237539e-11 -3.1375044e-12 -4.1833392e-12    3.4903248    3.4903248    3.4903248    42.520417 
      76            0   -19.155634   -217261.21   -217261.21   -217261.21   -217261.21 -5.2307549e-13 2.7723001e-11 3.0861454e-11    3.4899731    3.4899731    3.4899731    42.507565 
      77            0   -19.157376   -217048.73   -217048.73   -217048.73   -217048.73 -8.3717383e-12 4.7091028e-12 -1.5697009e-12    3.4896214    3.4896214    3.4896214    42.494717 
      78            0   -19.159115   -216835.75   -216835.75   -216835.75   -216835.75 4.3441525e-11 2.8263161e-11 3.1403512e-11    3.4892697    3.4892697    3.4892697    42.481871 
      79            0   -19.160852   -216622.25   -216622.25   -216622.25   -216622.25 -1.4659404e-11 -1.0994553e-11 -1.5182954e-11    3.4889181    3.4889181    3.4889181    42.469027 
      80            0   -19.162588   -216408.25   -216408.25   -216408.25   -216408.25 5.237085e-13 2.9327676e-11 2.4090591e-11    3.4885664    3.4885664    3.4885664    42.456186 
      81            0   -19.164321   -216193.73   -216193.73   -216193.73   -216193.73 -4.1909353e-12 9.4296043e-12 2.3574011e-11    3.4882147    3.4882147    3.4882147    42.443348 
      82            0   -19.166052   -215978.71   -215978.71   -215978.71   -215978.71 -6.2883046e-12 -2.4105168e-11 -2.724932e-11    3.4878631    3.4878631    3.4878631    42.430512 
      83            0   -19.167781   -215763.18   -215763.18   -215763.18   -215763.18            0 4.1934714e-12 -6.2902071e-12    3.4875114    3.4875114    3.4875114    42.417679 
      84            0   -19.169508   -215547.13   -215547.13   -215547.13   -215547.13 4.1947402e-11 3.6703977e-11 4.6666485e-11    3.4871597    3.4871597    3.4871597    42.404849 
      85            0   -19.171233   -215330.57   -215330.57   -215330.57   -215330.57 1.1014525e-11 -1.4686033e-11 2.622506e-12    3.4868081    3.4868081    3.4868081    42.392021 
      86            0   -19.172956    -215113.5    -215113.5    -215113.5    -215113.5 -1.0493198e-12 1.0493198e-12 -4.1972794e-12    3.4864564    3.4864564    3.4864564    42.379195 
      87            0   -19.174677   -214895.92   -214895.92   -214895.92   -214895.92 -3.1489123e-12 -6.8226434e-12 -1.3645287e-11    3.4861047    3.4861047    3.4861047    42.366373 
      88            0   -19.176395   -214677.82   -214677.82   -214677.82   -214677.82 9.974574e-12 -1.9949148e-11 -1.6274305e-11     3.485753     3.485753     3.485753    42.353553 
      89            0   -19.178112   -214459.21   -214459.21   -214459.21   -214459.21 -2.9932781e-11 -5.1463377e-11 -4.5161739e-11    3.4854014    3.4854014    3.4854014    42.340735 
      90            0   -19.179826   -214240.08   -214240.08   -214240.08   -214240.08 -2.2587706e-11 -9.4553188e-12 -1.3132387e-11    3.4850497    3.4850497    3.4850497     42.32792 
      91            0   -19.181539   -214020.43   -214020.43   -214020.43   -214020.43     5.78e-12 -2.0492727e-11 -1.6814545e-11     3.484698     3.484698     3.484698    42.315108 
      92            0   -19.183249   -213800.27   -213800.27   -213800.27   -213800.27 -4.2049093e-12 -3.6792956e-12 1.1037887e-11    3.4843464    3.4843464    3.4843464    42.302298 
      93            0   -19.184957   -213579.59   -213579.59   -213579.59   -213579.59 -3.6804099e-12 6.3092741e-12 3.6804099e-12    3.4839947    3.4839947    3.4839947    42.289491 
      94            0   -19.186663   -213358.39   -213358.39   -213358.39   -213358.39 -6.311185e-12 -2.3141012e-11 -2.7348468e-11     3.483643     3.483643     3.483643    42.276686 
      95            0   -19.188367   -213136.67   -213136.67   -213136.67   -213136.67 -4.1035129e-11 7.3652795e-12 -3.6826397e-12    3.4832914    3.4832914    3.4832914    42.263884 
      96            0   -19.190069   -212914.44   -212914.44   -212914.44   -212914.44 -1.1577517e-11 -1.6840025e-11 4.2100061e-12    3.4829397    3.4829397    3.4829397    42.251084 
      97            0   -19.191769   -212691.68   -212691.68   -212691.68   -212691.68 1.5792306e-11 7.3697429e-12 4.2112816e-12     3.482588     3.482588     3.482588    42.238287 
      98            0   -19.193466    -212468.4    -212468.4    -212468.4    -212468.4 5.2656971e-12 2.1062788e-12 -5.2656971e-12    3.4822363    3.4822363    3.4822363    42.225493 
      99            0   -19.195162   -212244.59   -212244.59   -212244.59   -212244.59 1.6855337e-11 1.0534585e-12 1.5801878e-12    3.4818847    3.4818847    3.4818847    42.212701 
     100            0   -19.196855   -212020.27   -212020.27   -212020.27   -212020.27 -1.3699111e-11 1.1591556e-11 -2.1075556e-12     3.481533     3.481533     3.481533    42.199912 
Loop time of 0.0610831 on 1 procs for 100 steps with 4 atoms

4.8% CPU use with 1 MPI tasks x no OpenMP threads

Minimization stats:
  Stopping criterion = max iterations
  Energy initial, next-to-last, final = 
        -19.0175138906     -19.1951616335     -19.1968549506
  Force two-norm initial, final = 10.907 9.77021
  Force max component initial, final = 6.29716 5.64083
  Final line search alpha, max atom move = 1.77056e-05 9.98741e-05
  Iterations, force evaluations = 100 100

MPI task timing breakdown:
Section |  min time  |  avg time  |  max time  |%varavg| %total
---------------------------------------------------------------
Pair    | 0.0009861  | 0.0009861  | 0.0009861  |   0.0 |  1.61
Neigh   | 0          | 0          | 0          |   0.0 |  0.00
Comm    | 0.00019956 | 0.00019956 | 0.00019956 |   0.0 |  0.33
Output  | 0.059203   | 0.059203   | 0.059203   |   0.0 | 96.92
Modify  | 0          | 0          | 0          |   0.0 |  0.00
Other   |            | 0.0006945  |            |       |  1.14

Nlocal:    4 ave 4 max 4 min
Histogram: 1 0 0 0 0 0 0 0 0 0
Nghost:    360 ave 360 max 360 min
Histogram: 1 0 0 0 0 0 0 0 0 0
Neighs:    156 ave 156 max 156 min
Histogram: 1 0 0 0 0 0 0 0 0 0

Total # of neighbors = 156
Ave neighs/atom = 39
Neighbor list builds = 0
Dangerous builds = 0

variable tmp equal pxx
variable pxx0 equal ${tmp}
variable pxx0 equal -212020.267426563
variable tmp equal pyy
variable pyy0 equal ${tmp}
variable pyy0 equal -212020.267426563
variable tmp equal pzz
variable pzz0 equal ${tmp}
variable pzz0 equal -212020.267426563
variable tmp equal pyz
variable pyz0 equal ${tmp}
variable pyz0 equal -2.10755561351795e-12
variable tmp equal pxz
variable pxz0 equal ${tmp}
variable pxz0 equal 1.15915558743487e-11
variable tmp equal pxy
variable pxy0 equal ${tmp}
variable pxy0 equal -1.36991114878667e-11

variable tmp equal lx
variable lx0 equal ${tmp}
variable lx0 equal 3.48153300000002
variable tmp equal ly
variable ly0 equal ${tmp}
variable ly0 equal 3.48153300000002
variable tmp equal lz
variable lz0 equal ${tmp}
variable lz0 equal 3.48153300000002

 # ---- define the derivatives w.r.t. strain components
variable d1 equal -(v_pxx1-${pxx0})/(v_delta/v_len0)*${cfac}
variable d1 equal -(v_pxx1--212020.267426563)/(v_delta/v_len0)*${cfac}
variable d1 equal -(v_pxx1--212020.267426563)/(v_delta/v_len0)*0.0001
variable d2 equal -(v_pyy1-${pyy0})/(v_delta/v_len0)*${cfac}
variable d2 equal -(v_pyy1--212020.267426563)/(v_delta/v_len0)*${cfac}
variable d2 equal -(v_pyy1--212020.267426563)/(v_delta/v_len0)*0.0001
variable d3 equal -(v_pzz1-${pzz0})/(v_delta/v_len0)*${cfac}
variable d3 equal -(v_pzz1--212020.267426563)/(v_delta/v_len0)*${cfac}
variable d3 equal -(v_pzz1--212020.267426563)/(v_delta/v_len0)*0.0001
variable d4 equal -(v_pyz1-${pyz0})/(v_delta/v_len0)*${cfac}
variable d4 equal -(v_pyz1--2.10755561351795e-12)/(v_delta/v_len0)*${cfac}
variable d4 equal -(v_pyz1--2.10755561351795e-12)/(v_delta/v_len0)*0.0001
variable d5 equal -(v_pxz1-${pxz0})/(v_delta/v_len0)*${cfac}
variable d5 equal -(v_pxz1-1.15915558743487e-11)/(v_delta/v_len0)*${cfac}
variable d5 equal -(v_pxz1-1.15915558743487e-11)/(v_delta/v_len0)*0.0001
variable d6 equal -(v_pxy1-${pxy0})/(v_delta/v_len0)*${cfac}
variable d6 equal -(v_pxy1--1.36991114878667e-11)/(v_delta/v_len0)*${cfac}
variable d6 equal -(v_pxy1--1.36991114878667e-11)/(v_delta/v_len0)*0.0001

# ---- write restart files
unfix 3
write_restart restart.equil
# ---- uxx Perturbation
variable dir equal 1
include displace.mod
# NOTE: This script should not need to be
# modified. See in.elastic for more info.
# Find which reference length to use

if "${dir} == 1" then    "variable len0 equal ${lx0}"
variable len0 equal ${lx0}
variable len0 equal 3.48153300000002
if "${dir} == 2" then    "variable len0 equal ${ly0}"
if "${dir} == 3" then    "variable len0 equal ${lz0}"
if "${dir} == 4" then    "variable len0 equal ${lz0}"
if "${dir} == 5" then    "variable len0 equal ${lz0}"
if "${dir} == 6" then    "variable len0 equal ${ly0}"

# Reset box and simulation parameters

clear
read_restart restart.equil remap
  triclinic box = (0.0175835 0.0175835 0.0175835) to (3.49912 3.49912 3.49912) with tilt (0 -0 0)
  1 by 1 by 1 MPI processor grid
  4 atoms
include potential.mod
mass 1 58.6934

group Ni type 1
4 atoms in group Ni

pair_style eam/alloy
pair_coeff * * /ufrc/phillpot/eragasa/pareto_optimization_3.5NN/rank_52/Ni_fcc.lmps_elastic/Ni.eam.alloy Ni

neighbor 1.0 bin
neigh_modify every 1 delay 0 check yes
thermo	1
thermo_style custom step temp pe press pxx pyy pzz pxy pxz pyz lx ly lz vol
thermo_modify norm no

# Negative deformation

variable delta equal -${up}*${len0}
variable delta equal -1e-06*${len0}
variable delta equal -1e-06*3.48153300000002
if "${dir} == 1" then    "change_box all x delta 0 ${delta} remap units box"
change_box all x delta 0 ${delta} remap units box
change_box all x delta 0 -3.48153300000002e-06 remap units box
  triclinic box = (0.0175835 0.0175835 0.0175835) to (3.49911 3.49912 3.49912) with tilt (0 -0 0)
if "${dir} == 2" then    "change_box all y delta 0 ${delta} remap units box"
if "${dir} == 3" then    "change_box all z delta 0 ${delta} remap units box"
if "${dir} == 4" then    "change_box all yz delta ${delta} remap units box"
if "${dir} == 5" then    "change_box all xz delta ${delta} remap units box"
if "${dir} == 6" then    "change_box all xy delta ${delta} remap units box"

# Relax atoms positions

minimize ${etol} ${ftol} ${maxiter} ${maxeval}
minimize 0 ${ftol} ${maxiter} ${maxeval}
minimize 0 1e-10 ${maxiter} ${maxeval}
minimize 0 1e-10 100 ${maxeval}
minimize 0 1e-10 100 1000
Neighbor list info ...
  update every 1 steps, delay 0 steps, check yes
  max neighbors/atom: 2000, page size: 100000
  master list distance cutoff = 5.64464
  ghost atom cutoff = 5.64464
  binsize = 2.82232, bins = 2 2 2
  1 neighbor lists, perpetual/occasional/extra = 1 0 0
  (1) pair eam/alloy, perpetual
      attributes: half, newton on
      pair build: half/bin/newton/tri
      stencil: half/bin/3d/newton/tri
      bin: standard
Per MPI rank memory allocation (min/avg/max) = 4.086 | 4.086 | 4.086 Mbytes
Step Temp PotEng Press Pxx Pyy Pzz Pxy Pxz Pyz Lx Ly Lz Volume 
     100            0   -19.196861   -212019.53    -212019.3   -212019.64   -212019.64 -1.5806683e-12 -2.1075577e-12 -1.0010899e-11    3.4815295     3.481533     3.481533     42.19987 
     101            0   -19.196861   -212019.53   -212019.31   -212019.64   -212019.64 1.4752904e-11 -1.6333572e-11 -4.7420049e-12    3.4815295     3.481533     3.481533     42.19987 
     102            0   -19.196861   -212019.53   -212019.31   -212019.64   -212019.64 -8.4302309e-12 1.5806683e-11 -2.8978919e-11    3.4815295     3.481533     3.481533     42.19987 
Loop time of 9.08375e-05 on 1 procs for 2 steps with 4 atoms

91.4% CPU use with 1 MPI tasks x no OpenMP threads

Minimization stats:
  Stopping criterion = force tolerance
  Energy initial, next-to-last, final = 
         -19.196860535     -19.1968605757     -19.1968605757
  Force two-norm initial, final = 0.000967811 2.1477e-16
  Force max component initial, final = 0.000279383 1.38778e-16
  Final line search alpha, max atom move = 1 1.38778e-16
  Iterations, force evaluations = 2 4

MPI task timing breakdown:
Section |  min time  |  avg time  |  max time  |%varavg| %total
---------------------------------------------------------------
Pair    | 5.2691e-05 | 5.2691e-05 | 5.2691e-05 |   0.0 | 58.01
Neigh   | 0          | 0          | 0          |   0.0 |  0.00
Comm    | 1.0252e-05 | 1.0252e-05 | 1.0252e-05 |   0.0 | 11.29
Output  | 1.0014e-05 | 1.0014e-05 | 1.0014e-05 |   0.0 | 11.02
Modify  | 0          | 0          | 0          |   0.0 |  0.00
Other   |            | 1.788e-05  |            |       | 19.69

Nlocal:    4 ave 4 max 4 min
Histogram: 1 0 0 0 0 0 0 0 0 0
Nghost:    360 ave 360 max 360 min
Histogram: 1 0 0 0 0 0 0 0 0 0
Neighs:    156 ave 156 max 156 min
Histogram: 1 0 0 0 0 0 0 0 0 0

Total # of neighbors = 156
Ave neighs/atom = 39
Neighbor list builds = 0
Dangerous builds = 0

# Obtain new stress tensor

variable tmp equal pxx
variable pxx1 equal ${tmp}
variable pxx1 equal -212019.309275518
variable tmp equal pyy
variable pyy1 equal ${tmp}
variable pyy1 equal -212019.644138132
variable tmp equal pzz
variable pzz1 equal ${tmp}
variable pzz1 equal -212019.644138132
variable tmp equal pxy
variable pxy1 equal ${tmp}
variable pxy1 equal -8.43023088430267e-12
variable tmp equal pxz
variable pxz1 equal ${tmp}
variable pxz1 equal 1.58066829080675e-11
variable tmp equal pyz
variable pyz1 equal ${tmp}
variable pyz1 equal -2.89789186647904e-11

# Compute elastic constant from pressure tensor

variable C1neg equal ${d1}
variable C1neg equal 95.8151044993429
variable C2neg equal ${d2}
variable C2neg equal 62.3288431001129
variable C3neg equal ${d3}
variable C3neg equal 62.3288431001129
variable C4neg equal ${d4}
variable C4neg equal -2.68713630512725e-09
variable C5neg equal ${d5}
variable C5neg equal 4.2151270337188e-10
variable C6neg equal ${d6}
variable C6neg equal 5.26888060356403e-10

# Reset box and simulation parameters

clear
read_restart restart.equil remap
  triclinic box = (0.0175835 0.0175835 0.0175835) to (3.49912 3.49912 3.49912) with tilt (0 -0 0)
  1 by 1 by 1 MPI processor grid
  4 atoms
include potential.mod
mass 1 58.6934

group Ni type 1
4 atoms in group Ni

pair_style eam/alloy
pair_coeff * * /ufrc/phillpot/eragasa/pareto_optimization_3.5NN/rank_52/Ni_fcc.lmps_elastic/Ni.eam.alloy Ni

neighbor 1.0 bin
neigh_modify every 1 delay 0 check yes
thermo	1
thermo_style custom step temp pe press pxx pyy pzz pxy pxz pyz lx ly lz vol
thermo_modify norm no

# Positive deformation

variable delta equal ${up}*${len0}
variable delta equal 1e-06*${len0}
variable delta equal 1e-06*3.48153300000002
if "${dir} == 1" then    "change_box all x delta 0 ${delta} remap units box"
change_box all x delta 0 ${delta} remap units box
change_box all x delta 0 3.48153300000002e-06 remap units box
  triclinic box = (0.0175835 0.0175835 0.0175835) to (3.49912 3.49912 3.49912) with tilt (0 -0 0)
if "${dir} == 2" then    "change_box all y delta 0 ${delta} remap units box"
if "${dir} == 3" then    "change_box all z delta 0 ${delta} remap units box"
if "${dir} == 4" then    "change_box all yz delta ${delta} remap units box"
if "${dir} == 5" then    "change_box all xz delta ${delta} remap units box"
if "${dir} == 6" then    "change_box all xy delta ${delta} remap units box"

# Relax atoms positions

minimize ${etol} ${ftol} ${maxiter} ${maxeval}
minimize 0 ${ftol} ${maxiter} ${maxeval}
minimize 0 1e-10 ${maxiter} ${maxeval}
minimize 0 1e-10 100 ${maxeval}
minimize 0 1e-10 100 1000
Neighbor list info ...
  update every 1 steps, delay 0 steps, check yes
  max neighbors/atom: 2000, page size: 100000
  master list distance cutoff = 5.64464
  ghost atom cutoff = 5.64464
  binsize = 2.82232, bins = 2 2 2
  1 neighbor lists, perpetual/occasional/extra = 1 0 0
  (1) pair eam/alloy, perpetual
      attributes: half, newton on
      pair build: half/bin/newton/tri
      stencil: half/bin/3d/newton/tri
      bin: standard
Per MPI rank memory allocation (min/avg/max) = 4.086 | 4.086 | 4.086 Mbytes
Step Temp PotEng Press Pxx Pyy Pzz Pxy Pxz Pyz Lx Ly Lz Volume 
     100            0   -19.196849   -212021.01   -212021.23    -212020.9    -212020.9 4.215107e-11 -2.9505749e-11 -2.3709977e-11    3.4815365     3.481533     3.481533    42.199954 
     101            0   -19.196849   -212021.01   -212021.24    -212020.9    -212020.9 6.3226605e-11 4.8473731e-11 2.6871307e-11    3.4815365     3.481533     3.481533    42.199954 
     102            0   -19.196849   -212021.01   -212021.24    -212020.9    -212020.9 2.1075535e-12 -2.7925084e-11 -2.9505749e-11    3.4815365     3.481533     3.481533    42.199954 
Loop time of 9.10759e-05 on 1 procs for 2 steps with 4 atoms

93.3% CPU use with 1 MPI tasks x no OpenMP threads

Minimization stats:
  Stopping criterion = force tolerance
  Energy initial, next-to-last, final = 
        -19.1968493661     -19.1968494069     -19.1968494069
  Force two-norm initial, final = 0.000967803 2.70563e-15
  Force max component initial, final = 0.000279381 1.68962e-15
  Final line search alpha, max atom move = 1 1.68962e-15
  Iterations, force evaluations = 2 4

MPI task timing breakdown:
Section |  min time  |  avg time  |  max time  |%varavg| %total
---------------------------------------------------------------
Pair    | 5.3883e-05 | 5.3883e-05 | 5.3883e-05 |   0.0 | 59.16
Neigh   | 0          | 0          | 0          |   0.0 |  0.00
Comm    | 1.2636e-05 | 1.2636e-05 | 1.2636e-05 |   0.0 | 13.87
Output  | 9.7752e-06 | 9.7752e-06 | 9.7752e-06 |   0.0 | 10.73
Modify  | 0          | 0          | 0          |   0.0 |  0.00
Other   |            | 1.478e-05  |            |       | 16.23

Nlocal:    4 ave 4 max 4 min
Histogram: 1 0 0 0 0 0 0 0 0 0
Nghost:    360 ave 360 max 360 min
Histogram: 1 0 0 0 0 0 0 0 0 0
Neighs:    156 ave 156 max 156 min
Histogram: 1 0 0 0 0 0 0 0 0 0

Total # of neighbors = 156
Ave neighs/atom = 39
Neighbor list builds = 0
Dangerous builds = 0

# Obtain new stress tensor

variable tmp equal pe
variable e1 equal ${tmp}
variable e1 equal -19.1968494068764
variable tmp equal press
variable p1 equal ${tmp}
variable p1 equal -212021.014797704
variable tmp equal pxx
variable pxx1 equal ${tmp}
variable pxx1 equal -212021.238038883
variable tmp equal pyy
variable pyy1 equal ${tmp}
variable pyy1 equal -212020.903177115
variable tmp equal pzz
variable pzz1 equal ${tmp}
variable pzz1 equal -212020.903177115
variable tmp equal pxy
variable pxy1 equal ${tmp}
variable pxy1 equal 2.10755350596444e-12
variable tmp equal pxz
variable pxz1 equal ${tmp}
variable pxz1 equal -2.79250839540288e-11
variable tmp equal pyz
variable pyz1 equal ${tmp}
variable pyz1 equal -2.95057490835022e-11

# Compute elastic constant from pressure tensor

variable C1pos equal ${d1}
variable C1pos equal 97.0612320001237
variable C2pos equal ${d2}
variable C2pos equal 63.5750551999081
variable C3pos equal ${d3}
variable C3pos equal 63.5750551999081
variable C4pos equal ${d4}
variable C4pos equal 2.73981934699843e-09
variable C5pos equal ${d5}
variable C5pos equal 3.95166398283775e-09
variable C6pos equal ${d6}
variable C6pos equal -1.58066649938311e-09

# Combine positive and negative

variable C1${dir} equal 0.5*(${C1neg}+${C1pos})
variable C11 equal 0.5*(${C1neg}+${C1pos})
variable C11 equal 0.5*(95.8151044993429+${C1pos})
variable C11 equal 0.5*(95.8151044993429+97.0612320001237)
variable C2${dir} equal 0.5*(${C2neg}+${C2pos})
variable C21 equal 0.5*(${C2neg}+${C2pos})
variable C21 equal 0.5*(62.3288431001129+${C2pos})
variable C21 equal 0.5*(62.3288431001129+63.5750551999081)
variable C3${dir} equal 0.5*(${C3neg}+${C3pos})
variable C31 equal 0.5*(${C3neg}+${C3pos})
variable C31 equal 0.5*(62.3288431001129+${C3pos})
variable C31 equal 0.5*(62.3288431001129+63.5750551999081)
variable C4${dir} equal 0.5*(${C4neg}+${C4pos})
variable C41 equal 0.5*(${C4neg}+${C4pos})
variable C41 equal 0.5*(-2.68713630512725e-09+${C4pos})
variable C41 equal 0.5*(-2.68713630512725e-09+2.73981934699843e-09)
variable C5${dir} equal 0.5*(${C5neg}+${C5pos})
variable C51 equal 0.5*(${C5neg}+${C5pos})
variable C51 equal 0.5*(4.2151270337188e-10+${C5pos})
variable C51 equal 0.5*(4.2151270337188e-10+3.95166398283775e-09)
variable C6${dir} equal 0.5*(${C6neg}+${C6pos})
variable C61 equal 0.5*(${C6neg}+${C6pos})
variable C61 equal 0.5*(5.26888060356403e-10+${C6pos})
variable C61 equal 0.5*(5.26888060356403e-10+-1.58066649938311e-09)

# Delete dir to make sure it is not reused

variable dir delete
# ---- uyy Perturbation
variable dir equal 2
include displace.mod
# NOTE: This script should not need to be
# modified. See in.elastic for more info.
# Find which reference length to use

if "${dir} == 1" then    "variable len0 equal ${lx0}"
if "${dir} == 2" then    "variable len0 equal ${ly0}"
variable len0 equal ${ly0}
variable len0 equal 3.48153300000002
if "${dir} == 3" then    "variable len0 equal ${lz0}"
if "${dir} == 4" then    "variable len0 equal ${lz0}"
if "${dir} == 5" then    "variable len0 equal ${lz0}"
if "${dir} == 6" then    "variable len0 equal ${ly0}"

# Reset box and simulation parameters

clear
read_restart restart.equil remap
  triclinic box = (0.0175835 0.0175835 0.0175835) to (3.49912 3.49912 3.49912) with tilt (0 -0 0)
  1 by 1 by 1 MPI processor grid
  4 atoms
include potential.mod
mass 1 58.6934

group Ni type 1
4 atoms in group Ni

pair_style eam/alloy
pair_coeff * * /ufrc/phillpot/eragasa/pareto_optimization_3.5NN/rank_52/Ni_fcc.lmps_elastic/Ni.eam.alloy Ni

neighbor 1.0 bin
neigh_modify every 1 delay 0 check yes
thermo	1
thermo_style custom step temp pe press pxx pyy pzz pxy pxz pyz lx ly lz vol
thermo_modify norm no

# Negative deformation

variable delta equal -${up}*${len0}
variable delta equal -1e-06*${len0}
variable delta equal -1e-06*3.48153300000002
if "${dir} == 1" then    "change_box all x delta 0 ${delta} remap units box"
if "${dir} == 2" then    "change_box all y delta 0 ${delta} remap units box"
change_box all y delta 0 ${delta} remap units box
change_box all y delta 0 -3.48153300000002e-06 remap units box
  triclinic box = (0.0175835 0.0175835 0.0175835) to (3.49912 3.49911 3.49912) with tilt (0 -0 0)
if "${dir} == 3" then    "change_box all z delta 0 ${delta} remap units box"
if "${dir} == 4" then    "change_box all yz delta ${delta} remap units box"
if "${dir} == 5" then    "change_box all xz delta ${delta} remap units box"
if "${dir} == 6" then    "change_box all xy delta ${delta} remap units box"

# Relax atoms positions

minimize ${etol} ${ftol} ${maxiter} ${maxeval}
minimize 0 ${ftol} ${maxiter} ${maxeval}
minimize 0 1e-10 ${maxiter} ${maxeval}
minimize 0 1e-10 100 ${maxeval}
minimize 0 1e-10 100 1000
Neighbor list info ...
  update every 1 steps, delay 0 steps, check yes
  max neighbors/atom: 2000, page size: 100000
  master list distance cutoff = 5.64464
  ghost atom cutoff = 5.64464
  binsize = 2.82232, bins = 2 2 2
  1 neighbor lists, perpetual/occasional/extra = 1 0 0
  (1) pair eam/alloy, perpetual
      attributes: half, newton on
      pair build: half/bin/newton/tri
      stencil: half/bin/3d/newton/tri
      bin: standard
Per MPI rank memory allocation (min/avg/max) = 4.086 | 4.086 | 4.086 Mbytes
Step Temp PotEng Press Pxx Pyy Pzz Pxy Pxz Pyz Lx Ly Lz Volume 
     100            0   -19.196861   -212019.53   -212019.64    -212019.3   -212019.64 3.1613366e-11 5.2688943e-12 -2.1075577e-12     3.481533    3.4815295     3.481533     42.19987 
     101            0   -19.196861   -212019.53   -212019.64   -212019.31   -212019.64 2.792514e-11 -7.9033415e-12 -2.5290693e-11     3.481533    3.4815295     3.481533     42.19987 
     102            0   -19.196861   -212019.53   -212019.64   -212019.31   -212019.64 6.8495626e-12 -2.8978919e-11 1.3172236e-11     3.481533    3.4815295     3.481533     42.19987 
Loop time of 8.51154e-05 on 1 procs for 2 steps with 4 atoms

101.0% CPU use with 1 MPI tasks x no OpenMP threads

Minimization stats:
  Stopping criterion = force tolerance
  Energy initial, next-to-last, final = 
         -19.196860535     -19.1968605757     -19.1968605757
  Force two-norm initial, final = 0.000967811 2.72788e-16
  Force max component initial, final = 0.000279383 1.66533e-16
  Final line search alpha, max atom move = 1 1.66533e-16
  Iterations, force evaluations = 2 4

MPI task timing breakdown:
Section |  min time  |  avg time  |  max time  |%varavg| %total
---------------------------------------------------------------
Pair    | 5.1022e-05 | 5.1022e-05 | 5.1022e-05 |   0.0 | 59.94
Neigh   | 0          | 0          | 0          |   0.0 |  0.00
Comm    | 1.0252e-05 | 1.0252e-05 | 1.0252e-05 |   0.0 | 12.04
Output  | 9.0599e-06 | 9.0599e-06 | 9.0599e-06 |   0.0 | 10.64
Modify  | 0          | 0          | 0          |   0.0 |  0.00
Other   |            | 1.478e-05  |            |       | 17.37

Nlocal:    4 ave 4 max 4 min
Histogram: 1 0 0 0 0 0 0 0 0 0
Nghost:    360 ave 360 max 360 min
Histogram: 1 0 0 0 0 0 0 0 0 0
Neighs:    156 ave 156 max 156 min
Histogram: 1 0 0 0 0 0 0 0 0 0

Total # of neighbors = 156
Ave neighs/atom = 39
Neighbor list builds = 0
Dangerous builds = 0

# Obtain new stress tensor

variable tmp equal pxx
variable pxx1 equal ${tmp}
variable pxx1 equal -212019.644138132
variable tmp equal pyy
variable pyy1 equal ${tmp}
variable pyy1 equal -212019.309275518
variable tmp equal pzz
variable pzz1 equal ${tmp}
variable pzz1 equal -212019.644138132
variable tmp equal pxy
variable pxy1 equal ${tmp}
variable pxy1 equal 6.84956259349592e-12
variable tmp equal pxz
variable pxz1 equal ${tmp}
variable pxz1 equal -2.89789186647904e-11
variable tmp equal pyz
variable pyz1 equal ${tmp}
variable pyz1 equal 1.31722357567229e-11

# Compute elastic constant from pressure tensor

variable C1neg equal ${d1}
variable C1neg equal 62.3288431001129
variable C2neg equal ${d2}
variable C2neg equal 95.8151044993429
variable C3neg equal ${d3}
variable C3neg equal 62.3288431001129
variable C4neg equal ${d4}
variable C4neg equal 1.52797913702409e-09
variable C5neg equal ${d5}
variable C5neg equal -4.05704745391391e-09
variable C6neg equal ${d6}
variable C6neg equal 2.05486740813626e-09

# Reset box and simulation parameters

clear
read_restart restart.equil remap
  triclinic box = (0.0175835 0.0175835 0.0175835) to (3.49912 3.49912 3.49912) with tilt (0 -0 0)
  1 by 1 by 1 MPI processor grid
  4 atoms
include potential.mod
mass 1 58.6934

group Ni type 1
4 atoms in group Ni

pair_style eam/alloy
pair_coeff * * /ufrc/phillpot/eragasa/pareto_optimization_3.5NN/rank_52/Ni_fcc.lmps_elastic/Ni.eam.alloy Ni

neighbor 1.0 bin
neigh_modify every 1 delay 0 check yes
thermo	1
thermo_style custom step temp pe press pxx pyy pzz pxy pxz pyz lx ly lz vol
thermo_modify norm no

# Positive deformation

variable delta equal ${up}*${len0}
variable delta equal 1e-06*${len0}
variable delta equal 1e-06*3.48153300000002
if "${dir} == 1" then    "change_box all x delta 0 ${delta} remap units box"
if "${dir} == 2" then    "change_box all y delta 0 ${delta} remap units box"
change_box all y delta 0 ${delta} remap units box
change_box all y delta 0 3.48153300000002e-06 remap units box
  triclinic box = (0.0175835 0.0175835 0.0175835) to (3.49912 3.49912 3.49912) with tilt (0 -0 0)
if "${dir} == 3" then    "change_box all z delta 0 ${delta} remap units box"
if "${dir} == 4" then    "change_box all yz delta ${delta} remap units box"
if "${dir} == 5" then    "change_box all xz delta ${delta} remap units box"
if "${dir} == 6" then    "change_box all xy delta ${delta} remap units box"

# Relax atoms positions

minimize ${etol} ${ftol} ${maxiter} ${maxeval}
minimize 0 ${ftol} ${maxiter} ${maxeval}
minimize 0 1e-10 ${maxiter} ${maxeval}
minimize 0 1e-10 100 ${maxeval}
minimize 0 1e-10 100 1000
Neighbor list info ...
  update every 1 steps, delay 0 steps, check yes
  max neighbors/atom: 2000, page size: 100000
  master list distance cutoff = 5.64464
  ghost atom cutoff = 5.64464
  binsize = 2.82232, bins = 2 2 2
  1 neighbor lists, perpetual/occasional/extra = 1 0 0
  (1) pair eam/alloy, perpetual
      attributes: half, newton on
      pair build: half/bin/newton/tri
      stencil: half/bin/3d/newton/tri
      bin: standard
Per MPI rank memory allocation (min/avg/max) = 4.086 | 4.086 | 4.086 Mbytes
Step Temp PotEng Press Pxx Pyy Pzz Pxy Pxz Pyz Lx Ly Lz Volume 
     100            0   -19.196849   -212021.01    -212020.9   -212021.23    -212020.9 5.3215726e-11 -2.0021758e-11 -3.1613303e-11     3.481533    3.4815365     3.481533    42.199954 
     101            0   -19.196849   -212021.01    -212020.9   -212021.24    -212020.9 3.4774633e-11 4.5839289e-11 4.3204847e-11     3.481533    3.4815365     3.481533    42.199954 
     102            0   -19.196849   -212021.01    -212020.9   -212021.24    -212020.9 3.6882186e-12 -2.7398196e-11 -2.6871307e-11     3.481533    3.4815365     3.481533    42.199954 
Loop time of 8.70228e-05 on 1 procs for 2 steps with 4 atoms

101.1% CPU use with 1 MPI tasks x no OpenMP threads

Minimization stats:
  Stopping criterion = force tolerance
  Energy initial, next-to-last, final = 
        -19.1968493661     -19.1968494069     -19.1968494069
  Force two-norm initial, final = 0.000967803 1.9562e-15
  Force max component initial, final = 0.000279381 1.41553e-15
  Final line search alpha, max atom move = 1 1.41553e-15
  Iterations, force evaluations = 2 4

MPI task timing breakdown:
Section |  min time  |  avg time  |  max time  |%varavg| %total
---------------------------------------------------------------
Pair    | 5.1975e-05 | 5.1975e-05 | 5.1975e-05 |   0.0 | 59.73
Neigh   | 0          | 0          | 0          |   0.0 |  0.00
Comm    | 9.5367e-06 | 9.5367e-06 | 9.5367e-06 |   0.0 | 10.96
Output  | 1.0014e-05 | 1.0014e-05 | 1.0014e-05 |   0.0 | 11.51
Modify  | 0          | 0          | 0          |   0.0 |  0.00
Other   |            | 1.55e-05   |            |       | 17.81

Nlocal:    4 ave 4 max 4 min
Histogram: 1 0 0 0 0 0 0 0 0 0
Nghost:    360 ave 360 max 360 min
Histogram: 1 0 0 0 0 0 0 0 0 0
Neighs:    156 ave 156 max 156 min
Histogram: 1 0 0 0 0 0 0 0 0 0

Total # of neighbors = 156
Ave neighs/atom = 39
Neighbor list builds = 0
Dangerous builds = 0

# Obtain new stress tensor

variable tmp equal pe
variable e1 equal ${tmp}
variable e1 equal -19.1968494068764
variable tmp equal press
variable p1 equal ${tmp}
variable p1 equal -212021.014797704
variable tmp equal pxx
variable pxx1 equal ${tmp}
variable pxx1 equal -212020.903177115
variable tmp equal pyy
variable pyy1 equal ${tmp}
variable pyy1 equal -212021.238038883
variable tmp equal pzz
variable pzz1 equal ${tmp}
variable pzz1 equal -212020.903177115
variable tmp equal pxy
variable pxy1 equal ${tmp}
variable pxy1 equal 3.68821863543777e-12
variable tmp equal pxz
variable pxz1 equal ${tmp}
variable pxz1 equal -2.73981955775377e-11
variable tmp equal pyz
variable pyz1 equal ${tmp}
variable pyz1 equal -2.68713072010466e-11

# Compute elastic constant from pressure tensor

variable C1pos equal ${d1}
variable C1pos equal 63.5750551999081
variable C2pos equal ${d2}
variable C2pos equal 97.0612320001237
variable C3pos equal ${d3}
variable C3pos equal 63.5750551999081
variable C4pos equal ${d4}
variable C4pos equal 2.47637515875287e-09
variable C5pos equal ${d5}
variable C5pos equal 3.89897514518864e-09
variable C6pos equal ${d6}
variable C6pos equal -1.73873301233045e-09

# Combine positive and negative

variable C1${dir} equal 0.5*(${C1neg}+${C1pos})
variable C12 equal 0.5*(${C1neg}+${C1pos})
variable C12 equal 0.5*(62.3288431001129+${C1pos})
variable C12 equal 0.5*(62.3288431001129+63.5750551999081)
variable C2${dir} equal 0.5*(${C2neg}+${C2pos})
variable C22 equal 0.5*(${C2neg}+${C2pos})
variable C22 equal 0.5*(95.8151044993429+${C2pos})
variable C22 equal 0.5*(95.8151044993429+97.0612320001237)
variable C3${dir} equal 0.5*(${C3neg}+${C3pos})
variable C32 equal 0.5*(${C3neg}+${C3pos})
variable C32 equal 0.5*(62.3288431001129+${C3pos})
variable C32 equal 0.5*(62.3288431001129+63.5750551999081)
variable C4${dir} equal 0.5*(${C4neg}+${C4pos})
variable C42 equal 0.5*(${C4neg}+${C4pos})
variable C42 equal 0.5*(1.52797913702409e-09+${C4pos})
variable C42 equal 0.5*(1.52797913702409e-09+2.47637515875287e-09)
variable C5${dir} equal 0.5*(${C5neg}+${C5pos})
variable C52 equal 0.5*(${C5neg}+${C5pos})
variable C52 equal 0.5*(-4.05704745391391e-09+${C5pos})
variable C52 equal 0.5*(-4.05704745391391e-09+3.89897514518864e-09)
variable C6${dir} equal 0.5*(${C6neg}+${C6pos})
variable C62 equal 0.5*(${C6neg}+${C6pos})
variable C62 equal 0.5*(2.05486740813626e-09+${C6pos})
variable C62 equal 0.5*(2.05486740813626e-09+-1.73873301233045e-09)

# Delete dir to make sure it is not reused

variable dir delete
# ---- uzz Perturbation
variable dir equal 3
include displace.mod
# NOTE: This script should not need to be
# modified. See in.elastic for more info.
# Find which reference length to use

if "${dir} == 1" then    "variable len0 equal ${lx0}"
if "${dir} == 2" then    "variable len0 equal ${ly0}"
if "${dir} == 3" then    "variable len0 equal ${lz0}"
variable len0 equal ${lz0}
variable len0 equal 3.48153300000002
if "${dir} == 4" then    "variable len0 equal ${lz0}"
if "${dir} == 5" then    "variable len0 equal ${lz0}"
if "${dir} == 6" then    "variable len0 equal ${ly0}"

# Reset box and simulation parameters

clear
read_restart restart.equil remap
  triclinic box = (0.0175835 0.0175835 0.0175835) to (3.49912 3.49912 3.49912) with tilt (0 -0 0)
  1 by 1 by 1 MPI processor grid
  4 atoms
include potential.mod
mass 1 58.6934

group Ni type 1
4 atoms in group Ni

pair_style eam/alloy
pair_coeff * * /ufrc/phillpot/eragasa/pareto_optimization_3.5NN/rank_52/Ni_fcc.lmps_elastic/Ni.eam.alloy Ni

neighbor 1.0 bin
neigh_modify every 1 delay 0 check yes
thermo	1
thermo_style custom step temp pe press pxx pyy pzz pxy pxz pyz lx ly lz vol
thermo_modify norm no

# Negative deformation

variable delta equal -${up}*${len0}
variable delta equal -1e-06*${len0}
variable delta equal -1e-06*3.48153300000002
if "${dir} == 1" then    "change_box all x delta 0 ${delta} remap units box"
if "${dir} == 2" then    "change_box all y delta 0 ${delta} remap units box"
if "${dir} == 3" then    "change_box all z delta 0 ${delta} remap units box"
change_box all z delta 0 ${delta} remap units box
change_box all z delta 0 -3.48153300000002e-06 remap units box
  triclinic box = (0.0175835 0.0175835 0.0175835) to (3.49912 3.49912 3.49911) with tilt (0 -0 0)
if "${dir} == 4" then    "change_box all yz delta ${delta} remap units box"
if "${dir} == 5" then    "change_box all xz delta ${delta} remap units box"
if "${dir} == 6" then    "change_box all xy delta ${delta} remap units box"

# Relax atoms positions

minimize ${etol} ${ftol} ${maxiter} ${maxeval}
minimize 0 ${ftol} ${maxiter} ${maxeval}
minimize 0 1e-10 ${maxiter} ${maxeval}
minimize 0 1e-10 100 ${maxeval}
minimize 0 1e-10 100 1000
Neighbor list info ...
  update every 1 steps, delay 0 steps, check yes
  max neighbors/atom: 2000, page size: 100000
  master list distance cutoff = 5.64464
  ghost atom cutoff = 5.64464
  binsize = 2.82232, bins = 2 2 2
  1 neighbor lists, perpetual/occasional/extra = 1 0 0
  (1) pair eam/alloy, perpetual
      attributes: half, newton on
      pair build: half/bin/newton/tri
      stencil: half/bin/3d/newton/tri
      bin: standard
Per MPI rank memory allocation (min/avg/max) = 4.086 | 4.086 | 4.086 Mbytes
Step Temp PotEng Press Pxx Pyy Pzz Pxy Pxz Pyz Lx Ly Lz Volume 
     100            0   -19.196861   -212019.53   -212019.64   -212019.64    -212019.3 1.8968019e-11 1.4226015e-11 1.3699125e-11     3.481533     3.481533    3.4815295     42.19987 
     101            0   -19.196861   -212019.53   -212019.64   -212019.64   -212019.31 3.5301592e-11 3.4247813e-11 -4.2151154e-12     3.481533     3.481533    3.4815295     42.19987 
     102            0   -19.196861   -212019.53   -212019.64   -212019.64   -212019.31 4.7420049e-12 -1.6333572e-11 -1.6333572e-11     3.481533     3.481533    3.4815295     42.19987 
Loop time of 8.4877e-05 on 1 procs for 2 steps with 4 atoms

91.9% CPU use with 1 MPI tasks x no OpenMP threads

Minimization stats:
  Stopping criterion = force tolerance
  Energy initial, next-to-last, final = 
         -19.196860535     -19.1968605757     -19.1968605757
  Force two-norm initial, final = 0.000967811 2.3396e-15
  Force max component initial, final = 0.000279383 1.94289e-15
  Final line search alpha, max atom move = 1 1.94289e-15
  Iterations, force evaluations = 2 4

MPI task timing breakdown:
Section |  min time  |  avg time  |  max time  |%varavg| %total
---------------------------------------------------------------
Pair    | 5.1022e-05 | 5.1022e-05 | 5.1022e-05 |   0.0 | 60.11
Neigh   | 0          | 0          | 0          |   0.0 |  0.00
Comm    | 9.7752e-06 | 9.7752e-06 | 9.7752e-06 |   0.0 | 11.52
Output  | 1.0014e-05 | 1.0014e-05 | 1.0014e-05 |   0.0 | 11.80
Modify  | 0          | 0          | 0          |   0.0 |  0.00
Other   |            | 1.407e-05  |            |       | 16.57

Nlocal:    4 ave 4 max 4 min
Histogram: 1 0 0 0 0 0 0 0 0 0
Nghost:    360 ave 360 max 360 min
Histogram: 1 0 0 0 0 0 0 0 0 0
Neighs:    156 ave 156 max 156 min
Histogram: 1 0 0 0 0 0 0 0 0 0

Total # of neighbors = 156
Ave neighs/atom = 39
Neighbor list builds = 0
Dangerous builds = 0

# Obtain new stress tensor

variable tmp equal pxx
variable pxx1 equal ${tmp}
variable pxx1 equal -212019.644138132
variable tmp equal pyy
variable pyy1 equal ${tmp}
variable pyy1 equal -212019.644138132
variable tmp equal pzz
variable pzz1 equal ${tmp}
variable pzz1 equal -212019.309275518
variable tmp equal pxy
variable pxy1 equal ${tmp}
variable pxy1 equal 4.74200487242025e-12
variable tmp equal pxz
variable pxz1 equal ${tmp}
variable pxz1 equal -1.63335723383364e-11
variable tmp equal pyz
variable pyz1 equal ${tmp}
variable pyz1 equal -1.63335723383364e-11

# Compute elastic constant from pressure tensor

variable C1neg equal ${d1}
variable C1neg equal 62.3288431001129
variable C2neg equal ${d2}
variable C2neg equal 62.3288431001129
variable C3neg equal ${d3}
variable C3neg equal 95.8151044993429
variable C4neg equal ${d4}
variable C4neg equal -1.42260167248185e-09
variable C5neg equal ${d5}
variable C5neg equal -2.79251282126851e-09
variable C6neg equal ${d6}
variable C6neg equal 1.8441116360287e-09

# Reset box and simulation parameters

clear
read_restart restart.equil remap
  triclinic box = (0.0175835 0.0175835 0.0175835) to (3.49912 3.49912 3.49912) with tilt (0 -0 0)
  1 by 1 by 1 MPI processor grid
  4 atoms
include potential.mod
mass 1 58.6934

group Ni type 1
4 atoms in group Ni

pair_style eam/alloy
pair_coeff * * /ufrc/phillpot/eragasa/pareto_optimization_3.5NN/rank_52/Ni_fcc.lmps_elastic/Ni.eam.alloy Ni

neighbor 1.0 bin
neigh_modify every 1 delay 0 check yes
thermo	1
thermo_style custom step temp pe press pxx pyy pzz pxy pxz pyz lx ly lz vol
thermo_modify norm no

# Positive deformation

variable delta equal ${up}*${len0}
variable delta equal 1e-06*${len0}
variable delta equal 1e-06*3.48153300000002
if "${dir} == 1" then    "change_box all x delta 0 ${delta} remap units box"
if "${dir} == 2" then    "change_box all y delta 0 ${delta} remap units box"
if "${dir} == 3" then    "change_box all z delta 0 ${delta} remap units box"
change_box all z delta 0 ${delta} remap units box
change_box all z delta 0 3.48153300000002e-06 remap units box
  triclinic box = (0.0175835 0.0175835 0.0175835) to (3.49912 3.49912 3.49912) with tilt (0 -0 0)
if "${dir} == 4" then    "change_box all yz delta ${delta} remap units box"
if "${dir} == 5" then    "change_box all xz delta ${delta} remap units box"
if "${dir} == 6" then    "change_box all xy delta ${delta} remap units box"

# Relax atoms positions

minimize ${etol} ${ftol} ${maxiter} ${maxeval}
minimize 0 ${ftol} ${maxiter} ${maxeval}
minimize 0 1e-10 ${maxiter} ${maxeval}
minimize 0 1e-10 100 ${maxeval}
minimize 0 1e-10 100 1000
Neighbor list info ...
  update every 1 steps, delay 0 steps, check yes
  max neighbors/atom: 2000, page size: 100000
  master list distance cutoff = 5.64464
  ghost atom cutoff = 5.64464
  binsize = 2.82232, bins = 2 2 2
  1 neighbor lists, perpetual/occasional/extra = 1 0 0
  (1) pair eam/alloy, perpetual
      attributes: half, newton on
      pair build: half/bin/newton/tri
      stencil: half/bin/3d/newton/tri
      bin: standard
Per MPI rank memory allocation (min/avg/max) = 4.086 | 4.086 | 4.086 Mbytes
Step Temp PotEng Press Pxx Pyy Pzz Pxy Pxz Pyz Lx Ly Lz Volume 
     100            0   -19.196849   -212021.01    -212020.9    -212020.9   -212021.23 5.7957721e-11 2.8978861e-11 2.4763754e-11     3.481533     3.481533    3.4815365    42.199954 
     101            0   -19.196849   -212021.01    -212020.9    -212020.9   -212021.24 -8.430214e-12 2.4763754e-11 2.2129312e-11     3.481533     3.481533    3.4815365    42.199954 
     102            0   -19.196849   -212021.01    -212020.9    -212020.9   -212021.24 2.6344419e-12 -6.3226605e-12 -1.8967982e-11     3.481533     3.481533    3.4815365    42.199954 
Loop time of 8.58307e-05 on 1 procs for 2 steps with 4 atoms

90.9% CPU use with 1 MPI tasks x no OpenMP threads

Minimization stats:
  Stopping criterion = force tolerance
  Energy initial, next-to-last, final = 
        -19.1968493661     -19.1968494069     -19.1968494069
  Force two-norm initial, final = 0.000967803 3.75021e-16
  Force max component initial, final = 0.000279381 2.35922e-16
  Final line search alpha, max atom move = 1 2.35922e-16
  Iterations, force evaluations = 2 4

MPI task timing breakdown:
Section |  min time  |  avg time  |  max time  |%varavg| %total
---------------------------------------------------------------
Pair    | 5.0306e-05 | 5.0306e-05 | 5.0306e-05 |   0.0 | 58.61
Neigh   | 0          | 0          | 0          |   0.0 |  0.00
Comm    | 1.0967e-05 | 1.0967e-05 | 1.0967e-05 |   0.0 | 12.78
Output  | 9.0599e-06 | 9.0599e-06 | 9.0599e-06 |   0.0 | 10.56
Modify  | 0          | 0          | 0          |   0.0 |  0.00
Other   |            | 1.55e-05   |            |       | 18.06

Nlocal:    4 ave 4 max 4 min
Histogram: 1 0 0 0 0 0 0 0 0 0
Nghost:    360 ave 360 max 360 min
Histogram: 1 0 0 0 0 0 0 0 0 0
Neighs:    156 ave 156 max 156 min
Histogram: 1 0 0 0 0 0 0 0 0 0

Total # of neighbors = 156
Ave neighs/atom = 39
Neighbor list builds = 0
Dangerous builds = 0

# Obtain new stress tensor

variable tmp equal pe
variable e1 equal ${tmp}
variable e1 equal -19.1968494068764
variable tmp equal press
variable p1 equal ${tmp}
variable p1 equal -212021.014797704
variable tmp equal pxx
variable pxx1 equal ${tmp}
variable pxx1 equal -212020.903177115
variable tmp equal pyy
variable pyy1 equal ${tmp}
variable pyy1 equal -212020.903177115
variable tmp equal pzz
variable pzz1 equal ${tmp}
variable pzz1 equal -212021.238038883
variable tmp equal pxy
variable pxy1 equal ${tmp}
variable pxy1 equal 2.63444188245555e-12
variable tmp equal pxz
variable pxz1 equal ${tmp}
variable pxz1 equal -6.32266051789332e-12
variable tmp equal pyz
variable pyz1 equal ${tmp}
variable pyz1 equal -1.896798155368e-11

# Compute elastic constant from pressure tensor

variable C1pos equal ${d1}
variable C1pos equal 63.5750551999081
variable C2pos equal ${d2}
variable C2pos equal 63.5750551999081
variable C3pos equal ${d3}
variable C3pos equal 97.0612320001237
variable C4pos equal ${d4}
variable C4pos equal 1.6860425940162e-09
variable C5pos equal ${d5}
variable C5pos equal 1.7914216392242e-09
variable C6pos equal ${d6}
variable C6pos equal -1.63335533703223e-09

# Combine positive and negative

variable C1${dir} equal 0.5*(${C1neg}+${C1pos})
variable C13 equal 0.5*(${C1neg}+${C1pos})
variable C13 equal 0.5*(62.3288431001129+${C1pos})
variable C13 equal 0.5*(62.3288431001129+63.5750551999081)
variable C2${dir} equal 0.5*(${C2neg}+${C2pos})
variable C23 equal 0.5*(${C2neg}+${C2pos})
variable C23 equal 0.5*(62.3288431001129+${C2pos})
variable C23 equal 0.5*(62.3288431001129+63.5750551999081)
variable C3${dir} equal 0.5*(${C3neg}+${C3pos})
variable C33 equal 0.5*(${C3neg}+${C3pos})
variable C33 equal 0.5*(95.8151044993429+${C3pos})
variable C33 equal 0.5*(95.8151044993429+97.0612320001237)
variable C4${dir} equal 0.5*(${C4neg}+${C4pos})
variable C43 equal 0.5*(${C4neg}+${C4pos})
variable C43 equal 0.5*(-1.42260167248185e-09+${C4pos})
variable C43 equal 0.5*(-1.42260167248185e-09+1.6860425940162e-09)
variable C5${dir} equal 0.5*(${C5neg}+${C5pos})
variable C53 equal 0.5*(${C5neg}+${C5pos})
variable C53 equal 0.5*(-2.79251282126851e-09+${C5pos})
variable C53 equal 0.5*(-2.79251282126851e-09+1.7914216392242e-09)
variable C6${dir} equal 0.5*(${C6neg}+${C6pos})
variable C63 equal 0.5*(${C6neg}+${C6pos})
variable C63 equal 0.5*(1.8441116360287e-09+${C6pos})
variable C63 equal 0.5*(1.8441116360287e-09+-1.63335533703223e-09)

# Delete dir to make sure it is not reused

variable dir delete
# ---- uyz Perturbation
variable dir equal 4
include displace.mod
# NOTE: This script should not need to be
# modified. See in.elastic for more info.
# Find which reference length to use

if "${dir} == 1" then    "variable len0 equal ${lx0}"
if "${dir} == 2" then    "variable len0 equal ${ly0}"
if "${dir} == 3" then    "variable len0 equal ${lz0}"
if "${dir} == 4" then    "variable len0 equal ${lz0}"
variable len0 equal ${lz0}
variable len0 equal 3.48153300000002
if "${dir} == 5" then    "variable len0 equal ${lz0}"
if "${dir} == 6" then    "variable len0 equal ${ly0}"

# Reset box and simulation parameters

clear
read_restart restart.equil remap
  triclinic box = (0.0175835 0.0175835 0.0175835) to (3.49912 3.49912 3.49912) with tilt (0 -0 0)
  1 by 1 by 1 MPI processor grid
  4 atoms
include potential.mod
mass 1 58.6934

group Ni type 1
4 atoms in group Ni

pair_style eam/alloy
pair_coeff * * /ufrc/phillpot/eragasa/pareto_optimization_3.5NN/rank_52/Ni_fcc.lmps_elastic/Ni.eam.alloy Ni

neighbor 1.0 bin
neigh_modify every 1 delay 0 check yes
thermo	1
thermo_style custom step temp pe press pxx pyy pzz pxy pxz pyz lx ly lz vol
thermo_modify norm no

# Negative deformation

variable delta equal -${up}*${len0}
variable delta equal -1e-06*${len0}
variable delta equal -1e-06*3.48153300000002
if "${dir} == 1" then    "change_box all x delta 0 ${delta} remap units box"
if "${dir} == 2" then    "change_box all y delta 0 ${delta} remap units box"
if "${dir} == 3" then    "change_box all z delta 0 ${delta} remap units box"
if "${dir} == 4" then    "change_box all yz delta ${delta} remap units box"
change_box all yz delta ${delta} remap units box
change_box all yz delta -3.48153300000002e-06 remap units box
  triclinic box = (0.0175835 0.0175835 0.0175835) to (3.49912 3.49912 3.49912) with tilt (0 -0 -3.48153e-06)
if "${dir} == 5" then    "change_box all xz delta ${delta} remap units box"
if "${dir} == 6" then    "change_box all xy delta ${delta} remap units box"

# Relax atoms positions

minimize ${etol} ${ftol} ${maxiter} ${maxeval}
minimize 0 ${ftol} ${maxiter} ${maxeval}
minimize 0 1e-10 ${maxiter} ${maxeval}
minimize 0 1e-10 100 ${maxeval}
minimize 0 1e-10 100 1000
Neighbor list info ...
  update every 1 steps, delay 0 steps, check yes
  max neighbors/atom: 2000, page size: 100000
  master list distance cutoff = 5.64464
  ghost atom cutoff = 5.64464
  binsize = 2.82232, bins = 2 2 2
  1 neighbor lists, perpetual/occasional/extra = 1 0 0
  (1) pair eam/alloy, perpetual
      attributes: half, newton on
      pair build: half/bin/newton/tri
      stencil: half/bin/3d/newton/tri
      bin: standard
Per MPI rank memory allocation (min/avg/max) = 4.086 | 4.086 | 4.086 Mbytes
Step Temp PotEng Press Pxx Pyy Pzz Pxy Pxz Pyz Lx Ly Lz Volume 
     100            0   -19.196855   -212020.27   -212020.27   -212020.27   -212020.27 3.7409112e-11 -4.0570446e-11   0.58201137     3.481533     3.481533     3.481533    42.199912 
     101            0   -19.196855   -212020.27   -212020.27   -212020.27   -212020.27 6.8495557e-12 -5.268889e-12   0.58201137     3.481533     3.481533     3.481533    42.199912 
     102            0   -19.196855   -212020.27   -212020.27   -212020.27   -212020.27 4.0043557e-11 7.3764446e-12   0.58201137     3.481533     3.481533     3.481533    42.199912 
     103            0   -19.196855   -212020.27   -212020.27   -212020.27   -212020.27 2.6344445e-12 -4.2151112e-12   0.58201137     3.481533     3.481533     3.481533    42.199912 
Loop time of 0.000118017 on 1 procs for 3 steps with 4 atoms

92.4% CPU use with 1 MPI tasks x no OpenMP threads

Minimization stats:
  Stopping criterion = force tolerance
  Energy initial, next-to-last, final = 
        -19.1968549506     -19.1968549913     -19.1968549913
  Force two-norm initial, final = 0.000967807 2.54274e-15
  Force max component initial, final = 0.000279383 2.08861e-15
  Final line search alpha, max atom move = 1 2.08861e-15
  Iterations, force evaluations = 3 6

MPI task timing breakdown:
Section |  min time  |  avg time  |  max time  |%varavg| %total
---------------------------------------------------------------
Pair    | 7.2241e-05 | 7.2241e-05 | 7.2241e-05 |   0.0 | 61.21
Neigh   | 0          | 0          | 0          |   0.0 |  0.00
Comm    | 1.2636e-05 | 1.2636e-05 | 1.2636e-05 |   0.0 | 10.71
Output  | 1.7166e-05 | 1.7166e-05 | 1.7166e-05 |   0.0 | 14.55
Modify  | 0          | 0          | 0          |   0.0 |  0.00
Other   |            | 1.597e-05  |            |       | 13.54

Nlocal:    4 ave 4 max 4 min
Histogram: 1 0 0 0 0 0 0 0 0 0
Nghost:    360 ave 360 max 360 min
Histogram: 1 0 0 0 0 0 0 0 0 0
Neighs:    156 ave 156 max 156 min
Histogram: 1 0 0 0 0 0 0 0 0 0

Total # of neighbors = 156
Ave neighs/atom = 39
Neighbor list builds = 0
Dangerous builds = 0

# Obtain new stress tensor

variable tmp equal pxx
variable pxx1 equal ${tmp}
variable pxx1 equal -212020.273661439
variable tmp equal pyy
variable pyy1 equal ${tmp}
variable pyy1 equal -212020.273659748
variable tmp equal pzz
variable pzz1 equal ${tmp}
variable pzz1 equal -212020.273658752
variable tmp equal pxy
variable pxy1 equal ${tmp}
variable pxy1 equal 2.63444451689743e-12
variable tmp equal pxz
variable pxz1 equal ${tmp}
variable pxz1 equal -4.21511122703589e-12
variable tmp equal pyz
variable pyz1 equal ${tmp}
variable pyz1 equal 0.582011374674406

# Compute elastic constant from pressure tensor

variable C1neg equal ${d1}
variable C1neg equal -0.623487599659711
variable C2neg equal ${d2}
variable C2neg equal -0.623318500583991
variable C3neg equal ${d3}
variable C3neg equal -0.623218901455402
variable C4neg equal ${d4}
variable C4neg equal 58.2011374676514
variable C5neg equal ${d5}
variable C5neg equal -1.58066671013846e-09
variable C6neg equal ${d6}
variable C6neg equal 1.63335560047641e-09

# Reset box and simulation parameters

clear
read_restart restart.equil remap
  triclinic box = (0.0175835 0.0175835 0.0175835) to (3.49912 3.49912 3.49912) with tilt (0 -0 0)
  1 by 1 by 1 MPI processor grid
  4 atoms
include potential.mod
mass 1 58.6934

group Ni type 1
4 atoms in group Ni

pair_style eam/alloy
pair_coeff * * /ufrc/phillpot/eragasa/pareto_optimization_3.5NN/rank_52/Ni_fcc.lmps_elastic/Ni.eam.alloy Ni

neighbor 1.0 bin
neigh_modify every 1 delay 0 check yes
thermo	1
thermo_style custom step temp pe press pxx pyy pzz pxy pxz pyz lx ly lz vol
thermo_modify norm no

# Positive deformation

variable delta equal ${up}*${len0}
variable delta equal 1e-06*${len0}
variable delta equal 1e-06*3.48153300000002
if "${dir} == 1" then    "change_box all x delta 0 ${delta} remap units box"
if "${dir} == 2" then    "change_box all y delta 0 ${delta} remap units box"
if "${dir} == 3" then    "change_box all z delta 0 ${delta} remap units box"
if "${dir} == 4" then    "change_box all yz delta ${delta} remap units box"
change_box all yz delta ${delta} remap units box
change_box all yz delta 3.48153300000002e-06 remap units box
  triclinic box = (0.0175835 0.0175835 0.0175835) to (3.49912 3.49912 3.49912) with tilt (0 -0 3.48153e-06)
if "${dir} == 5" then    "change_box all xz delta ${delta} remap units box"
if "${dir} == 6" then    "change_box all xy delta ${delta} remap units box"

# Relax atoms positions

minimize ${etol} ${ftol} ${maxiter} ${maxeval}
minimize 0 ${ftol} ${maxiter} ${maxeval}
minimize 0 1e-10 ${maxiter} ${maxeval}
minimize 0 1e-10 100 ${maxeval}
minimize 0 1e-10 100 1000
Neighbor list info ...
  update every 1 steps, delay 0 steps, check yes
  max neighbors/atom: 2000, page size: 100000
  master list distance cutoff = 5.64464
  ghost atom cutoff = 5.64464
  binsize = 2.82232, bins = 2 2 2
  1 neighbor lists, perpetual/occasional/extra = 1 0 0
  (1) pair eam/alloy, perpetual
      attributes: half, newton on
      pair build: half/bin/newton/tri
      stencil: half/bin/3d/newton/tri
      bin: standard
Per MPI rank memory allocation (min/avg/max) = 4.086 | 4.086 | 4.086 Mbytes
Step Temp PotEng Press Pxx Pyy Pzz Pxy Pxz Pyz Lx Ly Lz Volume 
     100            0   -19.196855   -212020.27   -212020.27   -212020.27   -212020.27 1.9494889e-11 -1.3172223e-11  -0.58201137     3.481533     3.481533     3.481533    42.199912 
     101            0   -19.196855   -212020.27   -212020.27   -212020.27   -212020.27 -7.9033336e-12 -3.3194001e-11  -0.58201137     3.481533     3.481533     3.481533    42.199912 
     102            0   -19.196855   -212020.27   -212020.27   -212020.27   -212020.27 -3.7936001e-11 6.8495557e-12  -0.58201137     3.481533     3.481533     3.481533    42.199912 
     103            0   -19.196855   -212020.27   -212020.27   -212020.27   -212020.27 -1.5806667e-11 -3.4774668e-11  -0.58201137     3.481533     3.481533     3.481533    42.199912 
Loop time of 0.000116825 on 1 procs for 3 steps with 4 atoms

92.4% CPU use with 1 MPI tasks x no OpenMP threads

Minimization stats:
  Stopping criterion = force tolerance
  Energy initial, next-to-last, final = 
        -19.1968549506     -19.1968549913     -19.1968549913
  Force two-norm initial, final = 0.000967807 2.59767e-15
  Force max component initial, final = 0.000279383 1.54564e-15
  Final line search alpha, max atom move = 1 1.54564e-15
  Iterations, force evaluations = 3 6

MPI task timing breakdown:
Section |  min time  |  avg time  |  max time  |%varavg| %total
---------------------------------------------------------------
Pair    | 7.0095e-05 | 7.0095e-05 | 7.0095e-05 |   0.0 | 60.00
Neigh   | 0          | 0          | 0          |   0.0 |  0.00
Comm    | 1.6928e-05 | 1.6928e-05 | 1.6928e-05 |   0.0 | 14.49
Output  | 1.7166e-05 | 1.7166e-05 | 1.7166e-05 |   0.0 | 14.69
Modify  | 0          | 0          | 0          |   0.0 |  0.00
Other   |            | 1.264e-05  |            |       | 10.82

Nlocal:    4 ave 4 max 4 min
Histogram: 1 0 0 0 0 0 0 0 0 0
Nghost:    360 ave 360 max 360 min
Histogram: 1 0 0 0 0 0 0 0 0 0
Neighs:    156 ave 156 max 156 min
Histogram: 1 0 0 0 0 0 0 0 0 0

Total # of neighbors = 156
Ave neighs/atom = 39
Neighbor list builds = 0
Dangerous builds = 0

# Obtain new stress tensor

variable tmp equal pe
variable e1 equal ${tmp}
variable e1 equal -19.196854991308
variable tmp equal press
variable p1 equal ${tmp}
variable p1 equal -212020.27365998
variable tmp equal pxx
variable pxx1 equal ${tmp}
variable pxx1 equal -212020.27366144
variable tmp equal pyy
variable pyy1 equal ${tmp}
variable pyy1 equal -212020.273659749
variable tmp equal pzz
variable pzz1 equal ${tmp}
variable pzz1 equal -212020.273658752
variable tmp equal pxy
variable pxy1 equal ${tmp}
variable pxy1 equal -1.58066671013846e-11
variable tmp equal pxz
variable pxz1 equal ${tmp}
variable pxz1 equal -3.47746676230461e-11
variable tmp equal pyz
variable pyz1 equal ${tmp}
variable pyz1 equal -0.58201137461961

# Compute elastic constant from pressure tensor

variable C1pos equal ${d1}
variable C1pos equal 0.623487701523118
variable C2pos equal ${d2}
variable C2pos equal 0.623318599537015
variable C3pos equal ${d3}
variable C3pos equal 0.623218901455402
variable C4pos equal ${d4}
variable C4pos equal 58.2011374617502
variable C5pos equal ${d5}
variable C5pos equal 4.63662234973948e-09
variable C6pos equal ${d6}
variable C6pos equal 2.1075556135179e-10

# Combine positive and negative

variable C1${dir} equal 0.5*(${C1neg}+${C1pos})
variable C14 equal 0.5*(${C1neg}+${C1pos})
variable C14 equal 0.5*(-0.623487599659711+${C1pos})
variable C14 equal 0.5*(-0.623487599659711+0.623487701523118)
variable C2${dir} equal 0.5*(${C2neg}+${C2pos})
variable C24 equal 0.5*(${C2neg}+${C2pos})
variable C24 equal 0.5*(-0.623318500583991+${C2pos})
variable C24 equal 0.5*(-0.623318500583991+0.623318599537015)
variable C3${dir} equal 0.5*(${C3neg}+${C3pos})
variable C34 equal 0.5*(${C3neg}+${C3pos})
variable C34 equal 0.5*(-0.623218901455402+${C3pos})
variable C34 equal 0.5*(-0.623218901455402+0.623218901455402)
variable C4${dir} equal 0.5*(${C4neg}+${C4pos})
variable C44 equal 0.5*(${C4neg}+${C4pos})
variable C44 equal 0.5*(58.2011374676514+${C4pos})
variable C44 equal 0.5*(58.2011374676514+58.2011374617502)
variable C5${dir} equal 0.5*(${C5neg}+${C5pos})
variable C54 equal 0.5*(${C5neg}+${C5pos})
variable C54 equal 0.5*(-1.58066671013846e-09+${C5pos})
variable C54 equal 0.5*(-1.58066671013846e-09+4.63662234973948e-09)
variable C6${dir} equal 0.5*(${C6neg}+${C6pos})
variable C64 equal 0.5*(${C6neg}+${C6pos})
variable C64 equal 0.5*(1.63335560047641e-09+${C6pos})
variable C64 equal 0.5*(1.63335560047641e-09+2.1075556135179e-10)

# Delete dir to make sure it is not reused

variable dir delete
# ---- uxz Perturbation
variable dir equal 5
include displace.mod
# NOTE: This script should not need to be
# modified. See in.elastic for more info.
# Find which reference length to use

if "${dir} == 1" then    "variable len0 equal ${lx0}"
if "${dir} == 2" then    "variable len0 equal ${ly0}"
if "${dir} == 3" then    "variable len0 equal ${lz0}"
if "${dir} == 4" then    "variable len0 equal ${lz0}"
if "${dir} == 5" then    "variable len0 equal ${lz0}"
variable len0 equal ${lz0}
variable len0 equal 3.48153300000002
if "${dir} == 6" then    "variable len0 equal ${ly0}"

# Reset box and simulation parameters

clear
read_restart restart.equil remap
  triclinic box = (0.0175835 0.0175835 0.0175835) to (3.49912 3.49912 3.49912) with tilt (0 -0 0)
  1 by 1 by 1 MPI processor grid
  4 atoms
include potential.mod
mass 1 58.6934

group Ni type 1
4 atoms in group Ni

pair_style eam/alloy
pair_coeff * * /ufrc/phillpot/eragasa/pareto_optimization_3.5NN/rank_52/Ni_fcc.lmps_elastic/Ni.eam.alloy Ni

neighbor 1.0 bin
neigh_modify every 1 delay 0 check yes
thermo	1
thermo_style custom step temp pe press pxx pyy pzz pxy pxz pyz lx ly lz vol
thermo_modify norm no

# Negative deformation

variable delta equal -${up}*${len0}
variable delta equal -1e-06*${len0}
variable delta equal -1e-06*3.48153300000002
if "${dir} == 1" then    "change_box all x delta 0 ${delta} remap units box"
if "${dir} == 2" then    "change_box all y delta 0 ${delta} remap units box"
if "${dir} == 3" then    "change_box all z delta 0 ${delta} remap units box"
if "${dir} == 4" then    "change_box all yz delta ${delta} remap units box"
if "${dir} == 5" then    "change_box all xz delta ${delta} remap units box"
change_box all xz delta ${delta} remap units box
change_box all xz delta -3.48153300000002e-06 remap units box
  triclinic box = (0.0175835 0.0175835 0.0175835) to (3.49912 3.49912 3.49912) with tilt (0 -3.48153e-06 0)
if "${dir} == 6" then    "change_box all xy delta ${delta} remap units box"

# Relax atoms positions

minimize ${etol} ${ftol} ${maxiter} ${maxeval}
minimize 0 ${ftol} ${maxiter} ${maxeval}
minimize 0 1e-10 ${maxiter} ${maxeval}
minimize 0 1e-10 100 ${maxeval}
minimize 0 1e-10 100 1000
Neighbor list info ...
  update every 1 steps, delay 0 steps, check yes
  max neighbors/atom: 2000, page size: 100000
  master list distance cutoff = 5.64464
  ghost atom cutoff = 5.64464
  binsize = 2.82232, bins = 2 2 2
  1 neighbor lists, perpetual/occasional/extra = 1 0 0
  (1) pair eam/alloy, perpetual
      attributes: half, newton on
      pair build: half/bin/newton/tri
      stencil: half/bin/3d/newton/tri
      bin: standard
Per MPI rank memory allocation (min/avg/max) = 4.086 | 4.086 | 4.086 Mbytes
Step Temp PotEng Press Pxx Pyy Pzz Pxy Pxz Pyz Lx Ly Lz Volume 
     100            0   -19.196855   -212020.27   -212020.27   -212020.27   -212020.27 5.7957779e-12   0.58201137 -1.5806667e-11     3.481533     3.481533     3.481533    42.199912 
     101            0   -19.196855   -212020.27   -212020.27   -212020.27   -212020.27 6.3226668e-12   0.58201137 2.3710001e-11     3.481533     3.481533     3.481533    42.199912 
     102            0   -19.196855   -212020.27   -212020.27   -212020.27   -212020.27 5.7957779e-11   0.58201137 6.3226668e-12     3.481533     3.481533     3.481533    42.199912 
     103            0   -19.196855   -212020.27   -212020.27   -212020.27   -212020.27            0   0.58201137 1.0537778e-12     3.481533     3.481533     3.481533    42.199912 
Loop time of 0.000118971 on 1 procs for 3 steps with 4 atoms

100.9% CPU use with 1 MPI tasks x no OpenMP threads

Minimization stats:
  Stopping criterion = force tolerance
  Energy initial, next-to-last, final = 
        -19.1968549506     -19.1968549913     -19.1968549913
  Force two-norm initial, final = 0.000967807 4.11329e-15
  Force max component initial, final = 0.000279383 1.95156e-15
  Final line search alpha, max atom move = 1 1.95156e-15
  Iterations, force evaluations = 3 6

MPI task timing breakdown:
Section |  min time  |  avg time  |  max time  |%varavg| %total
---------------------------------------------------------------
Pair    | 7.081e-05  | 7.081e-05  | 7.081e-05  |   0.0 | 59.52
Neigh   | 0          | 0          | 0          |   0.0 |  0.00
Comm    | 1.6451e-05 | 1.6451e-05 | 1.6451e-05 |   0.0 | 13.83
Output  | 1.6928e-05 | 1.6928e-05 | 1.6928e-05 |   0.0 | 14.23
Modify  | 0          | 0          | 0          |   0.0 |  0.00
Other   |            | 1.478e-05  |            |       | 12.42

Nlocal:    4 ave 4 max 4 min
Histogram: 1 0 0 0 0 0 0 0 0 0
Nghost:    360 ave 360 max 360 min
Histogram: 1 0 0 0 0 0 0 0 0 0
Neighs:    156 ave 156 max 156 min
Histogram: 1 0 0 0 0 0 0 0 0 0

Total # of neighbors = 156
Ave neighs/atom = 39
Neighbor list builds = 0
Dangerous builds = 0

# Obtain new stress tensor

variable tmp equal pxx
variable pxx1 equal ${tmp}
variable pxx1 equal -212020.273659748
variable tmp equal pyy
variable pyy1 equal ${tmp}
variable pyy1 equal -212020.273661439
variable tmp equal pzz
variable pzz1 equal ${tmp}
variable pzz1 equal -212020.273658752
variable tmp equal pxy
variable pxy1 equal ${tmp}
variable pxy1 equal 0
variable tmp equal pxz
variable pxz1 equal ${tmp}
variable pxz1 equal 0.582011374671772
variable tmp equal pyz
variable pyz1 equal ${tmp}
variable pyz1 equal 1.05377780675897e-12

# Compute elastic constant from pressure tensor

variable C1neg equal ${d1}
variable C1neg equal -0.623318500583991
variable C2neg equal ${d2}
variable C2neg equal -0.623487599659711
variable C3neg equal ${d3}
variable C3neg equal -0.623218901455402
variable C4neg equal ${d4}
variable C4neg equal 3.16133342027692e-10
variable C5neg equal ${d5}
variable C5neg equal 58.2011374660181
variable C6neg equal ${d6}
variable C6neg equal 1.36991114878667e-09

# Reset box and simulation parameters

clear
read_restart restart.equil remap
  triclinic box = (0.0175835 0.0175835 0.0175835) to (3.49912 3.49912 3.49912) with tilt (0 -0 0)
  1 by 1 by 1 MPI processor grid
  4 atoms
include potential.mod
mass 1 58.6934

group Ni type 1
4 atoms in group Ni

pair_style eam/alloy
pair_coeff * * /ufrc/phillpot/eragasa/pareto_optimization_3.5NN/rank_52/Ni_fcc.lmps_elastic/Ni.eam.alloy Ni

neighbor 1.0 bin
neigh_modify every 1 delay 0 check yes
thermo	1
thermo_style custom step temp pe press pxx pyy pzz pxy pxz pyz lx ly lz vol
thermo_modify norm no

# Positive deformation

variable delta equal ${up}*${len0}
variable delta equal 1e-06*${len0}
variable delta equal 1e-06*3.48153300000002
if "${dir} == 1" then    "change_box all x delta 0 ${delta} remap units box"
if "${dir} == 2" then    "change_box all y delta 0 ${delta} remap units box"
if "${dir} == 3" then    "change_box all z delta 0 ${delta} remap units box"
if "${dir} == 4" then    "change_box all yz delta ${delta} remap units box"
if "${dir} == 5" then    "change_box all xz delta ${delta} remap units box"
change_box all xz delta ${delta} remap units box
[...]
Section |  min time  |  avg time  |  max time  |%varavg| %total
---------------------------------------------------------------
Pair    | 7.2002e-05 | 7.2002e-05 | 7.2002e-05 |   0.0 | 60.52
Neigh   | 0          | 0          | 0          |   0.0 |  0.00
Comm    | 1.2159e-05 | 1.2159e-05 | 1.2159e-05 |   0.0 | 10.22
Output  | 1.7166e-05 | 1.7166e-05 | 1.7166e-05 |   0.0 | 14.43
Modify  | 0          | 0          | 0          |   0.0 |  0.00
Other   |            | 1.764e-05  |            |       | 14.83

Nlocal:    4 ave 4 max 4 min
Histogram: 1 0 0 0 0 0 0 0 0 0
Nghost:    360 ave 360 max 360 min
Histogram: 1 0 0 0 0 0 0 0 0 0
Neighs:    156 ave 156 max 156 min
Histogram: 1 0 0 0 0 0 0 0 0 0

Total # of neighbors = 156
Ave neighs/atom = 39
Neighbor list builds = 0
Dangerous builds = 0

# Obtain new stress tensor

variable tmp equal pe
variable e1 equal ${tmp}
variable e1 equal -19.196854991308
variable tmp equal press
variable p1 equal ${tmp}
variable p1 equal -212020.27365998
variable tmp equal pxx
variable pxx1 equal ${tmp}
variable pxx1 equal -212020.273659748
variable tmp equal pyy
variable pyy1 equal ${tmp}
variable pyy1 equal -212020.273661439
variable tmp equal pzz
variable pzz1 equal ${tmp}
variable pzz1 equal -212020.273658752
variable tmp equal pxy
variable pxy1 equal ${tmp}
variable pxy1 equal -3.8989778850082e-11
variable tmp equal pxz
variable pxz1 equal ${tmp}
variable pxz1 equal -0.582011374656492
variable tmp equal pyz
variable pyz1 equal ${tmp}
variable pyz1 equal -1.89680005216615e-11

# Compute elastic constant from pressure tensor

variable C1pos equal ${d1}
variable C1pos equal 0.623318500583991
variable C2pos equal ${d2}
variable C2pos equal 0.623487599659711
variable C3pos equal ${d3}
variable C3pos equal 0.623218901455402
variable C4pos equal ${d4}
variable C4pos equal 1.68604449081436e-09
variable C5pos equal ${d5}
variable C5pos equal 58.2011374668084
variable C6pos equal ${d6}
variable C6pos equal 2.52906673622153e-09

# Combine positive and negative

variable C1${dir} equal 0.5*(${C1neg}+${C1pos})
variable C15 equal 0.5*(${C1neg}+${C1pos})
variable C15 equal 0.5*(-0.623318500583991+${C1pos})
variable C15 equal 0.5*(-0.623318500583991+0.623318500583991)
variable C2${dir} equal 0.5*(${C2neg}+${C2pos})
variable C25 equal 0.5*(${C2neg}+${C2pos})
variable C25 equal 0.5*(-0.623487599659711+${C2pos})
variable C25 equal 0.5*(-0.623487599659711+0.623487599659711)
variable C3${dir} equal 0.5*(${C3neg}+${C3pos})
variable C35 equal 0.5*(${C3neg}+${C3pos})
variable C35 equal 0.5*(-0.623218901455402+${C3pos})
variable C35 equal 0.5*(-0.623218901455402+0.623218901455402)
variable C4${dir} equal 0.5*(${C4neg}+${C4pos})
variable C45 equal 0.5*(${C4neg}+${C4pos})
variable C45 equal 0.5*(3.16133342027692e-10+${C4pos})
variable C45 equal 0.5*(3.16133342027692e-10+1.68604449081436e-09)
variable C5${dir} equal 0.5*(${C5neg}+${C5pos})
variable C55 equal 0.5*(${C5neg}+${C5pos})
variable C55 equal 0.5*(58.2011374660181+${C5pos})
variable C55 equal 0.5*(58.2011374660181+58.2011374668084)
variable C6${dir} equal 0.5*(${C6neg}+${C6pos})
variable C65 equal 0.5*(${C6neg}+${C6pos})
variable C65 equal 0.5*(1.36991114878667e-09+${C6pos})
variable C65 equal 0.5*(1.36991114878667e-09+2.52906673622153e-09)

# Delete dir to make sure it is not reused

variable dir delete
# ---- uxy Perturbation
variable dir equal 6
include displace.mod
# NOTE: This script should not need to be
# modified. See in.elastic for more info.
# Find which reference length to use

if "${dir} == 1" then    "variable len0 equal ${lx0}"
if "${dir} == 2" then    "variable len0 equal ${ly0}"
if "${dir} == 3" then    "variable len0 equal ${lz0}"
if "${dir} == 4" then    "variable len0 equal ${lz0}"
if "${dir} == 5" then    "variable len0 equal ${lz0}"
if "${dir} == 6" then    "variable len0 equal ${ly0}"
variable len0 equal ${ly0}
variable len0 equal 3.48153300000002

# Reset box and simulation parameters

clear
read_restart restart.equil remap
  triclinic box = (0.0175835 0.0175835 0.0175835) to (3.49912 3.49912 3.49912) with tilt (0 -0 0)
  1 by 1 by 1 MPI processor grid
  4 atoms
include potential.mod
mass 1 58.6934

group Ni type 1
4 atoms in group Ni

pair_style eam/alloy
pair_coeff * * /ufrc/phillpot/eragasa/pareto_optimization_3.5NN/rank_52/Ni_fcc.lmps_elastic/Ni.eam.alloy Ni

neighbor 1.0 bin
neigh_modify every 1 delay 0 check yes
thermo	1
thermo_style custom step temp pe press pxx pyy pzz pxy pxz pyz lx ly lz vol
thermo_modify norm no

# Negative deformation

variable delta equal -${up}*${len0}
variable delta equal -1e-06*${len0}
variable delta equal -1e-06*3.48153300000002
if "${dir} == 1" then    "change_box all x delta 0 ${delta} remap units box"
if "${dir} == 2" then    "change_box all y delta 0 ${delta} remap units box"
if "${dir} == 3" then    "change_box all z delta 0 ${delta} remap units box"
if "${dir} == 4" then    "change_box all yz delta ${delta} remap units box"
if "${dir} == 5" then    "change_box all xz delta ${delta} remap units box"
if "${dir} == 6" then    "change_box all xy delta ${delta} remap units box"
change_box all xy delta ${delta} remap units box
change_box all xy delta -3.48153300000002e-06 remap units box
  triclinic box = (0.0175835 0.0175835 0.0175835) to (3.49912 3.49912 3.49912) with tilt (-3.48153e-06 -0 0)

# Relax atoms positions

minimize ${etol} ${ftol} ${maxiter} ${maxeval}
minimize 0 ${ftol} ${maxiter} ${maxeval}
minimize 0 1e-10 ${maxiter} ${maxeval}
minimize 0 1e-10 100 ${maxeval}
minimize 0 1e-10 100 1000
Neighbor list info ...
  update every 1 steps, delay 0 steps, check yes
  max neighbors/atom: 2000, page size: 100000
  master list distance cutoff = 5.64464
  ghost atom cutoff = 5.64464
  binsize = 2.82232, bins = 2 2 2
  1 neighbor lists, perpetual/occasional/extra = 1 0 0
  (1) pair eam/alloy, perpetual
      attributes: half, newton on
      pair build: half/bin/newton/tri
      stencil: half/bin/3d/newton/tri
      bin: standard
Per MPI rank memory allocation (min/avg/max) = 4.086 | 4.086 | 4.086 Mbytes
Step Temp PotEng Press Pxx Pyy Pzz Pxy Pxz Pyz Lx Ly Lz Volume 
     100            0   -19.196855   -212020.27   -212020.27   -212020.27   -212020.27   0.58201137 -2.3183112e-11 -1.7914223e-11     3.481533     3.481533     3.481533    42.199912 
     101            0   -19.196855   -212020.27   -212020.27   -212020.27   -212020.27   0.58201137 8.4302225e-12 -4.1624223e-11     3.481533     3.481533     3.481533    42.199912 
     102            0   -19.196855   -212020.27   -212020.27   -212020.27   -212020.27   0.58201137 2.897889e-11 3.3194001e-11     3.481533     3.481533     3.481533    42.199912 
     103            0   -19.196855   -212020.27   -212020.27   -212020.27   -212020.27   0.58201137 -3.4247779e-11 -1.9494889e-11     3.481533     3.481533     3.481533    42.199912 
Loop time of 0.000126123 on 1 procs for 3 steps with 4 atoms

99.9% CPU use with 1 MPI tasks x no OpenMP threads

Minimization stats:
  Stopping criterion = force tolerance
  Energy initial, next-to-last, final = 
        -19.1968549506     -19.1968549913     -19.1968549913
  Force two-norm initial, final = 0.000967807 3.36774e-15
  Force max component initial, final = 0.000279383 1.9186e-15
  Final line search alpha, max atom move = 1 1.9186e-15
  Iterations, force evaluations = 3 6

MPI task timing breakdown:
Section |  min time  |  avg time  |  max time  |%varavg| %total
---------------------------------------------------------------
Pair    | 7.081e-05  | 7.081e-05  | 7.081e-05  |   0.0 | 56.14
Neigh   | 0          | 0          | 0          |   0.0 |  0.00
Comm    | 1.5736e-05 | 1.5736e-05 | 1.5736e-05 |   0.0 | 12.48
Output  | 1.6928e-05 | 1.6928e-05 | 1.6928e-05 |   0.0 | 13.42
Modify  | 0          | 0          | 0          |   0.0 |  0.00
Other   |            | 2.265e-05  |            |       | 17.96

Nlocal:    4 ave 4 max 4 min
Histogram: 1 0 0 0 0 0 0 0 0 0
Nghost:    360 ave 360 max 360 min
Histogram: 1 0 0 0 0 0 0 0 0 0
Neighs:    156 ave 156 max 156 min
Histogram: 1 0 0 0 0 0 0 0 0 0

Total # of neighbors = 156
Ave neighs/atom = 39
Neighbor list builds = 0
Dangerous builds = 0

# Obtain new stress tensor

variable tmp equal pxx
variable pxx1 equal ${tmp}
variable pxx1 equal -212020.273659748
variable tmp equal pyy
variable pyy1 equal ${tmp}
variable pyy1 equal -212020.273658752
variable tmp equal pzz
variable pzz1 equal ${tmp}
variable pzz1 equal -212020.273661439
variable tmp equal pxy
variable pxy1 equal ${tmp}
variable pxy1 equal 0.582011374731837
variable tmp equal pxz
variable pxz1 equal ${tmp}
variable pxz1 equal -3.42477787196666e-11
variable tmp equal pyz
variable pyz1 equal ${tmp}
variable pyz1 equal -1.9494889425041e-11

# Compute elastic constant from pressure tensor

variable C1neg equal ${d1}
variable C1neg equal -0.623318500583991
variable C2neg equal ${d2}
variable C2neg equal -0.623218901455402
variable C3neg equal ${d3}
variable C3neg equal -0.623487599659711
variable C4neg equal ${d4}
variable C4neg equal -1.73873338115231e-09
variable C5neg equal ${d5}
variable C5neg equal -4.58393345940153e-09
variable C6neg equal ${d6}
variable C6neg equal 58.2011374745536

# Reset box and simulation parameters

clear
read_restart restart.equil remap
  triclinic box = (0.0175835 0.0175835 0.0175835) to (3.49912 3.49912 3.49912) with tilt (0 -0 0)
  1 by 1 by 1 MPI processor grid
  4 atoms
include potential.mod
mass 1 58.6934

group Ni type 1
4 atoms in group Ni

pair_style eam/alloy
pair_coeff * * /ufrc/phillpot/eragasa/pareto_optimization_3.5NN/rank_52/Ni_fcc.lmps_elastic/Ni.eam.alloy Ni

neighbor 1.0 bin
neigh_modify every 1 delay 0 check yes
thermo	1
thermo_style custom step temp pe press pxx pyy pzz pxy pxz pyz lx ly lz vol
thermo_modify norm no

# Positive deformation

variable delta equal ${up}*${len0}
variable delta equal 1e-06*${len0}
variable delta equal 1e-06*3.48153300000002
if "${dir} == 1" then    "change_box all x delta 0 ${delta} remap units box"
if "${dir} == 2" then    "change_box all y delta 0 ${delta} remap units box"
if "${dir} == 3" then    "change_box all z delta 0 ${delta} remap units box"
if "${dir} == 4" then    "change_box all yz delta ${delta} remap units box"
if "${dir} == 5" then    "change_box all xz delta ${delta} remap units box"
if "${dir} == 6" then    "change_box all xy delta ${delta} remap units box"
change_box all xy delta ${delta} remap units box
change_box all xy delta 3.48153300000002e-06 remap units box
  triclinic box = (0.0175835 0.0175835 0.0175835) to (3.49912 3.49912 3.49912) with tilt (3.48153e-06 -0 0)

# Relax atoms positions

minimize ${etol} ${ftol} ${maxiter} ${maxeval}
minimize 0 ${ftol} ${maxiter} ${maxeval}
minimize 0 1e-10 ${maxiter} ${maxeval}
minimize 0 1e-10 100 ${maxeval}
minimize 0 1e-10 100 1000
Neighbor list info ...
  update every 1 steps, delay 0 steps, check yes
  max neighbors/atom: 2000, page size: 100000
  master list distance cutoff = 5.64464
  ghost atom cutoff = 5.64464
  binsize = 2.82232, bins = 2 2 2
  1 neighbor lists, perpetual/occasional/extra = 1 0 0
  (1) pair eam/alloy, perpetual
      attributes: half, newton on
      pair build: half/bin/newton/tri
      stencil: half/bin/3d/newton/tri
      bin: standard
Per MPI rank memory allocation (min/avg/max) = 4.086 | 4.086 | 4.086 Mbytes
Step Temp PotEng Press Pxx Pyy Pzz Pxy Pxz Pyz Lx Ly Lz Volume 
     100            0   -19.196855   -212020.27   -212020.27   -212020.27   -212020.27  -0.58201137 1.2645334e-11 -1.6860445e-11     3.481533     3.481533     3.481533    42.199912 
     101            0   -19.196855   -212020.27   -212020.27   -212020.27   -212020.27  -0.58201137 -1.0537778e-11 -4.9527557e-11     3.481533     3.481533     3.481533    42.199912 
     102            0   -19.196855   -212020.27   -212020.27   -212020.27   -212020.27  -0.58201137 -5.268889e-12 -2.3183112e-11     3.481533     3.481533     3.481533    42.199912 
     103            0   -19.196855   -212020.27   -212020.27   -212020.27   -212020.27  -0.58201137 2.897889e-11 1.3699111e-11     3.481533     3.481533     3.481533    42.199912 
Loop time of 0.000118971 on 1 procs for 3 steps with 4 atoms

93.3% CPU use with 1 MPI tasks x no OpenMP threads

Minimization stats:
  Stopping criterion = force tolerance
  Energy initial, next-to-last, final = 
        -19.1968549506     -19.1968549913     -19.1968549913
  Force two-norm initial, final = 0.000967807 1.11773e-15
  Force max component initial, final = 0.000279383 7.21645e-16
  Final line search alpha, max atom move = 1 7.21645e-16
  Iterations, force evaluations = 3 6

MPI task timing breakdown:
Section |  min time  |  avg time  |  max time  |%varavg| %total
---------------------------------------------------------------
Pair    | 7.1287e-05 | 7.1287e-05 | 7.1287e-05 |   0.0 | 59.92
Neigh   | 0          | 0          | 0          |   0.0 |  0.00
Comm    | 1.3828e-05 | 1.3828e-05 | 1.3828e-05 |   0.0 | 11.62
Output  | 1.6928e-05 | 1.6928e-05 | 1.6928e-05 |   0.0 | 14.23
Modify  | 0          | 0          | 0          |   0.0 |  0.00
Other   |            | 1.693e-05  |            |       | 14.23

Nlocal:    4 ave 4 max 4 min
Histogram: 1 0 0 0 0 0 0 0 0 0
Nghost:    360 ave 360 max 360 min
Histogram: 1 0 0 0 0 0 0 0 0 0
Neighs:    156 ave 156 max 156 min
Histogram: 1 0 0 0 0 0 0 0 0 0

Total # of neighbors = 156
Ave neighs/atom = 39
Neighbor list builds = 0
Dangerous builds = 0

# Obtain new stress tensor

variable tmp equal pe
variable e1 equal ${tmp}
variable e1 equal -19.196854991308
variable tmp equal press
variable p1 equal ${tmp}
variable p1 equal -212020.27365998
variable tmp equal pxx
variable pxx1 equal ${tmp}
variable pxx1 equal -212020.273659748
variable tmp equal pyy
variable pyy1 equal ${tmp}
variable pyy1 equal -212020.273658752
variable tmp equal pzz
variable pzz1 equal ${tmp}
variable pzz1 equal -212020.273661439
variable tmp equal pxy
variable pxy1 equal ${tmp}
variable pxy1 equal -0.582011374639105
variable tmp equal pxz
variable pxz1 equal ${tmp}
variable pxz1 equal 2.89788896858718e-11
variable tmp equal pyz
variable pyz1 equal ${tmp}
variable pyz1 equal 1.36991114878667e-11

# Compute elastic constant from pressure tensor

variable C1pos equal ${d1}
variable C1pos equal 0.623318500583991
variable C2pos equal ${d2}
variable C2pos equal 0.623218901455402
variable C3pos equal ${d3}
variable C3pos equal 0.623487599659711
variable C4pos equal ${d4}
variable C4pos equal -1.58066671013846e-09
variable C5pos equal ${d5}
variable C5pos equal -1.73873338115231e-09
variable C6pos equal ${d6}
variable C6pos equal 58.2011374625406

# Combine positive and negative

variable C1${dir} equal 0.5*(${C1neg}+${C1pos})
variable C16 equal 0.5*(${C1neg}+${C1pos})
variable C16 equal 0.5*(-0.623318500583991+${C1pos})
variable C16 equal 0.5*(-0.623318500583991+0.623318500583991)
variable C2${dir} equal 0.5*(${C2neg}+${C2pos})
variable C26 equal 0.5*(${C2neg}+${C2pos})
variable C26 equal 0.5*(-0.623218901455402+${C2pos})
variable C26 equal 0.5*(-0.623218901455402+0.623218901455402)
variable C3${dir} equal 0.5*(${C3neg}+${C3pos})
variable C36 equal 0.5*(${C3neg}+${C3pos})
variable C36 equal 0.5*(-0.623487599659711+${C3pos})
variable C36 equal 0.5*(-0.623487599659711+0.623487599659711)
variable C4${dir} equal 0.5*(${C4neg}+${C4pos})
variable C46 equal 0.5*(${C4neg}+${C4pos})
variable C46 equal 0.5*(-1.73873338115231e-09+${C4pos})
variable C46 equal 0.5*(-1.73873338115231e-09+-1.58066671013846e-09)
variable C5${dir} equal 0.5*(${C5neg}+${C5pos})
variable C56 equal 0.5*(${C5neg}+${C5pos})
variable C56 equal 0.5*(-4.58393345940153e-09+${C5pos})
variable C56 equal 0.5*(-4.58393345940153e-09+-1.73873338115231e-09)
variable C6${dir} equal 0.5*(${C6neg}+${C6pos})
variable C66 equal 0.5*(${C6neg}+${C6pos})
variable C66 equal 0.5*(58.2011374745536+${C6pos})
variable C66 equal 0.5*(58.2011374745536+58.2011374625406)

# Delete dir to make sure it is not reused

variable dir delete

# ---- Output final values
variable C11all equal ${C11}
variable C11all equal 96.4381682497333
variable C22all equal ${C22}
variable C22all equal 96.4381682497333
variable C33all equal ${C33}
variable C33all equal 96.4381682497333
variable C12all equal 0.5*(${C12}+${C21})
variable C12all equal 0.5*(62.9519491500105+${C21})
variable C12all equal 0.5*(62.9519491500105+62.9519491500105)
variable C13all equal 0.5*(${C13}+${C31})
variable C13all equal 0.5*(62.9519491500105+${C31})
variable C13all equal 0.5*(62.9519491500105+62.9519491500105)
variable C23all equal 0.5*(${C23}+${C32})
variable C23all equal 0.5*(62.9519491500105+${C32})
variable C23all equal 0.5*(62.9519491500105+62.9519491500105)
variable C44all equal ${C44}
variable C44all equal 58.2011374647008
variable C55all equal ${C55}
variable C55all equal 58.2011374664133
variable C66all equal ${C66}
variable C66all equal 58.2011374685471
variable C14all equal 0.5*(${C14}+${C41})
variable C14all equal 0.5*(5.09317035213286e-08+${C41})
variable C14all equal 0.5*(5.09317035213286e-08+2.634152093559e-11)
variable C15all equal 0.5*(${C15}+${C51})
variable C15all equal 0.5*(0+${C51})
variable C15all equal 0.5*(0+2.18658834310482e-09)
variable C16all equal 0.5*(${C16}+${C61})
variable C16all equal 0.5*(0+${C61})
variable C16all equal 0.5*(0+-5.26889219513353e-10)
variable C24all equal 0.5*(${C24}+${C42})
variable C24all equal 0.5*(4.94765119984919e-08+${C42})
variable C24all equal 0.5*(4.94765119984919e-08+2.00217714788848e-09)
variable C25all equal 0.5*(${C25}+${C52})
variable C25all equal 0.5*(0+${C52})
variable C25all equal 0.5*(0+-7.90361543626351e-11)
variable C26all equal 0.5*(${C26}+${C62})
variable C26all equal 0.5*(0+${C62})
variable C26all equal 0.5*(0+1.58067197902905e-10)
variable C34all equal 0.5*(${C34}+${C43})
variable C34all equal 0.5*(0+${C43})
variable C34all equal 0.5*(0+1.31720460767175e-10)
variable C35all equal 0.5*(${C35}+${C53})
variable C35all equal 0.5*(0+${C53})
variable C35all equal 0.5*(0+-5.00545591022155e-10)
variable C36all equal 0.5*(${C36}+${C63})
variable C36all equal 0.5*(0+${C63})
variable C36all equal 0.5*(0+1.05378149498235e-10)
variable C45all equal 0.5*(${C45}+${C54})
variable C45all equal 0.5*(1.00108891642103e-09+${C54})
variable C45all equal 0.5*(1.00108891642103e-09+1.52797781980051e-09)
variable C46all equal 0.5*(${C46}+${C64})
variable C46all equal 0.5*(-1.65970004564538e-09+${C64})
variable C46all equal 0.5*(-1.65970004564538e-09+9.220555809141e-10)
variable C56all equal 0.5*(${C56}+${C65})
variable C56all equal 0.5*(-3.16133342027692e-09+${C65})
variable C56all equal 0.5*(-3.16133342027692e-09+1.9494889425041e-09)

print "c11 = ${C11all} ${cunits}"
c11 = 96.4381682497333 GPa
print "c22 = ${C22all} ${cunits}"
c22 = 96.4381682497333 GPa
print "c33 = ${C33all} ${cunits}"
c33 = 96.4381682497333 GPa
print "c12 = ${C12all} ${cunits}"
c12 = 62.9519491500105 GPa
print "c13 = ${C13all} ${cunits}"
c13 = 62.9519491500105 GPa
print "c23 = ${C23all} ${cunits}"
c23 = 62.9519491500105 GPa
print "c44 = ${C44all} ${cunits}"
c44 = 58.2011374647008 GPa
print "c55 = ${C55all} ${cunits}"
c55 = 58.2011374664133 GPa
print "c66 = ${C66all} ${cunits}"
c66 = 58.2011374685471 GPa
print "c14 = ${C14all} ${cunits}"
c14 = 2.54790225211321e-08 GPa
print "c15 = ${C15all} ${cunits}"
c15 = 1.09329417155241e-09 GPa
print "c16 = ${C16all} ${cunits}"
c16 = -2.63444609756676e-10 GPa
print "c24 = ${C24all} ${cunits}"
c24 = 2.57393445731902e-08 GPa
print "c25 = ${C25all} ${cunits}"
c25 = -3.95180771813175e-11 GPa
print "c26 = ${C26all} ${cunits}"
c26 = 7.90335989514525e-11 GPa
print "c34 = ${C34all} ${cunits}"
c34 = 6.58602303835875e-11 GPa
print "c35 = ${C35all} ${cunits}"
c35 = -2.50272795511078e-10 GPa
print "c36 = ${C36all} ${cunits}"
c36 = 5.26890747491175e-11 GPa
print "c45 = ${C45all} ${cunits}"
c45 = 1.26453336811077e-09 GPa
print "c46 = ${C46all} ${cunits}"
c46 = -3.6882223236564e-10 GPa
print "c56 = ${C56all} ${cunits}"
c56 = -6.0592223888641e-10 GPa
print "lammps_sim_done"
lammps_sim_done
Total wall time: 0:00:00
