LAMMPS (10 Feb 2015)
# ---- initialize simulations
clear
units metal
dimension 3
boundary p p p
atom_style charge
atom_modify map array
# ---- create atoms
read_data /Users/eugeneragasa/pyflamestk_git/pypospack/tests/tests_integration/workflow/WorkflowLammpsThermalExpansion/param_9837/MgO_NaCl_unit.npt.T800/lammps.structure
  triclinic box = (0 0 0) to (4.2565 4.2565 4.2565) with tilt (0 0 0)
  1 by 1 by 1 MPI processor grid
  reading atoms ...
  8 atoms
# ---- define interatomic potential
include potential.mod
mass 1 24.305
mass 2 15.999

group Mg type 1
4 atoms in group Mg
group O type 2
4 atoms in group O

set group Mg charge 1.66768155913
  4 settings made for charge
set group O charge -1.66768155913
  4 settings made for charge

variable R_cut equal 10.0

pair_style buck/coul/long ${R_cut}
pair_style buck/coul/long 10
pair_coeff 1 1 0.0 0.5 0.0 ${R_cut}
pair_coeff 1 1 0.0 0.5 0.0 10
pair_coeff 1 2 1248.0823356 0.293822485762 0.0 ${R_cut}
pair_coeff 1 2 1248.0823356 0.293822485762 0.0 10
pair_coeff 2 2 31778.9957117 0.212502502632 34.6036277069 ${R_cut}
pair_coeff 2 2 31778.9957117 0.212502502632 34.6036277069 10

kspace_style pppm 1.0e-5

neighbor 1.0 bin
neigh_modify every 1 delay 0 check yes
# ---- define settings
compute eng all pe/atom
compute eatoms all reduce sum c_eng
# ---- run minimization
reset_timestep 0
fix 1 all box/relax iso 0.0 vmax 0.001
thermo 10
thermo_style custom step pe lx ly lz xy xz yz press pxx pyy pzz pxy pxz pyz c_eatoms
min_style cg
minimize 1e-25 1e-25 5000 10000
PPPM initialization ...
  G vector (1/distance) = 0.352908
  grid = 8 8 8
  stencil order = 5
  estimated absolute RMS force accuracy = 3.98663e-05
  estimated relative force accuracy = 2.76856e-06
  using double precision FFTs
  3d grid and FFT values/proc = 3375 512
Neighbor list info ...
  1 neighbor list requests
  update every 1 steps, delay 0 steps, check yes
  master list distance cutoff = 11
Memory usage per processor = 4.06549 Mbytes
Step PotEng Lx Ly Lz Xy Xz Yz Press Pxx Pyy Pzz Pxy Pxz Pyz eatoms 
       0   -110.76064       4.2565       4.2565       4.2565            0            0            0    174504.14    174504.14    174504.14    174504.14 9.3704156e-11 -1.8744789e-10 -4.5445427e-11   -110.76064 
      10   -110.96575     4.299065     4.299065     4.299065            0            0            0    110293.78    110293.78    110293.78    110293.78 1.4024136e-10 -8.8674493e-11 1.1163093e-10   -110.96575 
      20   -111.08678      4.34163      4.34163      4.34163            0            0            0    53874.038    53874.038    53874.038    53874.038 -1.7149362e-10 -3.6153785e-12 -2.8025662e-10   -111.08678 
      30   -111.12967     4.384195     4.384195     4.384195            0            0            0    4480.0037    4480.0037    4480.0037    4480.0037 2.9824961e-11 1.1991676e-10 2.4884808e-10   -111.12967 
      35   -111.13002    4.3883439    4.3883439    4.3883439            0            0            0  -0.29149971   -0.2914997  -0.29149971  -0.29149971 -2.2034763e-11 5.2889443e-11 3.1711826e-11   -111.13002 
Loop time of 0.0160279 on 1 procs for 35 steps with 8 atoms

Minimization stats:
  Stopping criterion = linesearch alpha is zero
  Energy initial, next-to-last, final = 
        -110.760644492     -111.130018171     -111.130018171
  Force two-norm initial, final = 25.1985 4.50194e-05
  Force max component initial, final = 25.1985 4.47407e-05
  Final line search alpha, max atom move = 0.5 2.23704e-05
  Iterations, force evaluations = 35 47

Pair  time (%) = 0.00425124 (26.524)
Kspce time (%) = 0.00252724 (15.7677)
Neigh time (%) = 0 (0)
Comm  time (%) = 0.000502348 (3.1342)
Outpt time (%) = 3.88622e-05 (0.242466)
Other time (%) = 0.00870824 (54.3317)

Nlocal:    8 ave 8 max 8 min
Histogram: 1 0 0 0 0 0 0 0 0 0
Nghost:    2189 ave 2189 max 2189 min
Histogram: 1 0 0 0 0 0 0 0 0 0
Neighs:    2344 ave 2344 max 2344 min
Histogram: 1 0 0 0 0 0 0 0 0 0

Total # of neighbors = 2344
Ave neighs/atom = 293
Neighbor list builds = 0
Dangerous builds = 0
unfix 1
# ---- define output variables ----
variable natoms equal "count(all)"
variable tot_energy equal "c_eatoms"
variable length_x equal "lx"
variable length_y equal "ly"
variable length_z equal "lz"
variable tilt_xy equal "xy"
variable tilt_xz equal "xz"
variable tilt_yz equal "yz"
variable tot_press equal "press"
variable press_xx equal "pxx"
variable press_yy equal "pyy"
variable press_zz equal "pzz"
variable press_xy equal "pxy"
variable press_xz equal "pxz"
variable press_yz equal "pyz"

# ---- output ----
print "pypospack:output_section:begin"
pypospack:output_section:begin
print "tot_energy = ${tot_energy}"
tot_energy = -111.130018170686
print "num_atoms = ${natoms}"
num_atoms = 8
print "xx = ${length_x}"
xx = 4.38834393192064
print "yy = ${length_y}"
yy = 4.38834393192064
print "zz = ${length_z}"
zz = 4.38834393192064
print "xy = ${tilt_xy}"
xy = 0
print "xz = ${tilt_xz}"
xz = 0
print "yz = ${tilt_yz}"
yz = 0
print "tot_press = ${tot_press}"
tot_press = -0.291499705167032
print "pxx = ${press_xx}"
pxx = -0.291499704907524
print "pyy = ${press_yy}"
pyy = -0.291499705134451
print "pzz = ${press_zz}"
pzz = -0.291499705459123
print "pxy = ${press_xy}"
pxy = -2.20347627600699e-11
print "pxz = ${press_xz}"
pxz = 5.28894429779567e-11
print "pyz = ${press_yz}"
pyz = 3.17118260401048e-11
print "pypospack:output_section:done"
pypospack:output_section:done
print "pypospack:lammps_sim:done"
pypospack:lammps_sim:done
#------------------------------------------------------------------------------
# RUN THERMOSTAT
# running using an NPT Nose-Hoover style thermostat
#------------------------------------------------------------------------------
variable tempdamp equal 0.1
variable pressdamp equal 1.0
# set initial velocities
velocity all create 800 3522684 mom yes dist gaussian loop all
# fix for Nose-Hoover style thermostat
fix 20 all npt temp 800 800 0.1 aniso 0.0 0.0 1.0 drag 1.0 couple xyz
variable boxx equal lx
variable boxy equal ly
variable boxz equal lz
variable boxp equal press
variable boxt equal temp
# calculate averages every 10000 steps
reset_timestep 0
fix 21 all ave/time 10 10 100 v_boxx v_boxy v_boxz v_boxp v_boxt file lattice.out
thermo_style custom step temp pe ke etotal press lx ly lz press pxx pyy pzz pxy pxz pyz vol
thermo_modify flush yes
thermo 100
run 100000
PPPM initialization ...
  G vector (1/distance) = 0.351569
  grid = 8 8 8
  stencil order = 5
  estimated absolute RMS force accuracy = 4.24255e-05
  estimated relative force accuracy = 2.94629e-06
  using double precision FFTs
  3d grid and FFT values/proc = 3375 512
Memory usage per processor = 3.06549 Mbytes
Step Temp PotEng KinEng TotEng Press Lx Ly Lz Press Pxx Pyy Pzz Pxy Pxz Pyz Volume 
       0          800   -111.12999   0.72385681   -110.40613    9152.7432    4.3883439    4.3883439    4.3883439    9152.7432    5925.4502    8750.2572    12782.522     553.3618   -93.044148    6372.9377    84.508807 
     100    535.73271   -110.78816   0.48474222   -110.30342   -1136.1898      4.40683      4.40683      4.40683   -1136.1898   -10077.166     7876.073   -1207.4765   -1952.6927   -2071.3152   -633.52073    85.581305 
     200     636.4021   -110.68869   0.57582999   -110.11286   -12094.996    4.4130951    4.4130951    4.4130951   -12094.996   -16933.327   -3312.8191    -16038.84   -1440.6971    1975.2796   -5929.7853    85.946831 
     300    670.77119   -110.54312   0.60692787    -109.9362      18380.2    4.3995222    4.3995222    4.3995222      18380.2    24136.367     8177.935    22826.298    5302.5515    1030.5699    1580.0466    85.156253 
     400    363.39942   -110.13839   0.32881143   -109.80957   -4423.5064    4.4139264    4.4139264    4.4139264   -4423.5064   -3631.8281    5903.3653   -15542.057   -5825.1263    -6904.287    937.92241    85.995407 
     500    331.62127   -110.01824   0.30005789   -109.71818   -23282.779    4.4219606    4.4219606    4.4219606   -23282.779    -6957.409    -17497.63   -45393.297   -6074.3205   -2834.5271   -3941.9441    86.465849 
     600    718.97836   -110.32362   0.65054673   -109.67307     1993.874    4.4074548    4.4074548    4.4074548     1993.874    8896.8586    8448.2601   -11363.497    6769.5435    838.89489   -3036.3255    85.617706 
     700     717.2545   -110.31815   0.64898694   -109.66916    5070.4637    4.4149057    4.4149057    4.4149057    5070.4637     7229.463     342.1553    7639.7729   -914.49607   -7378.4111    2312.3563    86.052657 
     800    987.51406   -110.56394   0.89352347   -109.67042   -6978.3395    4.4220926    4.4220926    4.4220926   -6978.3395    3764.4599   -22722.108   -1977.3709   -4874.7738   -11348.048    1737.0359    86.473589 
     900    1368.0873   -110.90515    1.2378742   -109.66727    3113.8952    4.4117126    4.4117126    4.4117126    3113.8952    2834.1761   -3868.3518    10375.861   -766.15985    4641.1338   -1092.2233    85.866078 
    1000    1092.9098   -110.66439   0.98888777    -109.6755   -170.44836    4.4148628    4.4148628    4.4148628   -170.44836    6552.0418   -6068.9498   -994.43708   -3948.0056   -2399.2085   -5369.3297    86.050149 
    1100    882.88911   -110.47647   0.79885662   -109.67761   -10819.708     4.418843     4.418843     4.418843   -10819.708     3994.261    -15187.94   -21265.445    -379.3773   -9285.6789   -91.653378    86.283096 
    1200    891.83471   -110.48089   0.80695079   -109.67394   -5760.2096    4.4142636    4.4142636    4.4142636   -5760.2096    8625.6609   -221.49213   -25684.797    2895.7678    842.56385    8846.7063    86.015116 
    1300    431.66958   -110.06817    0.3905837   -109.67758    3354.1051    4.4174828    4.4174828    4.4174828    3354.1051    22683.595    4244.5757   -16865.856    -6692.547   -6116.8343   -5233.5508    86.203442 
    1400    466.49489   -110.09849   0.42209438    -109.6764   -7281.1362    4.4162328    4.4162328    4.4162328   -7281.1362    7014.2341   -21003.401    -7854.242   -5091.3521   -5313.8949   -4035.6033    86.130282 
    1500    641.48891   -110.25523   0.58043264    -109.6748    -11292.37     4.414971     4.414971     4.414971    -11292.37   -7567.4269   -17534.248    -8775.435    742.93413   -440.84149    5661.3625     86.05648 
    1600    787.08994   -110.38863   0.71217552   -109.67645   -12041.618    4.4169978    4.4169978    4.4169978   -12041.618   -14798.928    -9662.468   -11663.459   -6518.0865   -7951.7071   -1255.6875    86.175053 
    1700     992.2116   -110.57287   0.89777391    -109.6751    4711.1537    4.4160651    4.4160651    4.4160651    4711.1537    5633.9254    15139.924   -6640.3882   -9404.0372   -266.84484   -1326.9752    86.120473 
    1800    1340.0306   -110.88274    1.2124878   -109.67025   -5043.2981    4.4173985    4.4173985    4.4173985   -5043.2981    1783.1812    126.21525   -17039.291   -1610.5108    1117.3131   -2602.0162    86.198504 
    1900    1040.0522   -110.61524   0.94106109   -109.67418    1793.7083    4.4132078    4.4132078    4.4132078    1793.7083    5071.6395    19144.787   -18835.302    2907.2763   -7764.3545   -57.152825    85.953415 
    2000    1075.8279   -110.64847   0.97343167   -109.67504   -6180.9227    4.4165642    4.4165642    4.4165642   -6180.9227    1431.3915    4872.6389   -24846.798   -12088.024   -5012.7192    3388.8236    86.149673 
    2100    858.09972    -110.4511   0.77642666   -109.67467    -9887.017    4.4180513    4.4180513    4.4180513    -9887.017   -5815.5345   -3721.4424   -20124.074   -3214.9449    1922.0356    620.98363    86.236727 
    2200    603.96486   -110.22309    0.5464801   -109.67661   -6277.1454     4.410097     4.410097     4.410097   -6277.1454   -6874.6203   -6278.0906   -5678.7253   -35.174882   -7138.1188    -1567.837    85.771779 
    2300     424.3465   -110.06326   0.38395763    -109.6793    9036.6432    4.4191248    4.4191248    4.4191248    9036.6432    5113.9873    22481.008   -485.06599   -6723.9618   -6537.5945    589.35097    86.299606 
    2400    686.45046    -110.2944    0.6211148   -109.67329    1648.6789    4.4172161    4.4172161    4.4172161    1648.6789   -11146.864    13795.375    2297.5257    3858.6776    2065.2753    4048.0378    86.187828 
    2500    612.88097   -110.22891   0.55454758   -109.67436   -5487.1025     4.409118     4.409118     4.409118   -5487.1025   -21511.975   -3488.3437     8539.011   -4789.2135   -6215.2386   -3812.2055    85.714671 
    2600    909.54368   -110.50157   0.82297424    -109.6786   -11633.408    4.4217006    4.4217006    4.4217006   -11633.408   -18479.287   -6805.8634    -9615.073    1376.6567   -1559.6979    3380.3564    86.450596 
    2700    1197.7906    -110.7576    1.0837861   -109.67381     6587.504    4.4148339    4.4148339    4.4148339     6587.504    13403.085    15839.326   -9479.8988    6384.6322   -3250.7172    4316.8978    86.048463 
    2800    1086.4254   -110.65771   0.98302054   -109.67469    2738.9681    4.4106975    4.4106975    4.4106975    2738.9681     9649.121    8473.4918   -9905.7084   -8779.9212   -9335.4547   -2970.8724    85.806822 
    2900    904.72712    -110.4962   0.81861611   -109.67759    3355.6191    4.4212452    4.4212452    4.4212452    3355.6191    18722.315    2947.0701   -11602.528    989.11873   -780.94327    4021.3848    86.423886 
    3000    889.47994   -110.47717   0.80482014   -109.67234    9368.7263    4.4126229    4.4126229    4.4126229    9368.7263     14641.96    17509.062   -4044.8429    6295.6355    1868.7081    1781.1875    85.919241 
    3100    424.04381   -110.05975   0.38368375   -109.67607   -12749.484    4.4164562    4.4164562    4.4164562   -12749.484   -11616.838   -17158.288   -9473.3267   -2193.9039   -6737.9296   -940.07986    86.143356 
    3200     357.2707    -109.9981   0.32326604   -109.67483   -10793.372    4.4194456    4.4194456    4.4194456   -10793.372      -763.25    -23714.21   -7902.6571   -3809.7347   -4680.9766   -2259.7226    86.318401 
    3300     547.7135   -110.16723   0.49558268   -109.67165    19486.252    4.4082232    4.4082232    4.4082232    19486.252    45277.486    4597.5498    8583.7192    1137.7129    233.55236    563.25651    85.662496 
    3400    715.30487   -110.32397   0.64722288   -109.67675   -7600.8591    4.4197407    4.4197407    4.4197407   -7600.8591   -4707.4592   -3198.0503   -14897.068    545.45271   -3644.6819    1558.5575    86.335693 
    3500    935.49987   -110.52272   0.84645994   -109.67626   -3998.6196    4.4165008    4.4165008    4.4165008   -3998.6196     9867.865   -3139.9429   -18723.781   -474.30892   -1693.7495   -2827.9444    86.145963 
    3600    1358.9754   -110.90448    1.2296295   -109.67485    5034.8788    4.4084327    4.4084327    4.4084327    5034.8788    17553.997    3444.4659   -5893.8263   -3201.7913   -538.71262    1089.3267    85.674709 
    3700    1067.2433   -110.64396   0.96566418    -109.6783   -13858.032    4.4233033    4.4233033    4.4233033   -13858.032    2959.6002    -22792.92   -21740.776   -16618.574   -7090.5623   -842.80932    86.544638 
    3800    1021.5154   -110.59813   0.92428864   -109.67384    -2387.346    4.4114313    4.4114313    4.4114313    -2387.346    12504.668   -11349.937   -8316.7688    2553.5494    -1137.529   -2388.5947    85.849654 
    3900    697.54749   -110.30882   0.63115563   -109.67767    11281.365    4.4098757    4.4098757    4.4098757    11281.365    34773.128   -12711.552     11782.52    543.50693    3450.9247    1309.8275    85.758872 
    4000    468.37177   -110.10003   0.42379262   -109.67624   -21507.735    4.4228713    4.4228713    4.4228713   -21507.735    -32059.86   -30102.728   -2360.6181   -7545.4985   -3532.2645   -2505.3982    86.519279 
    4100    358.77451   -109.99778   0.32462672   -109.67316    1954.9139    4.4105323    4.4105323    4.4105323    1954.9139   -5715.1232     1865.758    9714.1068   -1356.1083   -2949.4109    532.88637    85.797179 
    4200    640.94564   -110.25424   0.57994108    -109.6743   -906.44327    4.4151933    4.4151933    4.4151933   -906.44327   -3389.4619   -7000.7058    7670.8379    -11232.75    -93.31918    1041.0653    86.069478 
    4300    829.77166   -110.42471   0.75079483   -109.67391    5815.0796    4.4164083    4.4164083    4.4164083    5815.0796    33199.073   -12323.461   -3430.3737   -1990.4541   -5544.1951    -2499.793     86.14055 
    4400     1189.326   -110.75056    1.0761272   -109.67443    2081.0513    4.4119946    4.4119946    4.4119946    2081.0513     19898.96   -1030.9411   -12624.865    5268.0235   -232.02333    1761.0411    85.882548 
    4500     1080.057    -110.6549   0.97725831   -109.67764    -1978.362    4.4174423    4.4174423    4.4174423    -1978.362    16848.182   -12280.241   -10503.026    -8784.033     1886.602   -1837.8499    86.201069 
    4600     1061.382    -110.6362   0.96036076   -109.67583   -9893.2664    4.4137898    4.4137898    4.4137898   -9893.2664    4943.8978   -25094.718   -9528.9793   -12007.389   -9959.2307    1375.6947    85.987422 
    4700    767.30806   -110.37207   0.69427646    -109.6778   -6574.6739    4.4128564    4.4128564    4.4128564   -6574.6739    -9644.722    -5093.022   -4986.2776    4339.6136    598.00053    3244.3369    85.932882 
    4800    552.35542   -110.17871   0.49978279   -109.67892   -1077.2743    4.4168582    4.4168582    4.4168582   -1077.2743   -7982.4152   -108.16557    4858.7578    3326.8542     5358.253   -3884.2213    86.166879 
    4900    433.05907   -110.06737   0.39184094   -109.67553   -421.23322    4.4174911    4.4174911    4.4174911   -421.23322    11059.966   -10873.435   -1450.2304   -10414.489    -2165.275    3726.6549    86.203929 
    5000    529.47904   -110.15297   0.47908376   -109.67388   -6266.8806    4.4099742    4.4099742    4.4099742   -6266.8806   -18507.899    615.22114   -907.96356   -1133.6379    445.29853    1388.2608    85.764616 
    5100    653.61375   -110.27402   0.59140345   -109.68262   -9134.2668    4.4168543    4.4168543    4.4168543   -9134.2668   -7908.7936   -14772.704   -4721.3028   -3975.1351     3129.284    115.54933     86.16665 
    5200    1078.9976   -110.65563   0.97629969   -109.67933    1462.3222    4.4151486    4.4151486    4.4151486    1462.3222     22451.83   -7219.7103   -10845.153   -4120.6042    2608.3561    3357.6683    86.066862 
    5300    1206.4179   -110.76684    1.0915923   -109.67525    15009.825    4.4042267    4.4042267    4.4042267    15009.825    54004.702    1822.9688   -10798.197     1641.106    6356.2436   -2927.1071    85.429721 
    5400    1110.4453   -110.68673    1.0047542   -109.68198   -10728.274    4.4244978    4.4244978    4.4244978   -10728.274    11349.614    -22378.64   -21155.796   -10215.639    4736.7368    1836.3396    86.614768 
    5500    990.83128   -110.57248   0.89652497   -109.67596   -2571.9537    4.4130601    4.4130601    4.4130601   -2571.9537    5494.1292   -8016.6323   -5193.3579   -7345.2424   -5188.8617    2101.9469    85.944782 
    5600     693.6496    -110.3007   0.62762874   -109.67307    3444.0539    4.4006869    4.4006869    4.4006869    3444.0539   -2363.0819    3241.0744    9454.1693    4380.1648    4160.1325    -182.0044    85.223902 
    5700    385.85741   -110.02956   0.34913189   -109.68043   -34567.521    4.4323264    4.4323264    4.4323264   -34567.521   -53932.732   -35532.866   -14236.965   -6795.9818    10968.951    182.34793    87.075344 
    5800    558.12989   -110.17974   0.50500766   -109.67473    7552.3964    4.4061862    4.4061862    4.4061862    7552.3964    16877.289   -4907.6159    10687.516   -4468.2721   -1397.9277   -1937.7533    85.543798 
    5900    534.21705   -110.15977   0.48337082    -109.6764    15878.071    4.4047847    4.4047847    4.4047847    15878.071    23055.018    15586.768    8992.4275   -2260.0359    2996.7763     2618.824    85.462199 
    6000    765.72734   -110.36985   0.69284619     -109.677   -20402.591    4.4323823    4.4323823    4.4323823   -20402.591    -823.8052   -32011.325   -28372.642   -4963.1827    8566.2885   -450.49469    87.078639 
    6100    1232.0022   -110.78555    1.1147415   -109.67081    14814.542    4.4026043    4.4026043    4.4026043    14814.542    55235.271   -5327.8735   -5463.7702    8492.2179    2106.0272   -3076.9492    85.335347 
    6200    1108.4022   -110.68071    1.0029056    -109.6778    4472.2422    4.4126915    4.4126915    4.4126915    4472.2422    34778.916    -2605.306   -18756.883    2677.7333    8620.9296    315.35701     85.92325 
    6300    980.28223    -110.5609   0.88697996   -109.67392   -14281.064    4.4258839    4.4258839    4.4258839   -14281.064     4443.098   -22538.661    -24747.63    -13464.68    6347.3155   -3486.8966    86.696196 
    6400    783.50461   -110.37801   0.70893144   -109.66907    12868.018    4.4029806    4.4029806    4.4029806    12868.018    25718.065    1512.7995    11373.189     2227.414   -4552.6452    1095.8297    85.357231 
    6500    552.22113   -110.17639   0.49966128   -109.67673   -21524.019    4.4179395    4.4179395    4.4179395   -21524.019   -48773.444   -9272.2965   -6526.3155    6633.1454    7615.1207    2572.1464    86.230178 
    6600    402.86127   -110.04149   0.36451734   -109.67697   -14305.794    4.4217834    4.4217834    4.4217834   -14305.794   -27950.503       -10575   -4391.8792   -4281.6593    1370.3807   -5963.5179    86.455455 
    6700    655.62438   -110.26702   0.59322272    -109.6738    17508.222     4.403909     4.403909     4.403909    17508.222    33575.622    7891.5193    11057.526    586.63448   -1689.6453    1340.3071    85.411236 
    6800    829.25151   -110.42798    0.7503242   -109.67766   -3043.7677    4.4155205    4.4155205    4.4155205   -3043.7677    22748.165   -18826.165   -13053.303   -490.21219    2248.1685    1999.8954    86.088615 
    6900    1041.8608   -110.62178   0.94269755   -109.67909   -9717.8073    4.4205373    4.4205373    4.4205373   -9717.8073     21917.96   -25675.151   -25396.231   -5197.1809    420.63667   -2900.3009    86.382382 
    7000     1249.129   -110.80758    1.1302382   -109.67734    8154.9608    4.4045542    4.4045542    4.4045542    8154.9608    38720.954   -6687.5316   -7568.5403    6149.2664    4496.9857    1878.0664    85.448784 
    7100     1014.431   -110.59749   0.91787851   -109.67961    2818.7296    4.4131752    4.4131752    4.4131752    2818.7296     18673.51   -7580.5271   -2636.7946    3842.7374    6287.7801   -2117.8106     85.95151 
    7200     852.7404   -110.44816   0.77157743   -109.67658   -24329.647    4.4257824    4.4257824    4.4257824   -24329.647   -26002.288   -24104.571   -22882.083   -8872.4173   -1617.0475   -4258.6892    86.690232 
    7300    587.89617   -110.20205   0.53194081   -109.67011    19157.753    4.4011319    4.4011319    4.4011319    19157.753    16629.673    22075.763    18767.823    5994.6223   -126.16865   -85.286127    85.249761 
    7400    483.08127   -110.11258   0.43710208   -109.67548    -10887.43    4.4124648    4.4124648    4.4124648    -10887.43   -39338.701   -4419.1535    11095.564    1371.6572    3909.8621   -2450.3045    85.910006 
    7500    491.04908    -110.1221   0.44431152   -109.67779   -27961.552    4.4210682    4.4210682    4.4210682   -27961.552   -40965.211   -30681.968   -12237.479   -7199.5298    761.37295   -3124.9794    86.413511 
    7600     791.7862   -110.39113   0.71642479    -109.6747    7462.2815    4.4065497    4.4065497    4.4065497    7462.2815    21462.293     -2806.47    3731.0213    2205.9024   -257.59813   -1356.8274    85.564974 
    7700    986.92751   -110.56916   0.89299275   -109.67617   -1985.1179     4.417024     4.417024     4.417024   -1985.1179    26592.437   -18455.753   -14092.038   -6343.0716   -2660.4124   -1965.5945    86.176587 
    7800    1075.6589   -110.65161   0.97327875   -109.67833    5244.1689     4.411061     4.411061     4.411061    5244.1689     32945.42   -6759.7868   -10453.127    2792.9499     2580.384   -5114.7522    85.828039 
    7900    1083.6764   -110.65968    0.9805332   -109.67915    9860.0632    4.4128776    4.4128776    4.4128776    9860.0632    36425.845    7122.0868   -13967.742    686.94583   -2114.1144   -160.39446    85.934121 
    8000    962.37397   -110.54863   0.87077619   -109.67785   -5688.4362      4.41716      4.41716      4.41716   -5688.4362    6601.2068    -8163.902   -15502.613   -8095.2188   -973.57351    1170.6981    86.184543 
    8100    610.61609    -110.2287   0.55249827    -109.6762    6791.0465    4.4083955    4.4083955    4.4083955    6791.0465    7041.1928    6749.8929    6582.0539   -2455.3459    1531.7502   -6030.4391    85.672541 
    8200    505.51282   -110.13268   0.45739862   -109.67528   -7482.5049    4.4211161    4.4211161    4.4211161   -7482.5049   -2827.9807   -8369.2595   -11250.274    6496.3433    -9131.603   -2159.5051    86.416318 
    8300    487.96269   -110.11528    0.4415189   -109.67376    2709.0452    4.4075923    4.4075923    4.4075923    2709.0452    20720.519    -18358.42    5765.0373   -900.90476    2189.6544   -3850.8136     85.62572 
    8400    568.88873   -110.19427   0.51474248   -109.67953   -6791.7931    4.4096926    4.4096926    4.4096926   -6791.7931   -15781.028   -7000.5929    2406.2416   -3705.8505    352.99095   -3430.1101    85.748185 
    8500    931.75691   -110.51873   0.84307323   -109.67565   -19369.293    4.4247372    4.4247372    4.4247372   -19369.293   -17945.062   -14802.993   -25359.826      5663.68   -10885.668    2875.1565    86.628831 
    8600    1201.7511   -110.76107    1.0873697    -109.6737    3964.8982    4.4047165    4.4047165    4.4047165    3964.8982     27190.61   -7019.3334   -8276.5819   -3439.2351   -3008.4701    -9303.579    85.458226 
    8700    1209.8526   -110.77321    1.0947001   -109.67851    33.913065    4.4126511    4.4126511    4.4126511    33.913065    19527.895   -1606.0921   -17820.064    6660.8359    339.93321   -4729.3582     85.92089 
    8800    951.06029   -110.53737   0.86053934   -109.67683   -2776.5342    4.4231851    4.4231851    4.4231851   -2776.5342    24564.963   -5458.8436   -27435.722    6387.5118   -7111.6498    4902.1684    86.537699 
    8900    798.07784   -110.39748    0.7221176   -109.67536    9008.0387    4.4012331    4.4012331    4.4012331    9008.0387    33704.659    -3388.757   -3291.7861   -7376.1663   -1561.4369   -3577.8491    85.255639 
    9000    489.28653   -110.12217   0.44271674   -109.67945    -5482.753    4.4153639    4.4153639    4.4153639    -5482.753    4632.5232   -16303.694   -4777.0878    1867.9017    -553.7808    623.91836    86.079455 
    9100    255.64574   -109.90724   0.23131364   -109.67593   -11711.823    4.4238764    4.4238764    4.4238764   -11711.823   -5949.9217   -16562.383   -12623.164    4829.6526   -12417.441   -1597.3778     86.57828 
    9200    498.95786   -110.12238   0.45146756   -109.67092    26562.383    4.3961892    4.3961892    4.3961892    26562.383    49383.822    17777.762    12525.566   -2746.5773    1900.9025   -4730.6043    84.962862 
    9300    791.84204   -110.39604   0.71647532   -109.67957   -15057.102    4.4173051    4.4173051    4.4173051   -15057.102   -14930.558   -22370.898   -7869.8504    1902.6211   -1031.3511    5355.3702     86.19304 
    9400    941.97725   -110.53019   0.85232081   -109.67787   -21446.029    4.4208491    4.4208491    4.4208491   -21446.029   -19654.689   -15822.986   -28860.411    5665.8802   -13451.483   -954.43941    86.400661 
    9500    1405.0807   -110.94244    1.2713465   -109.67109    11420.549    4.3970726    4.3970726    4.3970726    11420.549    27387.923     10436.28   -3562.5562   -148.19798   -1479.8363   -4325.4081     85.01409 
    9600    1193.7512   -110.75698    1.0801312   -109.67685   -12264.696    4.4216067    4.4216067    4.4216067   -12264.696   -2562.8017   -12344.417   -21886.869    1386.0377   -2483.4725   -43.305412    86.445092 
    9700    691.56556   -110.30535   0.62574306   -109.67961   -6408.5395     4.414967     4.414967     4.414967   -6408.5395    13447.755   -16396.731   -16276.643    3205.0783    -7900.953    96.534108    86.056243 
    9800    692.98772   -110.29996   0.62702985   -109.67293    21026.821    4.3972956    4.3972956    4.3972956    21026.821    39624.607    9806.5138    13649.341     3383.348    6896.0708     2935.632    85.027022 
    9900    328.53574   -109.97485   0.29726604   -109.67758   -6375.5604    4.4218771    4.4218771    4.4218771   -6375.5604   -3256.4439   -13105.275    -2764.962   -2226.8025   -2872.5467    125.48491    86.460951 
   10000    245.32377   -109.89851    0.2219741   -109.67654   -6126.4634    4.4156633    4.4156633    4.4156633   -6126.4634    2939.7946   -21577.425    258.24022    1961.5729   -8678.8681   -3377.7268    86.096966 
   10100    871.15501   -110.45868   0.78823936   -109.67044    10411.496    4.4015125    4.4015125    4.4015125    10411.496    31648.302   -7446.6885    7032.8757   -542.36519    7783.1502    1187.2491    85.271874 
   10200    1078.3956   -110.65104   0.97575496   -109.67528   -7705.2147    4.4177681    4.4177681    4.4177681   -7705.2147     13069.17   -15124.586   -21060.229   -2294.7678   -2899.5614    1143.6074    86.220146 
   10300    1069.0669   -110.64565   0.96731418   -109.67834    -11394.48    4.4156115    4.4156115    4.4156115    -11394.48   -6853.7718   -5364.0792   -21965.589    8192.3225   -9597.0921    625.44987    86.093937 
   10400    1318.2845   -110.86556    1.1928115   -109.67275    5379.6241    4.4015797    4.4015797    4.4015797    5379.6241     20164.69   -1461.8525   -2563.9653   -2038.5246   -43.268241   -1012.1261     85.27578 
   10500    905.47468   -110.49953   0.81929252   -109.68023   -15303.968    4.4217713    4.4217713    4.4217713   -15303.968    -1448.598   -27652.495    -16810.81   -346.27703   -6223.9793   -3400.0233    86.454747 
   10600    486.76839   -110.11903   0.44043827   -109.67859    691.50816    4.4134929    4.4134929    4.4134929    691.50816    10393.805   -7975.8374   -343.44278    6305.9415   -4318.6663    3275.7088    85.970073 
   10700    465.57099   -110.09519   0.42125841   -109.67393    23595.758    4.4024688    4.4024688    4.4024688    23595.758    55261.652    2479.5877    13046.033   -1719.4401    5759.8598    -432.9995    85.327466 
   10800    422.90988    -110.0604   0.38265775   -109.67774   -14243.164    4.4219424    4.4219424    4.4219424   -14243.164    1657.7108   -32865.188   -11522.014    965.24671     -6621.13   -3531.9083    86.464781 
   10900    578.94795   -110.19977   0.52384427   -109.67593   -5242.3797    4.4118013    4.4118013    4.4118013   -5242.3797    340.07584   -7715.7361   -8351.4787    3686.3355   -4941.3745     1160.659    85.871258 
   11000    904.92697   -110.49466   0.81879694   -109.67586      8307.07    4.4058949    4.4058949    4.4058949      8307.07      32109.2    7151.2281   -14339.218   -11884.432    4192.0899   -4091.9905    85.526836 
   11100    1042.6618   -110.62187   0.94342233   -109.67845   -11154.283     4.419103     4.419103     4.419103   -11154.283    6163.7919   -11241.426   -28385.214    4373.2868   -2260.4461   -3178.7573    86.298329 
   11200    1205.5954   -110.76629    1.0908481   -109.67544   -6230.1507    4.4119193    4.4119193    4.4119193   -6230.1507    2677.4416   -7229.0953   -14138.798    8861.8453    2023.4524    2791.7118    85.878151 
   11300    1103.2992   -110.67467   0.99828827   -109.67638   -42.731987    4.4089141    4.4089141    4.4089141   -42.731987    17685.389   -6501.4382   -11312.146   -7631.2165    4064.1279   -5877.6479    85.702779 
   11400    890.72481   -110.48401   0.80594653   -109.67806   -11959.224    4.4169964    4.4169964    4.4169964   -11959.224   -379.96167   -23523.423   -11974.288    2196.5799   -7840.4292   -3173.2979    86.174967 
   11500    728.42517   -110.33485    0.6590944   -109.67575   -9162.6246    4.4123598    4.4123598    4.4123598   -9162.6246   -8795.6105    -19868.34    1176.0767    1344.0759   -3963.9893     1889.362    85.903874 
   11600    360.93592   -110.00445   0.32658241   -109.67787    9253.3599    4.4097516    4.4097516    4.4097516    9253.3599    47016.467   -13602.336   -5654.0521    -1285.214    5823.2075   -7049.1602    85.751631 
   11700    476.38685   -110.11189   0.43104483   -109.68085   -4564.8635     4.412731     4.412731     4.412731   -4564.8635    2903.3279    -4473.103   -12124.815    3834.0711   -2524.6271     -2712.81    85.925559 
   11800    604.42064   -110.22587    0.5468925   -109.67897   -1182.4574    4.4132106    4.4132106    4.4132106   -1182.4574    4724.7341    6247.6093   -14519.716    6200.3549    -4600.443    179.83362    85.953575 
   11900    795.47677   -110.39746    0.7197641    -109.6777   -9303.9237    4.4186447    4.4186447    4.4186447   -9303.9237    9999.2768   -14621.961   -23289.087   -9879.7828    2152.7484    -4288.905    86.271481 
   12000    1018.9587    -110.5966   0.92197526   -109.67463    15635.891    4.4034747    4.4034747    4.4034747    15635.891    38821.925    2228.7045     5857.044    1520.6385   -1505.8788   -737.98141     85.38597 
   12100    1306.2871    -110.8609     1.181956   -109.67894   -10037.957    4.4166597    4.4166597    4.4166597   -10037.957    746.24241   -15812.776   -15047.338    12784.357   -601.63863   -1573.5959    86.155266 
   12200    1041.0345   -110.61834    0.9419499   -109.67639   -12076.616    4.4200799    4.4200799    4.4200799   -12076.616    10187.766   -28807.735    -17609.88   -5375.0578     5200.041   -2964.4465     86.35557 
   12300     957.1633   -110.53786   0.86606147    -109.6718    4918.1084    4.4002433    4.4002433    4.4002433    4918.1084    7858.0169   -2407.5986    9303.9068    3358.0364    -1399.981   -373.12222    85.198132 
   12400    676.97195   -110.29144   0.61253845   -109.67891   -18144.864     4.422067     4.422067     4.422067   -18144.864   -13873.675   -16573.159   -23987.759    3077.2268   -1604.7273   -2085.6112     86.47209 
   12500    323.88826    -109.9713    0.2930609   -109.67823   -2750.3621    4.4175466    4.4175466    4.4175466   -2750.3621    17040.152     148.0758   -25439.314    1365.9456    3125.5448   -1573.2357    86.207176 
   12600    402.48891   -110.03798   0.36418042    -109.6738    20341.385    4.3990526    4.3990526    4.3990526    20341.385    38968.771    15321.244    6734.1399    3915.7201    475.33563   -1163.9907    85.128984 
   12700    576.50958   -110.20193   0.52163798   -109.68029   -12754.286    4.4262167    4.4262167    4.4262167   -12754.286    3637.4067   -14635.722   -27264.544   -413.41659    963.58774   -1539.1858    86.715758 
   12800    862.90481   -110.45692   0.78077441   -109.67614   -1770.2691    4.4158936    4.4158936    4.4158936   -1770.2691    25859.452   -15663.528   -15506.731   -6117.8917   -2300.2666    2891.3895    86.110438 
   12900    1145.8204   -110.70856    1.0367624    -109.6718    18676.643    4.3988115    4.3988115    4.3988115    18676.643    46348.994   -1748.7721    11429.707    7329.8187   -3240.3111   -609.37781    85.114991 
   13000    1336.5414   -110.88675    1.2093307   -109.67741   -18767.408    4.4275975    4.4275975    4.4275975   -18767.408    516.87815    -31385.62   -25433.483     3048.239    4309.2947   -1052.4721    86.796939 
   13100    999.44487   -110.57977   0.90431873   -109.67546    -3290.657     4.412918     4.412918     4.412918    -3290.657    10133.812   -11375.836   -8629.9465     -8232.84    4005.3278    5257.9514     85.93648 
   13200    793.39596   -110.38857   0.71788134   -109.67069    641.61201    4.4030951    4.4030951    4.4030951    641.61201   -11696.174    10724.115    2896.8948    545.99223   -3602.9669   -541.98412    85.363888 
   13300    611.77402    -110.2268   0.55354599   -109.67326   -26760.561    4.4258425    4.4258425    4.4258425   -26760.561   -37963.798   -10127.689   -32190.196    -1613.126     3205.364    3241.1396    86.693767 
   13400    273.04103   -109.92284   0.24705326   -109.67578      13344.6    4.4061756    4.4061756    4.4061756      13344.6    21858.401    13640.102    4535.2981   -4458.5499    2752.7288    4489.0244    85.543183 
   13500    549.74426   -110.17492   0.49742016    -109.6775    8147.4139    4.4092664    4.4092664    4.4092664    8147.4139    12097.372    6156.1047    6188.7655   -2550.8234    1004.5252   -1244.7622    85.723326 
   13600    807.27269   -110.40595    0.7304373   -109.67552   -9773.4459    4.4225588    4.4225588    4.4225588   -9773.4459    14909.561   -16712.947   -27516.952   -5314.7056    4015.3987    6718.5982    86.500942 
   13700     951.7614   -110.53719   0.86117371   -109.67602    10255.683    4.4042822    4.4042822    4.4042822    10255.683    36659.879   -2515.6324   -3377.1967   -7193.4147    2118.8869    3482.4262    85.432952 
   13800    1247.5546   -110.80554    1.1288136   -109.67673    5490.9772    4.4117899    4.4117899    4.4117899    5490.9772    36775.249    -9186.287   -11116.031    5710.8862   -1897.7706   -981.70997    85.870592 
   13900    1190.8442    -110.7559    1.0775008   -109.67839   -11052.692     4.419268     4.419268     4.419268   -11052.692    10220.804    -15405.37   -27973.509   -2665.7787    4661.8368    5958.9759    86.307995 
   14000    762.33339   -110.36833   0.68977528   -109.67855    6020.1621    4.4029743    4.4029743    4.4029743    6020.1621    11239.913    12900.124   -6079.5509   -8846.8845    8625.4945    1324.1904    85.356866 
   14100    740.77422   -110.34703   0.67026808   -109.67676   -14638.986     4.415985     4.415985     4.415985   -14638.986   -30486.816    2689.7339   -16119.875    3370.6839   -3215.6518      91.5148    86.115783 
   14200    397.68559   -110.03732   0.35983428   -109.67749   -17419.589    4.4171783    4.4171783    4.4171783   -17419.589    -39287.98    1733.6947   -14704.482   -1114.0864     2666.339    5709.0799    86.185614 
   14300    314.53124   -109.96276   0.28459448   -109.67817    13604.127     4.401047     4.401047     4.401047    13604.127    6481.5672    23896.499    10434.316   -1070.3371    4129.0866   -654.02551    85.244825 
   14400    760.44023   -110.36559    0.6880623   -109.67753   -2284.0698    4.4197068    4.4197068    4.4197068   -2284.0698     16914.74   -6532.1939   -17234.755    998.02289    3480.3526    192.23182    86.333703 
   14500    846.24684   -110.44396   0.76570193   -109.67826    2059.0611    4.4138686    4.4138686    4.4138686    2059.0611    34632.217   -11901.554    -16553.48   -2242.7365    4317.1719    4219.8701    85.992029 
   14600    1040.5201   -110.62029   0.94148445   -109.67881    17340.425    4.4018223    4.4018223    4.4018223    17340.425    47927.917    2897.4277    1195.9295   -2278.9695    1929.1959    386.37346    85.289881 
   14700    1248.2872   -110.80543    1.1294765   -109.67595   -5400.6632    4.4223988    4.4223988    4.4223988   -5400.6632    28496.061   -22198.427   -22499.623    7603.2203    271.84492   -372.52961    86.491558 
   14800    923.31845   -110.51351   0.83543794   -109.67807   -491.08879     4.409776     4.409776     4.409776   -491.08879    12215.508   -3202.9226   -10485.851   -534.06471    5598.8439     3323.461    85.753051 
   14900    690.96737   -110.30353   0.62520179   -109.67833    10378.905    4.4034547    4.4034547    4.4034547    10378.905    4449.9788    15182.864    11503.871   -9692.5762    4405.1304    -513.1476    85.384806 
   15000    638.42616   -110.25204   0.57766141   -109.67438   -19965.284    4.4229086    4.4229086    4.4229086   -19965.284   -40552.733   -5193.4455   -14149.675     2329.916   -1008.2986   -890.13552     86.52147 
   15100    340.62042   -109.98514   0.30820052   -109.67694   -8390.5404    4.4083051    4.4083051    4.4083051   -8390.5404   -33595.657    13389.755   -4965.7187   -2572.3433   -678.03596    3578.4356    85.667268 
   15200    538.77238   -110.16712   0.48749257   -109.67962    6301.0065    4.4049278    4.4049278    4.4049278    6301.0065    12022.173    11424.878   -4544.0309   -9148.6619   -858.38105   -1366.1241    85.470528 
   15300     915.0711   -110.50477   0.82797556    -109.6768   -5717.9078    4.4222895    4.4222895    4.4222895   -5717.9078     24407.49   -19533.189   -22028.024    65.788453    837.76512    242.40576    86.485142 
   15400    977.26325   -110.56022   0.88424833   -109.67597    12006.177    4.4067203    4.4067203    4.4067203    12006.177    45876.084   -7561.4154    -2296.136   -8623.2069   -1206.4511    2646.6108    85.574909 
   15500    1159.3968   -110.72566    1.0490466   -109.67661    10493.913    4.4079957    4.4079957    4.4079957    10493.913    47095.569   -3652.3537   -11961.477   -10284.147   -4868.2326   -2012.0568    85.649238 
   15600    1082.4615   -110.65418    0.9794339   -109.67474   -7905.7704     4.418839     4.418839     4.418839   -7905.7704    14220.919   -16223.471   -21714.759    6356.8348   -666.53654    2044.0407    86.282862 
   15700    689.07405   -110.29882   0.62348868   -109.67533    2335.0485    4.4056019    4.4056019    4.4056019    2335.0485   -5445.8032    8954.1365    3496.8123   -5851.3172     2739.799    3652.0647    85.509773 
   15800    568.32396   -110.19091   0.51423147   -109.67668   -2103.6255    4.4111581    4.4111581    4.4111581   -2103.6255    -8767.532    12626.855   -10170.199   -8920.2863   -4861.6268   -2456.0865    85.833709 
   15900    552.71717   -110.17651   0.50011011    -109.6764   -15073.695    4.4145171    4.4145171    4.4145171   -15073.695   -35211.832    595.35878   -10604.613    6025.8841   -1905.0187    1035.2932    86.029937 
   16000    497.14837   -110.12912    0.4498303   -109.67929   -5458.5821    4.4080773    4.4080773    4.4080773   -5458.5821   -20605.776    4333.0892   -103.06007   -4706.5038   -2976.2926    -87.36497    85.653991 
   16100    834.98495   -110.43462   0.75551193   -109.67911   -299.33186    4.4133855    4.4133855    4.4133855   -299.33186    18063.431   -8693.5948   -10267.831    498.92349   -4956.3173   -690.14077      85.9638 
   16200    985.05406   -110.57086   0.89129761   -109.67956    9042.8656    4.4108889    4.4108889    4.4108889    9042.8656    46953.918   -13882.282   -5943.0389    5545.5467   -2282.8824    2302.8123    85.817992 
   16300    1062.9388   -110.64097   0.96176932    -109.6792    11019.393    4.4076982    4.4076982    4.4076982    11019.393    47559.221   -12583.525   -1917.5164   -8118.2748   -1854.3506   -4481.4344    85.631894 
   16400    1050.7002   -110.62825   0.95069563   -109.67756    1274.2379    4.4159445    4.4159445    4.4159445    1274.2379    29385.343   -13432.417   -12130.212    3067.3486   -5951.9587   -1305.1019    86.113414 
   16500    781.46052   -110.38494    0.7070819   -109.67786   -3598.3109    4.4084069    4.4084069    4.4084069   -3598.3109   -7347.7456   -1364.3517   -2082.8354    6521.7812   -6452.2468    3375.1017    85.673208 
   16600     627.6419   -110.24452   0.56790358   -109.67661   -3312.8549     4.406684     4.406684     4.406684   -3312.8549   -18568.525    9480.1202   -850.16033   -6713.4887   -94.225209   -55.243709    85.572799 
   16700    589.90942    -110.2078   0.53376244   -109.67404   -14498.022    4.4187508    4.4187508    4.4187508   -14498.022   -24414.532   -2265.1305   -16814.405    2461.0328   -2205.8777    1212.1043    86.277695 
   16800    557.49692   -110.17927   0.50443493   -109.67483   -1226.7759    4.4062349    4.4062349    4.4062349   -1226.7759    -14009.67    4004.8838    6324.4584    4084.1824   -4238.1367   -2121.9125    85.546639 
   16900    792.37069   -110.39441   0.71695365   -109.67745   -3102.5686    4.4099519    4.4099519    4.4099519   -3102.5686   -1858.3877   -3602.8428   -3846.4754   -2746.0185   -808.43888   -2405.1795    85.763312 
   17000    1020.1744   -110.59888   0.92307527    -109.6758   -4938.6519    4.4153979    4.4153979    4.4153979   -4938.6519    24678.656   -20843.947   -18650.665    7246.7535    466.45073    2129.5016    86.081442 
   17100    974.30843   -110.56197   0.88157475   -109.68039    7360.7411    4.4060962    4.4060962    4.4060962    7360.7411    42454.779   -17518.013   -2854.5425    3185.6593    -5392.563    -1204.045    85.538558 
   17200    1136.0938   -110.70642    1.0279616   -109.67846    11795.753    4.4080808    4.4080808    4.4080808    11795.753    52365.649    -6292.716   -10685.674   -5154.6308   -848.22041   -1287.0913    85.654195 
   17300     864.8859   -110.46241   0.78256693   -109.67984   -3049.6264    4.4168768    4.4168768    4.4168768   -3049.6264    16455.293     -8173.46   -17430.712    8150.1133     966.5819   -16.768537    86.167968 
   17400    619.21482   -110.23872   0.56027859   -109.67844   -3155.1679    4.4054631    4.4054631    4.4054631   -3155.1679   -12829.097    2823.7092    539.88372    8071.7425   -5389.0046    157.25267    85.501691 
   17500    734.32453   -110.34003   0.66443227    -109.6756   -3674.2827    4.4078897    4.4078897    4.4078897   -3674.2827   -21461.185    10353.436    84.900536   -4494.1117   -800.28242    2148.2053    85.643058 
   17600    399.55152   -110.03986   0.36152262   -109.67834   -9571.7827    4.4169845    4.4169845    4.4169845   -9571.7827   -24336.255   -2044.6553   -2334.4376    5437.7863    5607.7239    500.30781    86.174271 
   17700    613.16599   -110.23184   0.55480547   -109.67703   -1226.6715    4.4044083    4.4044083    4.4044083   -1226.6715    948.50647    -7580.567    2952.0461    8125.8224   -2339.6937    1111.7575    85.440292 
   17800    918.76134   -110.50728   0.83131457   -109.67597   -8300.9956    4.4118831    4.4118831    4.4118831   -8300.9956    9305.9748   -19730.034   -14478.928   -1591.1071     1679.839   -277.32959    85.876038 
   17900    859.93916   -110.45648   0.77809102   -109.67839   -5407.1614    4.4129168    4.4129168    4.4129168   -5407.1614    19388.754    -22546.58   -13063.659    5538.6865    2943.8394   -1103.1231     85.93641 
   18000    1106.5226    -110.6792    1.0012049   -109.67799    12305.836    4.4051017    4.4051017    4.4051017    12305.836    39500.459    2012.9239   -4595.8739    3456.0791   -2297.2877     4939.632    85.480652 
   18100    1172.8928   -110.73719    1.0612581   -109.67594    6138.8033    4.4116364    4.4116364    4.4116364    6138.8033    33464.523      987.714   -16035.827   -4053.1662    5119.0192   -670.62412     85.86163 
   18200    742.06883   -110.35208   0.67143947   -109.68064    3315.1626    4.4111251    4.4111251    4.4111251    3315.1626    17859.859   -981.55179   -6932.8198    5714.0287    1176.2818   -217.12251     85.83178 
   18300    726.13459   -110.33367   0.65702184   -109.67665    4718.1661     4.407353     4.407353     4.407353    4718.1661    2410.7293    12013.091   -269.32158    1212.0138   -2159.1139    2101.8211    85.611775 
   18400    619.46639   -110.23656   0.56050621   -109.67606    -9644.673    4.4103898    4.4103898    4.4103898    -9644.673   -14271.069   -6310.9103   -8352.0396   -2033.9504    5092.3141   -3579.6777    85.788867 
   18500    320.55212    -109.9698    0.2900423   -109.67975   -12596.058    4.4110481    4.4110481    4.4110481   -12596.058   -12930.306   -18150.409   -6707.4583    5035.1838    5671.8318    3475.8831    85.827285 
   18600    699.70275   -110.30931   0.63310576   -109.67621   -3680.1536    4.4069853    4.4069853    4.4069853   -3680.1536    6360.5301   -11967.679    -5433.312   -1296.9197   -2935.8793    1707.0874     85.59035 
   18700     863.8407   -110.45867   0.78162122   -109.67705    -5983.487    4.4133516    4.4133516    4.4133516    -5983.487    -5093.095   -3043.6355   -9813.7306    3638.0902    6251.6462   -5640.7226    85.961814 
   18800    981.72238   -110.56606   0.88828304   -109.67778   -1140.5826    4.4095268    4.4095268    4.4095268   -1140.5826    813.73608   -2467.1842   -1768.2996    6013.8416    2042.8753    2954.6252    85.738514 
   18900    1286.9072    -110.8396    1.1644207   -109.67518    6061.1292    4.4058135    4.4058135    4.4058135    6061.1292    21859.898     3879.317    -7555.827   -5737.2982   -2484.6792    2379.2415    85.522092 
   19000    1139.5854   -110.70946    1.0311209   -109.67834      -2860.6    4.4154627    4.4154627    4.4154627      -2860.6    3630.4977   -533.27974   -11679.018     1584.156    7845.3485   -1651.7868    86.085235 
   19100    881.47376    -110.4754   0.79757598   -109.67782     12378.72    4.4051231    4.4051231    4.4051231     12378.72    32618.807    1636.0784    2881.2749    8049.3123    331.23326     2119.385    85.481898 
   19200    608.03028   -110.22892   0.55015857   -109.67877    2111.7437    4.4093367    4.4093367    4.4093367    2111.7437    27561.752   -11537.126    -9689.394   -4708.9203   -2164.4357   -2363.5029    85.727426 
   19300    376.85694   -110.01849   0.34098808    -109.6775    -8940.408     4.414176     4.414176     4.414176    -8940.408    3773.5076   -23175.377   -7419.3551    483.47821    3166.2585   -86.469881    86.009995 
   19400    365.21137   -110.00579   0.33045093   -109.67533    7527.0252    4.4045908    4.4045908    4.4045908    7527.0252    12867.985   -328.74216    10041.833     6368.856    1572.2206     4034.842    85.450912 
   19500    465.47072   -110.09956   0.42116769   -109.67839    1848.4451    4.4093386    4.4093386    4.4093386    1848.4451      8620.03    2473.3626   -5548.0572     -10719.1   -4833.8629   -3573.9055     85.72754 
   19600    810.56246   -110.41157   0.73341395   -109.67816   -2482.2826    4.4099939    4.4099939    4.4099939   -2482.2826    4123.8569   -8050.0099   -3520.6949    3677.9251     -2328.66   -1792.7632    85.765768 
   19700     1140.932   -110.70945    1.0323393   -109.67711   -6697.7464    4.4112123    4.4112123    4.4112123   -6697.7464   -9120.8862   -5637.4898   -5334.8633    11521.168   -1731.9937    3626.1094    85.836871 
   19800    1194.9354   -110.75946    1.0812026   -109.67826   -3419.4882    4.4064253    4.4064253    4.4064253   -3419.4882   -7642.9738     9685.159    -12300.65   -7286.5062   -9920.2924    450.99611    85.557727 
   19900    1238.2577   -110.79782    1.1204016   -109.67742    1716.9838    4.4066451    4.4066451    4.4066451    1716.9838   -4248.1315    8851.9071    547.17574   -2634.6594    1367.1528   -2919.4352     85.57053 
   20000    1068.8886    -110.6452   0.96715287   -109.67804   -14369.628    4.4161863    4.4161863    4.4161863   -14369.628   -14684.012   -16597.554   -11827.318     6314.444   -4558.8079   -1177.6232    86.127565 
   20100     641.5454   -110.25881   0.58048376   -109.67832    11975.781    4.3999267    4.3999267    4.3999267    11975.781    5254.7036    28204.528    2468.1127    1521.3611   -15112.683   -913.71181    85.179743 
   20200     544.7578   -110.17223    0.4929083   -109.67932   -101.55538    4.4087563    4.4087563    4.4087563   -101.55538   -1077.0663   -4083.5342    4855.9344     2001.967    4234.8892   -1317.3078    85.693579 
   20300    429.65008   -110.06736   0.38875642    -109.6786   -18547.689    4.4143579    4.4143579    4.4143579   -18547.689   -22474.391   -26811.759   -6356.9173    3416.6321   -2952.0954    159.80634    86.020633 
   20400    347.62589   -109.99314   0.31453921   -109.67861    6364.1022    4.3987229    4.3987229    4.3987229    6364.1022    7606.4781    10687.003    798.82569   -3980.5361    -13685.07   -5641.6746    85.109846 
   20500    680.51652    -110.2946   0.61574564   -109.67885   -481.03042    4.4140465    4.4140465    4.4140465   -481.03042   -4392.6106   -651.77538    3601.2947    3457.0499     3235.754    1176.1374    86.002431 
   20600    937.08334   -110.52683    0.8478927   -109.67894    4996.5206    4.4066867    4.4066867    4.4066867    4996.5206   -1543.1505    12868.304    3664.4079    2540.9667   -1220.0742    4796.3329    85.572952 
   20700    1052.6776    -110.6332   0.95248479   -109.68071    8530.4502    4.4012386    4.4012386    4.4012386    8530.4502    15492.487    15926.709   -5827.8451   -2220.9712    -12025.85   -5840.2404    85.255959 
   20800    1254.3464   -110.81346     1.134959    -109.6785   -5785.1361    4.4150775    4.4150775    4.4150775   -5785.1361    401.51368   -8814.2838   -8942.6383    8985.0999    1112.1435   -2114.7504    86.062703 
   20900    1071.0074   -110.64755   0.96907002   -109.67848    10884.413    4.4011184    4.4011184    4.4011184    10884.413    23495.688    7459.7155    1697.8364    132.69635   -3900.2674   -431.27516    85.248975 
   21000    949.43226   -110.53805   0.85906626   -109.67899   -5720.6991    4.4100615    4.4100615    4.4100615   -5720.6991    3899.7331    -7465.003   -13596.827   -8252.4093   -8816.6042    229.60984    85.769707 
   21100    657.84497   -110.27193   0.59523195    -109.6767   -5729.9902    4.4116254    4.4116254    4.4116254   -5729.9902    3646.0542   -15112.289   -5723.7362    9661.4339    7937.1297    2150.3551    85.860988 
   21200     380.9899    -110.0219   0.34472767   -109.67717     12397.35    4.3973259    4.3973259    4.3973259     12397.35   -3606.3923    19237.999    21560.445    2008.8495   -4653.9412   -4303.7314    85.028785 
   21300    428.26653   -110.06613   0.38750456   -109.67863   -18489.492    4.4150816    4.4150816    4.4150816   -18489.492    -36535.52    -9445.779   -9487.1769   -6592.0664   -10623.187   -887.33366    86.062944 
   21400    455.64196   -110.08998   0.41227442    -109.6777   -9566.3425    4.4073683    4.4073683    4.4073683   -9566.3425   -12355.107    -16650.37    306.44874    1503.0924    10473.214     2190.713     85.61267 
   21500    657.26826   -110.27414   0.59471014   -109.67943    5305.7633    4.4018543    4.4018543    4.4018543    5305.7633    7701.5548    1512.3507    6703.3843    4079.2522   -2876.8515      2786.46    85.291745 
   21600    1105.4562    -110.6761      1.00024   -109.67586   -6906.4764    4.4135236    4.4135236    4.4135236   -6906.4764   -3283.7185   -7530.6309   -9905.0798    4136.0358   -10396.673   -321.51149    85.971868 
   21700    1090.3372   -110.66529   0.98655999   -109.67873    5740.3606     4.403116     4.403116     4.403116    5740.3606    11321.713    4070.8954    1828.4732   -2915.7325    12146.483   -4028.7536    85.365104 
   21800     1227.726    -110.7914    1.1108723   -109.68053   -2525.5137    4.4091624    4.4091624    4.4091624   -2525.5137   -575.25834    5503.1811   -12504.464    -355.5955   -461.80551    1179.1734    85.717262 
   21900    1264.1055   -110.82069    1.1437892    -109.6769    176.37354    4.4081738    4.4081738    4.4081738    176.37354    4372.5163    1149.8145   -4993.2102    4455.7926   -3788.6882    3255.0054    85.659614 
   22000    778.42021   -110.38627   0.70433096   -109.68194   -619.92003    4.4042026    4.4042026    4.4042026   -619.92003   -1307.6871    7705.5951    -8257.668    5647.2008    11748.009    994.21322     85.42832 
   22100    635.24792    -110.2538   0.57478566   -109.67902   -3797.1066    4.4113197    4.4113197    4.4113197   -3797.1066    2656.4629   -3873.9109   -10173.872    1644.5883    1577.6421   -1084.2983    85.843143 
   22200    568.98684   -110.19112   0.51483125   -109.67629    8686.3755    4.4015095    4.4015095    4.4015095    8686.3755    28850.534   -8896.7562     6105.349   -4216.8878   -276.20006   -2994.2601    85.271699 
   22300    165.01684   -109.83248   0.14931071   -109.68317   -12574.654    4.4113895    4.4113895    4.4113895   -12574.654   -17488.694   -14374.911   -5860.3563    3771.8391    11684.865    2391.7051    85.847215 
   22400    539.96511   -110.16666   0.48857178   -109.67808    -4234.809    4.4081383    4.4081383    4.4081383    -4234.809   -10068.916   -9221.3101    6585.7992    334.13384    2307.4278    3784.2348    85.657547 
   22500      830.646   -110.42727   0.75158596   -109.67568     11173.62    4.3980276    4.3980276    4.3980276     11173.62    27358.202    -524.2404    6686.8987    203.82243    518.28885   -4294.5657    85.069492 
   22600    701.33329   -110.31852    0.6345811   -109.68394   -14975.248    4.4163667    4.4163667    4.4163667   -14975.248   -5868.0983   -15922.035   -23135.611    4734.5309    18839.261   -862.21076    86.138118 
   22700    1334.8572   -110.88431    1.2078068    -109.6765    1510.5115    4.4029046    4.4029046    4.4029046    1510.5115    6248.4008    1241.0223   -2957.8887   -263.32167    3547.2158     2007.626    85.352808 
   22800    1326.3779   -110.87791    1.2001346   -109.67777     4974.627    4.4029921    4.4029921    4.4029921     4974.627    11242.899    7276.1858   -3595.2034    -1894.314   -3987.7052    1599.8614    85.357901 
   22900    921.82641   -110.51636   0.83408791   -109.68227   -17636.556     4.414736     4.414736     4.414736   -17636.556   -24866.788   -3416.0015   -24626.879    4249.6682    19533.417    226.94065    86.042735 
   23000     1025.888   -110.60275   0.92824499    -109.6745    7590.2888     4.398229     4.398229     4.398229    7590.2888    2757.3634    5798.6688    14214.834     7469.325    3558.2739    -5284.272    85.081184 
   23100    718.34162   -110.32999   0.64997059   -109.68002   -4773.5892    4.4108112    4.4108112    4.4108112   -4773.5892   -11123.966   -3018.7919   -178.00956   -4432.4928   -395.04324    3419.3824    85.813458 
   23200     214.3458   -109.87577   0.19394458   -109.68183   -4380.6733    4.4082021    4.4082021    4.4082021   -4380.6733   -1067.4551   -6208.3494   -5866.2154   -76.198118     17863.24    2323.5788    85.661264 
   23300    476.12026   -110.10641   0.43080362    -109.6756   -700.79853    4.4004027    4.4004027    4.4004027   -700.79853    8611.5674   -21541.655    10827.692    4004.4813   -4475.0091     -1800.79    85.207392 
   23400    519.75658    -110.1478   0.47028668   -109.67751    -17057.89    4.4137982    4.4137982    4.4137982    -17057.89   -19180.032   -29336.191   -2657.4449   -5567.2504    2314.8743    1786.0272    85.987913 
   23500    528.37563   -110.15867   0.47808537   -109.68058    11222.979     4.401263     4.401263     4.401263    11222.979    6710.6942    14947.002    12011.241    6069.9456     17089.66   -3411.4886    85.257378 
   23600    1113.3548   -110.68546    1.0073868   -109.67808    3504.1748    4.4068269    4.4068269    4.4068269    3504.1748    7524.9147    5638.7985   -2651.1888    2319.6947   -10487.643     4048.947    85.581122 
   23700    1202.9745   -110.76543    1.0884766   -109.67696   -3953.7585    4.4117722    4.4117722    4.4117722   -3953.7585   -4762.4104     2539.865   -9638.7301   -3986.6531    2051.9659    2052.7484    85.869563 
   23800    1102.2392    -110.6764   0.99732919   -109.67907     9380.719    4.3994083    4.3994083    4.3994083     9380.719    7721.9578    22844.836   -2424.6365    4505.2732     15598.04    -2101.959    85.149638 
   23900    1152.1234   -110.72017    1.0424654    -109.6777   -2858.3792     4.409939     4.409939     4.409939   -2858.3792   -3439.7582   -5499.5388    364.15951   -3531.3535   -8397.0662    2399.6317    85.762559 
   24000     866.3064    -110.4626   0.78385223   -109.67875   -5166.9219    4.4075263    4.4075263    4.4075263   -5166.9219   -7782.3361   -9289.4317    1571.0019    2367.3196    4127.1587    -2539.413    85.621873 
   24100    467.47601   -110.10313   0.42298212   -109.68015    395.10258    4.4040754    4.4040754    4.4040754    395.10258   -10821.262   -4072.1264    16078.696    6841.4248    9346.2601    3167.6817    85.420916 
   24200    444.14921   -110.07822   0.40187554   -109.67635    347.85681    4.4093276    4.4093276    4.4093276    347.85681   -6108.1681   -7970.0843    15121.823   -8011.5112   -8079.6777   -705.80469    85.726899 
   24300    437.38068    -110.0724   0.39575123   -109.67665   -5839.5473    4.4049705    4.4049705    4.4049705   -5839.5473   -9520.9427   -7873.1542   -124.54485    3035.7904    7002.4686   -3846.1046    85.473011 
   24400    423.75924   -110.06353   0.38342626    -109.6801   -12682.455    4.4065195    4.4065195    4.4065195   -12682.455   -15207.924   -15089.985    -7749.455    9598.9798    10900.236     665.0478    85.563215 
   24500    854.41579   -110.45149   0.77309336   -109.67839   -3855.7281    4.4073566    4.4073566    4.4073566   -3855.7281   -3006.0324   -9432.1345    870.98262   -2690.1452    -7805.401   -4235.0871    85.611987 
   24600    1059.3272   -110.63648   0.95850152   -109.67798    3280.1503    4.4062161    4.4062161    4.4062161    3280.1503   -8488.7375    16732.044    1597.1448   -3196.8299    7675.0953    5301.4681    85.545539 
   24700    1173.3749   -110.74035    1.0616943   -109.67865   -4038.8138    4.4057479    4.4057479    4.4057479   -4038.8138   -12944.043    8264.8513   -7437.2494     4310.055    10597.999   -2157.8732    85.518276 
   24800    1169.3539   -110.73703     1.058056   -109.67897   -200.70993    4.4071831    4.4071831    4.4071831   -200.70993   -419.21788    2154.3686   -2337.2805    1334.7902   -5463.8638    -6834.101    85.601877 
   24900    1077.2676   -110.65136   0.97473438   -109.67663    -6315.856    4.4089012    4.4089012    4.4089012    -6315.856   -15855.993    3855.2985    -6946.874    1959.8058    7348.3171    4181.4922     85.70203 
   25000    722.33481   -110.33128   0.65358371   -109.67769   -2771.4745    4.4025714    4.4025714    4.4025714   -2771.4745   -11345.446   -8930.9703    11961.992    686.03546    3088.8366   -1430.5197    85.333432 
   25100    558.16794    -110.1849   0.50504208   -109.67986   -8872.1417    4.4072998    4.4072998    4.4072998   -8872.1417     -816.277   -20543.025   -5257.1227   -7320.4085    -4043.596   -1644.3061    85.608678 
   25200    439.16847   -110.07494   0.39736886   -109.67757    2677.1859    4.4093177    4.4093177    4.4093177    2677.1859   -7738.1461    4024.8558    11744.848    4522.1547    9198.1063    -843.3805    85.726321 
   25300    547.64133   -110.17152   0.49551739   -109.67601    2824.1743    4.4008939    4.4008939    4.4008939    2824.1743   -7643.9835    9057.0174    7059.4888    3564.9487     655.8868   -3050.0206     85.23593 
   25400    508.97583   -110.14154   0.46053203   -109.68101   -13941.065    4.4099898    4.4099898    4.4099898   -13941.065   -6243.7631   -2030.8703   -33548.563   -7056.6543   -10.384138   -945.19484    85.765524 
   25500    981.99555   -110.56509   0.88853021   -109.67656   -6785.1502    4.4083169    4.4083169    4.4083169   -6785.1502   -7059.5384     14084.87   -27380.782    3076.5786    5442.1964   -117.10974     85.66796 
   25600     1124.219   -110.69316     1.017217   -109.67595    15705.309    4.3988657    4.3988657    4.3988657    15705.309     6519.895    23437.397    17158.635    375.15691   -75.682961   -3733.6393    85.118136 
   25700    1001.0811   -110.58705   0.90579921   -109.68125   -3986.4046    4.4113836    4.4113836    4.4113836   -3986.4046    571.34307     -1546.33   -10984.227    -1525.458    1285.7335   -294.81396    85.846873 
   25800    1188.8072    -110.7517    1.0756577   -109.67604    3301.0303    4.4072786    4.4072786    4.4072786    3301.0303      1366.66    6705.8078     1830.623    2219.9264    511.44586    5658.1383    85.607443 
   25900    979.88265   -110.56377   0.88661842   -109.67715    10745.415    4.4001609    4.4001609    4.4001609    10745.415    3190.2425     3303.074    25742.927   -6081.0331    2000.4362   -6198.1987    85.193347 
   26000    490.16524   -110.12593   0.44351181   -109.68242   -14371.029    4.4099705    4.4099705    4.4099705   -14371.029   -4141.9566   -20759.099   -18212.033   -1540.7878    1027.2617   -3211.0438    85.764397 
   26100    572.40076   -110.19542   0.51792023    -109.6775   -5322.3776    4.4059675    4.4059675    4.4059675   -5322.3776     -8659.38    3623.3238   -10931.077   -781.61997   -411.57958    9270.1152    85.531062 
   26200    585.23008   -110.20636   0.52952847   -109.67683    4876.9056    4.4039645    4.4039645    4.4039645    4876.9056    934.18124    15414.302   -1717.7666    -3034.256    1180.6752   -4950.0483    85.414466 
   26300    283.67199   -109.93934   0.25667237   -109.68267    6118.6565    4.4070632    4.4070632    4.4070632    6118.6565      12696.9     9880.847   -4221.7777    1042.2059    1534.7324   -2194.9584     85.59489 
   26400    886.96656   -110.48059   0.80254598   -109.67804    129.58997    4.4060085    4.4060085    4.4060085    129.58997   -6291.5285    17736.931   -11056.633   -1627.0536    955.06283    8939.2712    85.533452 
   26500    1080.1015   -110.65359   0.97729853   -109.67629   -4390.0501    4.4068696    4.4068696    4.4068696   -4390.0501   -9055.0111    8656.6997   -12771.839    1148.3445   -1664.3426     -2767.64    85.583612 
   26600    889.68224   -110.48756   0.80500319   -109.68255    -808.6614    4.4032239    4.4032239    4.4032239    -808.6614    10263.423   -2947.8767   -9741.5307    1078.6654   -1898.1866    5540.7166    85.371381 
   26700    1188.1172   -110.75422    1.0750334   -109.67918    3321.2792    4.4070069    4.4070069    4.4070069    3321.2792    3146.6326   -4224.3214    11041.526   -581.46489    2430.4122    4930.9637    85.591607 
   26800    1178.3346   -110.74428    1.0661819   -109.67809   -119.14266      4.40765      4.40765      4.40765   -119.14266   -477.77614    1239.2551   -1118.9069    2227.1362     4101.378   -7279.4681    85.629084 
   26900     526.8531    -110.1605   0.47670776   -109.68379    12526.352    4.4021656    4.4021656    4.4021656    12526.352    24525.006    8217.7684     4836.281   -595.45718      -1806.5    11089.585    85.309838 
   27000    682.50906   -110.29595   0.61754854    -109.6784   -2859.5824    4.4090672    4.4090672    4.4090672   -2859.5824    -4404.995    857.88148   -5031.6336    2809.9788   -2892.7534    4796.8311    85.711707 
   27100    604.48341   -110.22387    0.5469493   -109.67692   -7512.4561    4.4048623    4.4048623    4.4048623   -7512.4561   -12669.889    15388.893   -25256.373   -237.32029    2331.9042   -4316.9289    85.466713 
   27200    283.97219    -109.9393     0.256944   -109.68235   -4174.3917    4.4033334    4.4033334    4.4033334   -4174.3917   -2189.7725    20173.744   -30507.146    1420.0698    1623.7095    10503.573     85.37775 
   27300    697.36991   -110.31057   0.63099495   -109.67957   -365.13761    4.4100783    4.4100783    4.4100783   -365.13761   -11380.113     16008.47   -5723.7689    5185.9062   -1392.4919   -880.50811    85.770687 
   27400    945.79354    -110.5327   0.85577387   -109.67693    12534.523    4.4019837    4.4019837    4.4019837    12534.523    23.160413    21454.127    16126.282   -3675.4282   -1267.9712    2906.7575    85.299265 
   27500    894.40123   -110.49078   0.80927303   -109.68151    551.81461    4.4067412    4.4067412    4.4067412    551.81461   -53.512286    8529.4585   -6820.5024    311.00589     737.0172    9234.8251    85.576128 
   27600    1208.5785   -110.77073    1.0935472   -109.67718   -2788.3302    4.4092258    4.4092258    4.4092258   -2788.3302    -8950.918    -6217.813    6803.7405   -1965.5057    6184.9369   -5462.3863    85.720956 
   27700    1164.8635   -110.73009     1.053993    -109.6761    8007.5341    4.3998105    4.3998105    4.3998105    8007.5341    8810.0909    8105.3731    7107.1384    -2512.442    2289.1779    6357.9511    85.172993 
   27800    848.71316   -110.44836    0.7679335   -109.68043   -8644.8979    4.4097221    4.4097221    4.4097221   -8644.8979    7201.9268   -5631.6183   -27505.002    5092.1866   -4456.7258    6109.9235    85.749907 
   27900    696.03542   -110.30728   0.62978747   -109.67749   -1303.5329     4.407838     4.407838     4.407838   -1303.5329   -8496.8067    16526.147   -11939.938   -6392.7041    2705.1225   -2478.1695    85.640043 
   28000    543.96166   -110.16867   0.49218794   -109.67648    11881.048    4.4007307    4.4007307    4.4007307    11881.048    5707.5027    25921.858    4013.7834   -1019.5677    4615.6884    6087.9472    85.226444 
   28100    372.22859   -110.01535   0.33680025   -109.67855   -7149.5867    4.4100898    4.4100898    4.4100898   -7149.5867   -8206.2441    11066.567   -24309.083    2978.4619     -1082.18    3584.2411    85.771361 
   28200    523.10327   -110.15104   0.47331483   -109.67772   -7236.6718    4.4053875    4.4053875    4.4053875   -7236.6718   -33821.449    14189.067    -2077.633   -3129.7008    935.85424   -2171.5635    85.497291 
   28300    805.85228   -110.40737   0.72915207   -109.67822   -1449.8729    4.4044718    4.4044718    4.4044718   -1449.8729   -23591.662    18280.405    961.63796     1601.062    3087.6894      1378.15    85.443987 
   28400    1037.0508   -110.61599   0.93834531   -109.67764    -1320.038    4.4092356    4.4092356    4.4092356    -1320.038    2385.5565   -2187.1852   -4158.4855   -6002.0294    1803.9283    4468.0544    85.721531 
   28500    1174.3423    -110.7405    1.0625696   -109.67793    5918.0584      4.40282      4.40282      4.40282    5918.0584    1912.7146    4442.0521    11399.409   -3070.8496    3860.9917   -1294.6815    85.347888 
   28600    1227.8258   -110.78989    1.1109626   -109.67892    835.51402    4.4073666    4.4073666    4.4073666    835.51402    1068.9318    5417.8192    -3980.209     4487.848    690.54967    1708.1488    85.612571 
   28700    1012.1645   -110.59379    0.9158277   -109.67797   -2154.8465    4.4078836    4.4078836    4.4078836   -2154.8465    12478.237   -3950.8413   -14991.936   -2623.4878   -3044.9566     5682.687    85.642698 
   28800    629.00455   -110.24761   0.56913653   -109.67847   -455.69604    4.4028349    4.4028349    4.4028349   -455.69604   -8802.0314    16348.307   -8913.3642   -5095.0551    7851.6787   -4611.5653    85.348758 
   28900    543.90476   -110.16905   0.49213646   -109.67692   -15630.043    4.4098193    4.4098193    4.4098193   -15630.043   -34888.931     10976.95   -22978.149   -505.78891    3493.3596    5778.9969    85.755581 
   29000    376.75854   -110.01751   0.34089905   -109.67661   -1167.2353    4.4053741    4.4053741    4.4053741   -1167.2353   -16430.107    22531.333   -9602.9316    2346.0309   -6398.6136    3188.7263     85.49651 
   29100    511.83891   -110.14139    0.4631226   -109.67827   -2921.5884    4.4039505    4.4039505    4.4039505   -2921.5884   -19496.303    10575.547    155.99026   -2323.3351    8535.7693   -7691.8644    85.413654 
   29200    775.44277   -110.38013   0.70163692   -109.67849   -8789.8623    4.4098767    4.4098767    4.4098767   -8789.8623   -19565.659    2724.8734   -9528.8017    455.49313    5344.6015    3785.1337    85.758927 
   29300    1114.6929   -110.68523    1.0085976   -109.67663    -3542.608    4.4041618    4.4041618    4.4041618    -3542.608    6345.4007   -10375.592   -6597.6325   -1982.5582   -5799.2379   -1242.2083    85.425949 
   29400    1065.0078   -110.64272   0.96364146   -109.67908    2747.2182    4.4062109    4.4062109    4.4062109    2747.2182    1827.5501    8609.7338   -2195.6293   -1903.5885    7582.8708   -283.33218     85.54524 
   29500    1137.0478   -110.70626    1.0288248   -109.67743   -3646.4238    4.4075947    4.4075947    4.4075947   -3646.4238   -5506.1906    2849.3571   -8282.4378     10143.27    1087.5969    1406.4179     85.62586 
   29600    954.33408   -110.54029   0.86350153   -109.67678   -1736.1308    4.4041578    4.4041578    4.4041578   -1736.1308    1259.2282   -1372.0553   -5095.5652   -3777.1961   -2980.4911   -3017.0261    85.425714 
   29700    692.70481   -110.30597   0.62677387    -109.6792   -8631.4571    4.4079159    4.4079159    4.4079159   -8631.4571   -25470.621    10596.022   -11019.772   -2773.6611    11518.348     2447.161    85.644585 
   29800    643.92622   -110.26021   0.58263797   -109.67757    -5761.721    4.4059202    4.4059202    4.4059202    -5761.721   -32198.305    26255.582    -11342.44    8403.1702   -1525.9383    805.19164     85.52831 
   29900    682.25609   -110.29371   0.61731965   -109.67639   -2707.6406    4.4057971    4.4057971    4.4057971   -2707.6406   -11282.797    14625.403   -11465.528   -1792.1772   -6662.6055    4642.8511    85.521137 
   30000    689.12348   -110.30151   0.62353341   -109.67797   -963.49018    4.4075319    4.4075319    4.4075319   -963.49018   -13673.487    19551.465   -8768.4486    1786.8184    13545.486   -672.67708    85.622205 
   30100    740.49025   -110.34804   0.67001114   -109.67803    7374.5418    4.4046293    4.4046293    4.4046293    7374.5418   -6521.0745    27069.295    1575.4054    2802.5689   -729.54546   -3099.3432    85.453153 
   30200    899.59493   -110.49079    0.8139724   -109.67682   -5632.4276    4.4058741    4.4058741    4.4058741   -5632.4276    9972.9205   -22036.503   -4833.7001    197.50459   -7551.0624    4168.1571    85.525621 
   30300    717.77564   -110.32785   0.64945848   -109.67839   -7887.9568    4.4085629    4.4085629    4.4085629   -7887.9568   -23.834327   -18374.002   -5266.0337    529.20187    11347.221   -2007.8645      85.6823 
   30400    786.89668   -110.38936   0.71200065   -109.67736   -2089.4646     4.405602     4.405602     4.405602   -2089.4646   -13401.268    3202.5577    3930.3167    1383.8278     -3483.68    3241.0953    85.509778 
   30500    919.57895   -110.50812   0.83205436   -109.67606    7717.3443    4.4040971    4.4040971    4.4040971    7717.3443   -7389.0098    31652.086   -1111.0428    2363.3648   -5245.7166   -770.74531    85.422181 
   30600    974.21666   -110.55903   0.88149171   -109.67754   -808.11287    4.4089972    4.4089972    4.4089972   -808.11287   -19482.847    25020.891   -7962.3824   -677.09609    11105.804   -4434.8537    85.707624 
   30700    927.00298   -110.51727   0.83877178    -109.6785    3623.8225    4.4058763    4.4058763    4.4058763    3623.8225   -22993.611    34419.696   -554.61822    6020.0063   -6221.1965     3702.881    85.525752 
   30800    1053.9324   -110.62984   0.95362019   -109.67622   -860.34605    4.4034676    4.4034676    4.4034676   -860.34605   -12807.255    16393.647   -6167.4299   -467.99897   -6540.0756   -1198.0142    85.385559 
   30900    786.27691    -110.3889   0.71143987   -109.67746   -9432.2547    4.4093691    4.4093691    4.4093691   -9432.2547   -9302.4819    -11297.24   -7697.0424    2983.9024    9959.9444    1287.3559     85.72932 
   31000     571.9654   -110.19594   0.51752632   -109.67841   -8157.9944    4.4068896    4.4068896    4.4068896   -8157.9944   -5509.4777   -22406.308    3441.8025    10197.027   -6132.7531    -3856.076    85.584773 
   31100    530.04789   -110.15696   0.47959847   -109.67736    10867.548    4.4024642    4.4024642    4.4024642    10867.548    9836.6174    6637.7865    16128.239   -6037.2673   -7876.9178   -513.42696      85.3272 
   31200    695.53017   -110.30564   0.62933032   -109.67631   -8292.7926    4.4097741    4.4097741    4.4097741   -8292.7926    -5455.965   -15253.108    -4169.305    3634.0462    8150.2704    6448.1468    85.752941 
   31300    583.24438   -110.20701   0.52773177   -109.67927   -8912.5149    4.4071827    4.4071827    4.4071827   -8912.5149   -14252.124   -8226.4286   -4258.9923    8248.9543   -8551.3796   -2601.0114    85.601851 
   31400    1006.4859   -110.58877   0.91068963   -109.67808    285.15284    4.4026322    4.4026322    4.4026322    285.15284   -14819.555    16875.669    -1200.656   -2657.4478   -7861.2942    3784.3259    85.336971 
   31500      1136.69    -110.7047     1.028501    -109.6762    208.98158    4.4088023    4.4088023    4.4088023    208.98158   -20340.038    23379.275   -2412.2921    1455.5598    8089.2318   -1638.4538    85.696262 
   31600    961.94288   -110.55028   0.87038613    -109.6799   -6016.3617    4.4053535    4.4053535    4.4053535   -6016.3617   -26972.936    14546.307   -5622.4568    467.78273   -10626.489   -677.18929    85.495308 
   31700    854.60218   -110.45424   0.77326202   -109.68097     4761.538    4.4046632    4.4046632    4.4046632     4761.538   -7390.4017    13638.808    8036.2076   -1359.0852   -7373.5459    4582.4198    85.455126 
   31800    985.92152   -110.56762   0.89208251   -109.67553   -3941.1153     4.409028     4.409028     4.409028   -3941.1153   -1111.9876   -14714.569    4003.2108    2748.6352    3805.4597    -5175.939    85.709421 
   31900    593.62036   -110.21597   0.53712018   -109.67885   -9025.0728    4.4052525    4.4052525    4.4052525   -9025.0728   -11639.699   -25919.323    10483.803    967.56874   -10654.064    2149.8576    85.489428 
   32000    628.94258   -110.24817   0.56908046   -109.67908   -8769.6545    4.4075451    4.4075451    4.4075451   -8769.6545    -7005.845   -26865.334     7562.215   -8265.6179   -2277.2016    -1996.344     85.62297 
   32100    835.01919   -110.43001   0.75554291   -109.67446    5095.3787    4.4064233    4.4064233    4.4064233    5095.3787   -458.84366    10262.835    5482.1445    1183.9593    537.25629   -4270.9893    85.557608 
   32200    585.24369   -110.20822   0.52954079   -109.67868   -88.042817    4.4039695    4.4039695    4.4039695   -88.042817    -19129.16    24106.672   -5241.6405    4413.6679    -12871.37    3929.2256    85.414759 
   32300     577.1247     -110.203   0.52219456    -109.6808   -13732.883    4.4091108    4.4091108    4.4091108   -13732.883    -20805.18    5706.6274   -26100.097   -10202.924   -545.75021   -1011.3661    85.714251 
   32400    911.84229   -110.50074   0.82505407   -109.67569    -3461.464    4.4061269    4.4061269    4.4061269    -3461.464    1965.7055    14511.118   -26861.215    -2827.688    2583.8764    2949.6653    85.540348 
   32500    879.59351   -110.47373    0.7958747   -109.67786   -2195.3177    4.4050204    4.4050204    4.4050204   -2195.3177   -12789.875    9821.3167    -3617.395    1512.2802   -15302.655   -2768.4834    85.475918 
   32600    950.64105   -110.53982      0.86016   -109.67966   -6209.5004    4.4077571    4.4077571    4.4077571   -6209.5004   -16435.924   -18853.649    16661.072    -6316.123   -2464.0211    71.197365    85.635324 
   32700    1221.2597   -110.78151    1.1050215   -109.67649    903.43341    4.4065339    4.4065339    4.4065339    903.43341   -3700.4692   -3389.3791    9800.1486   -1169.5074     920.6227    6581.9358    85.564055 
   32800    1020.6077   -110.60099   0.92346726   -109.67752    701.01949    4.4063453    4.4063453    4.4063453    701.01949   -13689.325    6707.0012    9085.3823    -1299.513   -10428.422   -2105.7157    85.553068 
   32900    684.79069    -110.2984     0.619613   -109.67878    -7065.829    4.4056628    4.4056628    4.4056628    -7065.829   -8282.2369   -13184.087    268.83692   -8739.8597    1807.0581   -102.71273    85.513316 
   33000    601.98468   -110.22163   0.54468839   -109.67694   -11483.185    4.4076124    4.4076124    4.4076124   -11483.185   -306.29456      3986.72    -38129.98    2081.7666   -4437.6397   -2381.8806    85.626895 
   33100    444.50233   -110.07884   0.40219505   -109.67665   -2783.8369    4.4066858    4.4066858    4.4066858   -2783.8369    9647.4097     18581.19   -36580.111   -220.98207   -10127.817   -226.04534    85.572901 
   33200     431.2365   -110.06896   0.39019185   -109.67876    1425.8961    4.4039245    4.4039245    4.4039245    1425.8961    164.49187    11079.544   -6966.3472   -12218.292    5646.8865    4743.3961    85.412137 
   33300    718.57053   -110.32978   0.65017771    -109.6796   -8541.5087    4.4094433    4.4094433    4.4094433   -8541.5087   -11167.862    5213.2022   -19669.867    1578.8186   -6619.6138   -2830.0053    85.733644 
   33400    1100.9446   -110.67246   0.99615781    -109.6763   -4410.6833    4.4078985    4.4078985    4.4078985   -4410.6833    -14344.32    4616.4765   -3504.2065   -2551.4512   -11053.708   -1958.2328    85.643572 
   33500    1111.9857   -110.68361     1.006148   -109.67746    7327.2761    4.4027671    4.4027671    4.4027671    7327.2761    7584.0053   -7290.2224    21688.046   -9699.4359    4205.5284    1789.7398    85.344815 
[...]
   91300    1226.2796   -110.78344    1.1095635   -109.67388    11080.144    4.4012764    4.4012764    4.4012764    11080.144    16317.677    13912.352    3010.4018    644.85617    4642.8873   -724.35885    85.258156 
   91400    917.83982   -110.50937   0.83048076   -109.67889   -9613.2151    4.4086877    4.4086877    4.4086877   -9613.2151   -4883.1865   -1652.3328   -22304.126    2058.5817    -5636.299   -3348.9988     85.68958 
   91500    640.22258   -110.25996   0.57928684   -109.68067   -4800.5123    4.4072362    4.4072362    4.4072362   -4800.5123    5303.8058   -9378.6453   -10326.697   -3073.9534   -13726.974   -846.46599    85.604973 
   91600    1063.4353    -110.6356   0.96221861   -109.67338    6230.4527    4.4010271    4.4010271    4.4010271    6230.4527    7317.3201   -5139.4494    16513.488   -2512.3948    6786.0821   -2275.3637    85.243666 
   91700    607.88857   -110.22938   0.55003036   -109.67935   -5033.7433    4.4093845    4.4093845    4.4093845   -5033.7433   -23210.447    477.13311    7632.0844    4088.3421   -11347.657    -1803.371    85.730217 
   91800    551.35426    -110.1794   0.49887692   -109.68052   -8430.0566    4.4056606    4.4056606    4.4056606   -8430.0566   -33561.197   -7283.8088    15554.836   -1225.1072   -9423.4897    -90.54641    85.513192 
   91900    909.18271   -110.49773   0.82264763   -109.67508    9102.0663    4.4032538    4.4032538    4.4032538    9102.0663    8966.5213   -3337.9606    21677.638   -2948.9007     7514.565    572.71864    85.373119 
   92000    706.59431   -110.31759   0.63934138   -109.67825   -2619.3093    4.4082952    4.4082952    4.4082952   -2619.3093   -3854.1491    4382.9504   -8386.7292    1157.3628    -14292.18   -799.56765    85.666697 
   92100    588.33554   -110.21271   0.53233836   -109.68037   -6781.2855    4.4048686    4.4048686    4.4048686   -6781.2855   -13760.798    10892.278   -17475.337   -1535.2853    -5942.224   -3967.8329    85.467079 
   92200    930.91088   -110.51727   0.84230772   -109.67497   -749.37626    4.4064432    4.4064432    4.4064432   -749.37626    7514.2324    6155.7654   -15918.127    1060.2191     3921.971    1471.2018    85.558772 
   92300    879.83044   -110.47268   0.79608908   -109.67659   -2675.6988    4.4062582    4.4062582    4.4062582   -2675.6988    2112.4234    2909.2825   -13048.802    160.31031    -13775.95     805.7536    85.547996 
   92400    719.11979   -110.33056   0.65067469   -109.67989    2401.0586    4.4036922    4.4036922    4.4036922    2401.0586    52.837833    7443.9886   -293.65072   -4493.7385    741.02491   -3289.5436    85.398621 
   92500    1166.2564    -110.7313    1.0552533   -109.67605   -5468.8368    4.4077158    4.4077158    4.4077158   -5468.8368   -12365.631   -9706.0306    5665.1509   -65.578587    3638.7492    3077.8928    85.632918 
   92600    940.39562   -110.52842   0.85088972   -109.67753     6201.782     4.404748     4.404748     4.404748     6201.782    3829.4737    -1667.272    16443.144    2604.6396   -13263.396   -2210.8873    85.460062 
   92700    733.65315   -110.34282   0.66382479     -109.679   -3763.7055     4.404684     4.404684     4.404684   -3763.7055   -16506.769   -2833.4936    8049.1457   -2341.2943    2577.5304   -1878.8241    85.456336 
   92800    717.37856   -110.32542    0.6490992   -109.67632   -9577.7213    4.4083263    4.4083263    4.4083263   -9577.7213   -24069.138    6188.9963   -10853.023   -3913.4053    8869.4057    7142.3016     85.66851 
   92900    557.59658   -110.18024    0.5045251   -109.67571   -451.62494    4.4035887    4.4035887    4.4035887   -451.62494   -5744.3341    19105.339    -14715.88    2100.8414   -10247.286   -5373.4304      85.3926 
   93000    407.22182   -110.04732   0.36846286   -109.67886   -3848.6489    4.4055806    4.4055806    4.4055806   -3848.6489    7751.5236     7231.054   -26528.524    -193.5841   -326.65426   -2261.3285    85.508531 
   93100    678.85536   -110.29226   0.61424259   -109.67802    -3867.109    4.4074453    4.4074453    4.4074453    -3867.109    9057.7468    8559.1409   -29218.215   -4206.9266     9255.146    3395.8943    85.617153 
   93200    1104.2213   -110.67443   0.99912262   -109.67531   -1537.1744    4.4038136    4.4038136    4.4038136   -1537.1744    3991.5944    374.95005   -8978.0677    3219.3641   -6434.4164   -4323.5903    85.405685 
   93300    954.02019   -110.54325   0.86321752   -109.68004    4554.3676    4.4058585    4.4058585    4.4058585    4554.3676    -1900.979    1769.2718     13794.81    -2099.068    2222.4634     2002.257    85.524713 
   93400    1213.7424   -110.77577    1.0982196   -109.67755   -1832.6245    4.4060063    4.4060063    4.4060063   -1832.6245   -15258.727   -5053.7287    14814.582    -4995.798    7916.4835    -1404.409    85.533324 
   93500    1084.8102   -110.65703   0.98155909   -109.67547    916.31466    4.4053003    4.4053003    4.4053003    916.31466   -11690.412    231.05779    14208.298    4956.0265   -7098.8636   -4953.7796    85.492214 
   93600    574.18656   -110.19966   0.51953607   -109.68012   -5726.2904    4.4064087    4.4064087    4.4064087   -5726.2904   -19938.708    5537.2594   -2777.4226   -2131.8639    10110.755     2763.363    85.556761 
   93700    459.39528   -110.09416   0.41567051   -109.67849    -259.0809    4.4047411    4.4047411    4.4047411    -259.0809    10205.614    14389.029   -25371.886    -5641.033    9948.4971    38.937543    85.459661 
   93800    630.18307   -110.24505   0.57020289   -109.67484   -320.89984    4.4049303    4.4049303    4.4049303   -320.89984    12633.404    16866.672   -30462.775    2526.1712   -7205.1744    941.34611    85.470671 
   93900    483.54987   -110.11766   0.43752608   -109.68014   -4120.1699    4.4068682    4.4068682    4.4068682   -4120.1699   -10128.973    10482.059   -12713.596    -728.1457    10800.003   -2544.1856    85.583526 
   94000    782.89861   -110.38824   0.70838312   -109.67986     6726.971    4.4059649    4.4059649    4.4059649     6726.971   -432.63321     13474.97    7138.5763   -6384.1852    5354.8767    157.52073    85.530909 
   94100    1295.7974   -110.84594    1.1724647   -109.67348    703.27846    4.4042696    4.4042696    4.4042696    703.27846    681.66705   -10485.775    11913.943     1428.323   -5004.4837    4361.4788    85.432216 
   94200    804.28529   -110.40851   0.72773423   -109.68078    -4308.465    4.4067295    4.4067295    4.4067295    -4308.465   -10685.631   -19453.759    17213.995   -2162.3551    10832.209   -882.57897    85.575446 
   94300     951.7758   -110.53987   0.86118675   -109.67868   -6428.0729    4.4063272    4.4063272    4.4063272   -6428.0729   -10442.524   -17591.535    8749.8397   -9454.0007    2304.4635    4503.1715    85.552013 
   94400    922.02513    -110.5087   0.83426772   -109.67443    10210.942    4.4035301    4.4035301    4.4035301    10210.942    16328.569    15242.773   -938.51667    4240.1406   -2142.9942   -2936.5518    85.389193 
   94500    553.85241   -110.18167    0.5011373   -109.68053   -4921.4905    4.4077046    4.4077046    4.4077046   -4921.4905   -11956.025    12779.354     -15587.8   -3009.1369    11732.213   -2263.5563    85.632265 
   94600    623.08161   -110.24296   0.56377734   -109.67918    12.512421    4.4059397    4.4059397    4.4059397    12.512421   -14363.088    17973.706   -3573.0808   -9909.8444    984.07319      6549.62    85.529447 
   94700    978.53785   -110.55928   0.88540161   -109.67388    2845.8099    4.4035977    4.4035977    4.4035977    2845.8099   -4754.2601    20132.342   -6840.6527    4238.0205   -1006.7689   -5423.5582    85.393126 
   94800    644.28257   -110.26292   0.58296041   -109.67996   -8996.8905     4.408235     4.408235     4.408235   -8996.8905      -8763.2   -5645.9449   -12581.526   -5713.7392    11872.216    233.83799    85.663183 
   94900    728.56116   -110.33771   0.65921745    -109.6785   -2039.8422    4.4050681    4.4050681    4.4050681   -2039.8422    7412.4584   -20628.559    7096.5734   -5921.8238   -2352.7327   -527.80369    85.478694 
   95000    981.43473   -110.56195   0.88802277   -109.67393    2817.8283    4.4050606    4.4050606    4.4050606    2817.8283    7423.4203   -13915.774    14945.838    1840.6029   -1860.9516   -3963.5086    85.478257 
   95100     542.9669   -110.17095   0.49128786   -109.67966     4188.447    4.4070065    4.4070065    4.4070065     4188.447    6730.6864   -5088.3072    10922.962   -8547.4216    13322.649    5229.8985    85.591587 
   95200     781.3657   -110.38563   0.70699611   -109.67863   -1531.5853     4.403778     4.403778     4.403778   -1531.5853   -2916.2425   -10607.891    8929.3781   -4701.5988   -2874.1908   -2295.8778    85.403615 
   95300     998.8595   -110.57923   0.90378906   -109.67545   -1909.7717    4.4073514    4.4073514    4.4073514   -1909.7717    -8452.919    1672.0424    1051.5616    3144.3768   -2447.6308   -508.83604    85.611681 
   95400    908.24656   -110.50043   0.82180057   -109.67863   -7069.6724    4.4067428    4.4067428    4.4067428   -7069.6724   -26922.079    15033.987   -9320.9254   -5813.9667    11453.704    2199.9189    85.576223 
   95500    890.63853    -110.4838   0.80586846   -109.67794    5604.7427    4.4033633    4.4033633    4.4033633    5604.7427    -1693.544    23531.952     -5024.18   -7248.6711   -3214.5105    211.17895    85.379491 
   95600    1015.6431   -110.59386   0.91897524   -109.67489    1947.4171    4.4075399    4.4075399    4.4075399    1947.4171    5680.7824    4569.2483   -4407.7795    2688.1791   -3726.4124    4849.2032    85.622667 
   95700    580.69471   -110.20402   0.52542477   -109.67859    2656.7648    4.4058881    4.4058881    4.4058881    2656.7648   -6409.7256    2422.0066    11958.013   -6357.8147    9268.1901   -1817.6237    85.526437 
   95800    489.61582   -110.12113   0.44301468   -109.67811    643.85809    4.4045575    4.4045575    4.4045575    643.85809    7531.2798   -14028.803     8429.097   -6639.0345   -6135.0315    170.82138    85.448972 
   95900     697.8206   -110.30617   0.63140274   -109.67476   -10380.892    4.4077552    4.4077552    4.4077552   -10380.892    8042.6188   -41724.291    2538.9973    1233.5453    -5770.384    519.53833    85.635219 
   96000    608.26702   -110.22779   0.55037279   -109.67742   -6100.3271    4.4050578    4.4050578    4.4050578   -6100.3271   -166.01286   -24274.863    6139.8948   -11871.056    12202.336    183.61017    85.478097 
   96100    845.71299   -110.44413   0.76521889   -109.67891    908.37668    4.4049194    4.4049194    4.4049194    908.37668   -12467.498    15057.513    135.11542   -1772.5697   -8092.3523    4653.8485    85.470037 
   96200    1121.2778   -110.69041    1.0145557   -109.67585    8134.7702    4.4066325    4.4066325    4.4066325    8134.7702    6536.7432    21386.688   -3519.1206     4468.357   -8313.7756    -5629.192    85.569796 
   96300    1028.2536   -110.60772   0.93038547   -109.67733    1203.3026    4.4056115    4.4056115    4.4056115    1203.3026   -13360.768    18172.378   -1201.7018   -12944.842    11699.837   -2411.0275    85.510332 
   96400    860.46967   -110.45647   0.77857104    -109.6779   -2084.9436    4.4061329    4.4061329    4.4061329   -2084.9436   -21175.315    20853.451   -5932.9668   -672.23179    -8947.067    3169.1468    85.540698 
   96500     878.8924   -110.47028   0.79524031   -109.67504   -5592.6337     4.405182     4.405182     4.405182   -5592.6337   -4972.9206   -16380.465    4575.4848     2312.719   -5214.2089   -1388.0315    85.485327 
   96600    595.21132   -110.21614   0.53855971   -109.67758   -7673.2581    4.4055432    4.4055432    4.4055432   -7673.2581    6047.4021   -39246.401    10179.225    -7842.663    8310.8201    2029.8166    85.506353 
   96700    546.27314   -110.17217   0.49427942   -109.67789    -3308.841    4.4066206    4.4066206    4.4066206    -3308.841    8898.4915    -21385.33    2560.3153    519.08921   -10618.251   -4293.6396    85.569104 
   96800    751.76827   -110.35576   0.68021573   -109.67554    4830.7047    4.4047834    4.4047834    4.4047834    4830.7047    8198.6567   -7264.8329     13558.29   -1024.4272   -772.11701    185.46011    85.462123 
   96900    729.12194   -110.33699   0.65972486   -109.67727    1388.7955    4.4056953    4.4056953    4.4056953    1388.7955    10299.194    -3858.275   -2274.5327   -7829.4236    7234.4082    7163.4995    85.515211 
   97000    861.02639   -110.45626   0.77907477   -109.67719   -7351.7216    4.4060252    4.4060252    4.4060252   -7351.7216   -16952.603    15156.933   -20259.495    2375.0941   -7317.8532   -1742.1005    85.534426 
   97100    947.74671   -110.53388   0.85754114   -109.67634    -4569.937    4.4053513    4.4053513    4.4053513    -4569.937   -21629.586      12329.2   -4409.4248    2718.8116   -3651.1391    -815.9177    85.495181 
   97200    846.42972   -110.44317    0.7658674   -109.67731   -2039.4394    4.4061988    4.4061988    4.4061988   -2039.4394   -15295.917     2351.308    6826.2911   -9573.1637    5864.4657   -108.13063    85.544533 
   97300    809.31151   -110.40878   0.73228206   -109.67649    2052.2192    4.4052524    4.4052524    4.4052524    2052.2192    7226.5292   -1559.2526    489.38107   -69.898652   -920.65691    3265.6323    85.489421 
   97400    809.27787    -110.4086   0.73225162   -109.67635    1437.6709    4.4057344    4.4057344    4.4057344    1437.6709     7317.401   -17965.065    14960.676     6893.019   -6160.7827    1618.4822    85.517489 
   97500    772.18695   -110.37625   0.69869098   -109.67756    797.93906     4.405977     4.405977     4.405977    797.93906    8099.2503   -19074.628    13369.195   -7648.5824    8070.7159   -5566.9793    85.531617 
   97600    824.49332   -110.42262   0.74601889    -109.6766    360.33213    4.4044283    4.4044283    4.4044283    360.33213    6493.0672    -12265.04    6852.9689    471.56247      759.604    495.50343    85.441455 
   97700    851.39358   -110.44705   0.77035881   -109.67669   -6190.9569    4.4063627    4.4063627    4.4063627   -6190.9569    -400.6953   -19893.874    1721.6982     5407.015    -5198.979   -351.04336     85.55408 
   97800    737.57565   -110.34484   0.66737395   -109.67746    184.81401    4.4069014    4.4069014    4.4069014    184.81401   -8925.2722    4781.5803    4698.1339   -7615.8682    11227.779   -229.96546    85.585462 
   97900    773.55554   -110.37572   0.69992931   -109.67579    9708.8087    4.4033842    4.4033842    4.4033842    9708.8087   -4095.3088    25940.521    7281.2141    3279.9914   -2963.6488    508.65343    85.380704 
   98000     691.3301   -110.30208   0.62553001   -109.67655    845.30502    4.4060511    4.4060511    4.4060511    845.30502    12744.819    3736.7695   -13945.674    5417.1685   -4540.9825   -3975.3272    85.535933 
   98100    619.94544   -110.23875   0.56093966   -109.67781   -7745.5934     4.407825     4.407825     4.407825   -7745.5934   -9503.2091     2775.843   -16509.414   -8078.7573     8565.837    2249.8148    85.639287 
   98200    826.88223   -110.42437   0.74818042   -109.67619     1254.264    4.4026136    4.4026136    4.4026136     1254.264   -3148.1719   -743.47794     7654.442    3811.2301   -4581.9176    506.96149    85.335887 
   98300     866.7641   -110.46096   0.78426637   -109.67669    1418.8646    4.4063126    4.4063126    4.4063126    1418.8646    2403.6142   -30256.246    32109.226    5945.3133    1623.2057   -1612.4775    85.551164 
   98400    960.27513   -110.54699   0.86887712   -109.67811   -6067.5201     4.407531     4.407531     4.407531   -6067.5201   -5844.6231   -22063.992    9706.0549   -6034.7159      9605.38    219.51934    85.622149 
   98500    994.70805   -110.57699   0.90003274   -109.67696    12438.953    4.4021765    4.4021765    4.4021765    12438.953    5407.8571    2329.7472    29579.254    3987.9596   -2023.4654    -1611.174    85.310473 
   98600      973.121   -110.55717   0.88050033   -109.67667   -2273.2152    4.4079183    4.4079183    4.4079183   -2273.2152   -1716.2354   -8841.6784    3738.2682    3140.5677   -2369.9746    5059.4907    85.644724 
   98700    586.44798   -110.20993   0.53063046    -109.6793    -7100.333    4.4059801    4.4059801    4.4059801    -7100.333   -1306.6422    10066.721   -30061.078   -6839.3218    12750.348    373.15948    85.531798 
   98800    700.41661   -110.30937   0.63375167   -109.67562   -5400.0826    4.4031121    4.4031121    4.4031121   -5400.0826   -2385.1213    15842.031   -29657.157    4230.6861    4459.7485   -246.37344    85.364878 
   98900    548.87869   -110.17321   0.49663698   -109.67657    348.83577    4.4087504    4.4087504    4.4087504    348.83577   -10941.616   -2543.4835    14531.607    2861.5526   -6451.7413    2687.1674    85.693234 
   99000    539.05166   -110.16723   0.48774527   -109.67949    3969.2611    4.4023868    4.4023868    4.4023868    3969.2611   -4676.7925    1025.5682    15559.008   -8140.3238     13592.46   -496.79912    85.322699 
   99100    898.10713   -110.49087    0.8126262   -109.67824    -796.0639    4.4060606    4.4060606    4.4060606    -796.0639    5467.5451   -11835.319     3979.582    2607.9247    3537.1131    2786.8381    85.536485 
   99200    1033.7133   -110.61167   0.93532549   -109.67634   -4122.6982    4.4099024    4.4099024    4.4099024   -4122.6982   -5897.8132   -23627.577    17157.296    2872.9312   -1373.4195   -2723.7027    85.760426 
   99300    985.13062   -110.56933   0.89136689   -109.67796    4825.8384    4.3993696    4.3993696    4.3993696    4825.8384    3571.2961   -4498.1116    15404.331   -6857.3805    15572.825   -2660.2688    85.147391 
   99400    1102.3233   -110.67343   0.99740529   -109.67602   -4215.8766     4.408925     4.408925     4.408925   -4215.8766    3951.0373   -10695.186   -5903.4808    2373.9177   -5216.2747    1019.7776    85.703419 
   99500    898.47655   -110.48993   0.81296047   -109.67697   -3308.5461    4.4075016    4.4075016    4.4075016   -3308.5461   -1578.3601   -3002.1355   -5345.1427    501.54938    3593.9305   -835.75073    85.620438 
   99600    418.18024   -110.05862   0.37837827   -109.68024    16152.071     4.398952     4.398952     4.398952    16152.071    8897.0273     19914.12    19645.065   -6863.8504    16262.435    1043.3242    85.123144 
   99700     714.0604   -110.32183   0.64609685   -109.67574   -12900.613    4.4116037    4.4116037    4.4116037   -12900.613   -2115.9359   -2884.7865   -33701.116     2200.603   -5358.6083   -2166.9535    85.859724 
   99800    517.36294   -110.14434   0.46812086   -109.67622    -3576.369    4.4053597    4.4053597    4.4053597    -3576.369    10669.522    2305.4751   -23704.104   -1862.6623    5864.8932    1126.4327    85.495671 
   99900    607.50616   -110.23015   0.54968434   -109.68046    535.25786    4.4012278    4.4012278    4.4012278    535.25786    253.42626   -1538.4506     2890.798   -7680.6863    8958.8333    1004.8202    85.255328 
  100000    1019.3131   -110.59855    0.9222959   -109.67625    1909.7302    4.4094928    4.4094928    4.4094928    1909.7302   -4122.7848   -21463.528    31315.504    1481.9593   -3839.1073    144.63775    85.736531 
Loop time of 21.73 on 1 procs for 100000 steps with 8 atoms

Pair  time (%) = 6.75067 (31.0661)
Kspce time (%) = 5.29127 (24.35)
Neigh time (%) = 0 (0)
Comm  time (%) = 1.06954 (4.92194)
Outpt time (%) = 0.0240915 (0.110867)
Other time (%) = 8.59445 (39.551)

Nlocal:    8 ave 8 max 8 min
Histogram: 1 0 0 0 0 0 0 0 0 0
Nghost:    2189 ave 2189 max 2189 min
Histogram: 1 0 0 0 0 0 0 0 0 0
Neighs:    2056 ave 2056 max 2056 min
Histogram: 1 0 0 0 0 0 0 0 0 0

Total # of neighbors = 2056
Ave neighs/atom = 257
Neighbor list builds = 0
Dangerous builds = 0
unfix 20
unfix 21
print "seeds:3522684"
seeds:3522684
