# ['Ni']

28 atoms
1 atom types

    0.0000     2.4893 xlo xhi
    0.0000     4.3116 ylo yhi
    0.0000    28.4552 zlo zhi

    0.0000     0.0000     0.0000 xy xz yz

Atoms

1 1     0.0000     0.0000     0.0000
2 1     1.2447     2.1558     0.0000
3 1     1.2447     0.7186     2.0325
4 1     0.0000     2.8744     2.0325
5 1     0.0000     1.4372     4.0650
6 1     1.2447     3.5930     4.0650
7 1     0.0000     0.0000     6.0976
8 1     1.2447     2.1558     6.0976
9 1     1.2447     0.7186     8.1301
10 1     0.0000     2.8744     8.1301
11 1     0.0000     1.4372    10.1626
12 1     1.2447     3.5930    10.1626
13 1     0.0000     0.0000    12.1951
14 1     1.2447     2.1558    12.1951
15 1     0.0000     1.4372    14.2276
16 1     1.2447     3.5930    14.2276
17 1     0.0000     0.0000    16.2601
18 1     1.2447     2.1558    16.2601
19 1     1.2447     0.7186    18.2926
20 1     0.0000     2.8744    18.2926
21 1     0.0000     1.4372    20.3252
22 1     1.2447     3.5930    20.3252
23 1     0.0000     0.0000    22.3577
24 1     1.2447     2.1558    22.3577
25 1     1.2447     0.7186    24.3902
26 1     0.0000     2.8744    24.3902
27 1     0.0000     1.4372    26.4227
28 1     1.2447     3.5930    26.4227
