# ['Ni']

20 atoms
1 atom types

    0.0000     2.7791 xlo xhi
    0.0000     2.7791 ylo yhi
    0.0000    27.7911 zlo zhi

    0.0000    -0.0000     0.0000 xy xz yz

Atoms

1 1     0.0000     0.0000     0.0000
2 1     1.3896     1.3896     0.0000
3 1     1.3896     0.0000     1.3896
4 1     0.0000     1.3896     1.3896
5 1     0.0000     0.0000     2.7791
6 1     1.3896     1.3896     2.7791
7 1     1.3896     0.0000     4.1687
8 1     0.0000     1.3896     4.1687
9 1     0.0000     0.0000     5.5582
10 1     1.3896     1.3896     5.5582
11 1     1.3896     0.0000     6.9478
12 1     0.0000     1.3896     6.9478
13 1     0.0000     0.0000     8.3373
14 1     1.3896     1.3896     8.3373
15 1     1.3896     0.0000     9.7269
16 1     0.0000     1.3896     9.7269
17 1     0.0000     0.0000    11.1164
18 1     1.3896     1.3896    11.1164
19 1     1.3896     0.0000    12.5060
20 1     0.0000     1.3896    12.5060
