# ['Si']

215 atoms
1 atom types

    0.0000    81.9056 xlo xhi
    0.0000    81.9056 ylo yhi
    0.0000    81.9056 zlo zhi

    0.0000     0.0000     0.0000 xy xz yz

Atoms

1 1     6.8254     6.8254     6.8254
2 1     0.0000    13.6510    13.6510
3 1     6.8254    20.4764    20.4764
4 1    13.6510     0.0000    13.6510
5 1    20.4764     6.8254    20.4764
6 1    13.6510    13.6510     0.0000
7 1    20.4764    20.4764     6.8254
8 1     0.0000     0.0000    27.3018
9 1     6.8254     6.8254    34.1274
10 1     0.0000    13.6510    40.9528
11 1     6.8254    20.4764    47.7782
12 1    13.6510     0.0000    40.9528
13 1    20.4764     6.8254    47.7782
14 1    13.6510    13.6510    27.3018
15 1    20.4764    20.4764    34.1274
16 1     0.0000     0.0000    54.6037
17 1     6.8254     6.8254    61.4292
18 1     0.0000    13.6510    68.2546
19 1     6.8254    20.4764    75.0801
20 1    13.6510     0.0000    68.2546
21 1    20.4764     6.8254    75.0801
22 1    13.6510    13.6510    54.6037
23 1    20.4764    20.4764    61.4292
24 1     0.0000    27.3018     0.0000
25 1     6.8254    34.1274     6.8254
26 1     0.0000    40.9528    13.6510
27 1     6.8254    47.7782    20.4764
28 1    13.6510    27.3018    13.6510
29 1    20.4764    34.1274    20.4764
30 1    13.6510    40.9528     0.0000
31 1    20.4764    47.7782     6.8254
32 1     0.0000    27.3018    27.3018
33 1     6.8254    34.1274    34.1274
34 1     0.0000    40.9528    40.9528
35 1     6.8254    47.7782    47.7782
36 1    13.6510    27.3018    40.9528
37 1    20.4764    34.1274    47.7782
38 1    13.6510    40.9528    27.3018
39 1    20.4764    47.7782    34.1274
40 1     0.0000    27.3018    54.6037
41 1     6.8254    34.1274    61.4292
42 1     0.0000    40.9528    68.2546
43 1     6.8254    47.7782    75.0801
44 1    13.6510    27.3018    68.2546
45 1    20.4764    34.1274    75.0801
46 1    13.6510    40.9528    54.6037
47 1    20.4764    47.7782    61.4292
48 1     0.0000    54.6037     0.0000
49 1     6.8254    61.4292     6.8254
50 1     0.0000    68.2546    13.6510
51 1     6.8254    75.0801    20.4764
52 1    13.6510    54.6037    13.6510
53 1    20.4764    61.4292    20.4764
54 1    13.6510    68.2546     0.0000
55 1    20.4764    75.0801     6.8254
56 1     0.0000    54.6037    27.3018
57 1     6.8254    61.4292    34.1274
58 1     0.0000    68.2546    40.9528
59 1     6.8254    75.0801    47.7782
60 1    13.6510    54.6037    40.9528
61 1    20.4764    61.4292    47.7782
62 1    13.6510    68.2546    27.3018
63 1    20.4764    75.0801    34.1274
64 1     0.0000    54.6037    54.6037
65 1     6.8254    61.4292    61.4292
66 1     0.0000    68.2546    68.2546
67 1     6.8254    75.0801    75.0801
68 1    13.6510    54.6037    68.2546
69 1    20.4764    61.4292    75.0801
70 1    13.6510    68.2546    54.6037
71 1    20.4764    75.0801    61.4292
72 1    27.3018     0.0000     0.0000
73 1    34.1274     6.8254     6.8254
74 1    27.3018    13.6510    13.6510
75 1    34.1274    20.4764    20.4764
76 1    40.9528     0.0000    13.6510
77 1    47.7782     6.8254    20.4764
78 1    40.9528    13.6510     0.0000
79 1    47.7782    20.4764     6.8254
80 1    27.3018     0.0000    27.3018
81 1    34.1274     6.8254    34.1274
82 1    27.3018    13.6510    40.9528
83 1    34.1274    20.4764    47.7782
84 1    40.9528     0.0000    40.9528
85 1    47.7782     6.8254    47.7782
86 1    40.9528    13.6510    27.3018
87 1    47.7782    20.4764    34.1274
88 1    27.3018     0.0000    54.6037
89 1    34.1274     6.8254    61.4292
90 1    27.3018    13.6510    68.2546
91 1    34.1274    20.4764    75.0801
92 1    40.9528     0.0000    68.2546
93 1    47.7782     6.8254    75.0801
94 1    40.9528    13.6510    54.6037
95 1    47.7782    20.4764    61.4292
96 1    27.3018    27.3018     0.0000
97 1    34.1274    34.1274     6.8254
98 1    27.3018    40.9528    13.6510
99 1    34.1274    47.7782    20.4764
100 1    40.9528    27.3018    13.6510
101 1    47.7782    34.1274    20.4764
102 1    40.9528    40.9528     0.0000
103 1    47.7782    47.7782     6.8254
104 1    27.3018    27.3018    27.3018
105 1    34.1274    34.1274    34.1274
106 1    27.3018    40.9528    40.9528
107 1    34.1274    47.7782    47.7782
108 1    40.9528    27.3018    40.9528
109 1    47.7782    34.1274    47.7782
110 1    40.9528    40.9528    27.3018
111 1    47.7782    47.7782    34.1274
112 1    27.3018    27.3018    54.6037
113 1    34.1274    34.1274    61.4292
114 1    27.3018    40.9528    68.2546
115 1    34.1274    47.7782    75.0801
116 1    40.9528    27.3018    68.2546
117 1    47.7782    34.1274    75.0801
118 1    40.9528    40.9528    54.6037
119 1    47.7782    47.7782    61.4292
120 1    27.3018    54.6037     0.0000
121 1    34.1274    61.4292     6.8254
122 1    27.3018    68.2546    13.6510
123 1    34.1274    75.0801    20.4764
124 1    40.9528    54.6037    13.6510
125 1    47.7782    61.4292    20.4764
126 1    40.9528    68.2546     0.0000
127 1    47.7782    75.0801     6.8254
128 1    27.3018    54.6037    27.3018
129 1    34.1274    61.4292    34.1274
130 1    27.3018    68.2546    40.9528
131 1    34.1274    75.0801    47.7782
132 1    40.9528    54.6037    40.9528
133 1    47.7782    61.4292    47.7782
134 1    40.9528    68.2546    27.3018
135 1    47.7782    75.0801    34.1274
136 1    27.3018    54.6037    54.6037
137 1    34.1274    61.4292    61.4292
138 1    27.3018    68.2546    68.2546
139 1    34.1274    75.0801    75.0801
140 1    40.9528    54.6037    68.2546
141 1    47.7782    61.4292    75.0801
142 1    40.9528    68.2546    54.6037
143 1    47.7782    75.0801    61.4292
144 1    54.6037     0.0000     0.0000
145 1    61.4292     6.8254     6.8254
146 1    54.6037    13.6510    13.6510
147 1    61.4292    20.4764    20.4764
148 1    68.2546     0.0000    13.6510
149 1    75.0801     6.8254    20.4764
150 1    68.2546    13.6510     0.0000
151 1    75.0801    20.4764     6.8254
152 1    54.6037     0.0000    27.3018
153 1    61.4292     6.8254    34.1274
154 1    54.6037    13.6510    40.9528
155 1    61.4292    20.4764    47.7782
156 1    68.2546     0.0000    40.9528
157 1    75.0801     6.8254    47.7782
158 1    68.2546    13.6510    27.3018
159 1    75.0801    20.4764    34.1274
160 1    54.6037     0.0000    54.6037
161 1    61.4292     6.8254    61.4292
162 1    54.6037    13.6510    68.2546
163 1    61.4292    20.4764    75.0801
164 1    68.2546     0.0000    68.2546
165 1    75.0801     6.8254    75.0801
166 1    68.2546    13.6510    54.6037
167 1    75.0801    20.4764    61.4292
168 1    54.6037    27.3018     0.0000
169 1    61.4292    34.1274     6.8254
170 1    54.6037    40.9528    13.6510
171 1    61.4292    47.7782    20.4764
172 1    68.2546    27.3018    13.6510
173 1    75.0801    34.1274    20.4764
174 1    68.2546    40.9528     0.0000
175 1    75.0801    47.7782     6.8254
176 1    54.6037    27.3018    27.3018
177 1    61.4292    34.1274    34.1274
178 1    54.6037    40.9528    40.9528
179 1    61.4292    47.7782    47.7782
180 1    68.2546    27.3018    40.9528
181 1    75.0801    34.1274    47.7782
182 1    68.2546    40.9528    27.3018
183 1    75.0801    47.7782    34.1274
184 1    54.6037    27.3018    54.6037
185 1    61.4292    34.1274    61.4292
186 1    54.6037    40.9528    68.2546
187 1    61.4292    47.7782    75.0801
188 1    68.2546    27.3018    68.2546
189 1    75.0801    34.1274    75.0801
190 1    68.2546    40.9528    54.6037
191 1    75.0801    47.7782    61.4292
192 1    54.6037    54.6037     0.0000
193 1    61.4292    61.4292     6.8254
194 1    54.6037    68.2546    13.6510
195 1    61.4292    75.0801    20.4764
196 1    68.2546    54.6037    13.6510
197 1    75.0801    61.4292    20.4764
198 1    68.2546    68.2546     0.0000
199 1    75.0801    75.0801     6.8254
200 1    54.6037    54.6037    27.3018
201 1    61.4292    61.4292    34.1274
202 1    54.6037    68.2546    40.9528
203 1    61.4292    75.0801    47.7782
204 1    68.2546    54.6037    40.9528
205 1    75.0801    61.4292    47.7782
206 1    68.2546    68.2546    27.3018
207 1    75.0801    75.0801    34.1274
208 1    54.6037    54.6037    54.6037
209 1    61.4292    61.4292    61.4292
210 1    54.6037    68.2546    68.2546
211 1    61.4292    75.0801    75.0801
212 1    68.2546    54.6037    68.2546
213 1    75.0801    61.4292    75.0801
214 1    68.2546    68.2546    54.6037
215 1    75.0801    75.0801    61.4292
