   2   2   0   0
  0.9639684E+01  0.3009788E-09  0.3009788E-09  0.3009788E-09  0.5000000E-15
  1.000000000000000E-004
  CAR 
 automatically generated by pyflamestk   
     43.83127801    -16.33218700  301      3.54682457      1.00000000
    -16.332  0.0000E+00  0.0000E+00
    -16.132  0.0000E+00  0.0000E+00
    -15.931  0.0000E+00  0.0000E+00
    -15.731  0.0000E+00  0.0000E+00
    -15.530  0.0000E+00  0.0000E+00
    -15.329  0.0000E+00  0.0000E+00
    -15.129  0.0000E+00  0.0000E+00
    -14.928  0.0000E+00  0.0000E+00
    -14.728  0.0000E+00  0.0000E+00
    -14.527  0.0000E+00  0.0000E+00
    -14.327  0.0000E+00  0.0000E+00
    -14.126  0.0000E+00  0.0000E+00
    -13.926  0.0000E+00  0.0000E+00
    -13.725  0.4778E-04  0.9583E-05
    -13.525  0.3055E+00  0.6128E-01
    -13.324  0.1205E-01  0.6369E-01
    -13.123  0.9283E+00  0.2499E+00
    -12.923  0.7158E+00  0.3934E+00
    -12.722  0.8435E+00  0.5626E+00
    -12.522  0.2620E+01  0.1088E+01
    -12.321  0.2972E+01  0.1684E+01
    -12.121  0.1576E+01  0.2000E+01
    -11.920  0.1843E-06  0.2000E+01
    -11.720  0.0000E+00  0.2000E+01
    -11.519  0.0000E+00  0.2000E+01
    -11.319  0.0000E+00  0.2000E+01
    -11.118  0.0000E+00  0.2000E+01
    -10.917  0.0000E+00  0.2000E+01
    -10.717  0.0000E+00  0.2000E+01
    -10.516  0.0000E+00  0.2000E+01
    -10.316  0.0000E+00  0.2000E+01
    -10.115  0.0000E+00  0.2000E+01
     -9.915  0.0000E+00  0.2000E+01
     -9.714  0.0000E+00  0.2000E+01
     -9.514  0.0000E+00  0.2000E+01
     -9.313  0.0000E+00  0.2000E+01
     -9.113  0.0000E+00  0.2000E+01
     -8.912  0.0000E+00  0.2000E+01
     -8.711  0.0000E+00  0.2000E+01
     -8.511  0.0000E+00  0.2000E+01
     -8.310  0.0000E+00  0.2000E+01
     -8.110  0.0000E+00  0.2000E+01
     -7.909  0.0000E+00  0.2000E+01
     -7.709  0.0000E+00  0.2000E+01
     -7.508  0.0000E+00  0.2000E+01
     -7.308  0.0000E+00  0.2000E+01
     -7.107  0.0000E+00  0.2000E+01
     -6.907  0.0000E+00  0.2000E+01
     -6.706  0.0000E+00  0.2000E+01
     -6.505  0.0000E+00  0.2000E+01
     -6.305  0.0000E+00  0.2000E+01
     -6.104  0.0000E+00  0.2000E+01
     -5.904  0.0000E+00  0.2000E+01
     -5.703  0.0000E+00  0.2000E+01
     -5.503  0.0000E+00  0.2000E+01
     -5.302  0.0000E+00  0.2000E+01
     -5.102  0.0000E+00  0.2000E+01
     -4.901  0.0000E+00  0.2000E+01
     -4.701  0.0000E+00  0.2000E+01
     -4.500  0.0000E+00  0.2000E+01
     -4.299  0.0000E+00  0.2000E+01
     -4.099  0.0000E+00  0.2000E+01
     -3.898  0.0000E+00  0.2000E+01
     -3.698  0.0000E+00  0.2000E+01
     -3.497  0.0000E+00  0.2000E+01
     -3.297  0.0000E+00  0.2000E+01
     -3.096  0.0000E+00  0.2000E+01
     -2.896  0.0000E+00  0.2000E+01
     -2.695  0.0000E+00  0.2000E+01
     -2.495  0.0000E+00  0.2000E+01
     -2.294  0.0000E+00  0.2000E+01
     -2.094  0.0000E+00  0.2000E+01
     -1.893  0.0000E+00  0.2000E+01
     -1.692  0.0000E+00  0.2000E+01
     -1.492  0.0000E+00  0.2000E+01
     -1.291  0.0000E+00  0.2000E+01
     -1.091  0.1124E-09  0.2000E+01
     -0.890  0.2378E+00  0.2048E+01
     -0.690  0.6989E+00  0.2188E+01
     -0.489  0.3174E+00  0.2252E+01
     -0.289  0.1565E+01  0.2565E+01
     -0.088  0.2349E+01  0.3037E+01
      0.112  0.2508E+01  0.3539E+01
      0.313  0.1004E+01  0.3741E+01
      0.514  0.4612E-01  0.3750E+01
      0.714  0.1755E-10  0.3750E+01
      0.915  0.2777E+00  0.3806E+01
      1.115  0.2744E+01  0.4356E+01
      1.316  0.7186E+00  0.4500E+01
      1.516  0.1691E-05  0.4500E+01
      1.717  0.2207E+01  0.4943E+01
      1.917  0.5994E+00  0.5063E+01
      2.118  0.2107E+01  0.5485E+01
      2.318  0.2545E+01  0.5996E+01
      2.519  0.3745E+01  0.6747E+01
      2.720  0.2195E+01  0.7187E+01
      2.920  0.2230E+01  0.7634E+01
      3.121  0.1200E+01  0.7875E+01
      3.321  0.6032E+00  0.7996E+01
      3.522  0.2002E-01  0.8000E+01
      3.722  0.0000E+00  0.8000E+01
      3.923  0.0000E+00  0.8000E+01
      4.123  0.0000E+00  0.8000E+01
      4.324  0.0000E+00  0.8000E+01
      4.524  0.0000E+00  0.8000E+01
      4.725  0.0000E+00  0.8000E+01
      4.926  0.0000E+00  0.8000E+01
      5.126  0.0000E+00  0.8000E+01
      5.327  0.0000E+00  0.8000E+01
      5.527  0.0000E+00  0.8000E+01
      5.728  0.0000E+00  0.8000E+01
      5.928  0.0000E+00  0.8000E+01
      6.129  0.0000E+00  0.8000E+01
      6.329  0.0000E+00  0.8000E+01
      6.530  0.0000E+00  0.8000E+01
      6.730  0.0000E+00  0.8000E+01
      6.931  0.0000E+00  0.8000E+01
      7.132  0.0000E+00  0.8000E+01
      7.332  0.0000E+00  0.8000E+01
      7.533  0.0000E+00  0.8000E+01
      7.733  0.0000E+00  0.8000E+01
      7.934  0.0000E+00  0.8000E+01
      8.134  0.0000E+00  0.8000E+01
      8.335  0.0000E+00  0.8000E+01
      8.535  0.5906E-06  0.8000E+01
      8.736  0.2659E+00  0.8053E+01
      8.936  0.4579E-01  0.8062E+01
      9.137  0.0000E+00  0.8062E+01
      9.338  0.0000E+00  0.8062E+01
      9.538  0.0000E+00  0.8062E+01
      9.739  0.0000E+00  0.8062E+01
      9.939  0.0000E+00  0.8062E+01
     10.140  0.1645E-04  0.8063E+01
     10.340  0.8766E+00  0.8238E+01
     10.541  0.5831E-01  0.8250E+01
     10.741  0.1704E-07  0.8250E+01
     10.942  0.1998E+00  0.8290E+01
     11.142  0.8222E+00  0.8455E+01
     11.343  0.2246E+00  0.8500E+01
     11.544  0.1801E-06  0.8500E+01
     11.744  0.6773E+00  0.8636E+01
     11.945  0.2576E+00  0.8687E+01
     12.145  0.2468E-01  0.8692E+01
     12.346  0.9102E+00  0.8875E+01
     12.546  0.2821E+00  0.8932E+01
     12.747  0.1589E+01  0.9250E+01
     12.947  0.9303E+00  0.9437E+01
     13.148  0.9223E+00  0.9622E+01
     13.348  0.1607E-01  0.9625E+01
     13.549  0.9007E+00  0.9806E+01
     13.750  0.7977E+00  0.9966E+01
     13.950  0.1936E+01  0.1035E+02
     14.151  0.1053E+00  0.1037E+02
     14.351  0.0000E+00  0.1038E+02
     14.552  0.1248E-08  0.1038E+02
     14.752  0.9323E+00  0.1056E+02
     14.953  0.2807E+01  0.1112E+02
     15.153  0.2003E-01  0.1113E+02
     15.354  0.1888E+01  0.1151E+02
     15.554  0.2894E+01  0.1209E+02
     15.755  0.1119E+01  0.1231E+02
     15.956  0.6565E-01  0.1233E+02
     16.156  0.1651E+01  0.1266E+02
     16.357  0.1531E+00  0.1269E+02
     16.557  0.0000E+00  0.1269E+02
     16.758  0.8274E-06  0.1269E+02
     16.958  0.1450E+01  0.1298E+02
     17.159  0.8716E+00  0.1315E+02
     17.359  0.7712E+00  0.1331E+02
     17.560  0.2390E-01  0.1331E+02
     17.760  0.1048E-04  0.1331E+02
     17.961  0.8639E+00  0.1349E+02
     18.162  0.7101E-01  0.1350E+02
     18.362  0.2510E-12  0.1350E+02
     18.563  0.5738E-01  0.1351E+02
     18.763  0.8776E+00  0.1369E+02
     18.964  0.1704E-04  0.1369E+02
     19.164  0.4183E-05  0.1369E+02
     19.365  0.6262E+00  0.1381E+02
     19.565  0.2794E+01  0.1437E+02
     19.766  0.1469E+01  0.1467E+02
     19.966  0.9924E+00  0.1487E+02
     20.167  0.1760E+01  0.1522E+02
     20.368  0.1115E+01  0.1544E+02
     20.568  0.9049E+00  0.1562E+02
     20.769  0.3518E+00  0.1570E+02
     20.969  0.5852E+00  0.1581E+02
     21.170  0.9603E+00  0.1601E+02
     21.370  0.9099E+00  0.1619E+02
     21.571  0.1858E+01  0.1656E+02
     21.771  0.9613E-02  0.1656E+02
     21.972  0.2555E-04  0.1656E+02
     22.172  0.8875E+00  0.1674E+02
     22.373  0.4751E-01  0.1675E+02
     22.574  0.9010E+00  0.1693E+02
     22.774  0.1878E+01  0.1731E+02
     22.975  0.6288E+00  0.1743E+02
     23.175  0.1267E+01  0.1769E+02
     23.376  0.4237E-05  0.1769E+02
     23.576  0.5646E+00  0.1780E+02
     23.777  0.9817E+00  0.1800E+02
     23.977  0.1337E-01  0.1800E+02
     24.178  0.3099E+00  0.1806E+02
     24.378  0.8791E+00  0.1824E+02
     24.579  0.6795E+00  0.1837E+02
     24.780  0.3051E-02  0.1838E+02
     24.980  0.1220E+01  0.1862E+02
     25.181  0.2372E-01  0.1863E+02
     25.381  0.1445E+01  0.1891E+02
     25.582  0.1194E+01  0.1915E+02
     25.782  0.1665E+00  0.1919E+02
     25.983  0.9024E+00  0.1937E+02
     26.183  0.9675E+00  0.1956E+02
     26.384  0.3126E+00  0.1963E+02
     26.584  0.2492E+01  0.2012E+02
     26.785  0.8037E-02  0.2013E+02
     26.986  0.9292E+00  0.2031E+02
     27.186  0.9375E+00  0.2050E+02
     27.387  0.3069E+00  0.2056E+02
     27.587  0.4402E-04  0.2056E+02
     27.788  0.0000E+00  0.2056E+02
     27.988  0.0000E+00  0.2056E+02
     28.189  0.0000E+00  0.2056E+02
     28.389  0.6920E-16  0.2056E+02
     28.590  0.3276E-02  0.2056E+02
     28.790  0.6577E+00  0.2070E+02
     28.991  0.2761E+01  0.2125E+02
     29.192  0.9403E+00  0.2144E+02
     29.392  0.4791E+00  0.2153E+02
     29.593  0.4563E+00  0.2162E+02
     29.793  0.4103E-05  0.2163E+02
     29.994  0.2156E+01  0.2206E+02
     30.194  0.1538E+01  0.2237E+02
     30.395  0.1407E+01  0.2265E+02
     30.595  0.5090E+00  0.2275E+02
     30.796  0.7912E-07  0.2275E+02
     30.996  0.6502E+00  0.2288E+02
     31.197  0.1220E+01  0.2312E+02
     31.397  0.9033E+00  0.2331E+02
     31.598  0.1623E+01  0.2363E+02
     31.799  0.2149E+01  0.2406E+02
     31.999  0.1238E+01  0.2431E+02
     32.200  0.1278E+01  0.2457E+02
     32.400  0.4312E+01  0.2543E+02
     32.601  0.1250E+00  0.2546E+02
     32.801  0.2730E+01  0.2600E+02
     33.002  0.9115E+00  0.2619E+02
     33.202  0.8203E+00  0.2635E+02
     33.403  0.1673E+01  0.2669E+02
     33.603  0.1709E-05  0.2669E+02
     33.804  0.0000E+00  0.2669E+02
     34.005  0.0000E+00  0.2669E+02
     34.205  0.0000E+00  0.2669E+02
     34.406  0.0000E+00  0.2669E+02
     34.606  0.9364E-09  0.2669E+02
     34.807  0.3809E+00  0.2676E+02
     35.007  0.2424E+01  0.2725E+02
     35.208  0.3481E-03  0.2725E+02
     35.408  0.8399E+00  0.2742E+02
     35.609  0.2736E+01  0.2797E+02
     35.809  0.7940E+00  0.2813E+02
     36.010  0.3053E+00  0.2819E+02
     36.211  0.4899E-03  0.2819E+02
     36.411  0.1904E+01  0.2857E+02
     36.612  0.9006E+00  0.2875E+02
     36.812  0.1394E+00  0.2878E+02
     37.013  0.4839E+00  0.2888E+02
     37.213  0.1020E+01  0.2908E+02
     37.414  0.8554E+00  0.2925E+02
     37.614  0.9283E+00  0.2944E+02
     37.815  0.7449E+00  0.2959E+02
     38.015  0.1126E+01  0.2981E+02
     38.216  0.8495E+00  0.2998E+02
     38.417  0.8542E-01  0.3000E+02
     38.617  0.4860E-10  0.3000E+02
     38.818  0.2765E+00  0.3006E+02
     39.018  0.3751E+01  0.3081E+02
     39.219  0.2421E-01  0.3081E+02
     39.419  0.0000E+00  0.3081E+02
     39.620  0.0000E+00  0.3081E+02
     39.820  0.1038E-15  0.3081E+02
     40.021  0.5480E-02  0.3081E+02
     40.221  0.9287E+00  0.3100E+02
     40.422  0.7583E-03  0.3100E+02
     40.623  0.8564E-07  0.3100E+02
     40.823  0.2327E+00  0.3105E+02
     41.024  0.1462E+01  0.3134E+02
     41.224  0.3292E+01  0.3200E+02
     41.425  0.2257E-03  0.3200E+02
     41.625  0.0000E+00  0.3200E+02
     41.826  0.0000E+00  0.3200E+02
     42.026  0.0000E+00  0.3200E+02
     42.227  0.0000E+00  0.3200E+02
     42.427  0.0000E+00  0.3200E+02
     42.628  0.0000E+00  0.3200E+02
     42.829  0.0000E+00  0.3200E+02
     43.029  0.0000E+00  0.3200E+02
     43.230  0.0000E+00  0.3200E+02
     43.430  0.0000E+00  0.3200E+02
     43.631  0.0000E+00  0.3200E+02
     43.831  0.0000E+00  0.3200E+02
