    2    2    1    1
  0.9563318E+01  0.3001819E-09  0.3001820E-09  0.3001819E-09  0.5000000E-15
  1.000000000000000E-004
  CAR 
 automatically generated by pyflamestk   
      8     10     16
 
  0.1250000E+00  0.1250000E+00  0.1250000E+00  0.3125000E-01
    1      -13.753314   1.000000
    2        2.488700   1.000000
    3        3.390588   1.000000
    4        3.390589   1.000000
    5        8.769627   0.000000
    6       17.421255   0.000000
    7       19.435060   0.000000
    8       19.435062   0.000000
    9       23.690703   0.000000
   10       23.690707   0.000000
   11       25.026532   0.000000
   12       27.472507   0.000000
   13       28.929332   0.000000
   14       28.929335   0.000000
   15       39.237029   0.000000
   16       41.203526   0.000000
 
  0.3750000E+00  0.1250000E+00  0.1250000E+00  0.9375000E-01
    1      -13.108748   1.000000
    2        0.323467   1.000000
    3        2.496256   1.000000
    4        3.053970   1.000000
    5       11.229568   0.000000
    6       15.392693   0.000000
    7       18.785134   0.000000
    8       20.439441   0.000000
    9       22.263287   0.000000
   10       24.508348   0.000000
   11       26.623418   0.000000
   12       31.298222   0.000000
   13       32.624522   0.000000
   14       33.419567   0.000000
   15       35.783288   0.000000
   16       39.128298   0.000000
 
 -0.3750000E+00  0.1250000E+00  0.1250000E+00  0.9375000E-01
    1      -12.679404   1.000000
    2       -0.814439   1.000000
    3        2.336717   1.000000
    4        2.699660   1.000000
    5       11.809924   0.000000
    6       15.650725   0.000000
    7       18.065780   0.000000
    8       19.882206   0.000000
    9       23.874036   0.000000
   10       26.145496   0.000000
   11       26.215387   0.000000
   12       32.480994   0.000000
   13       33.147422   0.000000
   14       33.451042   0.000000
   15       36.052940   0.000000
   16       37.740617   0.000000
 
 -0.1250000E+00  0.1250000E+00  0.1250000E+00  0.9375000E-01
    1      -13.394351   1.000000
    2        1.187019   1.000000
    3        2.996847   1.000000
    4        2.999861   1.000000
    5       10.381333   0.000000
    6       15.602613   0.000000
    7       19.571736   0.000000
    8       20.058343   0.000000
    9       21.227198   0.000000
   10       25.072191   0.000000
   11       27.075016   0.000000
   12       30.186899   0.000000
   13       30.455112   0.000000
   14       31.247107   0.000000
   15       37.452416   0.000000
   16       39.253754   0.000000
 
  0.3750000E+00  0.3750000E+00  0.1250000E+00  0.9375000E-01
    1      -12.876700   1.000000
    2        0.124060   1.000000
    3        2.317030   1.000000
    4        2.529504   1.000000
    5       12.348394   0.000000
    6       14.008407   0.000000
    7       17.334608   0.000000
    8       20.977916   0.000000
    9       21.437825   0.000000
   10       27.260925   0.000000
   11       30.363018   0.000000
   12       30.644359   0.000000
   13       32.543376   0.000000
   14       35.040855   0.000000
   15       36.698923   0.000000
   16       38.110438   0.000000
 
 -0.3750000E+00  0.3750000E+00  0.1250000E+00  0.1875000E+00
    1      -12.471885   1.000000
    2        0.028537   1.000000
    3        1.036503   1.000000
    4        2.121495   1.000000
    5       13.885993   0.000000
    6       14.973550   0.000000
    7       15.744418   0.000000
    8       19.717388   0.000000
    9       23.191787   0.000000
   10       26.629063   0.000000
   11       30.189496   0.000000
   12       31.670525   0.000000
   13       32.880656   0.000000
   14       36.555814   0.000000
   15       39.126141   0.000000
   16       41.352770   0.000000
 
 -0.1250000E+00  0.3750000E+00  0.1250000E+00  0.1875000E+00
    1      -12.723644   1.000000
    2       -0.189507   1.000000
    3        1.780346   1.000000
    4        2.611715   1.000000
    5       12.708760   0.000000
    6       14.956363   0.000000
    7       17.100063   0.000000
    8       20.301984   0.000000
    9       22.863919   0.000000
   10       25.535677   0.000000
   11       29.067925   0.000000
   12       31.908571   0.000000
   13       32.461288   0.000000
   14       35.113015   0.000000
   15       35.762520   0.000000
   16       41.245809   0.000000
 
 -0.3750000E+00 -0.3750000E+00  0.1250000E+00  0.9375000E-01
    1      -12.507759   1.000000
    2       -0.352201   1.000000
    3        1.771588   1.000000
    4        2.230348   1.000000
    5       12.943396   0.000000
    6       13.631198   0.000000
    7       16.217018   0.000000
    8       21.688722   0.000000
    9       21.716904   0.000000
   10       29.112004   0.000000
   11       29.585719   0.000000
   12       32.150068   0.000000
   13       32.871397   0.000000
   14       38.018004   0.000000
   15       38.395570   0.000000
   16       41.325180   0.000000
 
  0.3750000E+00  0.3750000E+00  0.3750000E+00  0.3125000E-01
    1      -12.912170   1.000000
    2       -0.548613   1.000000
    3        2.916158   1.000000
    4        2.916159   1.000000
    5       11.008613   0.000000
    6       15.637708   0.000000
    7       19.673087   0.000000
    8       19.673090   0.000000
    9       24.268102   0.000000
   10       24.624404   0.000000
   11       24.624407   0.000000
   12       32.100834   0.000000
   13       33.502974   0.000000
   14       33.502977   0.000000
   15       37.052426   0.000000
   16       37.052432   0.000000
 
 -0.3750000E+00  0.3750000E+00  0.3750000E+00  0.9375000E-01
    1      -12.554041   1.000000
    2       -0.227499   1.000000
    3        1.138906   1.000000
    4        2.575262   1.000000
    5       13.190075   0.000000
    6       15.438110   0.000000
    7       16.302185   0.000000
    8       20.613058   0.000000
    9       22.653501   0.000000
   10       25.705455   0.000000
   11       29.293360   0.000000
   12       31.869287   0.000000
   13       32.310571   0.000000
   14       35.609734   0.000000
   15       37.464719   0.000000
   16       40.349109   0.000000
