# ['Ni']

10 atoms
1 atom types

    0.0000     3.3370 xlo xhi
    0.0000     2.3887 ylo yhi
    0.0000    23.8873 zlo zhi

    0.0000     0.0000     0.0000 xy xz yz

Atoms

1 1     0.0000     0.0000     0.0000
2 1     1.6685     1.1944     1.1944
3 1     0.0000     0.0000     2.3887
4 1     1.6685     1.1944     3.5831
5 1     0.0000     0.0000     4.7775
6 1     1.6685     1.1944     5.9718
7 1     0.0000     0.0000     7.1662
8 1     1.6685     1.1944     8.3606
9 1     0.0000     0.0000     9.5549
10 1     1.6685     1.1944    10.7493
