# ['Al']

18 atoms
1 atom types

    0.0000     2.7820 xlo xhi
    0.0000     4.8187 ylo yhi
    0.0000    40.8810 zlo zhi

    0.0000     0.0000    -0.0004 xy xz yz

Atoms

1 1     0.0000     0.0000     0.0000
2 1     1.3910     0.8031     2.2712
3 1     0.0000     1.6062     4.5423
4 1     1.3910     2.4093     0.0000
5 1     0.0000     3.2124     2.2712
6 1     1.3910     4.0156     4.5423
7 1     0.0000     0.0000     6.8135
8 1     1.3910     0.8031     9.0846
9 1     0.0000     1.6062    11.3558
10 1     1.3910     2.4093     6.8135
11 1     0.0000     3.2124     9.0846
12 1     1.3910     4.0156    11.3558
13 1     0.0000     0.0000    13.6270
14 1     1.3910     0.8031    15.8982
15 1     0.0000     1.6062    18.1693
16 1     1.3910     2.4093    13.6270
17 1     0.0000     3.2124    15.8982
18 1     1.3910     4.0156    18.1693
