# ['Ni']

18 atoms
1 atom types

    0.0000     2.3754 xlo xhi
    0.0000     4.1144 ylo yhi
    0.0000    34.9060 zlo zhi

    0.0000     0.0000    -0.0004 xy xz yz

Atoms

1 1     0.0000     0.0000     0.0000
2 1     1.1877     0.6857     1.9392
3 1     0.0000     1.3715     3.8784
4 1     1.1877     2.0572     0.0000
5 1     0.0000     2.7429     1.9392
6 1     1.1877     3.4287     3.8784
7 1     0.0000     0.0000     5.8177
8 1     1.1877     0.6857     7.7569
9 1     0.0000     1.3715     9.6961
10 1     1.1877     2.0572     5.8177
11 1     0.0000     2.7429     7.7569
12 1     1.1877     3.4287     9.6961
13 1     0.0000     0.0000    11.6353
14 1     1.1877     0.6857    13.5745
15 1     0.0000     1.3715    15.5137
16 1     1.1877     2.0572    11.6353
17 1     0.0000     2.7429    13.5745
18 1     1.1877     3.4287    15.5137
