# ['Ni']

107 atoms
1 atom types

    0.0000    10.4942 xlo xhi
    0.0000    10.4942 ylo yhi
    0.0000    10.4942 zlo zhi

    0.0000    -0.0000    -0.0000 xy xz yz

Atoms

1 1     1.7490     1.7490     0.0000
2 1     1.7490     0.0000     1.7490
3 1     0.0000     1.7490     1.7490
4 1     0.0000     0.0000     3.4981
5 1     1.7490     1.7490     3.4981
6 1     1.7490     0.0000     5.2471
7 1     0.0000     1.7490     5.2471
8 1     0.0000     0.0000     6.9961
9 1     1.7490     1.7490     6.9961
10 1     1.7490     0.0000     8.7451
11 1     0.0000     1.7490     8.7451
12 1     0.0000     3.4981     0.0000
13 1     1.7490     5.2471     0.0000
14 1     1.7490     3.4981     1.7490
15 1     0.0000     5.2471     1.7490
16 1     0.0000     3.4981     3.4981
17 1     1.7490     5.2471     3.4981
18 1     1.7490     3.4981     5.2471
19 1     0.0000     5.2471     5.2471
20 1     0.0000     3.4981     6.9961
21 1     1.7490     5.2471     6.9961
22 1     1.7490     3.4981     8.7451
23 1     0.0000     5.2471     8.7451
24 1     0.0000     6.9961     0.0000
25 1     1.7490     8.7451     0.0000
26 1     1.7490     6.9961     1.7490
27 1     0.0000     8.7451     1.7490
28 1     0.0000     6.9961     3.4981
29 1     1.7490     8.7451     3.4981
30 1     1.7490     6.9961     5.2471
31 1     0.0000     8.7451     5.2471
32 1     0.0000     6.9961     6.9961
33 1     1.7490     8.7451     6.9961
34 1     1.7490     6.9961     8.7451
35 1     0.0000     8.7451     8.7451
36 1     3.4981     0.0000     0.0000
37 1     5.2471     1.7490     0.0000
38 1     5.2471     0.0000     1.7490
39 1     3.4981     1.7490     1.7490
40 1     3.4981     0.0000     3.4981
41 1     5.2471     1.7490     3.4981
42 1     5.2471     0.0000     5.2471
43 1     3.4981     1.7490     5.2471
44 1     3.4981     0.0000     6.9961
45 1     5.2471     1.7490     6.9961
46 1     5.2471     0.0000     8.7451
47 1     3.4981     1.7490     8.7451
48 1     3.4981     3.4981     0.0000
49 1     5.2471     5.2471     0.0000
50 1     5.2471     3.4981     1.7490
51 1     3.4981     5.2471     1.7490
52 1     3.4981     3.4981     3.4981
53 1     5.2471     5.2471     3.4981
54 1     5.2471     3.4981     5.2471
55 1     3.4981     5.2471     5.2471
56 1     3.4981     3.4981     6.9961
57 1     5.2471     5.2471     6.9961
58 1     5.2471     3.4981     8.7451
59 1     3.4981     5.2471     8.7451
60 1     3.4981     6.9961     0.0000
61 1     5.2471     8.7451     0.0000
62 1     5.2471     6.9961     1.7490
63 1     3.4981     8.7451     1.7490
64 1     3.4981     6.9961     3.4981
65 1     5.2471     8.7451     3.4981
66 1     5.2471     6.9961     5.2471
67 1     3.4981     8.7451     5.2471
68 1     3.4981     6.9961     6.9961
69 1     5.2471     8.7451     6.9961
70 1     5.2471     6.9961     8.7451
71 1     3.4981     8.7451     8.7451
72 1     6.9961     0.0000     0.0000
73 1     8.7451     1.7490     0.0000
74 1     8.7451     0.0000     1.7490
75 1     6.9961     1.7490     1.7490
76 1     6.9961     0.0000     3.4981
77 1     8.7451     1.7490     3.4981
78 1     8.7451     0.0000     5.2471
79 1     6.9961     1.7490     5.2471
80 1     6.9961     0.0000     6.9961
81 1     8.7451     1.7490     6.9961
82 1     8.7451     0.0000     8.7451
83 1     6.9961     1.7490     8.7451
84 1     6.9961     3.4981     0.0000
85 1     8.7451     5.2471     0.0000
86 1     8.7451     3.4981     1.7490
87 1     6.9961     5.2471     1.7490
88 1     6.9961     3.4981     3.4981
89 1     8.7451     5.2471     3.4981
90 1     8.7451     3.4981     5.2471
91 1     6.9961     5.2471     5.2471
92 1     6.9961     3.4981     6.9961
93 1     8.7451     5.2471     6.9961
94 1     8.7451     3.4981     8.7451
95 1     6.9961     5.2471     8.7451
96 1     6.9961     6.9961     0.0000
97 1     8.7451     8.7451     0.0000
98 1     8.7451     6.9961     1.7490
99 1     6.9961     8.7451     1.7490
100 1     6.9961     6.9961     3.4981
101 1     8.7451     8.7451     3.4981
102 1     8.7451     6.9961     5.2471
103 1     6.9961     8.7451     5.2471
104 1     6.9961     6.9961     6.9961
105 1     8.7451     8.7451     6.9961
106 1     8.7451     6.9961     8.7451
107 1     6.9961     8.7451     8.7451
