LAMMPS (11 Aug 2017)
# ---- initialize simulations
clear
units metal
dimension 3
boundary p p p
atom_style atomic
atom_modify map array
# ---- create atoms
read_data /home/yadama95/repos/pypospack/dev/Si_iterative_sampling/rank_7/Si_dia.lmps_min_all/lammps.structure
  triclinic box = (0 0 0) to (5.43 5.43 5.43) with tilt (0 0 0)
  1 by 1 by 1 MPI processor grid
  reading atoms ...
  8 atoms
# ---- define interatomic potential
include potential.mod
mass 1 28.086

group Si type 1
8 atoms in group Si

pair_style sw
pair_coeff * * Si.parameters Si


neighbor 1.0 bin
neigh_modify every 1 delay 0 check yes
# ---- define settings
compute eng all pe/atom
compute eatoms all reduce sum c_eng
# ---- run minimization
reset_timestep 0
fix 1 all box/relax aniso 0.0 vmax 0.001
thermo 10
thermo_style custom step pe xhi xlo yhi ylo zhi xy xz yz press pxx pyy pzz pxy pxz pyz c_eatoms
min_style cg
minimize 1e-25 1e-25 5000 10000
Neighbor list info ...
  update every 1 steps, delay 0 steps, check yes
  max neighbors/atom: 2000, page size: 100000
  master list distance cutoff = 3.74501
  ghost atom cutoff = 3.74501
  binsize = 1.8725, bins = 3 3 3
  1 neighbor lists, perpetual/occasional/extra = 1 0 0
  (1) pair sw, perpetual
      attributes: full, newton on
      pair build: full/bin/atomonly
      stencil: full/bin/3d
      bin: standard
Per MPI rank memory allocation (min/avg/max) = 3.937 | 3.937 | 3.937 Mbytes
Step PotEng Xhi Xlo Yhi Ylo Zhi Xy Xz Yz Press Pxx Pyy Pzz Pxy Pxz Pyz c_eatoms 
       0  -0.93115084         5.43            0         5.43            0         5.43            0            0            0   -35085.786   -35085.786   -35085.786   -35085.786            0            0 -5.55509e-13  -0.93115084 
      10  -0.99130347      5.40285      0.02715      5.40285      0.02715      5.40285            0            0            0   -2354.3396   -2354.3396   -2354.3396   -2354.3396 -7.8291298e-11 4.9712066e-18 1.2524224e-13  -0.99130347 
      15  -0.99149561    5.4013477  0.028652271    5.4013477  0.028652271    5.4013477            0            0            0 -7.1190003e-11 -7.1190003e-11 -7.1190003e-11 -7.1190003e-11 -5.1551014e-11 -5.1551014e-11 -5.1551014e-11  -0.99149561 
Loop time of 0.000258923 on 1 procs for 15 steps with 8 atoms

0.0% CPU use with 1 MPI tasks x no OpenMP threads

Minimization stats:
  Stopping criterion = energy tolerance
  Energy initial, next-to-last, final = 
       -0.931150838858    -0.991495609058    -0.991495609058
  Force two-norm initial, final = 6.07269 1.98484e-14
  Force max component initial, final = 3.50607 6.96455e-15
  Final line search alpha, max atom move = 1 6.96455e-15
  Iterations, force evaluations = 15 20

MPI task timing breakdown:
Section |  min time  |  avg time  |  max time  |%varavg| %total
---------------------------------------------------------------
Pair    | 0.00017571 | 0.00017571 | 0.00017571 |   0.0 | 67.86
Neigh   | 0          | 0          | 0          |   0.0 |  0.00
Comm    | 1.0729e-05 | 1.0729e-05 | 1.0729e-05 |   0.0 |  4.14
Output  | 1.2159e-05 | 1.2159e-05 | 1.2159e-05 |   0.0 |  4.70
Modify  | 0          | 0          | 0          |   0.0 |  0.00
Other   |            | 6.032e-05  |            |       | 23.30

Nlocal:    8 ave 8 max 8 min
Histogram: 1 0 0 0 0 0 0 0 0 0
Nghost:    86 ave 86 max 86 min
Histogram: 1 0 0 0 0 0 0 0 0 0
Neighs:    0 ave 0 max 0 min
Histogram: 1 0 0 0 0 0 0 0 0 0
FullNghs:  32 ave 32 max 32 min
Histogram: 1 0 0 0 0 0 0 0 0 0

Total # of neighbors = 32
Ave neighs/atom = 4
Neighbor list builds = 0
Dangerous builds = 0
# ---- define output variables ----
variable natoms equal "count(all)"
variable tot_energy equal "c_eatoms"
variable a11 equal "xhi-xlo"
variable a22 equal "yhi-ylo"
variable a33 equal "zhi-zlo"
variable tilt_xy equal "xy"
variable tilt_xz equal "xz"
variable tilt_yz equal "yz"
variable tot_press equal "press"
variable press_xx equal "pxx"
variable press_yy equal "pyy"
variable press_zz equal "pzz"
variable press_xy equal "pxy"
variable press_xz equal "pxz"
variable press_yz equal "pyz"

# ---- output ----
print "pypospack:output_section:begin"
pypospack:output_section:begin
print "tot_energy = ${tot_energy}"
tot_energy = -0.991495609058006
print "num_atoms = ${natoms}"
num_atoms = 8
print "a11 = ${a11}"
a11 = 5.37269545890494
print "a22 = ${a22}"
a22 = 5.37269545890494
print "a33 = ${a33}"
a33 = 5.37269545890494
print "a12 = ${tilt_xy}"
a12 = 0
print "a13 = ${tilt_xz}"
a13 = 0
print "a23 = ${tilt_yz}"
a23 = 0
print "tot_press = ${tot_press}"
tot_press = -7.11900032652684e-11
print "pxx = ${press_xx}"
pxx = -7.11900032652684e-11
print "pyy = ${press_yy}"
pyy = -7.11900032652684e-11
print "pzz = ${press_zz}"
pzz = -7.11900032652685e-11
print "pxy = ${press_xy}"
pxy = -5.15510139856089e-11
print "pxz = ${press_xz}"
pxz = -5.1551013985609e-11
print "pyz = ${press_yz}"
pyz = -5.15510139856089e-11
print "pypospack:output_section:done"
pypospack:output_section:done
print "pypospack:lammps_sim:done"
pypospack:lammps_sim:done
Total wall time: 0:00:00
