# ['Ni']

18 atoms
1 atom types

    0.0000     2.2889 xlo xhi
    0.0000     3.9646 ylo yhi
    0.0000    33.6348 zlo zhi

    0.0000     0.0000    -0.0004 xy xz yz

Atoms

1 1     0.0000     0.0000     0.0000
2 1     1.1445     0.6608     1.8686
3 1     0.0000     1.3215     3.7372
4 1     1.1445     1.9823     0.0000
5 1     0.0000     2.6430     1.8686
6 1     1.1445     3.3038     3.7372
7 1     0.0000     0.0000     5.6058
8 1     1.1445     0.6608     7.4744
9 1     0.0000     1.3215     9.3430
10 1     1.1445     1.9823     5.6058
11 1     0.0000     2.6430     7.4744
12 1     1.1445     3.3038     9.3430
13 1     0.0000     0.0000    11.2116
14 1     1.1445     0.6608    13.0802
15 1     0.0000     1.3215    14.9488
16 1     1.1445     1.9823    11.2116
17 1     0.0000     2.6430    13.0802
18 1     1.1445     3.3038    14.9488
