LAMMPS (11 Aug 2017)
# ---- initialize simulations
clear
units metal
dimension 3
boundary p p p
atom_style atomic
atom_modify map array
# ---- create atoms
read_data /ufrc/phillpot/eragasa/pareto_optimization_3.5NN/rank_25/Ni_fcc_vac.lmps_min_pos/lammps.structure
  triclinic box = (0 0 0) to (9.9089 9.9089 9.9089) with tilt (0 -0 -0)
  1 by 1 by 1 MPI processor grid
  reading atoms ...
  107 atoms
# ---- define interatomic potential
include potential.mod
mass 1 58.6934

group Ni type 1
107 atoms in group Ni

pair_style eam/alloy
pair_coeff * * /ufrc/phillpot/eragasa/pareto_optimization_3.5NN/rank_25/Ni_fcc_vac.lmps_min_pos/Ni.eam.alloy Ni

neighbor 1.0 bin
neigh_modify every 1 delay 0 check yes
# ---- define settings
compute eng all pe/atom
compute eatoms all reduce sum c_eng

# ---- run minimization
reset_timestep 0
thermo 1
thermo_style custom step pe lx ly lz xy xz yz press pxx pyy pzz pxy pxz pyz c_eatoms
min_style cg
minimize 1e-20 1e-20 1000 100000
Neighbor list info ...
  update every 1 steps, delay 0 steps, check yes
  max neighbors/atom: 2000, page size: 100000
  master list distance cutoff = 5.64464
  ghost atom cutoff = 5.64464
  binsize = 2.82232, bins = 4 4 4
  1 neighbor lists, perpetual/occasional/extra = 1 0 0
  (1) pair eam/alloy, perpetual
      attributes: half, newton on
      pair build: half/bin/newton/tri
      stencil: half/bin/3d/newton/tri
      bin: standard
Per MPI rank memory allocation (min/avg/max) = 4.229 | 4.229 | 4.229 Mbytes
Step PotEng Lx Ly Lz Xy Xz Yz Press Pxx Pyy Pzz Pxy Pxz Pyz c_eatoms 
       0   -539.10603       9.9089       9.9089       9.9089            0           -0           -0   -4037.1537   -4037.1537   -4037.1537   -4037.1537 2.7175536e-08 2.7181364e-08 2.7178759e-08   -539.10603 
       1   -539.14496       9.9089       9.9089       9.9089            0           -0           -0   -5100.0415   -5100.0415   -5100.0415   -5100.0415 -8.6769993e-06 -8.6769991e-06 -8.677009e-06   -539.14496 
       2   -539.15355       9.9089       9.9089       9.9089            0           -0           -0   -5342.1144   -5342.1144   -5342.1144   -5342.1144 -6.5982945e-05 -6.5982916e-05 -6.5982911e-05   -539.15355 
       3   -539.15518       9.9089       9.9089       9.9089            0           -0           -0   -5501.7516   -5501.7516   -5501.7516   -5501.7516 -1.2832481e-05 -1.2832481e-05 -1.283245e-05   -539.15518 
       4   -539.15537       9.9089       9.9089       9.9089            0           -0           -0    -5499.962    -5499.962    -5499.962    -5499.962 -1.9190997e-05 -1.9190991e-05 -1.9191018e-05   -539.15537 
       5   -539.15541       9.9089       9.9089       9.9089            0           -0           -0   -5495.7892   -5495.7892   -5495.7892   -5495.7892 -4.9313584e-06 -4.9313581e-06 -4.9313397e-06   -539.15541 
       6   -539.15541       9.9089       9.9089       9.9089            0           -0           -0   -5496.7073   -5496.7073   -5496.7073   -5496.7073 -5.0445877e-06 -5.0446433e-06 -5.0446523e-06   -539.15541 
       7   -539.15541       9.9089       9.9089       9.9089            0           -0           -0   -5500.9537   -5500.9537   -5500.9537   -5500.9537 -3.3251532e-06 -3.3251749e-06 -3.3251476e-06   -539.15541 
       8   -539.15541       9.9089       9.9089       9.9089            0           -0           -0    -5501.338    -5501.338    -5501.338    -5501.338 -1.4354658e-06 -1.435452e-06 -1.4354348e-06   -539.15541 
       9   -539.15541       9.9089       9.9089       9.9089            0           -0           -0    -5501.262    -5501.262    -5501.262    -5501.262 -1.018243e-06 -1.0182637e-06 -1.0182828e-06   -539.15541 
      10   -539.15541       9.9089       9.9089       9.9089            0           -0           -0   -5501.2676   -5501.2676   -5501.2676   -5501.2676 -9.2484978e-07 -9.2485591e-07 -9.2485515e-07   -539.15541 
      11   -539.15541       9.9089       9.9089       9.9089            0           -0           -0   -5501.2867   -5501.2867   -5501.2867   -5501.2867 -4.526027e-07 -4.5262633e-07 -4.5264836e-07   -539.15541 
      12   -539.15541       9.9089       9.9089       9.9089            0           -0           -0   -5501.2909   -5501.2909   -5501.2909   -5501.2909 -3.9987681e-07 -3.9991221e-07 -3.9988671e-07   -539.15541 
      13   -539.15541       9.9089       9.9089       9.9089            0           -0           -0   -5501.2927   -5501.2927   -5501.2927   -5501.2927 -2.4703053e-07 -2.4703896e-07 -2.4706584e-07   -539.15541 
      14   -539.15541       9.9089       9.9089       9.9089            0           -0           -0   -5501.2929   -5501.2929   -5501.2929   -5501.2929 -1.8694287e-07 -1.8695818e-07 -1.8691914e-07   -539.15541 
      15   -539.15541       9.9089       9.9089       9.9089            0           -0           -0   -5501.2933   -5501.2933   -5501.2933   -5501.2933 -1.249821e-07 -1.2497428e-07 -1.249805e-07   -539.15541 
      16   -539.15541       9.9089       9.9089       9.9089            0           -0           -0   -5501.2933   -5501.2933   -5501.2933   -5501.2933 -4.6339201e-08 -4.6359746e-08 -4.6386874e-08   -539.15541 
      17   -539.15541       9.9089       9.9089       9.9089            0           -0           -0   -5501.2932   -5501.2932   -5501.2932   -5501.2932 -4.3384781e-09 -4.3946751e-09 -4.3699932e-09   -539.15541 
      18   -539.15541       9.9089       9.9089       9.9089            0           -0           -0   -5501.2932   -5501.2932   -5501.2932   -5501.2932 9.2659388e-09 9.2847701e-09 9.3035101e-09   -539.15541 
      19   -539.15541       9.9089       9.9089       9.9089            0           -0           -0   -5501.2932   -5501.2932   -5501.2932   -5501.2932 1.3353347e-08 1.3320735e-08 1.3315799e-08   -539.15541 
      20   -539.15541       9.9089       9.9089       9.9089            0           -0           -0   -5501.2932   -5501.2932   -5501.2932   -5501.2932 8.4454952e-09 8.4531512e-09 8.4238529e-09   -539.15541 
      21   -539.15541       9.9089       9.9089       9.9089            0           -0           -0   -5501.2932   -5501.2932   -5501.2932   -5501.2932 4.7975152e-09 4.7643089e-09 4.7906819e-09   -539.15541 
      22   -539.15541       9.9089       9.9089       9.9089            0           -0           -0   -5501.2932   -5501.2932   -5501.2932   -5501.2932 2.4313011e-09 2.4421794e-09 2.4080818e-09   -539.15541 
      23   -539.15541       9.9089       9.9089       9.9089            0           -0           -0   -5501.2932   -5501.2932   -5501.2932   -5501.2932 1.564899e-09 1.5286075e-09 1.4905334e-09   -539.15541 
      24   -539.15541       9.9089       9.9089       9.9089            0           -0           -0   -5501.2932   -5501.2932   -5501.2932   -5501.2932 1.1458786e-09 1.1726172e-09 1.1739428e-09   -539.15541 
      25   -539.15541       9.9089       9.9089       9.9089            0           -0           -0   -5501.2932   -5501.2932   -5501.2932   -5501.2932 5.9471874e-10 6.3558095e-10 6.0751675e-10   -539.15541 
      26   -539.15541       9.9089       9.9089       9.9089            0           -0           -0   -5501.2932   -5501.2932   -5501.2932   -5501.2932 2.475957e-10 2.8039059e-10 2.7636836e-10   -539.15541 
      27   -539.15541       9.9089       9.9089       9.9089            0           -0           -0   -5501.2932   -5501.2932   -5501.2932   -5501.2932 1.6996208e-10 1.5570145e-10 1.2562614e-10   -539.15541 
      28   -539.15541       9.9089       9.9089       9.9089            0           -0           -0   -5501.2932   -5501.2932   -5501.2932   -5501.2932 6.3487248e-11 7.256012e-11 6.1247597e-11   -539.15541 
      29   -539.15541       9.9089       9.9089       9.9089            0           -0           -0   -5501.2932   -5501.2932   -5501.2932   -5501.2932 1.0409806e-10   1.3751e-10 5.2083311e-11   -539.15541 
      30   -539.15541       9.9089       9.9089       9.9089            0           -0           -0   -5501.2932   -5501.2932   -5501.2932   -5501.2932 5.0940632e-11 6.7875136e-11 5.6448345e-11   -539.15541 
      31   -539.15541       9.9089       9.9089       9.9089            0           -0           -0   -5501.2932   -5501.2932   -5501.2932   -5501.2932 6.0082065e-11 1.8488547e-11 3.0143874e-11   -539.15541 
      32   -539.15541       9.9089       9.9089       9.9089            0           -0           -0   -5501.2932   -5501.2932   -5501.2932   -5501.2932 -2.125383e-12 -4.6164234e-12 2.3767724e-11   -539.15541 
      33   -539.15541       9.9089       9.9089       9.9089            0           -0           -0   -5501.2932   -5501.2932   -5501.2932   -5501.2932 3.0143874e-11 1.6660261e-11 3.3389082e-11   -539.15541 
      34   -539.15541       9.9089       9.9089       9.9089            0           -0           -0   -5501.2932   -5501.2932   -5501.2932   -5501.2932 4.6438477e-11 5.0826364e-11 6.0082065e-11   -539.15541 
      35   -539.15541       9.9089       9.9089       9.9089            0           -0           -0   -5501.2932   -5501.2932   -5501.2932   -5501.2932 4.8106788e-11 1.4603438e-11 6.5681192e-11   -539.15541 
      36   -539.15541       9.9089       9.9089       9.9089            0           -0           -0   -5501.2932   -5501.2932   -5501.2932   -5501.2932 2.3927699e-11 1.6363164e-11 4.5867137e-11   -539.15541 
      37   -539.15541       9.9089       9.9089       9.9089            0           -0           -0   -5501.2932   -5501.2932   -5501.2932   -5501.2932 3.2017867e-11 5.5077131e-12 5.717966e-11   -539.15541 
Loop time of 0.0312569 on 1 procs for 37 steps with 107 atoms

54.5% CPU use with 1 MPI tasks x no OpenMP threads

Minimization stats:
  Stopping criterion = energy tolerance
  Energy initial, next-to-last, final = 
        -539.106026878     -539.155412561     -539.155412561
  Force two-norm initial, final = 0.970989 7.15191e-14
  Force max component initial, final = 0.189474 1.11577e-14
  Final line search alpha, max atom move = 1 1.11577e-14
  Iterations, force evaluations = 37 74

MPI task timing breakdown:
Section |  min time  |  avg time  |  max time  |%varavg| %total
---------------------------------------------------------------
Pair    | 0.016307   | 0.016307   | 0.016307   |   0.0 | 52.17
Neigh   | 0          | 0          | 0          |   0.0 |  0.00
Comm    | 0.0003407  | 0.0003407  | 0.0003407  |   0.0 |  1.09
Output  | 0.014325   | 0.014325   | 0.014325   |   0.0 | 45.83
Modify  | 0          | 0          | 0          |   0.0 |  0.00
Other   |            | 0.000284   |            |       |  0.91

Nlocal:    107 ave 107 max 107 min
Histogram: 1 0 0 0 0 0 0 0 0 0
Nghost:    983 ave 983 max 983 min
Histogram: 1 0 0 0 0 0 0 0 0 0
Neighs:    4134 ave 4134 max 4134 min
Histogram: 1 0 0 0 0 0 0 0 0 0

Total # of neighbors = 4134
Ave neighs/atom = 38.6355
Neighbor list builds = 0
Dangerous builds = 0

# ---- define output variables ----
variable natoms equal "count(all)"
variable tot_energy equal "c_eatoms"
variable a11 equal "xhi-xlo"
variable a22 equal "yhi-ylo"
variable a33 equal "zhi-zlo"
variable tilt_xy equal "xy"
variable tilt_xz equal "xz"
variable tilt_yz equal "yz"
variable tot_press equal "press"
variable press_xx equal "pxx"
variable press_yy equal "pyy"
variable press_zz equal "pzz"
variable press_xy equal "pxy"
variable press_xz equal "pxz"
variable press_yz equal "pyz"

# ---- output ----
print "pypospack:output_section:begin"
pypospack:output_section:begin
print "tot_energy = ${tot_energy}"
tot_energy = -539.155412560987
print "num_atoms = ${natoms}"
num_atoms = 107
print "a11 = ${a11}"
a11 = 9.9089
print "a22 = ${a22}"
a22 = 9.9089
print "a33 = ${a33}"
a33 = 9.9089
print "a12 = ${tilt_xy}"
a12 = 0
print "a13 = ${tilt_xz}"
a13 = -0
print "a23 = ${tilt_yz}"
a23 = -0
print "tot_press = ${tot_press}"
tot_press = -5501.29319131255
print "pxx = ${press_xx}"
pxx = -5501.29319131254
print "pyy = ${press_yy}"
pyy = -5501.29319131252
print "pzz = ${press_zz}"
pzz = -5501.2931913126
print "pxy = ${press_xy}"
pxy = 3.20178671897869e-11
print "pxz = ${press_xz}"
pxz = 5.50771305691553e-12
print "pyz = ${press_yz}"
pyz = 5.71796600348658e-11
print "pypospack:output_section:done"
pypospack:output_section:done
print "pypospack:lammps_sim:done"
pypospack:lammps_sim:done
Total wall time: 0:00:00
