# ['Ni']

107 atoms
1 atom types

    0.0000    10.4977 xlo xhi
    0.0000    10.4977 ylo yhi
    0.0000    10.4977 zlo zhi

    0.0000    -0.0000    -0.0000 xy xz yz

Atoms

1 1     1.7496     1.7496     0.0000
2 1     1.7496     0.0000     1.7496
3 1     0.0000     1.7496     1.7496
4 1     0.0000     0.0000     3.4992
5 1     1.7496     1.7496     3.4992
6 1     1.7496     0.0000     5.2489
7 1     0.0000     1.7496     5.2489
8 1     0.0000     0.0000     6.9985
9 1     1.7496     1.7496     6.9985
10 1     1.7496     0.0000     8.7481
11 1     0.0000     1.7496     8.7481
12 1     0.0000     3.4992     0.0000
13 1     1.7496     5.2489     0.0000
14 1     1.7496     3.4992     1.7496
15 1     0.0000     5.2489     1.7496
16 1     0.0000     3.4992     3.4992
17 1     1.7496     5.2489     3.4992
18 1     1.7496     3.4992     5.2489
19 1     0.0000     5.2489     5.2489
20 1     0.0000     3.4992     6.9985
21 1     1.7496     5.2489     6.9985
22 1     1.7496     3.4992     8.7481
23 1     0.0000     5.2489     8.7481
24 1     0.0000     6.9985     0.0000
25 1     1.7496     8.7481     0.0000
26 1     1.7496     6.9985     1.7496
27 1     0.0000     8.7481     1.7496
28 1     0.0000     6.9985     3.4992
29 1     1.7496     8.7481     3.4992
30 1     1.7496     6.9985     5.2489
31 1     0.0000     8.7481     5.2489
32 1     0.0000     6.9985     6.9985
33 1     1.7496     8.7481     6.9985
34 1     1.7496     6.9985     8.7481
35 1     0.0000     8.7481     8.7481
36 1     3.4992     0.0000     0.0000
37 1     5.2489     1.7496     0.0000
38 1     5.2489     0.0000     1.7496
39 1     3.4992     1.7496     1.7496
40 1     3.4992     0.0000     3.4992
41 1     5.2489     1.7496     3.4992
42 1     5.2489     0.0000     5.2489
43 1     3.4992     1.7496     5.2489
44 1     3.4992     0.0000     6.9985
45 1     5.2489     1.7496     6.9985
46 1     5.2489     0.0000     8.7481
47 1     3.4992     1.7496     8.7481
48 1     3.4992     3.4992     0.0000
49 1     5.2489     5.2489     0.0000
50 1     5.2489     3.4992     1.7496
51 1     3.4992     5.2489     1.7496
52 1     3.4992     3.4992     3.4992
53 1     5.2489     5.2489     3.4992
54 1     5.2489     3.4992     5.2489
55 1     3.4992     5.2489     5.2489
56 1     3.4992     3.4992     6.9985
57 1     5.2489     5.2489     6.9985
58 1     5.2489     3.4992     8.7481
59 1     3.4992     5.2489     8.7481
60 1     3.4992     6.9985     0.0000
61 1     5.2489     8.7481     0.0000
62 1     5.2489     6.9985     1.7496
63 1     3.4992     8.7481     1.7496
64 1     3.4992     6.9985     3.4992
65 1     5.2489     8.7481     3.4992
66 1     5.2489     6.9985     5.2489
67 1     3.4992     8.7481     5.2489
68 1     3.4992     6.9985     6.9985
69 1     5.2489     8.7481     6.9985
70 1     5.2489     6.9985     8.7481
71 1     3.4992     8.7481     8.7481
72 1     6.9985     0.0000     0.0000
73 1     8.7481     1.7496     0.0000
74 1     8.7481     0.0000     1.7496
75 1     6.9985     1.7496     1.7496
76 1     6.9985     0.0000     3.4992
77 1     8.7481     1.7496     3.4992
78 1     8.7481     0.0000     5.2489
79 1     6.9985     1.7496     5.2489
80 1     6.9985     0.0000     6.9985
81 1     8.7481     1.7496     6.9985
82 1     8.7481     0.0000     8.7481
83 1     6.9985     1.7496     8.7481
84 1     6.9985     3.4992     0.0000
85 1     8.7481     5.2489     0.0000
86 1     8.7481     3.4992     1.7496
87 1     6.9985     5.2489     1.7496
88 1     6.9985     3.4992     3.4992
89 1     8.7481     5.2489     3.4992
90 1     8.7481     3.4992     5.2489
91 1     6.9985     5.2489     5.2489
92 1     6.9985     3.4992     6.9985
93 1     8.7481     5.2489     6.9985
94 1     8.7481     3.4992     8.7481
95 1     6.9985     5.2489     8.7481
96 1     6.9985     6.9985     0.0000
97 1     8.7481     8.7481     0.0000
98 1     8.7481     6.9985     1.7496
99 1     6.9985     8.7481     1.7496
100 1     6.9985     6.9985     3.4992
101 1     8.7481     8.7481     3.4992
102 1     8.7481     6.9985     5.2489
103 1     6.9985     8.7481     5.2489
104 1     6.9985     6.9985     6.9985
105 1     8.7481     8.7481     6.9985
106 1     8.7481     6.9985     8.7481
107 1     6.9985     8.7481     8.7481
