# ['Ni']

107 atoms
1 atom types

    0.0000     9.0811 xlo xhi
    0.0000     9.0811 ylo yhi
    0.0000     9.0811 zlo zhi

    0.0000    -0.0000    -0.0000 xy xz yz

Atoms

1 1     1.5135     1.5135     0.0000
2 1     1.5135     0.0000     1.5135
3 1     0.0000     1.5135     1.5135
4 1     0.0000     0.0000     3.0270
5 1     1.5135     1.5135     3.0270
6 1     1.5135     0.0000     4.5405
7 1     0.0000     1.5135     4.5405
8 1     0.0000     0.0000     6.0541
9 1     1.5135     1.5135     6.0541
10 1     1.5135     0.0000     7.5676
11 1     0.0000     1.5135     7.5676
12 1     0.0000     3.0270     0.0000
13 1     1.5135     4.5405     0.0000
14 1     1.5135     3.0270     1.5135
15 1     0.0000     4.5405     1.5135
16 1     0.0000     3.0270     3.0270
17 1     1.5135     4.5405     3.0270
18 1     1.5135     3.0270     4.5405
19 1     0.0000     4.5405     4.5405
20 1     0.0000     3.0270     6.0541
21 1     1.5135     4.5405     6.0541
22 1     1.5135     3.0270     7.5676
23 1     0.0000     4.5405     7.5676
24 1     0.0000     6.0541     0.0000
25 1     1.5135     7.5676     0.0000
26 1     1.5135     6.0541     1.5135
27 1     0.0000     7.5676     1.5135
28 1     0.0000     6.0541     3.0270
29 1     1.5135     7.5676     3.0270
30 1     1.5135     6.0541     4.5405
31 1     0.0000     7.5676     4.5405
32 1     0.0000     6.0541     6.0541
33 1     1.5135     7.5676     6.0541
34 1     1.5135     6.0541     7.5676
35 1     0.0000     7.5676     7.5676
36 1     3.0270     0.0000     0.0000
37 1     4.5405     1.5135     0.0000
38 1     4.5405     0.0000     1.5135
39 1     3.0270     1.5135     1.5135
40 1     3.0270     0.0000     3.0270
41 1     4.5405     1.5135     3.0270
42 1     4.5405     0.0000     4.5405
43 1     3.0270     1.5135     4.5405
44 1     3.0270     0.0000     6.0541
45 1     4.5405     1.5135     6.0541
46 1     4.5405     0.0000     7.5676
47 1     3.0270     1.5135     7.5676
48 1     3.0270     3.0270     0.0000
49 1     4.5405     4.5405     0.0000
50 1     4.5405     3.0270     1.5135
51 1     3.0270     4.5405     1.5135
52 1     3.0270     3.0270     3.0270
53 1     4.5405     4.5405     3.0270
54 1     4.5405     3.0270     4.5405
55 1     3.0270     4.5405     4.5405
56 1     3.0270     3.0270     6.0541
57 1     4.5405     4.5405     6.0541
58 1     4.5405     3.0270     7.5676
59 1     3.0270     4.5405     7.5676
60 1     3.0270     6.0541     0.0000
61 1     4.5405     7.5676     0.0000
62 1     4.5405     6.0541     1.5135
63 1     3.0270     7.5676     1.5135
64 1     3.0270     6.0541     3.0270
65 1     4.5405     7.5676     3.0270
66 1     4.5405     6.0541     4.5405
67 1     3.0270     7.5676     4.5405
68 1     3.0270     6.0541     6.0541
69 1     4.5405     7.5676     6.0541
70 1     4.5405     6.0541     7.5676
71 1     3.0270     7.5676     7.5676
72 1     6.0541     0.0000     0.0000
73 1     7.5676     1.5135     0.0000
74 1     7.5676     0.0000     1.5135
75 1     6.0541     1.5135     1.5135
76 1     6.0541     0.0000     3.0270
77 1     7.5676     1.5135     3.0270
78 1     7.5676     0.0000     4.5405
79 1     6.0541     1.5135     4.5405
80 1     6.0541     0.0000     6.0541
81 1     7.5676     1.5135     6.0541
82 1     7.5676     0.0000     7.5676
83 1     6.0541     1.5135     7.5676
84 1     6.0541     3.0270     0.0000
85 1     7.5676     4.5405     0.0000
86 1     7.5676     3.0270     1.5135
87 1     6.0541     4.5405     1.5135
88 1     6.0541     3.0270     3.0270
89 1     7.5676     4.5405     3.0270
90 1     7.5676     3.0270     4.5405
91 1     6.0541     4.5405     4.5405
92 1     6.0541     3.0270     6.0541
93 1     7.5676     4.5405     6.0541
94 1     7.5676     3.0270     7.5676
95 1     6.0541     4.5405     7.5676
96 1     6.0541     6.0541     0.0000
97 1     7.5676     7.5676     0.0000
98 1     7.5676     6.0541     1.5135
99 1     6.0541     7.5676     1.5135
100 1     6.0541     6.0541     3.0270
101 1     7.5676     7.5676     3.0270
102 1     7.5676     6.0541     4.5405
103 1     6.0541     7.5676     4.5405
104 1     6.0541     6.0541     6.0541
105 1     7.5676     7.5676     6.0541
106 1     7.5676     6.0541     7.5676
107 1     6.0541     7.5676     7.5676
