# ['Ni']

4 atoms
1 atom types

    0.0000     3.5200 xlo xhi
    0.0000     3.5200 ylo yhi
    0.0000     3.5200 zlo zhi

    0.0000     0.0000     0.0000 xy xz yz

Atoms

1 1     0.0000     0.0000     0.0000
2 1     0.0000     1.7600     1.7600
3 1     1.7600     0.0000     1.7600
4 1     1.7600     1.7600     0.0000
