# ['Ni']

18 atoms
1 atom types

    0.0000     2.2872 xlo xhi
    0.0000     3.9615 ylo yhi
    0.0000    33.6088 zlo zhi

    0.0000     0.0000    -0.0004 xy xz yz

Atoms

1 1     0.0000     0.0000     0.0000
2 1     1.1436     0.6603     1.8672
3 1     0.0000     1.3205     3.7343
4 1     1.1436     1.9807     0.0000
5 1     0.0000     2.6410     1.8672
6 1     1.1436     3.3012     3.7343
7 1     0.0000     0.0000     5.6015
8 1     1.1436     0.6603     7.4686
9 1     0.0000     1.3205     9.3358
10 1     1.1436     1.9807     5.6015
11 1     0.0000     2.6410     7.4686
12 1     1.1436     3.3012     9.3358
13 1     0.0000     0.0000    11.2029
14 1     1.1436     0.6603    13.0701
15 1     0.0000     1.3205    14.9372
16 1     1.1436     1.9807    11.2029
17 1     0.0000     2.6410    13.0701
18 1     1.1436     3.3012    14.9372
