LAMMPS (11 Aug 2017)
include init.mod
# ---- init.mod file
variable up equal 1.0e-6
units metal
dimension 3
boundary p p p
atom_style atomic
atom_modify map array
variable cfac equal 1.0e-4
variable cunits string GPa
# ---- define minimization parameters
variable etol equal 0.0
variable ftol equal 1.0e-10
variable maxiter equal 100
variable maxeval equal 1000
variable dmax equal 1.0e-2
# --- read data structure
read_data lammps.structure
  triclinic box = (0 0 0) to (3.5167 3.5167 3.5167) with tilt (0 -0 0)
  1 by 1 by 1 MPI processor grid
  reading atoms ...
  4 atoms
include potential.mod
mass 1 58.6934

group Ni type 1
4 atoms in group Ni

pair_style eam/alloy
pair_coeff * * /home/sullberg/repos/pypospack/dev/cluster_sampling/dev__cluster_sampling/rank_4/Ni_fcc.lmps_elastic/Ni.eam.alloy Ni

neighbor 1.0 bin
neigh_modify every 1 delay 0 check yes
thermo	1
thermo_style custom step temp pe press pxx pyy pzz pxy pxz pyz lx ly lz vol
thermo_modify norm no
# ---- Compute initial state
fix 3 all box/relax aniso 0.0
minimize ${etol} ${ftol} ${maxiter} ${maxeval}
minimize 0 ${ftol} ${maxiter} ${maxeval}
minimize 0 1e-10 ${maxiter} ${maxeval}
minimize 0 1e-10 100 ${maxeval}
minimize 0 1e-10 100 1000
Neighbor list info ...
  update every 1 steps, delay 0 steps, check yes
  max neighbors/atom: 2000, page size: 100000
  master list distance cutoff = 5.64464
  ghost atom cutoff = 5.64464
  binsize = 2.82232, bins = 2 2 2
  1 neighbor lists, perpetual/occasional/extra = 1 0 0
  (1) pair eam/alloy, perpetual
      attributes: half, newton on
      pair build: half/bin/newton/tri
      stencil: half/bin/3d/newton/tri
      bin: standard
Per MPI rank memory allocation (min/avg/max) = 4.086 | 4.086 | 4.086 Mbytes
Step Temp PotEng Press Pxx Pyy Pzz Pxy Pxz Pyz Lx Ly Lz Volume 
       0            0   -31.183764   -553407.56   -553407.56   -553407.56   -553407.56 -2.6073229e-11 -1.4825954e-11 5.5725136e-11       3.5167       3.5167       3.5167    43.491658 
       1            0    -31.18827   -553231.72   -553231.72   -553231.72   -553231.72 -2.3012693e-11 -2.1989907e-11 3.375195e-11    3.5163483    3.5163483    3.5163483    43.478612 
       2            0   -31.192773   -553055.23   -553055.23   -553055.23   -553055.23 -4.9108478e-11 1.2788666e-11 1.4834853e-11    3.5159967    3.5159967    3.5159967    43.465568 
       3            0   -31.197274   -552878.08   -552878.08   -552878.08   -552878.08 -1.9444606e-11 1.5351005e-12 -5.8845519e-11     3.515645     3.515645     3.515645    43.452527 
       4            0   -31.201773   -552700.28   -552700.28   -552700.28   -552700.28 -2.9175664e-11 -4.4019423e-11 5.0673522e-11    3.5152933    3.5152933    3.5152933    43.439489 
       5            0   -31.206269   -552521.83   -552521.83   -552521.83   -552521.83 3.5840518e-12 5.4784792e-11 3.5328511e-11    3.5149417    3.5149417    3.5149417    43.426453 
       6            0   -31.210763   -552342.71   -552342.71   -552342.71   -552342.71 -3.5851278e-12 6.9653911e-11 2.8681022e-11      3.51459      3.51459      3.51459     43.41342 
       7            0   -31.215254   -552162.94   -552162.94   -552162.94   -552162.94 3.8423616e-11 1.6394076e-11 1.1270927e-11    3.5142383    3.5142383    3.5142383    43.400389 
       8            0   -31.219743   -551982.51   -551982.51   -551982.51   -551982.51 -2.2548624e-11  9.99314e-11 -5.1246872e-13    3.5138866    3.5138866    3.5138866    43.387362 
       9            0    -31.22423   -551801.41   -551801.41   -551801.41   -551801.41 -1.1277697e-11 -4.3060299e-11 -6.6128317e-11     3.513535     3.513535     3.513535    43.374336 
      10            0   -31.228714   -551619.66   -551619.66   -551619.66   -551619.66 4.5637115e-11 8.7172017e-12 3.9483796e-11    3.5131833    3.5131833    3.5131833    43.361313 
      11            0   -31.233196   -551437.24   -551437.24   -551437.24   -551437.24 1.0771542e-11 1.6926709e-11 1.3336195e-11    3.5128316    3.5128316    3.5128316    43.348293 
      12            0   -31.237676   -551254.16   -551254.16   -551254.16   -551254.16 -1.8471048e-11 -1.539254e-11 1.0261693e-11      3.51248      3.51248      3.51248    43.335276 
      13            0   -31.242153   -551070.41   -551070.41   -551070.41   -551070.41 3.5926716e-12 -1.0778015e-11 -3.0794328e-12    3.5121283    3.5121283    3.5121283    43.322261 
      14            0   -31.246628      -550886      -550886      -550886      -550886 6.0066982e-11 4.6718764e-11 2.6183043e-11    3.5117766    3.5117766    3.5117766    43.309249 
      15            0     -31.2511   -550700.92   -550700.92   -550700.92   -550700.92 9.7573982e-12 7.7032091e-11 1.694706e-11     3.511425     3.511425     3.511425    43.296239 
      16            0    -31.25557   -550515.17   -550515.17   -550515.17   -550515.17 2.568508e-12 -1.6952153e-11 -5.137016e-12    3.5110733    3.5110733    3.5110733    43.283232 
      17            0   -31.260038   -550328.76   -550328.76   -550328.76   -550328.76 2.3637375e-11 -6.6801279e-12 -4.8816319e-11    3.5107216    3.5107216    3.5107216    43.270227 
      18            0   -31.264503   -550141.67   -550141.67   -550141.67   -550141.67 -5.1401044e-11 -3.2896668e-11 2.313047e-11    3.5103699    3.5103699    3.5103699    43.257226 
      19            0   -31.268966   -549953.91   -549953.91   -549953.91   -549953.91 6.9412268e-11 7.3011423e-11 1.1517295e-10    3.5100183    3.5100183    3.5100183    43.244226 
      20            0   -31.273427   -549765.49   -549765.49   -549765.49   -549765.49 1.4400947e-11 1.7486864e-11 -3.0344852e-11    3.5096666    3.5096666    3.5096666     43.23123 
      21            0   -31.277885   -549576.38   -549576.38   -549576.38   -549576.38 1.234738e-11 5.0418468e-11 5.813558e-11    3.5093149    3.5093149    3.5093149    43.218236 
      22            0    -31.28234   -549386.61   -549386.61   -549386.61   -549386.61 -4.1170309e-12 3.8082536e-11 6.3813979e-11    3.5089633    3.5089633    3.5089633    43.205244 
      23            0   -31.286793   -549196.15   -549196.15   -549196.15   -549196.15 2.0591345e-11 -3.8608771e-11 -1.1067848e-10    3.5086116    3.5086116    3.5086116    43.192255 
      24            0   -31.291244   -549005.02   -549005.02   -549005.02   -549005.02 -4.6859398e-11 -2.4717045e-11 -6.1792613e-11    3.5082599    3.5082599    3.5082599    43.179269 
      25            0   -31.295692   -548813.22   -548813.22   -548813.22   -548813.22 1.0301867e-12 2.0603733e-11 1.390752e-11    3.5079083    3.5079083    3.5079083    43.166285 
      26            0   -31.300138   -548620.73   -548620.73   -548620.73   -548620.73 5.4616317e-11 2.0609931e-11 1.2365959e-11    3.5075566    3.5075566    3.5075566    43.153304 
      27            0   -31.304581   -548427.57   -548427.57   -548427.57   -548427.57 5.1540328e-13 -1.8554518e-11 -4.4840085e-11    3.5072049    3.5072049    3.5072049    43.140326 
      28            0   -31.309022   -548233.72   -548233.72   -548233.72   -548233.72 -3.2480176e-11 3.6604643e-11 5.4133627e-11    3.5068532    3.5068532    3.5068532     43.12735 
      29            0    -31.31346    -548039.2    -548039.2    -548039.2    -548039.2 1.9081399e-11 2.217568e-11 3.248995e-11    3.5065016    3.5065016    3.5065016    43.114377 
      30            0   -31.317896   -547843.99   -547843.99   -547843.99   -547843.99 3.2499727e-11 9.0277019e-11 7.4800959e-11    3.5061499    3.5061499    3.5061499    43.101406 
      31            0    -31.32233    -547648.1    -547648.1    -547648.1    -547648.1 5.5730585e-11 3.5605652e-11 8.7208045e-11    3.5057982    3.5057982    3.5057982    43.088438 
      32            0   -31.326761   -547451.52   -547451.52   -547451.52   -547451.52 7.6910709e-11 6.1941511e-12 1.145918e-10    3.5054466    3.5054466    3.5054466    43.075473 
      33            0   -31.331189   -547254.25   -547254.25   -547254.25   -547254.25 5.1117129e-11 -2.3751393e-11 -4.1306771e-11    3.5050949    3.5050949    3.5050949     43.06251 
      34            0   -31.335615    -547056.3    -547056.3    -547056.3    -547056.3 -7.7473513e-12 -8.1605433e-11 -1.4461722e-11    3.5047432    3.5047432    3.5047432     43.04955 
      35            0   -31.340039   -546857.66   -546857.66   -546857.66   -546857.66 5.1147913e-11 -4.6498103e-12 -1.756595e-11    3.5043916    3.5043916    3.5043916    43.036592 
      36            0    -31.34446   -546658.33   -546658.33   -546658.33   -546658.33 4.1344093e-12 -1.343683e-11 1.343683e-11    3.5040399    3.5040399    3.5040399    43.023637 
      37            0   -31.348878   -546458.31   -546458.31   -546458.31   -546458.31 3.5153062e-11 -3.2568278e-11 8.2713087e-12    3.5036882    3.5036882    3.5036882    43.010685 
      38            0   -31.353294    -546257.6    -546257.6    -546257.6    -546257.6 -2.3270062e-11 -5.5331036e-11 -5.6882373e-11    3.5033365    3.5033365    3.5033365    42.997735 
      39            0   -31.357708    -546056.2    -546056.2    -546056.2    -546056.2 -3.517424e-11 -5.3278629e-11 -5.9485848e-11    3.5029849    3.5029849    3.5029849    42.984788 
      40            0   -31.362119   -545854.11   -545854.11   -545854.11   -545854.11 -4.6568166e-12 1.4487874e-11 -1.2418177e-11    3.5026332    3.5026332    3.5026332    42.971843 
      41            0   -31.366527   -545651.32   -545651.32   -545651.32   -545651.32 1.0351599e-12 -7.5566672e-11 -1.7597718e-11    3.5022815    3.5022815    3.5022815    42.958901 
      42            0   -31.370933   -545447.83   -545447.83   -545447.83   -545447.83 2.7957738e-11 1.9673964e-11 4.659623e-11    3.5019299    3.5019299    3.5019299    42.945961 
      43            0   -31.375337   -545243.65   -545243.65   -545243.65   -545243.65 4.6610271e-11 -2.744827e-11 -6.5772271e-11    3.5015782    3.5015782    3.5015782    42.933025 
      44            0   -31.379738   -545038.76   -545038.76   -545038.76   -545038.76 6.7346235e-12 7.4080859e-11 1.0360959e-12    3.5012265    3.5012265    3.5012265     42.92009 
      45            0   -31.384136   -544833.18   -544833.18   -544833.18   -544833.18 2.6946613e-11 -3.1092246e-11 4.7156573e-11    3.5008749    3.5008749    3.5008749    42.907159 
      46            0   -31.388532    -544626.9    -544626.9    -544626.9    -544626.9 -4.1468823e-12 2.3844573e-11 -1.3995728e-11    3.5005232    3.5005232    3.5005232     42.89423 
      47            0   -31.392925   -544419.92   -544419.92   -544419.92   -544419.92 3.8888741e-11 -2.3333245e-11 -3.4740609e-11    3.5001715    3.5001715    3.5001715    42.881303 
      48            0   -31.397316   -544212.24   -544212.24   -544212.24   -544212.24 -1.8672223e-11 -8.6099697e-11 -4.8236577e-11    3.4998198    3.4998198    3.4998198    42.868379 
      49            0   -31.401704   -544003.85   -544003.85   -544003.85   -544003.85 4.0468682e-11 1.2451902e-11 -3.3205072e-11    3.4994682    3.4994682    3.4994682    42.855458 
      50            0   -31.406089   -543794.76   -543794.76   -543794.76   -543794.76 -4.3594799e-11 1.1936671e-11 6.2278284e-12    3.4991165    3.4991165    3.4991165     42.84254 
      51            0   -31.410472   -543584.96   -543584.96   -543584.96   -543584.96 2.2842257e-11 1.0382844e-12 -1.6612551e-11    3.4987648    3.4987648    3.4987648    42.829624 
      52            0   -31.414853   -543374.46   -543374.46   -543374.46   -543374.46 3.9986006e-11 8.7761495e-11 8.3087806e-12    3.4984132    3.4984132    3.4984132     42.81671 
      53            0   -31.419231   -543163.25   -543163.25   -543163.25   -543163.25 -2.5972771e-12 2.1297672e-11 3.2725691e-11    3.4980615    3.4980615    3.4980615    42.803799 
      54            0   -31.423606   -542951.33   -542951.33   -542951.33   -542951.33 -3.5853236e-11 2.9098279e-11 -1.1431467e-11    3.4977098    3.4977098    3.4977098    42.790891 
      55            0   -31.427979    -542738.7    -542738.7    -542738.7    -542738.7 -4.1061742e-11 -3.2225671e-11 -3.8462897e-11    3.4973582    3.4973582    3.4973582    42.777985 
      56            0   -31.432349   -542525.36   -542525.36   -542525.36   -542525.36 3.1195542e-12 -5.1472645e-11 -4.5233536e-11    3.4970065    3.4970065    3.4970065    42.765082 
      57            0   -31.436716    -542311.3    -542311.3    -542311.3    -542311.3 -8.8414041e-12 3.1204956e-12 -6.2409911e-12    3.4966548    3.4966548    3.4966548    42.752182 
      58            0   -31.441081   -542096.54   -542096.54   -542096.54   -542096.54 6.5029943e-11 -1.5607186e-11 7.8035931e-12    3.4963031    3.4963031    3.4963031    42.739284 
      59            0   -31.445443   -541881.06   -541881.06   -541881.06   -541881.06 6.348838e-11 5.0998863e-11 5.8284414e-11    3.4959515    3.4959515    3.4959515    42.726389 
      60            0   -31.449803   -541664.86   -541664.86   -541664.86   -541664.86 3.1233218e-12 2.9671557e-11 -1.5616609e-12    3.4955998    3.4955998    3.4955998    42.713496 
      61            0    -31.45416   -541447.95   -541447.95   -541447.95   -541447.95 -6.3526714e-11 3.9053308e-11 4.1656862e-11    3.4952481    3.4952481    3.4952481    42.700606 
      62            0   -31.458514   -541230.31   -541230.31   -541230.31   -541230.31 -4.1669438e-12 -2.1355587e-11 4.3232042e-11    3.4948965    3.4948965    3.4948965    42.687718 
      63            0   -31.462866   -541011.96   -541011.96   -541011.96   -541011.96 7.2943534e-12 -3.2303565e-11 -3.6471767e-12    3.4945448    3.4945448    3.4945448    42.674833 
      64            0   -31.467215   -540792.89   -540792.89   -540792.89   -540792.89 4.4300519e-11 -2.5537946e-11 -2.3453216e-11    3.4941931    3.4941931    3.4941931    42.661951 
      65            0   -31.471562    -540573.1    -540573.1    -540573.1    -540573.1 -2.5024319e-11 7.2466256e-11 2.0332259e-11    3.4938415    3.4938415    3.4938415    42.649071 
      66            0   -31.475906   -540352.59   -540352.59   -540352.59   -540352.59 -7.8224614e-12 3.2854338e-11 6.2579691e-12    3.4934898    3.4934898    3.4934898    42.636194 
      67            0   -31.480247   -540131.35   -540131.35   -540131.35   -540131.35 -6.7815143e-11 2.0866198e-11 -1.7736268e-11    3.4931381    3.4931381    3.4931381     42.62332 
      68            0   -31.484585   -539909.39   -539909.39   -539909.39   -539909.39 4.4875878e-11 -4.4875878e-11 -5.2181253e-13    3.4927864    3.4927864    3.4927864    42.610448 
      69            0   -31.488921   -539686.71   -539686.71   -539686.71   -539686.71 -2.1400777e-11 -4.9065197e-11 2.1400777e-11    3.4924348    3.4924348    3.4924348    42.597578 
      70            0   -31.493254   -539463.29   -539463.29   -539463.29   -539463.29 -3.3938313e-11 -5.1690661e-11 1.3053197e-11    3.4920831    3.4920831    3.4920831    42.584712 
      71            0   -31.497585   -539239.15   -539239.15   -539239.15   -539239.15 5.0139424e-11 6.2674279e-11 -3.6559996e-11    3.4917314    3.4917314    3.4917314    42.571847 
      72            0   -31.501913   -539014.28   -539014.28   -539014.28   -539014.28 -4.1273037e-11 -3.3436384e-11 -5.3289237e-11    3.4913798    3.4913798    3.4913798    42.558986 
      73            0   -31.506238   -538788.68   -538788.68   -538788.68   -538788.68 -5.3305343e-11 -5.0169735e-11 -1.3065035e-11    3.4910281    3.4910281    3.4910281    42.546127 
      74            0   -31.510561   -538562.35   -538562.35   -538562.35   -538562.35 1.0455187e-12 -3.2411081e-11 -7.3186311e-12    3.4906764    3.4906764    3.4906764     42.53327 
      75            0    -31.51488   -538335.28   -538335.28   -538335.28   -538335.28 -3.9741722e-11 4.3402144e-11 2.0916696e-12    3.4903248    3.4903248    3.4903248    42.520417 
      76            0   -31.519197   -538107.49   -538107.49   -538107.49   -538107.49 1.2030736e-11 3.5569133e-11 3.4522982e-11    3.4899731    3.4899731    3.4899731    42.507565 
      77            0   -31.523512   -537878.95   -537878.95   -537878.95   -537878.95 -1.4127308e-11 -8.0054748e-11 2.3545514e-11    3.4896214    3.4896214    3.4896214    42.494717 
      78            0   -31.527824   -537649.68   -537649.68   -537649.68   -537649.68 -3.8730998e-11 -1.3608188e-11 -6.9611118e-11    3.4892697    3.4892697    3.4892697    42.481871 
      79            0   -31.532133   -537419.68   -537419.68   -537419.68   -537419.68 2.6177507e-11 -3.9789811e-11 -7.6438322e-11    3.4889181    3.4889181    3.4889181    42.469027 
      80            0   -31.536439   -537188.94   -537188.94   -537188.94   -537188.94 2.2519465e-11 -4.4515222e-11 -7.3842898e-11    3.4885664    3.4885664    3.4885664    42.456186 
      81            0   -31.540743   -536957.45   -536957.45   -536957.45   -536957.45 5.2386691e-13 3.6670684e-12 -6.8626565e-11    3.4882147    3.4882147    3.4882147    42.443348 
      82            0   -31.545043   -536725.23   -536725.23   -536725.23   -536725.23 -1.1528558e-11 -4.9258386e-11 -2.2009066e-11    3.4878631    3.4878631    3.4878631    42.430512 
      83            0   -31.549342   -536492.26   -536492.26   -536492.26   -536492.26 -8.9111267e-12 -6.8668094e-11 -4.6128185e-11    3.4875114    3.4875114    3.4875114    42.417679 
      84            0   -31.553637   -536258.56   -536258.56   -536258.56   -536258.56 -4.1947402e-12 7.8651379e-12 2.8838839e-11    3.4871597    3.4871597    3.4871597    42.404849 
      85            0    -31.55793    -536024.1    -536024.1    -536024.1    -536024.1 2.622506e-11 5.297462e-11  4.40581e-11    3.4868081    3.4868081    3.4868081    42.392021 
      86            0   -31.562219   -535788.91   -535788.91   -535788.91   -535788.91 -1.7838437e-11 -7.7649669e-11 -3.4627555e-11    3.4864564    3.4864564    3.4864564    42.379195 
      87            0   -31.566507   -535552.96   -535552.96   -535552.96   -535552.96 6.560234e-11 2.0992749e-11 9.6566644e-11    3.4861047    3.4861047    3.4861047    42.366373 
      88            0   -31.570791   -535316.27   -535316.27   -535316.27   -535316.27 -4.7247982e-12 -2.9923722e-11 4.8822915e-11     3.485753     3.485753     3.485753    42.353553 
      89            0   -31.575073   -535078.84   -535078.84   -535078.84   -535078.84 1.1553003e-11 8.7172659e-11 8.9798342e-11    3.4854014    3.4854014    3.4854014    42.340735 
      90            0   -31.579352   -534840.65   -534840.65   -534840.65   -534840.65 1.4182978e-11 4.2023639e-12 2.8365956e-11    3.4850497    3.4850497    3.4850497     42.32792 
      91            0   -31.583628   -534601.71   -534601.71   -534601.71   -534601.71 2.6272727e-12 -6.3054545e-12 -1.1034545e-11     3.484698     3.484698     3.484698    42.315108 
      92            0   -31.587901   -534362.02   -534362.02   -534362.02   -534362.02 8.4098185e-12 2.8908751e-11 -5.2561366e-13    3.4843464    3.4843464    3.4843464    42.302298 
      93            0   -31.592171   -534121.57   -534121.57   -534121.57   -534121.57 1.3670094e-11 -2.9443279e-11 -4.6793783e-11    3.4839947    3.4839947    3.4839947    42.289491 
      94            0   -31.596439   -533880.37   -533880.37   -533880.37   -533880.37 -1.262237e-11 9.4667775e-12 2.524474e-11     3.483643     3.483643     3.483643    42.276686 
      95            0   -31.600704   -533638.42   -533638.42   -533638.42   -533638.42 -2.4726295e-11 -3.4195941e-11 -5.7870053e-12    3.4832914    3.4832914    3.4832914    42.263884 
      96            0   -31.604966   -533395.71   -533395.71   -533395.71   -533395.71 8.4200123e-12 -1.1051266e-11 -2.2628783e-11    3.4829397    3.4829397    3.4829397    42.251084 
      97            0   -31.609226   -533152.24   -533152.24   -533152.24   -533152.24 -1.4213075e-11 3.1584612e-11 -2.57941e-11     3.482588     3.482588     3.482588    42.238287 
      98            0   -31.613482   -532908.01   -532908.01   -532908.01   -532908.01 -1.4743952e-11 -2.0009649e-11 -1.1057964e-11    3.4822363    3.4822363    3.4822363    42.225493 
      99            0   -31.617736   -532663.02   -532663.02   -532663.02   -532663.02 3.0550298e-11 1.8962254e-11 1.0534585e-12    3.4818847    3.4818847    3.4818847    42.212701 
     100            0   -31.621987   -532417.27   -532417.27   -532417.27   -532417.27   1.4226e-11 2.897889e-11 -3.6882223e-12     3.481533     3.481533     3.481533    42.199912 
Loop time of 0.00238514 on 1 procs for 100 steps with 4 atoms

91.9% CPU use with 1 MPI tasks x no OpenMP threads

Minimization stats:
  Stopping criterion = max iterations
  Energy initial, next-to-last, final = 
        -31.1837642599     -31.6177360179     -31.6219869437
  Force two-norm initial, final = 26.0196 24.5346
  Force max component initial, final = 15.0224 14.1651
  Final line search alpha, max atom move = 7.05495e-06 9.99337e-05
  Iterations, force evaluations = 100 100

MPI task timing breakdown:
Section |  min time  |  avg time  |  max time  |%varavg| %total
---------------------------------------------------------------
Pair    | 0.00087667 | 0.00087667 | 0.00087667 |   0.0 | 36.76
Neigh   | 0          | 0          | 0          |   0.0 |  0.00
Comm    | 0.00017595 | 0.00017595 | 0.00017595 |   0.0 |  7.38
Output  | 0.00074649 | 0.00074649 | 0.00074649 |   0.0 | 31.30
Modify  | 0          | 0          | 0          |   0.0 |  0.00
Other   |            | 0.000586   |            |       | 24.57

Nlocal:    4 ave 4 max 4 min
Histogram: 1 0 0 0 0 0 0 0 0 0
Nghost:    360 ave 360 max 360 min
Histogram: 1 0 0 0 0 0 0 0 0 0
Neighs:    156 ave 156 max 156 min
Histogram: 1 0 0 0 0 0 0 0 0 0

Total # of neighbors = 156
Ave neighs/atom = 39
Neighbor list builds = 0
Dangerous builds = 0

variable tmp equal pxx
variable pxx0 equal ${tmp}
variable pxx0 equal -532417.272226754
variable tmp equal pyy
variable pyy0 equal ${tmp}
variable pyy0 equal -532417.272226754
variable tmp equal pzz
variable pzz0 equal ${tmp}
variable pzz0 equal -532417.272226754
variable tmp equal pyz
variable pyz0 equal ${tmp}
variable pyz0 equal -3.68822232365641e-12
variable tmp equal pxz
variable pxz0 equal ${tmp}
variable pxz0 equal 2.89788896858718e-11
variable tmp equal pxy
variable pxy0 equal ${tmp}
variable pxy0 equal 1.42260003912461e-11

variable tmp equal lx
variable lx0 equal ${tmp}
variable lx0 equal 3.48153300000002
variable tmp equal ly
variable ly0 equal ${tmp}
variable ly0 equal 3.48153300000002
variable tmp equal lz
variable lz0 equal ${tmp}
variable lz0 equal 3.48153300000002

 # ---- define the derivatives w.r.t. strain components
variable d1 equal -(v_pxx1-${pxx0})/(v_delta/v_len0)*${cfac}
variable d1 equal -(v_pxx1--532417.272226754)/(v_delta/v_len0)*${cfac}
variable d1 equal -(v_pxx1--532417.272226754)/(v_delta/v_len0)*0.0001
variable d2 equal -(v_pyy1-${pyy0})/(v_delta/v_len0)*${cfac}
variable d2 equal -(v_pyy1--532417.272226754)/(v_delta/v_len0)*${cfac}
variable d2 equal -(v_pyy1--532417.272226754)/(v_delta/v_len0)*0.0001
variable d3 equal -(v_pzz1-${pzz0})/(v_delta/v_len0)*${cfac}
variable d3 equal -(v_pzz1--532417.272226754)/(v_delta/v_len0)*${cfac}
variable d3 equal -(v_pzz1--532417.272226754)/(v_delta/v_len0)*0.0001
variable d4 equal -(v_pyz1-${pyz0})/(v_delta/v_len0)*${cfac}
variable d4 equal -(v_pyz1--3.68822232365641e-12)/(v_delta/v_len0)*${cfac}
variable d4 equal -(v_pyz1--3.68822232365641e-12)/(v_delta/v_len0)*0.0001
variable d5 equal -(v_pxz1-${pxz0})/(v_delta/v_len0)*${cfac}
variable d5 equal -(v_pxz1-2.89788896858718e-11)/(v_delta/v_len0)*${cfac}
variable d5 equal -(v_pxz1-2.89788896858718e-11)/(v_delta/v_len0)*0.0001
variable d6 equal -(v_pxy1-${pxy0})/(v_delta/v_len0)*${cfac}
variable d6 equal -(v_pxy1-1.42260003912461e-11)/(v_delta/v_len0)*${cfac}
variable d6 equal -(v_pxy1-1.42260003912461e-11)/(v_delta/v_len0)*0.0001

# ---- write restart files
unfix 3
write_restart restart.equil
# ---- uxx Perturbation
variable dir equal 1
include displace.mod
# NOTE: This script should not need to be
# modified. See in.elastic for more info.
# Find which reference length to use

if "${dir} == 1" then    "variable len0 equal ${lx0}"
variable len0 equal ${lx0}
variable len0 equal 3.48153300000002
if "${dir} == 2" then    "variable len0 equal ${ly0}"
if "${dir} == 3" then    "variable len0 equal ${lz0}"
if "${dir} == 4" then    "variable len0 equal ${lz0}"
if "${dir} == 5" then    "variable len0 equal ${lz0}"
if "${dir} == 6" then    "variable len0 equal ${ly0}"

# Reset box and simulation parameters

clear
read_restart restart.equil remap
  triclinic box = (0.0175835 0.0175835 0.0175835) to (3.49912 3.49912 3.49912) with tilt (0 -0 0)
  1 by 1 by 1 MPI processor grid
  4 atoms
include potential.mod
mass 1 58.6934

group Ni type 1
4 atoms in group Ni

pair_style eam/alloy
pair_coeff * * /home/sullberg/repos/pypospack/dev/cluster_sampling/dev__cluster_sampling/rank_4/Ni_fcc.lmps_elastic/Ni.eam.alloy Ni

neighbor 1.0 bin
neigh_modify every 1 delay 0 check yes
thermo	1
thermo_style custom step temp pe press pxx pyy pzz pxy pxz pyz lx ly lz vol
thermo_modify norm no

# Negative deformation

variable delta equal -${up}*${len0}
variable delta equal -1e-06*${len0}
variable delta equal -1e-06*3.48153300000002
if "${dir} == 1" then    "change_box all x delta 0 ${delta} remap units box"
change_box all x delta 0 ${delta} remap units box
change_box all x delta 0 -3.48153300000002e-06 remap units box
  triclinic box = (0.0175835 0.0175835 0.0175835) to (3.49911 3.49912 3.49912) with tilt (0 -0 0)
if "${dir} == 2" then    "change_box all y delta 0 ${delta} remap units box"
if "${dir} == 3" then    "change_box all z delta 0 ${delta} remap units box"
if "${dir} == 4" then    "change_box all yz delta ${delta} remap units box"
if "${dir} == 5" then    "change_box all xz delta ${delta} remap units box"
if "${dir} == 6" then    "change_box all xy delta ${delta} remap units box"

# Relax atoms positions

minimize ${etol} ${ftol} ${maxiter} ${maxeval}
minimize 0 ${ftol} ${maxiter} ${maxeval}
minimize 0 1e-10 ${maxiter} ${maxeval}
minimize 0 1e-10 100 ${maxeval}
minimize 0 1e-10 100 1000
Neighbor list info ...
  update every 1 steps, delay 0 steps, check yes
  max neighbors/atom: 2000, page size: 100000
  master list distance cutoff = 5.64464
  ghost atom cutoff = 5.64464
  binsize = 2.82232, bins = 2 2 2
  1 neighbor lists, perpetual/occasional/extra = 1 0 0
  (1) pair eam/alloy, perpetual
      attributes: half, newton on
      pair build: half/bin/newton/tri
      stencil: half/bin/3d/newton/tri
      bin: standard
Per MPI rank memory allocation (min/avg/max) = 4.086 | 4.086 | 4.086 Mbytes
Step Temp PotEng Press Pxx Pyy Pzz Pxy Pxz Pyz Lx Ly Lz Volume 
     100            0   -31.622001   -532416.46   -532416.13   -532416.63   -532416.63 1.0063588e-10 3.2667145e-11 -1.0274344e-10    3.4815295     3.481533     3.481533     42.19987 
     101            0   -31.622001   -532416.47   -532416.14   -532416.64   -532416.64 4.636627e-11 1.5279793e-11 1.4752904e-11    3.4815295     3.481533     3.481533     42.19987 
     102            0   -31.622001   -532416.47   -532416.14   -532416.64   -532416.64 2.1602467e-11 5.2162054e-11 -3.5828481e-11    3.4815295     3.481533     3.481533     42.19987 
Loop time of 7.98702e-05 on 1 procs for 2 steps with 4 atoms

71.4% CPU use with 1 MPI tasks x no OpenMP threads

Minimization stats:
  Stopping criterion = force tolerance
  Energy initial, next-to-last, final = 
        -31.6220009671     -31.6220010101     -31.6220010101
  Force two-norm initial, final = 0.00101176 4.05444e-15
  Force max component initial, final = 0.00029207 2.05391e-15
  Final line search alpha, max atom move = 1 2.05391e-15
  Iterations, force evaluations = 2 4

MPI task timing breakdown:
Section |  min time  |  avg time  |  max time  |%varavg| %total
---------------------------------------------------------------
Pair    | 4.6015e-05 | 4.6015e-05 | 4.6015e-05 |   0.0 | 57.61
Neigh   | 0          | 0          | 0          |   0.0 |  0.00
Comm    | 8.8215e-06 | 8.8215e-06 | 8.8215e-06 |   0.0 | 11.04
Output  | 9.0599e-06 | 9.0599e-06 | 9.0599e-06 |   0.0 | 11.34
Modify  | 0          | 0          | 0          |   0.0 |  0.00
Other   |            | 1.597e-05  |            |       | 20.00

Nlocal:    4 ave 4 max 4 min
Histogram: 1 0 0 0 0 0 0 0 0 0
Nghost:    360 ave 360 max 360 min
Histogram: 1 0 0 0 0 0 0 0 0 0
Neighs:    156 ave 156 max 156 min
Histogram: 1 0 0 0 0 0 0 0 0 0

Total # of neighbors = 156
Ave neighs/atom = 39
Neighbor list builds = 0
Dangerous builds = 0

# Obtain new stress tensor

variable tmp equal pxx
variable pxx1 equal ${tmp}
variable pxx1 equal -532416.135773268
variable tmp equal pyy
variable pyy1 equal ${tmp}
variable pyy1 equal -532416.637689161
variable tmp equal pzz
variable pzz1 equal ${tmp}
variable pzz1 equal -532416.637689161
variable tmp equal pxy
variable pxy1 equal ${tmp}
variable pxy1 equal 2.16024666410256e-11
variable tmp equal pxz
variable pxz1 equal ${tmp}
variable pxz1 equal 5.21620535966228e-11
variable tmp equal pyz
variable pyz1 equal ${tmp}
variable pyz1 equal -3.58284812582864e-11

# Compute elastic constant from pressure tensor

variable C1neg equal ${d1}
variable C1neg equal 113.645348604769
variable C2neg equal ${d2}
variable C2neg equal 63.4537592995912
variable C3neg equal ${d3}
variable C3neg equal 63.4537592995912
variable C4neg equal ${d4}
variable C4neg equal -3.214025893463e-09
variable C5neg equal ${d5}
variable C5neg equal 2.3183163910751e-09
variable C6neg equal ${d6}
variable C6neg equal 7.3764662497795e-10

# Reset box and simulation parameters

clear
read_restart restart.equil remap
  triclinic box = (0.0175835 0.0175835 0.0175835) to (3.49912 3.49912 3.49912) with tilt (0 -0 0)
  1 by 1 by 1 MPI processor grid
  4 atoms
include potential.mod
mass 1 58.6934

group Ni type 1
4 atoms in group Ni

pair_style eam/alloy
pair_coeff * * /home/sullberg/repos/pypospack/dev/cluster_sampling/dev__cluster_sampling/rank_4/Ni_fcc.lmps_elastic/Ni.eam.alloy Ni

neighbor 1.0 bin
neigh_modify every 1 delay 0 check yes
thermo	1
thermo_style custom step temp pe press pxx pyy pzz pxy pxz pyz lx ly lz vol
thermo_modify norm no

# Positive deformation

variable delta equal ${up}*${len0}
variable delta equal 1e-06*${len0}
variable delta equal 1e-06*3.48153300000002
if "${dir} == 1" then    "change_box all x delta 0 ${delta} remap units box"
change_box all x delta 0 ${delta} remap units box
change_box all x delta 0 3.48153300000002e-06 remap units box
  triclinic box = (0.0175835 0.0175835 0.0175835) to (3.49912 3.49912 3.49912) with tilt (0 -0 0)
if "${dir} == 2" then    "change_box all y delta 0 ${delta} remap units box"
if "${dir} == 3" then    "change_box all z delta 0 ${delta} remap units box"
if "${dir} == 4" then    "change_box all yz delta ${delta} remap units box"
if "${dir} == 5" then    "change_box all xz delta ${delta} remap units box"
if "${dir} == 6" then    "change_box all xy delta ${delta} remap units box"

# Relax atoms positions

minimize ${etol} ${ftol} ${maxiter} ${maxeval}
minimize 0 ${ftol} ${maxiter} ${maxeval}
minimize 0 1e-10 ${maxiter} ${maxeval}
minimize 0 1e-10 100 ${maxeval}
minimize 0 1e-10 100 1000
Neighbor list info ...
  update every 1 steps, delay 0 steps, check yes
  max neighbors/atom: 2000, page size: 100000
  master list distance cutoff = 5.64464
  ghost atom cutoff = 5.64464
  binsize = 2.82232, bins = 2 2 2
  1 neighbor lists, perpetual/occasional/extra = 1 0 0
  (1) pair eam/alloy, perpetual
      attributes: half, newton on
      pair build: half/bin/newton/tri
      stencil: half/bin/3d/newton/tri
      bin: standard
Per MPI rank memory allocation (min/avg/max) = 4.086 | 4.086 | 4.086 Mbytes
Step Temp PotEng Press Pxx Pyy Pzz Pxy Pxz Pyz Lx Ly Lz Volume 
     100            0   -31.621973   -532418.08   -532418.42   -532417.92   -532417.92 -2.0021758e-11 -4.2677958e-11 -1.6860428e-11    3.4815365     3.481533     3.481533    42.199954 
     101            0   -31.621973   -532418.09   -532418.43   -532417.93   -532417.93 6.0065275e-11 -2.4763754e-11 -3.7935963e-11    3.4815365     3.481533     3.481533    42.199954 
     102            0   -31.621973   -532418.09   -532418.43   -532417.93   -532417.93 2.0548647e-11 -8.430214e-12 5.2688838e-12    3.4815365     3.481533     3.481533    42.199954 
Loop time of 8.10623e-05 on 1 procs for 2 steps with 4 atoms

75.3% CPU use with 1 MPI tasks x no OpenMP threads

Minimization stats:
  Stopping criterion = force tolerance
  Energy initial, next-to-last, final = 
        -31.6219729203     -31.6219729633     -31.6219729633
  Force two-norm initial, final = 0.00101175 8.15865e-15
  Force max component initial, final = 0.000292066 2.83107e-15
  Final line search alpha, max atom move = 1 2.83107e-15
  Iterations, force evaluations = 2 4

MPI task timing breakdown:
Section |  min time  |  avg time  |  max time  |%varavg| %total
---------------------------------------------------------------
Pair    | 4.7922e-05 | 4.7922e-05 | 4.7922e-05 |   0.0 | 59.12
Neigh   | 0          | 0          | 0          |   0.0 |  0.00
Comm    | 1.0252e-05 | 1.0252e-05 | 1.0252e-05 |   0.0 | 12.65
Output  | 8.8215e-06 | 8.8215e-06 | 8.8215e-06 |   0.0 | 10.88
Modify  | 0          | 0          | 0          |   0.0 |  0.00
Other   |            | 1.407e-05  |            |       | 17.35

Nlocal:    4 ave 4 max 4 min
Histogram: 1 0 0 0 0 0 0 0 0 0
Nghost:    360 ave 360 max 360 min
Histogram: 1 0 0 0 0 0 0 0 0 0
Neighs:    156 ave 156 max 156 min
Histogram: 1 0 0 0 0 0 0 0 0 0

Total # of neighbors = 156
Ave neighs/atom = 39
Neighbor list builds = 0
Dangerous builds = 0

# Obtain new stress tensor

variable tmp equal pe
variable e1 equal ${tmp}
variable e1 equal -31.6219729633317
variable tmp equal press
variable p1 equal ${tmp}
variable p1 equal -532418.094847634
variable tmp equal pxx
variable pxx1 equal ${tmp}
variable pxx1 equal -532418.429457222
variable tmp equal pyy
variable pyy1 equal ${tmp}
variable pyy1 equal -532417.92754284
variable tmp equal pzz
variable pzz1 equal ${tmp}
variable pzz1 equal -532417.92754284
variable tmp equal pxy
variable pxy1 equal ${tmp}
variable pxy1 equal 2.05486466831533e-11
variable tmp equal pxz
variable pxz1 equal ${tmp}
variable pxz1 equal -8.43021402385776e-12
variable tmp equal pyz
variable pyz1 equal ${tmp}
variable pyz1 equal 5.2688837649111e-12

# Compute elastic constant from pressure tensor

variable C1pos equal ${d1}
variable C1pos equal 115.723046800122
variable C2pos equal ${d2}
variable C2pos equal 65.5316086020321
variable C3pos equal ${d3}
variable C3pos equal 65.5316086020321
variable C4pos equal ${d4}
variable C4pos equal -8.95710608856751e-10
variable C5pos equal ${d5}
variable C5pos equal 3.74091037097296e-09
variable C6pos equal ${d6}
variable C6pos equal -6.3226462919072e-10

# Combine positive and negative

variable C1${dir} equal 0.5*(${C1neg}+${C1pos})
variable C11 equal 0.5*(${C1neg}+${C1pos})
variable C11 equal 0.5*(113.645348604769+${C1pos})
variable C11 equal 0.5*(113.645348604769+115.723046800122)
variable C2${dir} equal 0.5*(${C2neg}+${C2pos})
variable C21 equal 0.5*(${C2neg}+${C2pos})
variable C21 equal 0.5*(63.4537592995912+${C2pos})
variable C21 equal 0.5*(63.4537592995912+65.5316086020321)
variable C3${dir} equal 0.5*(${C3neg}+${C3pos})
variable C31 equal 0.5*(${C3neg}+${C3pos})
variable C31 equal 0.5*(63.4537592995912+${C3pos})
variable C31 equal 0.5*(63.4537592995912+65.5316086020321)
variable C4${dir} equal 0.5*(${C4neg}+${C4pos})
variable C41 equal 0.5*(${C4neg}+${C4pos})
variable C41 equal 0.5*(-3.214025893463e-09+${C4pos})
variable C41 equal 0.5*(-3.214025893463e-09+-8.95710608856751e-10)
variable C5${dir} equal 0.5*(${C5neg}+${C5pos})
variable C51 equal 0.5*(${C5neg}+${C5pos})
variable C51 equal 0.5*(2.3183163910751e-09+${C5pos})
variable C51 equal 0.5*(2.3183163910751e-09+3.74091037097296e-09)
variable C6${dir} equal 0.5*(${C6neg}+${C6pos})
variable C61 equal 0.5*(${C6neg}+${C6pos})
variable C61 equal 0.5*(7.3764662497795e-10+${C6pos})
variable C61 equal 0.5*(7.3764662497795e-10+-6.3226462919072e-10)

# Delete dir to make sure it is not reused

variable dir delete
# ---- uyy Perturbation
variable dir equal 2
include displace.mod
# NOTE: This script should not need to be
# modified. See in.elastic for more info.
# Find which reference length to use

if "${dir} == 1" then    "variable len0 equal ${lx0}"
if "${dir} == 2" then    "variable len0 equal ${ly0}"
variable len0 equal ${ly0}
variable len0 equal 3.48153300000002
if "${dir} == 3" then    "variable len0 equal ${lz0}"
if "${dir} == 4" then    "variable len0 equal ${lz0}"
if "${dir} == 5" then    "variable len0 equal ${lz0}"
if "${dir} == 6" then    "variable len0 equal ${ly0}"

# Reset box and simulation parameters

clear
read_restart restart.equil remap
  triclinic box = (0.0175835 0.0175835 0.0175835) to (3.49912 3.49912 3.49912) with tilt (0 -0 0)
  1 by 1 by 1 MPI processor grid
  4 atoms
include potential.mod
mass 1 58.6934

group Ni type 1
4 atoms in group Ni

pair_style eam/alloy
pair_coeff * * /home/sullberg/repos/pypospack/dev/cluster_sampling/dev__cluster_sampling/rank_4/Ni_fcc.lmps_elastic/Ni.eam.alloy Ni

neighbor 1.0 bin
neigh_modify every 1 delay 0 check yes
thermo	1
thermo_style custom step temp pe press pxx pyy pzz pxy pxz pyz lx ly lz vol
thermo_modify norm no

# Negative deformation

variable delta equal -${up}*${len0}
variable delta equal -1e-06*${len0}
variable delta equal -1e-06*3.48153300000002
if "${dir} == 1" then    "change_box all x delta 0 ${delta} remap units box"
if "${dir} == 2" then    "change_box all y delta 0 ${delta} remap units box"
change_box all y delta 0 ${delta} remap units box
change_box all y delta 0 -3.48153300000002e-06 remap units box
  triclinic box = (0.0175835 0.0175835 0.0175835) to (3.49912 3.49911 3.49912) with tilt (0 -0 0)
if "${dir} == 3" then    "change_box all z delta 0 ${delta} remap units box"
if "${dir} == 4" then    "change_box all yz delta ${delta} remap units box"
if "${dir} == 5" then    "change_box all xz delta ${delta} remap units box"
if "${dir} == 6" then    "change_box all xy delta ${delta} remap units box"

# Relax atoms positions

minimize ${etol} ${ftol} ${maxiter} ${maxeval}
minimize 0 ${ftol} ${maxiter} ${maxeval}
minimize 0 1e-10 ${maxiter} ${maxeval}
minimize 0 1e-10 100 ${maxeval}
minimize 0 1e-10 100 1000
Neighbor list info ...
  update every 1 steps, delay 0 steps, check yes
  max neighbors/atom: 2000, page size: 100000
  master list distance cutoff = 5.64464
  ghost atom cutoff = 5.64464
  binsize = 2.82232, bins = 2 2 2
  1 neighbor lists, perpetual/occasional/extra = 1 0 0
  (1) pair eam/alloy, perpetual
      attributes: half, newton on
      pair build: half/bin/newton/tri
      stencil: half/bin/3d/newton/tri
      bin: standard
Per MPI rank memory allocation (min/avg/max) = 4.086 | 4.086 | 4.086 Mbytes
Step Temp PotEng Press Pxx Pyy Pzz Pxy Pxz Pyz Lx Ly Lz Volume 
     100            0   -31.622001   -532416.46   -532416.63   -532416.13   -532416.63 -1.2645346e-11 -8.4302309e-11 1.0537789e-11     3.481533    3.4815295     3.481533     42.19987 
     101            0   -31.622001   -532416.47   -532416.64   -532416.14   -532416.64 4.0570486e-11 3.2667145e-11 -2.3710024e-11     3.481533    3.4815295     3.481533     42.19987 
     102            0   -31.622001   -532416.47   -532416.64   -532416.14   -532416.64 -3.3194034e-11 -7.376452e-12 -6.3226732e-11     3.481533    3.4815295     3.481533     42.19987 
Loop time of 7.9155e-05 on 1 procs for 2 steps with 4 atoms

78.3% CPU use with 1 MPI tasks x no OpenMP threads

Minimization stats:
  Stopping criterion = force tolerance
  Energy initial, next-to-last, final = 
        -31.6220009671     -31.6220010101     -31.6220010101
  Force two-norm initial, final = 0.00101176 5.80963e-15
  Force max component initial, final = 0.00029207 3.38618e-15
  Final line search alpha, max atom move = 1 3.38618e-15
  Iterations, force evaluations = 2 4

MPI task timing breakdown:
Section |  min time  |  avg time  |  max time  |%varavg| %total
---------------------------------------------------------------
Pair    | 4.6015e-05 | 4.6015e-05 | 4.6015e-05 |   0.0 | 58.13
Neigh   | 0          | 0          | 0          |   0.0 |  0.00
Comm    | 1.0014e-05 | 1.0014e-05 | 1.0014e-05 |   0.0 | 12.65
Output  | 9.0599e-06 | 9.0599e-06 | 9.0599e-06 |   0.0 | 11.45
Modify  | 0          | 0          | 0          |   0.0 |  0.00
Other   |            | 1.407e-05  |            |       | 17.77

Nlocal:    4 ave 4 max 4 min
Histogram: 1 0 0 0 0 0 0 0 0 0
Nghost:    360 ave 360 max 360 min
Histogram: 1 0 0 0 0 0 0 0 0 0
Neighs:    156 ave 156 max 156 min
Histogram: 1 0 0 0 0 0 0 0 0 0

Total # of neighbors = 156
Ave neighs/atom = 39
Neighbor list builds = 0
Dangerous builds = 0

# Obtain new stress tensor

variable tmp equal pxx
variable pxx1 equal ${tmp}
variable pxx1 equal -532416.637689161
variable tmp equal pyy
variable pyy1 equal ${tmp}
variable pyy1 equal -532416.135773268
variable tmp equal pzz
variable pzz1 equal ${tmp}
variable pzz1 equal -532416.637689161
variable tmp equal pxy
variable pxy1 equal ${tmp}
variable pxy1 equal -3.31940341069418e-11
variable tmp equal pxz
variable pxz1 equal ${tmp}
variable pxz1 equal -7.37645202376484e-12
variable tmp equal pyz
variable pyz1 equal ${tmp}
variable pyz1 equal -6.322673163227e-11

# Compute elastic constant from pressure tensor

variable C1neg equal ${d1}
variable C1neg equal 63.4537592995912
variable C2neg equal ${d2}
variable C2neg equal 113.645348604769
variable C3neg equal ${d3}
variable C3neg equal 63.4537592995912
variable C4neg equal ${d4}
variable C4neg equal -5.95385093086136e-09
variable C5neg equal ${d5}
variable C5neg equal -3.63553417096366e-09
variable C6neg equal ${d6}
variable C6neg equal -4.74200344981879e-09

# Reset box and simulation parameters

clear
read_restart restart.equil remap
  triclinic box = (0.0175835 0.0175835 0.0175835) to (3.49912 3.49912 3.49912) with tilt (0 -0 0)
  1 by 1 by 1 MPI processor grid
  4 atoms
include potential.mod
mass 1 58.6934

group Ni type 1
4 atoms in group Ni

pair_style eam/alloy
pair_coeff * * /home/sullberg/repos/pypospack/dev/cluster_sampling/dev__cluster_sampling/rank_4/Ni_fcc.lmps_elastic/Ni.eam.alloy Ni

neighbor 1.0 bin
neigh_modify every 1 delay 0 check yes
thermo	1
thermo_style custom step temp pe press pxx pyy pzz pxy pxz pyz lx ly lz vol
thermo_modify norm no

# Positive deformation

variable delta equal ${up}*${len0}
variable delta equal 1e-06*${len0}
variable delta equal 1e-06*3.48153300000002
if "${dir} == 1" then    "change_box all x delta 0 ${delta} remap units box"
if "${dir} == 2" then    "change_box all y delta 0 ${delta} remap units box"
change_box all y delta 0 ${delta} remap units box
change_box all y delta 0 3.48153300000002e-06 remap units box
  triclinic box = (0.0175835 0.0175835 0.0175835) to (3.49912 3.49912 3.49912) with tilt (0 -0 0)
if "${dir} == 3" then    "change_box all z delta 0 ${delta} remap units box"
if "${dir} == 4" then    "change_box all yz delta ${delta} remap units box"
if "${dir} == 5" then    "change_box all xz delta ${delta} remap units box"
if "${dir} == 6" then    "change_box all xy delta ${delta} remap units box"

# Relax atoms positions

minimize ${etol} ${ftol} ${maxiter} ${maxeval}
minimize 0 ${ftol} ${maxiter} ${maxeval}
minimize 0 1e-10 ${maxiter} ${maxeval}
minimize 0 1e-10 100 ${maxeval}
minimize 0 1e-10 100 1000
Neighbor list info ...
  update every 1 steps, delay 0 steps, check yes
  max neighbors/atom: 2000, page size: 100000
  master list distance cutoff = 5.64464
  ghost atom cutoff = 5.64464
  binsize = 2.82232, bins = 2 2 2
  1 neighbor lists, perpetual/occasional/extra = 1 0 0
  (1) pair eam/alloy, perpetual
      attributes: half, newton on
      pair build: half/bin/newton/tri
      stencil: half/bin/3d/newton/tri
      bin: standard
Per MPI rank memory allocation (min/avg/max) = 4.086 | 4.086 | 4.086 Mbytes
Step Temp PotEng Press Pxx Pyy Pzz Pxy Pxz Pyz Lx Ly Lz Volume 
     100            0   -31.621973   -532418.08   -532417.92   -532418.42   -532417.92 -2.4763754e-11 -8.1667698e-11 5.1108173e-11     3.481533    3.4815365     3.481533    42.199954 
     101            0   -31.621973   -532418.09   -532417.93   -532418.43   -532417.93 -8.430214e-12 5.7957721e-11 1.5806651e-11     3.481533    3.4815365     3.481533    42.199954 
     102            0   -31.621973   -532418.09   -532417.93   -532418.43   -532417.93 -2.9505749e-11 4.1624182e-11 -4.3731735e-11     3.481533    3.4815365     3.481533    42.199954 
Loop time of 8.10623e-05 on 1 procs for 2 steps with 4 atoms

99.9% CPU use with 1 MPI tasks x no OpenMP threads

Minimization stats:
  Stopping criterion = force tolerance
  Energy initial, next-to-last, final = 
        -31.6219729203     -31.6219729633     -31.6219729633
  Force two-norm initial, final = 0.00101175 8.36821e-15
  Force max component initial, final = 0.000292066 2.72005e-15
  Final line search alpha, max atom move = 1 2.72005e-15
  Iterations, force evaluations = 2 4

MPI task timing breakdown:
Section |  min time  |  avg time  |  max time  |%varavg| %total
---------------------------------------------------------------
Pair    | 4.6968e-05 | 4.6968e-05 | 4.6968e-05 |   0.0 | 57.94
Neigh   | 0          | 0          | 0          |   0.0 |  0.00
Comm    | 1.1206e-05 | 1.1206e-05 | 1.1206e-05 |   0.0 | 13.82
Output  | 9.0599e-06 | 9.0599e-06 | 9.0599e-06 |   0.0 | 11.18
Modify  | 0          | 0          | 0          |   0.0 |  0.00
Other   |            | 1.383e-05  |            |       | 17.06

Nlocal:    4 ave 4 max 4 min
Histogram: 1 0 0 0 0 0 0 0 0 0
Nghost:    360 ave 360 max 360 min
Histogram: 1 0 0 0 0 0 0 0 0 0
Neighs:    156 ave 156 max 156 min
Histogram: 1 0 0 0 0 0 0 0 0 0

Total # of neighbors = 156
Ave neighs/atom = 39
Neighbor list builds = 0
Dangerous builds = 0

# Obtain new stress tensor

variable tmp equal pe
variable e1 equal ${tmp}
variable e1 equal -31.6219729633317
variable tmp equal press
variable p1 equal ${tmp}
variable p1 equal -532418.094847634
variable tmp equal pxx
variable pxx1 equal ${tmp}
variable pxx1 equal -532417.92754284
variable tmp equal pyy
variable pyy1 equal ${tmp}
variable pyy1 equal -532418.429457222
variable tmp equal pzz
variable pzz1 equal ${tmp}
variable pzz1 equal -532417.92754284
variable tmp equal pxy
variable pxy1 equal ${tmp}
variable pxy1 equal -2.95057490835022e-11
variable tmp equal pxz
variable pxz1 equal ${tmp}
variable pxz1 equal 4.16241817427977e-11
variable tmp equal pyz
variable pyz1 equal ${tmp}
variable pyz1 equal -4.37317352487621e-11

# Compute elastic constant from pressure tensor

variable C1pos equal ${d1}
variable C1pos equal 65.5316086020321
variable C2pos equal ${d2}
variable C2pos equal 115.723046800122
variable C3pos equal ${d3}
variable C3pos equal 65.5316086020321
variable C4pos equal ${d4}
variable C4pos equal 4.00435129251057e-09
variable C5pos equal ${d5}
variable C5pos equal -1.26452920569259e-09
variable C6pos equal ${d6}
variable C6pos equal 4.37317494747483e-09

# Combine positive and negative

variable C1${dir} equal 0.5*(${C1neg}+${C1pos})
variable C12 equal 0.5*(${C1neg}+${C1pos})
variable C12 equal 0.5*(63.4537592995912+${C1pos})
variable C12 equal 0.5*(63.4537592995912+65.5316086020321)
variable C2${dir} equal 0.5*(${C2neg}+${C2pos})
variable C22 equal 0.5*(${C2neg}+${C2pos})
variable C22 equal 0.5*(113.645348604769+${C2pos})
variable C22 equal 0.5*(113.645348604769+115.723046800122)
variable C3${dir} equal 0.5*(${C3neg}+${C3pos})
variable C32 equal 0.5*(${C3neg}+${C3pos})
variable C32 equal 0.5*(63.4537592995912+${C3pos})
variable C32 equal 0.5*(63.4537592995912+65.5316086020321)
variable C4${dir} equal 0.5*(${C4neg}+${C4pos})
variable C42 equal 0.5*(${C4neg}+${C4pos})
variable C42 equal 0.5*(-5.95385093086136e-09+${C4pos})
variable C42 equal 0.5*(-5.95385093086136e-09+4.00435129251057e-09)
variable C5${dir} equal 0.5*(${C5neg}+${C5pos})
variable C52 equal 0.5*(${C5neg}+${C5pos})
variable C52 equal 0.5*(-3.63553417096366e-09+${C5pos})
variable C52 equal 0.5*(-3.63553417096366e-09+-1.26452920569259e-09)
variable C6${dir} equal 0.5*(${C6neg}+${C6pos})
variable C62 equal 0.5*(${C6neg}+${C6pos})
variable C62 equal 0.5*(-4.74200344981879e-09+${C6pos})
variable C62 equal 0.5*(-4.74200344981879e-09+4.37317494747483e-09)

# Delete dir to make sure it is not reused

variable dir delete
# ---- uzz Perturbation
variable dir equal 3
include displace.mod
# NOTE: This script should not need to be
# modified. See in.elastic for more info.
# Find which reference length to use

if "${dir} == 1" then    "variable len0 equal ${lx0}"
if "${dir} == 2" then    "variable len0 equal ${ly0}"
if "${dir} == 3" then    "variable len0 equal ${lz0}"
variable len0 equal ${lz0}
variable len0 equal 3.48153300000002
if "${dir} == 4" then    "variable len0 equal ${lz0}"
if "${dir} == 5" then    "variable len0 equal ${lz0}"
if "${dir} == 6" then    "variable len0 equal ${ly0}"

# Reset box and simulation parameters

clear
read_restart restart.equil remap
  triclinic box = (0.0175835 0.0175835 0.0175835) to (3.49912 3.49912 3.49912) with tilt (0 -0 0)
  1 by 1 by 1 MPI processor grid
  4 atoms
include potential.mod
mass 1 58.6934

group Ni type 1
4 atoms in group Ni

pair_style eam/alloy
pair_coeff * * /home/sullberg/repos/pypospack/dev/cluster_sampling/dev__cluster_sampling/rank_4/Ni_fcc.lmps_elastic/Ni.eam.alloy Ni

neighbor 1.0 bin
neigh_modify every 1 delay 0 check yes
thermo	1
thermo_style custom step temp pe press pxx pyy pzz pxy pxz pyz lx ly lz vol
thermo_modify norm no

# Negative deformation

variable delta equal -${up}*${len0}
variable delta equal -1e-06*${len0}
variable delta equal -1e-06*3.48153300000002
if "${dir} == 1" then    "change_box all x delta 0 ${delta} remap units box"
if "${dir} == 2" then    "change_box all y delta 0 ${delta} remap units box"
if "${dir} == 3" then    "change_box all z delta 0 ${delta} remap units box"
change_box all z delta 0 ${delta} remap units box
change_box all z delta 0 -3.48153300000002e-06 remap units box
  triclinic box = (0.0175835 0.0175835 0.0175835) to (3.49912 3.49912 3.49911) with tilt (0 -0 0)
if "${dir} == 4" then    "change_box all yz delta ${delta} remap units box"
if "${dir} == 5" then    "change_box all xz delta ${delta} remap units box"
if "${dir} == 6" then    "change_box all xy delta ${delta} remap units box"

# Relax atoms positions

minimize ${etol} ${ftol} ${maxiter} ${maxeval}
minimize 0 ${ftol} ${maxiter} ${maxeval}
minimize 0 1e-10 ${maxiter} ${maxeval}
minimize 0 1e-10 100 ${maxeval}
minimize 0 1e-10 100 1000
Neighbor list info ...
  update every 1 steps, delay 0 steps, check yes
  max neighbors/atom: 2000, page size: 100000
  master list distance cutoff = 5.64464
  ghost atom cutoff = 5.64464
  binsize = 2.82232, bins = 2 2 2
  1 neighbor lists, perpetual/occasional/extra = 1 0 0
  (1) pair eam/alloy, perpetual
      attributes: half, newton on
      pair build: half/bin/newton/tri
      stencil: half/bin/3d/newton/tri
      bin: standard
Per MPI rank memory allocation (min/avg/max) = 4.086 | 4.086 | 4.086 Mbytes
Step Temp PotEng Press Pxx Pyy Pzz Pxy Pxz Pyz Lx Ly Lz Volume 
     100            0   -31.622001   -532416.46   -532416.63   -532416.63   -532416.13 -3.8462928e-11 -3.2667145e-11 -4.2151154e-11     3.481533     3.481533    3.4815295     42.19987 
     101            0   -31.622001   -532416.47   -532416.64   -532416.64   -532416.14 -4.7946938e-11 1.5806683e-11 4.2151154e-12     3.481533     3.481533    3.4815295     42.19987 
     102            0   -31.622001   -532416.47   -532416.64   -532416.64   -532416.14 -7.9033415e-12 -2.1075577e-12 9.220565e-11     3.481533     3.481533    3.4815295     42.19987 
Loop time of 7.9155e-05 on 1 procs for 2 steps with 4 atoms

101.1% CPU use with 1 MPI tasks x no OpenMP threads

Minimization stats:
  Stopping criterion = force tolerance
  Energy initial, next-to-last, final = 
        -31.6220009671     -31.6220010101     -31.6220010101
  Force two-norm initial, final = 0.00101176 5.70823e-15
  Force max component initial, final = 0.00029207 2.73392e-15
  Final line search alpha, max atom move = 1 2.73392e-15
  Iterations, force evaluations = 2 4

MPI task timing breakdown:
Section |  min time  |  avg time  |  max time  |%varavg| %total
---------------------------------------------------------------
Pair    | 4.3869e-05 | 4.3869e-05 | 4.3869e-05 |   0.0 | 55.42
Neigh   | 0          | 0          | 0          |   0.0 |  0.00
Comm    | 9.0599e-06 | 9.0599e-06 | 9.0599e-06 |   0.0 | 11.45
Output  | 8.8215e-06 | 8.8215e-06 | 8.8215e-06 |   0.0 | 11.14
Modify  | 0          | 0          | 0          |   0.0 |  0.00
Other   |            | 1.74e-05   |            |       | 21.99

Nlocal:    4 ave 4 max 4 min
Histogram: 1 0 0 0 0 0 0 0 0 0
Nghost:    360 ave 360 max 360 min
Histogram: 1 0 0 0 0 0 0 0 0 0
Neighs:    156 ave 156 max 156 min
Histogram: 1 0 0 0 0 0 0 0 0 0

Total # of neighbors = 156
Ave neighs/atom = 39
Neighbor list builds = 0
Dangerous builds = 0

# Obtain new stress tensor

variable tmp equal pxx
variable pxx1 equal ${tmp}
variable pxx1 equal -532416.637689161
variable tmp equal pyy
variable pyy1 equal ${tmp}
variable pyy1 equal -532416.637689161
variable tmp equal pzz
variable pzz1 equal ${tmp}
variable pzz1 equal -532416.135773268
variable tmp equal pxy
variable pxy1 equal ${tmp}
variable pxy1 equal -7.90334145403376e-12
variable tmp equal pxz
variable pxz1 equal ${tmp}
variable pxz1 equal -2.10755772107567e-12
variable tmp equal pyz
variable pyz1 equal ${tmp}
variable pyz1 equal 9.22056502970605e-11

# Compute elastic constant from pressure tensor

variable C1neg equal ${d1}
variable C1neg equal 63.4537592995912
variable C2neg equal ${d2}
variable C2neg equal 63.4537592995912
variable C3neg equal ${d3}
variable C3neg equal 113.645348604769
variable C4neg equal ${d4}
variable C4neg equal 9.58938726207169e-09
variable C5neg equal ${d5}
variable C5neg equal -3.10864474069475e-09
variable C6neg equal ${d6}
variable C6neg equal -2.21293418452799e-09

# Reset box and simulation parameters

clear
read_restart restart.equil remap
  triclinic box = (0.0175835 0.0175835 0.0175835) to (3.49912 3.49912 3.49912) with tilt (0 -0 0)
  1 by 1 by 1 MPI processor grid
  4 atoms
include potential.mod
mass 1 58.6934

group Ni type 1
4 atoms in group Ni

pair_style eam/alloy
pair_coeff * * /home/sullberg/repos/pypospack/dev/cluster_sampling/dev__cluster_sampling/rank_4/Ni_fcc.lmps_elastic/Ni.eam.alloy Ni

neighbor 1.0 bin
neigh_modify every 1 delay 0 check yes
thermo	1
thermo_style custom step temp pe press pxx pyy pzz pxy pxz pyz lx ly lz vol
thermo_modify norm no

# Positive deformation

variable delta equal ${up}*${len0}
variable delta equal 1e-06*${len0}
variable delta equal 1e-06*3.48153300000002
if "${dir} == 1" then    "change_box all x delta 0 ${delta} remap units box"
if "${dir} == 2" then    "change_box all y delta 0 ${delta} remap units box"
if "${dir} == 3" then    "change_box all z delta 0 ${delta} remap units box"
change_box all z delta 0 ${delta} remap units box
change_box all z delta 0 3.48153300000002e-06 remap units box
  triclinic box = (0.0175835 0.0175835 0.0175835) to (3.49912 3.49912 3.49912) with tilt (0 -0 0)
if "${dir} == 4" then    "change_box all yz delta ${delta} remap units box"
if "${dir} == 5" then    "change_box all xz delta ${delta} remap units box"
if "${dir} == 6" then    "change_box all xy delta ${delta} remap units box"

# Relax atoms positions

minimize ${etol} ${ftol} ${maxiter} ${maxeval}
minimize 0 ${ftol} ${maxiter} ${maxeval}
minimize 0 1e-10 ${maxiter} ${maxeval}
minimize 0 1e-10 100 ${maxeval}
minimize 0 1e-10 100 1000
Neighbor list info ...
  update every 1 steps, delay 0 steps, check yes
  max neighbors/atom: 2000, page size: 100000
  master list distance cutoff = 5.64464
  ghost atom cutoff = 5.64464
  binsize = 2.82232, bins = 2 2 2
  1 neighbor lists, perpetual/occasional/extra = 1 0 0
  (1) pair eam/alloy, perpetual
      attributes: half, newton on
      pair build: half/bin/newton/tri
      stencil: half/bin/3d/newton/tri
      bin: standard
Per MPI rank memory allocation (min/avg/max) = 4.086 | 4.086 | 4.086 Mbytes
Step Temp PotEng Press Pxx Pyy Pzz Pxy Pxz Pyz Lx Ly Lz Volume 
     100            0   -31.621973   -532418.08   -532417.92   -532417.92   -532418.42 3.6882186e-12 -6.6387935e-11 -3.7935963e-11     3.481533     3.481533    3.4815365    42.199954 
     101            0   -31.621973   -532418.09   -532417.93   -532417.93   -532418.43 6.9549266e-11 -1.5806651e-12 4.215107e-11     3.481533     3.481533    3.4815365    42.199954 
     102            0   -31.621973   -532418.09   -532417.93   -532417.93   -532418.43 2.3183089e-11 -4.7419954e-12 2.3183089e-11     3.481533     3.481533    3.4815365    42.199954 
Loop time of 8.10623e-05 on 1 procs for 2 steps with 4 atoms

99.9% CPU use with 1 MPI tasks x no OpenMP threads

Minimization stats:
  Stopping criterion = force tolerance
  Energy initial, next-to-last, final = 
        -31.6219729203     -31.6219729633     -31.6219729633
  Force two-norm initial, final = 0.00101175 8.4476e-15
  Force max component initial, final = 0.000292066 3.05311e-15
  Final line search alpha, max atom move = 1 3.05311e-15
  Iterations, force evaluations = 2 4

MPI task timing breakdown:
Section |  min time  |  avg time  |  max time  |%varavg| %total
---------------------------------------------------------------
Pair    | 4.7207e-05 | 4.7207e-05 | 4.7207e-05 |   0.0 | 58.24
Neigh   | 0          | 0          | 0          |   0.0 |  0.00
Comm    | 8.8215e-06 | 8.8215e-06 | 8.8215e-06 |   0.0 | 10.88
Output  | 9.0599e-06 | 9.0599e-06 | 9.0599e-06 |   0.0 | 11.18
Modify  | 0          | 0          | 0          |   0.0 |  0.00
Other   |            | 1.597e-05  |            |       | 19.71

Nlocal:    4 ave 4 max 4 min
Histogram: 1 0 0 0 0 0 0 0 0 0
Nghost:    360 ave 360 max 360 min
Histogram: 1 0 0 0 0 0 0 0 0 0
Neighs:    156 ave 156 max 156 min
Histogram: 1 0 0 0 0 0 0 0 0 0

Total # of neighbors = 156
Ave neighs/atom = 39
Neighbor list builds = 0
Dangerous builds = 0

# Obtain new stress tensor

variable tmp equal pe
variable e1 equal ${tmp}
variable e1 equal -31.6219729633317
variable tmp equal press
variable p1 equal ${tmp}
variable p1 equal -532418.094847634
variable tmp equal pxx
variable pxx1 equal ${tmp}
variable pxx1 equal -532417.92754284
variable tmp equal pyy
variable pyy1 equal ${tmp}
variable pyy1 equal -532417.92754284
variable tmp equal pzz
variable pzz1 equal ${tmp}
variable pzz1 equal -532418.429457221
variable tmp equal pxy
variable pxy1 equal ${tmp}
variable pxy1 equal 2.31830885656088e-11
variable tmp equal pxz
variable pxz1 equal ${tmp}
variable pxz1 equal -4.74199538841999e-12
variable tmp equal pyz
variable pyz1 equal ${tmp}
variable pyz1 equal 2.31830885656088e-11

# Compute elastic constant from pressure tensor

variable C1pos equal ${d1}
variable C1pos equal 65.5316086020321
variable C2pos equal ${d2}
variable C2pos equal 65.5316086020321
variable C3pos equal ${d3}
variable C3pos equal 115.723046695348
variable C4pos equal ${d4}
variable C4pos equal -2.68713108892652e-09
variable C5pos equal ${d5}
variable C5pos equal 3.37208850742918e-09
variable C6pos equal ${d6}
variable C6pos equal -8.9570881743627e-10

# Combine positive and negative

variable C1${dir} equal 0.5*(${C1neg}+${C1pos})
variable C13 equal 0.5*(${C1neg}+${C1pos})
variable C13 equal 0.5*(63.4537592995912+${C1pos})
variable C13 equal 0.5*(63.4537592995912+65.5316086020321)
variable C2${dir} equal 0.5*(${C2neg}+${C2pos})
variable C23 equal 0.5*(${C2neg}+${C2pos})
variable C23 equal 0.5*(63.4537592995912+${C2pos})
variable C23 equal 0.5*(63.4537592995912+65.5316086020321)
variable C3${dir} equal 0.5*(${C3neg}+${C3pos})
variable C33 equal 0.5*(${C3neg}+${C3pos})
variable C33 equal 0.5*(113.645348604769+${C3pos})
variable C33 equal 0.5*(113.645348604769+115.723046695348)
variable C4${dir} equal 0.5*(${C4neg}+${C4pos})
variable C43 equal 0.5*(${C4neg}+${C4pos})
variable C43 equal 0.5*(9.58938726207169e-09+${C4pos})
variable C43 equal 0.5*(9.58938726207169e-09+-2.68713108892652e-09)
variable C5${dir} equal 0.5*(${C5neg}+${C5pos})
variable C53 equal 0.5*(${C5neg}+${C5pos})
variable C53 equal 0.5*(-3.10864474069475e-09+${C5pos})
variable C53 equal 0.5*(-3.10864474069475e-09+3.37208850742918e-09)
variable C6${dir} equal 0.5*(${C6neg}+${C6pos})
variable C63 equal 0.5*(${C6neg}+${C6pos})
variable C63 equal 0.5*(-2.21293418452799e-09+${C6pos})
variable C63 equal 0.5*(-2.21293418452799e-09+-8.9570881743627e-10)

# Delete dir to make sure it is not reused

variable dir delete
# ---- uyz Perturbation
variable dir equal 4
include displace.mod
# NOTE: This script should not need to be
# modified. See in.elastic for more info.
# Find which reference length to use

if "${dir} == 1" then    "variable len0 equal ${lx0}"
if "${dir} == 2" then    "variable len0 equal ${ly0}"
if "${dir} == 3" then    "variable len0 equal ${lz0}"
if "${dir} == 4" then    "variable len0 equal ${lz0}"
variable len0 equal ${lz0}
variable len0 equal 3.48153300000002
if "${dir} == 5" then    "variable len0 equal ${lz0}"
if "${dir} == 6" then    "variable len0 equal ${ly0}"

# Reset box and simulation parameters

clear
read_restart restart.equil remap
  triclinic box = (0.0175835 0.0175835 0.0175835) to (3.49912 3.49912 3.49912) with tilt (0 -0 0)
  1 by 1 by 1 MPI processor grid
  4 atoms
include potential.mod
mass 1 58.6934

group Ni type 1
4 atoms in group Ni

pair_style eam/alloy
pair_coeff * * /home/sullberg/repos/pypospack/dev/cluster_sampling/dev__cluster_sampling/rank_4/Ni_fcc.lmps_elastic/Ni.eam.alloy Ni

neighbor 1.0 bin
neigh_modify every 1 delay 0 check yes
thermo	1
thermo_style custom step temp pe press pxx pyy pzz pxy pxz pyz lx ly lz vol
thermo_modify norm no

# Negative deformation

variable delta equal -${up}*${len0}
variable delta equal -1e-06*${len0}
variable delta equal -1e-06*3.48153300000002
if "${dir} == 1" then    "change_box all x delta 0 ${delta} remap units box"
if "${dir} == 2" then    "change_box all y delta 0 ${delta} remap units box"
if "${dir} == 3" then    "change_box all z delta 0 ${delta} remap units box"
if "${dir} == 4" then    "change_box all yz delta ${delta} remap units box"
change_box all yz delta ${delta} remap units box
change_box all yz delta -3.48153300000002e-06 remap units box
  triclinic box = (0.0175835 0.0175835 0.0175835) to (3.49912 3.49912 3.49912) with tilt (0 -0 -3.48153e-06)
if "${dir} == 5" then    "change_box all xz delta ${delta} remap units box"
if "${dir} == 6" then    "change_box all xy delta ${delta} remap units box"

# Relax atoms positions

minimize ${etol} ${ftol} ${maxiter} ${maxeval}
minimize 0 ${ftol} ${maxiter} ${maxeval}
minimize 0 1e-10 ${maxiter} ${maxeval}
minimize 0 1e-10 100 ${maxeval}
minimize 0 1e-10 100 1000
Neighbor list info ...
  update every 1 steps, delay 0 steps, check yes
  max neighbors/atom: 2000, page size: 100000
  master list distance cutoff = 5.64464
  ghost atom cutoff = 5.64464
  binsize = 2.82232, bins = 2 2 2
  1 neighbor lists, perpetual/occasional/extra = 1 0 0
  (1) pair eam/alloy, perpetual
      attributes: half, newton on
      pair build: half/bin/newton/tri
      stencil: half/bin/3d/newton/tri
      bin: standard
Per MPI rank memory allocation (min/avg/max) = 4.086 | 4.086 | 4.086 Mbytes
Step Temp PotEng Press Pxx Pyy Pzz Pxy Pxz Pyz Lx Ly Lz Volume 
     100            0   -31.621987   -532417.27   -532417.27   -532417.27   -532417.27 3.846289e-11 -2.6344445e-12    0.7405758     3.481533     3.481533     3.481533    42.199912 
     101            0   -31.621987   -532417.28   -532417.28   -532417.28   -532417.28 -3.7409112e-11 -4.7420001e-12   0.74057581     3.481533     3.481533     3.481533    42.199912 
     102            0   -31.621987   -532417.28   -532417.28   -532417.28   -532417.28 4.4785557e-11 4.4785557e-11   0.74057581     3.481533     3.481533     3.481533    42.199912 
     103            0   -31.621987   -532417.28   -532417.28   -532417.28   -532417.28 4.9000668e-11 3.7936001e-11   0.74057581     3.481533     3.481533     3.481533    42.199912 
Loop time of 0.00011301 on 1 procs for 3 steps with 4 atoms

100.9% CPU use with 1 MPI tasks x no OpenMP threads

Minimization stats:
  Stopping criterion = force tolerance
  Energy initial, next-to-last, final = 
        -31.6219869437     -31.6219869867     -31.6219869867
  Force two-norm initial, final = 0.00101175 3.07855e-15
  Force max component initial, final = 0.000292069 1.75034e-15
  Final line search alpha, max atom move = 1 1.75034e-15
  Iterations, force evaluations = 3 6

MPI task timing breakdown:
Section |  min time  |  avg time  |  max time  |%varavg| %total
---------------------------------------------------------------
Pair    | 6.3419e-05 | 6.3419e-05 | 6.3419e-05 |   0.0 | 56.12
Neigh   | 0          | 0          | 0          |   0.0 |  0.00
Comm    | 1.1444e-05 | 1.1444e-05 | 1.1444e-05 |   0.0 | 10.13
Output  | 1.5736e-05 | 1.5736e-05 | 1.5736e-05 |   0.0 | 13.92
Modify  | 0          | 0          | 0          |   0.0 |  0.00
Other   |            | 2.241e-05  |            |       | 19.83

Nlocal:    4 ave 4 max 4 min
Histogram: 1 0 0 0 0 0 0 0 0 0
Nghost:    360 ave 360 max 360 min
Histogram: 1 0 0 0 0 0 0 0 0 0
Neighs:    156 ave 156 max 156 min
Histogram: 1 0 0 0 0 0 0 0 0 0

Total # of neighbors = 156
Ave neighs/atom = 39
Neighbor list builds = 0
Dangerous builds = 0

# Obtain new stress tensor

variable tmp equal pxx
variable pxx1 equal ${tmp}
variable pxx1 equal -532417.282621166
variable tmp equal pyy
variable pyy1 equal ${tmp}
variable pyy1 equal -532417.282618715
variable tmp equal pzz
variable pzz1 equal ${tmp}
variable pzz1 equal -532417.282617485
variable tmp equal pxy
variable pxy1 equal ${tmp}
variable pxy1 equal 4.90006680142923e-11
variable tmp equal pxz
variable pxz1 equal ${tmp}
variable pxz1 equal 3.7936001043323e-11
variable tmp equal pyz
variable pyz1 equal ${tmp}
variable pyz1 equal 0.740575808236279

# Compute elastic constant from pressure tensor

variable C1neg equal ${d1}
variable C1neg equal -1.03944119764492
variable C2neg equal ${d2}
variable C2neg equal -1.03919609682634
variable C3neg equal ${d3}
variable C3neg equal -1.03907310403883
variable C4neg equal ${d4}
variable C4neg equal 74.0575808239967
variable C5neg equal ${d5}
variable C5neg equal 8.9571113574512e-10
variable C6neg equal ${d6}
variable C6neg equal 3.47746676230462e-09

# Reset box and simulation parameters

clear
read_restart restart.equil remap
  triclinic box = (0.0175835 0.0175835 0.0175835) to (3.49912 3.49912 3.49912) with tilt (0 -0 0)
  1 by 1 by 1 MPI processor grid
  4 atoms
include potential.mod
mass 1 58.6934

group Ni type 1
4 atoms in group Ni

pair_style eam/alloy
pair_coeff * * /home/sullberg/repos/pypospack/dev/cluster_sampling/dev__cluster_sampling/rank_4/Ni_fcc.lmps_elastic/Ni.eam.alloy Ni

neighbor 1.0 bin
neigh_modify every 1 delay 0 check yes
thermo	1
thermo_style custom step temp pe press pxx pyy pzz pxy pxz pyz lx ly lz vol
thermo_modify norm no

# Positive deformation

variable delta equal ${up}*${len0}
variable delta equal 1e-06*${len0}
variable delta equal 1e-06*3.48153300000002
if "${dir} == 1" then    "change_box all x delta 0 ${delta} remap units box"
if "${dir} == 2" then    "change_box all y delta 0 ${delta} remap units box"
if "${dir} == 3" then    "change_box all z delta 0 ${delta} remap units box"
if "${dir} == 4" then    "change_box all yz delta ${delta} remap units box"
change_box all yz delta ${delta} remap units box
change_box all yz delta 3.48153300000002e-06 remap units box
  triclinic box = (0.0175835 0.0175835 0.0175835) to (3.49912 3.49912 3.49912) with tilt (0 -0 3.48153e-06)
if "${dir} == 5" then    "change_box all xz delta ${delta} remap units box"
if "${dir} == 6" then    "change_box all xy delta ${delta} remap units box"

# Relax atoms positions

minimize ${etol} ${ftol} ${maxiter} ${maxeval}
minimize 0 ${ftol} ${maxiter} ${maxeval}
minimize 0 1e-10 ${maxiter} ${maxeval}
minimize 0 1e-10 100 ${maxeval}
minimize 0 1e-10 100 1000
Neighbor list info ...
  update every 1 steps, delay 0 steps, check yes
  max neighbors/atom: 2000, page size: 100000
  master list distance cutoff = 5.64464
  ghost atom cutoff = 5.64464
  binsize = 2.82232, bins = 2 2 2
  1 neighbor lists, perpetual/occasional/extra = 1 0 0
  (1) pair eam/alloy, perpetual
      attributes: half, newton on
      pair build: half/bin/newton/tri
      stencil: half/bin/3d/newton/tri
      bin: standard
Per MPI rank memory allocation (min/avg/max) = 4.086 | 4.086 | 4.086 Mbytes
Step Temp PotEng Press Pxx Pyy Pzz Pxy Pxz Pyz Lx Ly Lz Volume 
     100            0   -31.621987   -532417.27   -532417.27   -532417.27   -532417.27            0 -4.7420001e-12   -0.7405758     3.481533     3.481533     3.481533    42.199912 
     101            0   -31.621987   -532417.28   -532417.28   -532417.28   -532417.28 2.6344445e-12 1.2645334e-11  -0.74057581     3.481533     3.481533     3.481533    42.199912 
     102            0   -31.621987   -532417.28   -532417.28   -532417.28   -532417.28 3.372089e-11 6.269978e-11  -0.74057581     3.481533     3.481533     3.481533    42.199912 
     103            0   -31.621987   -532417.28   -532417.28   -532417.28   -532417.28 -1.3699111e-11 -2.4763778e-11  -0.74057581     3.481533     3.481533     3.481533    42.199912 
Loop time of 0.00011611 on 1 procs for 3 steps with 4 atoms

101.6% CPU use with 1 MPI tasks x no OpenMP threads

Minimization stats:
  Stopping criterion = force tolerance
  Energy initial, next-to-last, final = 
        -31.6219869437     -31.6219869867     -31.6219869867
  Force two-norm initial, final = 0.00101175 5.19593e-15
  Force max component initial, final = 0.000292069 2.77556e-15
  Final line search alpha, max atom move = 1 2.77556e-15
  Iterations, force evaluations = 3 6

MPI task timing breakdown:
Section |  min time  |  avg time  |  max time  |%varavg| %total
---------------------------------------------------------------
Pair    | 6.1989e-05 | 6.1989e-05 | 6.1989e-05 |   0.0 | 53.39
Neigh   | 0          | 0          | 0          |   0.0 |  0.00
Comm    | 2.0742e-05 | 2.0742e-05 | 2.0742e-05 |   0.0 | 17.86
Output  | 1.7166e-05 | 1.7166e-05 | 1.7166e-05 |   0.0 | 14.78
Modify  | 0          | 0          | 0          |   0.0 |  0.00
Other   |            | 1.621e-05  |            |       | 13.96

Nlocal:    4 ave 4 max 4 min
Histogram: 1 0 0 0 0 0 0 0 0 0
Nghost:    360 ave 360 max 360 min
Histogram: 1 0 0 0 0 0 0 0 0 0
Neighs:    156 ave 156 max 156 min
Histogram: 1 0 0 0 0 0 0 0 0 0

Total # of neighbors = 156
Ave neighs/atom = 39
Neighbor list builds = 0
Dangerous builds = 0

# Obtain new stress tensor

variable tmp equal pe
variable e1 equal ${tmp}
variable e1 equal -31.6219869867375
variable tmp equal press
variable p1 equal ${tmp}
variable p1 equal -532417.282619122
variable tmp equal pxx
variable pxx1 equal ${tmp}
variable pxx1 equal -532417.282621166
variable tmp equal pyy
variable pyy1 equal ${tmp}
variable pyy1 equal -532417.282618715
variable tmp equal pzz
variable pzz1 equal ${tmp}
variable pzz1 equal -532417.282617485
variable tmp equal pxy
variable pxy1 equal ${tmp}
variable pxy1 equal -1.36991114878667e-11
variable tmp equal pxz
variable pxz1 equal ${tmp}
variable pxz1 equal -2.47637784588359e-11
variable tmp equal pyz
variable pyz1 equal ${tmp}
variable pyz1 equal -0.740575808139332

# Compute elastic constant from pressure tensor

variable C1pos equal ${d1}
variable C1pos equal 1.03944119764492
variable C2pos equal ${d2}
variable C2pos equal 1.03919609682634
variable C3pos equal ${d3}
variable C3pos equal 1.03907310403883
variable C4pos equal ${d4}
variable C4pos equal 74.0575808135644
variable C5pos equal ${d5}
variable C5pos equal 5.37426681447077e-09
variable C6pos equal ${d6}
variable C6pos equal 2.79251118791128e-09

# Combine positive and negative

variable C1${dir} equal 0.5*(${C1neg}+${C1pos})
variable C14 equal 0.5*(${C1neg}+${C1pos})
variable C14 equal 0.5*(-1.03944119764492+${C1pos})
variable C14 equal 0.5*(-1.03944119764492+1.03944119764492)
variable C2${dir} equal 0.5*(${C2neg}+${C2pos})
variable C24 equal 0.5*(${C2neg}+${C2pos})
variable C24 equal 0.5*(-1.03919609682634+${C2pos})
variable C24 equal 0.5*(-1.03919609682634+1.03919609682634)
variable C3${dir} equal 0.5*(${C3neg}+${C3pos})
variable C34 equal 0.5*(${C3neg}+${C3pos})
variable C34 equal 0.5*(-1.03907310403883+${C3pos})
variable C34 equal 0.5*(-1.03907310403883+1.03907310403883)
variable C4${dir} equal 0.5*(${C4neg}+${C4pos})
variable C44 equal 0.5*(${C4neg}+${C4pos})
variable C44 equal 0.5*(74.0575808239967+${C4pos})
variable C44 equal 0.5*(74.0575808239967+74.0575808135644)
variable C5${dir} equal 0.5*(${C5neg}+${C5pos})
variable C54 equal 0.5*(${C5neg}+${C5pos})
variable C54 equal 0.5*(8.9571113574512e-10+${C5pos})
variable C54 equal 0.5*(8.9571113574512e-10+5.37426681447077e-09)
variable C6${dir} equal 0.5*(${C6neg}+${C6pos})
variable C64 equal 0.5*(${C6neg}+${C6pos})
variable C64 equal 0.5*(3.47746676230462e-09+${C6pos})
variable C64 equal 0.5*(3.47746676230462e-09+2.79251118791128e-09)

# Delete dir to make sure it is not reused

variable dir delete
# ---- uxz Perturbation
variable dir equal 5
include displace.mod
# NOTE: This script should not need to be
# modified. See in.elastic for more info.
# Find which reference length to use

if "${dir} == 1" then    "variable len0 equal ${lx0}"
if "${dir} == 2" then    "variable len0 equal ${ly0}"
if "${dir} == 3" then    "variable len0 equal ${lz0}"
if "${dir} == 4" then    "variable len0 equal ${lz0}"
if "${dir} == 5" then    "variable len0 equal ${lz0}"
variable len0 equal ${lz0}
variable len0 equal 3.48153300000002
if "${dir} == 6" then    "variable len0 equal ${ly0}"

# Reset box and simulation parameters

clear
read_restart restart.equil remap
  triclinic box = (0.0175835 0.0175835 0.0175835) to (3.49912 3.49912 3.49912) with tilt (0 -0 0)
  1 by 1 by 1 MPI processor grid
  4 atoms
include potential.mod
mass 1 58.6934

group Ni type 1
4 atoms in group Ni

pair_style eam/alloy
pair_coeff * * /home/sullberg/repos/pypospack/dev/cluster_sampling/dev__cluster_sampling/rank_4/Ni_fcc.lmps_elastic/Ni.eam.alloy Ni

neighbor 1.0 bin
neigh_modify every 1 delay 0 check yes
thermo	1
thermo_style custom step temp pe press pxx pyy pzz pxy pxz pyz lx ly lz vol
thermo_modify norm no

# Negative deformation

variable delta equal -${up}*${len0}
variable delta equal -1e-06*${len0}
variable delta equal -1e-06*3.48153300000002
if "${dir} == 1" then    "change_box all x delta 0 ${delta} remap units box"
if "${dir} == 2" then    "change_box all y delta 0 ${delta} remap units box"
if "${dir} == 3" then    "change_box all z delta 0 ${delta} remap units box"
if "${dir} == 4" then    "change_box all yz delta ${delta} remap units box"
if "${dir} == 5" then    "change_box all xz delta ${delta} remap units box"
change_box all xz delta ${delta} remap units box
change_box all xz delta -3.48153300000002e-06 remap units box
  triclinic box = (0.0175835 0.0175835 0.0175835) to (3.49912 3.49912 3.49912) with tilt (0 -3.48153e-06 0)
if "${dir} == 6" then    "change_box all xy delta ${delta} remap units box"

# Relax atoms positions

minimize ${etol} ${ftol} ${maxiter} ${maxeval}
minimize 0 ${ftol} ${maxiter} ${maxeval}
minimize 0 1e-10 ${maxiter} ${maxeval}
minimize 0 1e-10 100 ${maxeval}
minimize 0 1e-10 100 1000
Neighbor list info ...
  update every 1 steps, delay 0 steps, check yes
  max neighbors/atom: 2000, page size: 100000
  master list distance cutoff = 5.64464
  ghost atom cutoff = 5.64464
  binsize = 2.82232, bins = 2 2 2
  1 neighbor lists, perpetual/occasional/extra = 1 0 0
  (1) pair eam/alloy, perpetual
      attributes: half, newton on
      pair build: half/bin/newton/tri
      stencil: half/bin/3d/newton/tri
      bin: standard
Per MPI rank memory allocation (min/avg/max) = 4.086 | 4.086 | 4.086 Mbytes
Step Temp PotEng Press Pxx Pyy Pzz Pxy Pxz Pyz Lx Ly Lz Volume 
     100            0   -31.621987   -532417.27   -532417.27   -532417.27   -532417.27 7.692578e-11    0.7405758 2.4763778e-11     3.481533     3.481533     3.481533    42.199912 
     101            0   -31.621987   -532417.28   -532417.28   -532417.28   -532417.28 3.1613334e-12   0.74057581 -3.372089e-11     3.481533     3.481533     3.481533    42.199912 
     102            0   -31.621987   -532417.28   -532417.28   -532417.28   -532417.28 2.897889e-11   0.74057581 1.8441112e-11     3.481533     3.481533     3.481533    42.199912 
     103            0   -31.621987   -532417.28   -532417.28   -532417.28   -532417.28 -3.6355334e-11   0.74057581 -7.9560224e-11     3.481533     3.481533     3.481533    42.199912 
Loop time of 0.000111103 on 1 procs for 3 steps with 4 atoms

99.9% CPU use with 1 MPI tasks x no OpenMP threads

Minimization stats:
  Stopping criterion = force tolerance
  Energy initial, next-to-last, final = 
        -31.6219869437     -31.6219869867     -31.6219869867
  Force two-norm initial, final = 0.00101175 4.12116e-15
  Force max component initial, final = 0.000292069 2.38698e-15
  Final line search alpha, max atom move = 1 2.38698e-15
  Iterations, force evaluations = 3 6

MPI task timing breakdown:
Section |  min time  |  avg time  |  max time  |%varavg| %total
---------------------------------------------------------------
Pair    | 6.5088e-05 | 6.5088e-05 | 6.5088e-05 |   0.0 | 58.58
Neigh   | 0          | 0          | 0          |   0.0 |  0.00
Comm    | 1.2159e-05 | 1.2159e-05 | 1.2159e-05 |   0.0 | 10.94
Output  | 1.5974e-05 | 1.5974e-05 | 1.5974e-05 |   0.0 | 14.38
Modify  | 0          | 0          | 0          |   0.0 |  0.00
Other   |            | 1.788e-05  |            |       | 16.09

Nlocal:    4 ave 4 max 4 min
Histogram: 1 0 0 0 0 0 0 0 0 0
Nghost:    360 ave 360 max 360 min
Histogram: 1 0 0 0 0 0 0 0 0 0
Neighs:    156 ave 156 max 156 min
Histogram: 1 0 0 0 0 0 0 0 0 0

Total # of neighbors = 156
Ave neighs/atom = 39
Neighbor list builds = 0
Dangerous builds = 0

# Obtain new stress tensor

variable tmp equal pxx
variable pxx1 equal ${tmp}
variable pxx1 equal -532417.282618715
variable tmp equal pyy
variable pyy1 equal ${tmp}
variable pyy1 equal -532417.282621166
variable tmp equal pzz
variable pzz1 equal ${tmp}
variable pzz1 equal -532417.282617485
variable tmp equal pxy
variable pxy1 equal ${tmp}
variable pxy1 equal -3.63553343331846e-11
variable tmp equal pxz
variable pxz1 equal ${tmp}
variable pxz1 equal 0.740575808093493
variable tmp equal pyz
variable pyz1 equal ${tmp}
variable pyz1 equal -7.95602244103025e-11

# Compute elastic constant from pressure tensor

variable C1neg equal ${d1}
variable C1neg equal -1.03919609682634
variable C2neg equal ${d2}
variable C2neg equal -1.03944119764492
variable C3neg equal ${d3}
variable C3neg equal -1.03907310403883
variable C4neg equal ${d4}
variable C4neg equal -7.58720020866461e-09
variable C5neg equal ${d5}
variable C5neg equal 74.0575808064514
variable C6neg equal ${d6}
variable C6neg equal -5.05813347244307e-09

# Reset box and simulation parameters

clear
read_restart restart.equil remap
  triclinic box = (0.0175835 0.0175835 0.0175835) to (3.49912 3.49912 3.49912) with tilt (0 -0 0)
  1 by 1 by 1 MPI processor grid
  4 atoms
include potential.mod
mass 1 58.6934

group Ni type 1
4 atoms in group Ni

pair_style eam/alloy
pair_coeff * * /home/sullberg/repos/pypospack/dev/cluster_sampling/dev__cluster_sampling/rank_4/Ni_fcc.lmps_elastic/Ni.eam.alloy Ni

neighbor 1.0 bin
neigh_modify every 1 delay 0 check yes
thermo	1
thermo_style custom step temp pe press pxx pyy pzz pxy pxz pyz lx ly lz vol
thermo_modify norm no

# Positive deformation

variable delta equal ${up}*${len0}
variable delta equal 1e-06*${len0}
variable delta equal 1e-06*3.48153300000002
if "${dir} == 1" then    "change_box all x delta 0 ${delta} remap units box"
if "${dir} == 2" then    "change_box all y delta 0 ${delta} remap units box"
[...]
  Iterations, force evaluations = 3 6

MPI task timing breakdown:
Section |  min time  |  avg time  |  max time  |%varavg| %total
---------------------------------------------------------------
Pair    | 6.5327e-05 | 6.5327e-05 | 6.5327e-05 |   0.0 | 57.32
Neigh   | 0          | 0          | 0          |   0.0 |  0.00
Comm    | 1.049e-05  | 1.049e-05  | 1.049e-05  |   0.0 |  9.21
Output  | 1.6212e-05 | 1.6212e-05 | 1.6212e-05 |   0.0 | 14.23
Modify  | 0          | 0          | 0          |   0.0 |  0.00
Other   |            | 2.193e-05  |            |       | 19.25

Nlocal:    4 ave 4 max 4 min
Histogram: 1 0 0 0 0 0 0 0 0 0
Nghost:    360 ave 360 max 360 min
Histogram: 1 0 0 0 0 0 0 0 0 0
Neighs:    156 ave 156 max 156 min
Histogram: 1 0 0 0 0 0 0 0 0 0

Total # of neighbors = 156
Ave neighs/atom = 39
Neighbor list builds = 0
Dangerous builds = 0

# Obtain new stress tensor

variable tmp equal pe
variable e1 equal ${tmp}
variable e1 equal -31.6219869867375
variable tmp equal press
variable p1 equal ${tmp}
variable p1 equal -532417.282619121
variable tmp equal pxx
variable pxx1 equal ${tmp}
variable pxx1 equal -532417.282618714
variable tmp equal pyy
variable pyy1 equal ${tmp}
variable pyy1 equal -532417.282621166
variable tmp equal pzz
variable pzz1 equal ${tmp}
variable pzz1 equal -532417.282617485
variable tmp equal pxy
variable pxy1 equal ${tmp}
variable pxy1 equal 1.42260003912461e-11
variable tmp equal pxz
variable pxz1 equal ${tmp}
variable pxz1 equal -0.740575808121418
variable tmp equal pyz
variable pyz1 equal ${tmp}
variable pyz1 equal 4.90006680142923e-11

# Compute elastic constant from pressure tensor

variable C1pos equal ${d1}
variable C1pos equal 1.03919600369409
variable C2pos equal ${d2}
variable C2pos equal 1.03944119764492
variable C3pos equal ${d3}
variable C3pos equal 1.03907310403883
variable C4pos equal ${d4}
variable C4pos equal -5.26888903379487e-09
variable C5pos equal ${d5}
variable C5pos equal 74.0575808150397
variable C6pos equal ${d6}
variable C6pos equal -0

# Combine positive and negative

variable C1${dir} equal 0.5*(${C1neg}+${C1pos})
variable C15 equal 0.5*(${C1neg}+${C1pos})
variable C15 equal 0.5*(-1.03919609682634+${C1pos})
variable C15 equal 0.5*(-1.03919609682634+1.03919600369409)
variable C2${dir} equal 0.5*(${C2neg}+${C2pos})
variable C25 equal 0.5*(${C2neg}+${C2pos})
variable C25 equal 0.5*(-1.03944119764492+${C2pos})
variable C25 equal 0.5*(-1.03944119764492+1.03944119764492)
variable C3${dir} equal 0.5*(${C3neg}+${C3pos})
variable C35 equal 0.5*(${C3neg}+${C3pos})
variable C35 equal 0.5*(-1.03907310403883+${C3pos})
variable C35 equal 0.5*(-1.03907310403883+1.03907310403883)
variable C4${dir} equal 0.5*(${C4neg}+${C4pos})
variable C45 equal 0.5*(${C4neg}+${C4pos})
variable C45 equal 0.5*(-7.58720020866461e-09+${C4pos})
variable C45 equal 0.5*(-7.58720020866461e-09+-5.26888903379487e-09)
variable C5${dir} equal 0.5*(${C5neg}+${C5pos})
variable C55 equal 0.5*(${C5neg}+${C5pos})
variable C55 equal 0.5*(74.0575808064514+${C5pos})
variable C55 equal 0.5*(74.0575808064514+74.0575808150397)
variable C6${dir} equal 0.5*(${C6neg}+${C6pos})
variable C65 equal 0.5*(${C6neg}+${C6pos})
variable C65 equal 0.5*(-5.05813347244307e-09+${C6pos})
variable C65 equal 0.5*(-5.05813347244307e-09+-0)

# Delete dir to make sure it is not reused

variable dir delete
# ---- uxy Perturbation
variable dir equal 6
include displace.mod
# NOTE: This script should not need to be
# modified. See in.elastic for more info.
# Find which reference length to use

if "${dir} == 1" then    "variable len0 equal ${lx0}"
if "${dir} == 2" then    "variable len0 equal ${ly0}"
if "${dir} == 3" then    "variable len0 equal ${lz0}"
if "${dir} == 4" then    "variable len0 equal ${lz0}"
if "${dir} == 5" then    "variable len0 equal ${lz0}"
if "${dir} == 6" then    "variable len0 equal ${ly0}"
variable len0 equal ${ly0}
variable len0 equal 3.48153300000002

# Reset box and simulation parameters

clear
read_restart restart.equil remap
  triclinic box = (0.0175835 0.0175835 0.0175835) to (3.49912 3.49912 3.49912) with tilt (0 -0 0)
  1 by 1 by 1 MPI processor grid
  4 atoms
include potential.mod
mass 1 58.6934

group Ni type 1
4 atoms in group Ni

pair_style eam/alloy
pair_coeff * * /home/sullberg/repos/pypospack/dev/cluster_sampling/dev__cluster_sampling/rank_4/Ni_fcc.lmps_elastic/Ni.eam.alloy Ni

neighbor 1.0 bin
neigh_modify every 1 delay 0 check yes
thermo	1
thermo_style custom step temp pe press pxx pyy pzz pxy pxz pyz lx ly lz vol
thermo_modify norm no

# Negative deformation

variable delta equal -${up}*${len0}
variable delta equal -1e-06*${len0}
variable delta equal -1e-06*3.48153300000002
if "${dir} == 1" then    "change_box all x delta 0 ${delta} remap units box"
if "${dir} == 2" then    "change_box all y delta 0 ${delta} remap units box"
if "${dir} == 3" then    "change_box all z delta 0 ${delta} remap units box"
if "${dir} == 4" then    "change_box all yz delta ${delta} remap units box"
if "${dir} == 5" then    "change_box all xz delta ${delta} remap units box"
if "${dir} == 6" then    "change_box all xy delta ${delta} remap units box"
change_box all xy delta ${delta} remap units box
change_box all xy delta -3.48153300000002e-06 remap units box
  triclinic box = (0.0175835 0.0175835 0.0175835) to (3.49912 3.49912 3.49912) with tilt (-3.48153e-06 -0 0)

# Relax atoms positions

minimize ${etol} ${ftol} ${maxiter} ${maxeval}
minimize 0 ${ftol} ${maxiter} ${maxeval}
minimize 0 1e-10 ${maxiter} ${maxeval}
minimize 0 1e-10 100 ${maxeval}
minimize 0 1e-10 100 1000
Neighbor list info ...
  update every 1 steps, delay 0 steps, check yes
  max neighbors/atom: 2000, page size: 100000
  master list distance cutoff = 5.64464
  ghost atom cutoff = 5.64464
  binsize = 2.82232, bins = 2 2 2
  1 neighbor lists, perpetual/occasional/extra = 1 0 0
  (1) pair eam/alloy, perpetual
      attributes: half, newton on
      pair build: half/bin/newton/tri
      stencil: half/bin/3d/newton/tri
      bin: standard
Per MPI rank memory allocation (min/avg/max) = 4.086 | 4.086 | 4.086 Mbytes
Step Temp PotEng Press Pxx Pyy Pzz Pxy Pxz Pyz Lx Ly Lz Volume 
     100            0   -31.621987   -532417.27   -532417.27   -532417.27   -532417.27    0.7405758 3.3194001e-11 5.743089e-11     3.481533     3.481533     3.481533    42.199912 
     101            0   -31.621987   -532417.28   -532417.28   -532417.28   -532417.28   0.74057581 -1.4752889e-11 2.8452001e-11     3.481533     3.481533     3.481533    42.199912 
     102            0   -31.621987   -532417.28   -532417.28   -532417.28   -532417.28   0.74057581 3.1613334e-11 -5.6377113e-11     3.481533     3.481533     3.481533    42.199912 
     103            0   -31.621987   -532417.28   -532417.28   -532417.28   -532417.28   0.74057581 -5.3742668e-11 1.0537778e-12     3.481533     3.481533     3.481533    42.199912 
Loop time of 0.00010705 on 1 procs for 3 steps with 4 atoms

100.9% CPU use with 1 MPI tasks x no OpenMP threads

Minimization stats:
  Stopping criterion = force tolerance
  Energy initial, next-to-last, final = 
        -31.6219869437     -31.6219869867     -31.6219869867
  Force two-norm initial, final = 0.00101175 2.493e-15
  Force max component initial, final = 0.000292069 1.52309e-15
  Final line search alpha, max atom move = 1 1.52309e-15
  Iterations, force evaluations = 3 6

MPI task timing breakdown:
Section |  min time  |  avg time  |  max time  |%varavg| %total
---------------------------------------------------------------
Pair    | 6.2943e-05 | 6.2943e-05 | 6.2943e-05 |   0.0 | 58.80
Neigh   | 0          | 0          | 0          |   0.0 |  0.00
Comm    | 1.1683e-05 | 1.1683e-05 | 1.1683e-05 |   0.0 | 10.91
Output  | 1.5974e-05 | 1.5974e-05 | 1.5974e-05 |   0.0 | 14.92
Modify  | 0          | 0          | 0          |   0.0 |  0.00
Other   |            | 1.645e-05  |            |       | 15.37

Nlocal:    4 ave 4 max 4 min
Histogram: 1 0 0 0 0 0 0 0 0 0
Nghost:    360 ave 360 max 360 min
Histogram: 1 0 0 0 0 0 0 0 0 0
Neighs:    156 ave 156 max 156 min
Histogram: 1 0 0 0 0 0 0 0 0 0

Total # of neighbors = 156
Ave neighs/atom = 39
Neighbor list builds = 0
Dangerous builds = 0

# Obtain new stress tensor

variable tmp equal pxx
variable pxx1 equal ${tmp}
variable pxx1 equal -532417.282618715
variable tmp equal pyy
variable pyy1 equal ${tmp}
variable pyy1 equal -532417.282617485
variable tmp equal pzz
variable pzz1 equal ${tmp}
variable pzz1 equal -532417.282621166
variable tmp equal pxy
variable pxy1 equal ${tmp}
variable pxy1 equal 0.74057580819044
variable tmp equal pxz
variable pxz1 equal ${tmp}
variable pxz1 equal -5.37426681447076e-11
variable tmp equal pyz
variable pyz1 equal ${tmp}
variable pyz1 equal 1.05377780675897e-12

# Compute elastic constant from pressure tensor

variable C1neg equal ${d1}
variable C1neg equal -1.03919609682634
variable C2neg equal ${d2}
variable C2neg equal -1.03907310403883
variable C3neg equal ${d3}
variable C3neg equal -1.03944119764492
variable C4neg equal ${d4}
variable C4neg equal 4.74200013041538e-10
variable C5neg equal ${d5}
variable C5neg equal -8.27215578305794e-09
variable C6neg equal ${d6}
variable C6neg equal 74.0575808176214

# Reset box and simulation parameters

clear
read_restart restart.equil remap
  triclinic box = (0.0175835 0.0175835 0.0175835) to (3.49912 3.49912 3.49912) with tilt (0 -0 0)
  1 by 1 by 1 MPI processor grid
  4 atoms
include potential.mod
mass 1 58.6934

group Ni type 1
4 atoms in group Ni

pair_style eam/alloy
pair_coeff * * /home/sullberg/repos/pypospack/dev/cluster_sampling/dev__cluster_sampling/rank_4/Ni_fcc.lmps_elastic/Ni.eam.alloy Ni

neighbor 1.0 bin
neigh_modify every 1 delay 0 check yes
thermo	1
thermo_style custom step temp pe press pxx pyy pzz pxy pxz pyz lx ly lz vol
thermo_modify norm no

# Positive deformation

variable delta equal ${up}*${len0}
variable delta equal 1e-06*${len0}
variable delta equal 1e-06*3.48153300000002
if "${dir} == 1" then    "change_box all x delta 0 ${delta} remap units box"
if "${dir} == 2" then    "change_box all y delta 0 ${delta} remap units box"
if "${dir} == 3" then    "change_box all z delta 0 ${delta} remap units box"
if "${dir} == 4" then    "change_box all yz delta ${delta} remap units box"
if "${dir} == 5" then    "change_box all xz delta ${delta} remap units box"
if "${dir} == 6" then    "change_box all xy delta ${delta} remap units box"
change_box all xy delta ${delta} remap units box
change_box all xy delta 3.48153300000002e-06 remap units box
  triclinic box = (0.0175835 0.0175835 0.0175835) to (3.49912 3.49912 3.49912) with tilt (3.48153e-06 -0 0)

# Relax atoms positions

minimize ${etol} ${ftol} ${maxiter} ${maxeval}
minimize 0 ${ftol} ${maxiter} ${maxeval}
minimize 0 1e-10 ${maxiter} ${maxeval}
minimize 0 1e-10 100 ${maxeval}
minimize 0 1e-10 100 1000
Neighbor list info ...
  update every 1 steps, delay 0 steps, check yes
  max neighbors/atom: 2000, page size: 100000
  master list distance cutoff = 5.64464
  ghost atom cutoff = 5.64464
  binsize = 2.82232, bins = 2 2 2
  1 neighbor lists, perpetual/occasional/extra = 1 0 0
  (1) pair eam/alloy, perpetual
      attributes: half, newton on
      pair build: half/bin/newton/tri
      stencil: half/bin/3d/newton/tri
      bin: standard
Per MPI rank memory allocation (min/avg/max) = 4.086 | 4.086 | 4.086 Mbytes
Step Temp PotEng Press Pxx Pyy Pzz Pxy Pxz Pyz Lx Ly Lz Volume 
     100            0   -31.621987   -532417.27   -532417.27   -532417.27   -532417.27   -0.7405758 5.7957779e-12 1.5279778e-11     3.481533     3.481533     3.481533    42.199912 
     101            0   -31.621987   -532417.28   -532417.28   -532417.28   -532417.28  -0.74057581 5.3215779e-11 1.5279778e-11     3.481533     3.481533     3.481533    42.199912 
     102            0   -31.621987   -532417.28   -532417.28   -532417.28   -532417.28  -0.74057581 -7.9033336e-12 -5.7957779e-12     3.481533     3.481533     3.481533    42.199912 
     103            0   -31.621987   -532417.28   -532417.28   -532417.28   -532417.28  -0.74057581 6.4807335e-11 -4.2151112e-11     3.481533     3.481533     3.481533    42.199912 
Loop time of 0.00010705 on 1 procs for 3 steps with 4 atoms

90.6% CPU use with 1 MPI tasks x no OpenMP threads

Minimization stats:
  Stopping criterion = force tolerance
  Energy initial, next-to-last, final = 
        -31.6219869437     -31.6219869867     -31.6219869867
  Force two-norm initial, final = 0.00101175 3.74025e-15
  Force max component initial, final = 0.000292069 1.89432e-15
  Final line search alpha, max atom move = 1 1.89432e-15
  Iterations, force evaluations = 3 6

MPI task timing breakdown:
Section |  min time  |  avg time  |  max time  |%varavg| %total
---------------------------------------------------------------
Pair    | 6.3419e-05 | 6.3419e-05 | 6.3419e-05 |   0.0 | 59.24
Neigh   | 0          | 0          | 0          |   0.0 |  0.00
Comm    | 1.3828e-05 | 1.3828e-05 | 1.3828e-05 |   0.0 | 12.92
Output  | 1.5736e-05 | 1.5736e-05 | 1.5736e-05 |   0.0 | 14.70
Modify  | 0          | 0          | 0          |   0.0 |  0.00
Other   |            | 1.407e-05  |            |       | 13.14

Nlocal:    4 ave 4 max 4 min
Histogram: 1 0 0 0 0 0 0 0 0 0
Nghost:    360 ave 360 max 360 min
Histogram: 1 0 0 0 0 0 0 0 0 0
Neighs:    156 ave 156 max 156 min
Histogram: 1 0 0 0 0 0 0 0 0 0

Total # of neighbors = 156
Ave neighs/atom = 39
Neighbor list builds = 0
Dangerous builds = 0

# Obtain new stress tensor

variable tmp equal pe
variable e1 equal ${tmp}
variable e1 equal -31.6219869867375
variable tmp equal press
variable p1 equal ${tmp}
variable p1 equal -532417.282619122
variable tmp equal pxx
variable pxx1 equal ${tmp}
variable pxx1 equal -532417.282618715
variable tmp equal pyy
variable pyy1 equal ${tmp}
variable pyy1 equal -532417.282617485
variable tmp equal pzz
variable pzz1 equal ${tmp}
variable pzz1 equal -532417.282621166
variable tmp equal pxy
variable pxy1 equal ${tmp}
variable pxy1 equal -0.74057580813459
variable tmp equal pxz
variable pxz1 equal ${tmp}
variable pxz1 equal 6.48073351156769e-11
variable tmp equal pyz
variable pyz1 equal ${tmp}
variable pyz1 equal -4.21511122703589e-11

# Compute elastic constant from pressure tensor

variable C1pos equal ${d1}
variable C1pos equal 1.03919609682634
variable C2pos equal ${d2}
variable C2pos equal 1.03907310403883
variable C3pos equal ${d3}
variable C3pos equal 1.03944119764492
variable C4pos equal ${d4}
variable C4pos equal 3.84628899467025e-09
variable C5pos equal ${d5}
variable C5pos equal -3.58284454298051e-09
variable C6pos equal ${d6}
variable C6pos equal 74.0575808148816

# Combine positive and negative

variable C1${dir} equal 0.5*(${C1neg}+${C1pos})
variable C16 equal 0.5*(${C1neg}+${C1pos})
variable C16 equal 0.5*(-1.03919609682634+${C1pos})
variable C16 equal 0.5*(-1.03919609682634+1.03919609682634)
variable C2${dir} equal 0.5*(${C2neg}+${C2pos})
variable C26 equal 0.5*(${C2neg}+${C2pos})
variable C26 equal 0.5*(-1.03907310403883+${C2pos})
variable C26 equal 0.5*(-1.03907310403883+1.03907310403883)
variable C3${dir} equal 0.5*(${C3neg}+${C3pos})
variable C36 equal 0.5*(${C3neg}+${C3pos})
variable C36 equal 0.5*(-1.03944119764492+${C3pos})
variable C36 equal 0.5*(-1.03944119764492+1.03944119764492)
variable C4${dir} equal 0.5*(${C4neg}+${C4pos})
variable C46 equal 0.5*(${C4neg}+${C4pos})
variable C46 equal 0.5*(4.74200013041538e-10+${C4pos})
variable C46 equal 0.5*(4.74200013041538e-10+3.84628899467025e-09)
variable C5${dir} equal 0.5*(${C5neg}+${C5pos})
variable C56 equal 0.5*(${C5neg}+${C5pos})
variable C56 equal 0.5*(-8.27215578305794e-09+${C5pos})
variable C56 equal 0.5*(-8.27215578305794e-09+-3.58284454298051e-09)
variable C6${dir} equal 0.5*(${C6neg}+${C6pos})
variable C66 equal 0.5*(${C6neg}+${C6pos})
variable C66 equal 0.5*(74.0575808176214+${C6pos})
variable C66 equal 0.5*(74.0575808176214+74.0575808148816)

# Delete dir to make sure it is not reused

variable dir delete

# ---- Output final values
variable C11all equal ${C11}
variable C11all equal 114.684197702446
variable C22all equal ${C22}
variable C22all equal 114.684197702446
variable C33all equal ${C33}
variable C33all equal 114.684197650059
variable C12all equal 0.5*(${C12}+${C21})
variable C12all equal 0.5*(64.4926839508117+${C21})
variable C12all equal 0.5*(64.4926839508117+64.4926839508117)
variable C13all equal 0.5*(${C13}+${C31})
variable C13all equal 0.5*(64.4926839508117+${C31})
variable C13all equal 0.5*(64.4926839508117+64.4926839508117)
variable C23all equal 0.5*(${C23}+${C32})
variable C23all equal 0.5*(64.4926839508117+${C32})
variable C23all equal 0.5*(64.4926839508117+64.4926839508117)
variable C44all equal ${C44}
variable C44all equal 74.0575808187806
variable C55all equal ${C55}
variable C55all equal 74.0575808107455
variable C66all equal ${C66}
variable C66all equal 74.0575808162515
variable C14all equal 0.5*(${C14}+${C41})
variable C14all equal 0.5*(0+${C41})
variable C14all equal 0.5*(0+-2.05486825115988e-09)
variable C15all equal 0.5*(${C15}+${C51})
variable C15all equal 0.5*(-4.65661250670379e-08+${C51})
variable C15all equal 0.5*(-4.65661250670379e-08+3.02961338102403e-09)
variable C16all equal 0.5*(${C16}+${C61})
variable C16all equal 0.5*(0+${C61})
variable C16all equal 0.5*(0+5.2690997893615e-11)
variable C24all equal 0.5*(${C24}+${C42})
variable C24all equal 0.5*(0+${C42})
variable C24all equal 0.5*(0+-9.74749819175395e-10)
variable C25all equal 0.5*(${C25}+${C52})
variable C25all equal 0.5*(0+${C52})
variable C25all equal 0.5*(0+-2.45003168832812e-09)
variable C26all equal 0.5*(${C26}+${C62})
variable C26all equal 0.5*(0+${C62})
variable C26all equal 0.5*(0+-1.8441425117198e-10)
variable C34all equal 0.5*(${C34}+${C43})
variable C34all equal 0.5*(0+${C43})
variable C34all equal 0.5*(0+3.45112808657258e-09)
variable C35all equal 0.5*(${C35}+${C53})
variable C35all equal 0.5*(0+${C53})
variable C35all equal 0.5*(0+1.31721883367215e-10)
variable C36all equal 0.5*(${C36}+${C63})
variable C36all equal 0.5*(0+${C63})
variable C36all equal 0.5*(0+-1.55432150098213e-09)
variable C45all equal 0.5*(${C45}+${C54})
variable C45all equal 0.5*(-6.42804462122974e-09+${C54})
variable C45all equal 0.5*(-6.42804462122974e-09+3.13498897510795e-09)
variable C46all equal 0.5*(${C46}+${C64})
variable C46all equal 0.5*(2.16024450385589e-09+${C64})
variable C46all equal 0.5*(2.16024450385589e-09+3.13498897510795e-09)
variable C56all equal 0.5*(${C56}+${C65})
variable C56all equal 0.5*(-5.92750016301922e-09+${C65})
variable C56all equal 0.5*(-5.92750016301922e-09+-2.52906673622154e-09)

print "c11 = ${C11all} ${cunits}"
c11 = 114.684197702446 GPa
print "c22 = ${C22all} ${cunits}"
c22 = 114.684197702446 GPa
print "c33 = ${C33all} ${cunits}"
c33 = 114.684197650059 GPa
print "c12 = ${C12all} ${cunits}"
c12 = 64.4926839508117 GPa
print "c13 = ${C13all} ${cunits}"
c13 = 64.4926839508117 GPa
print "c23 = ${C23all} ${cunits}"
c23 = 64.4926839508117 GPa
print "c44 = ${C44all} ${cunits}"
c44 = 74.0575808187806 GPa
print "c55 = ${C55all} ${cunits}"
c55 = 74.0575808107455 GPa
print "c66 = ${C66all} ${cunits}"
c66 = 74.0575808162515 GPa
print "c14 = ${C14all} ${cunits}"
c14 = -1.02743412557994e-09 GPa
print "c15 = ${C15all} ${cunits}"
c15 = -2.17682558430069e-08 GPa
print "c16 = ${C16all} ${cunits}"
c16 = 2.63454989468075e-11 GPa
print "c24 = ${C24all} ${cunits}"
c24 = -4.87374909587698e-10 GPa
print "c25 = ${C25all} ${cunits}"
c25 = -1.22501584416406e-09 GPa
print "c26 = ${C26all} ${cunits}"
c26 = -9.220712558599e-11 GPa
print "c34 = ${C34all} ${cunits}"
c34 = 1.72556404328629e-09 GPa
print "c35 = ${C35all} ${cunits}"
c35 = 6.58609416836075e-11 GPa
print "c36 = ${C36all} ${cunits}"
c36 = -7.77160750491065e-10 GPa
print "c45 = ${C45all} ${cunits}"
c45 = -1.64652782306089e-09 GPa
print "c46 = ${C46all} ${cunits}"
c46 = 2.64761673948192e-09 GPa
print "c56 = ${C56all} ${cunits}"
c56 = -4.22828344962038e-09 GPa
print "lammps_sim_done"
lammps_sim_done
Total wall time: 0:00:00
