# ['Ni']

10 atoms
1 atom types

    0.0000     3.4981 xlo xhi
    0.0000     2.5041 ylo yhi
    0.0000    25.0406 zlo zhi

    0.0000     0.0000     0.0000 xy xz yz

Atoms

1 1     0.0000     0.0000     0.0000
2 1     1.7490     1.2520     1.2520
3 1     0.0000     0.0000     2.5041
4 1     1.7490     1.2520     3.7561
5 1     0.0000     0.0000     5.0081
6 1     1.7490     1.2520     6.2601
7 1     0.0000     0.0000     7.5122
8 1     1.7490     1.2520     8.7642
9 1     0.0000     0.0000    10.0162
10 1     1.7490     1.2520    11.2683
