# ['Ni']

20 atoms
1 atom types

    0.0000     3.6385 xlo xhi
    0.0000     3.6385 ylo yhi
    0.0000    36.3847 zlo zhi

    0.0000    -0.0000     0.0000 xy xz yz

Atoms

1 1     0.0000     0.0000     0.0000
2 1     1.8192     1.8192     0.0000
3 1     1.8192     0.0000     1.8192
4 1     0.0000     1.8192     1.8192
5 1     0.0000     0.0000     3.6385
6 1     1.8192     1.8192     3.6385
7 1     1.8192     0.0000     5.4577
8 1     0.0000     1.8192     5.4577
9 1     0.0000     0.0000     7.2769
10 1     1.8192     1.8192     7.2769
11 1     1.8192     0.0000     9.0962
12 1     0.0000     1.8192     9.0962
13 1     0.0000     0.0000    10.9154
14 1     1.8192     1.8192    10.9154
15 1     1.8192     0.0000    12.7346
16 1     0.0000     1.8192    12.7346
17 1     0.0000     0.0000    14.5539
18 1     1.8192     1.8192    14.5539
19 1     1.8192     0.0000    16.3731
20 1     0.0000     1.8192    16.3731
