# ['Ni']

28 atoms
1 atom types

    0.0000     2.4896 xlo xhi
    0.0000     4.3121 ylo yhi
    0.0000    28.4587 zlo zhi

    0.0000     0.0000     0.0000 xy xz yz

Atoms

1 1     0.0000     0.0000     0.0000
2 1     1.2448     2.1561     0.0000
3 1     1.2448     0.7187     2.0328
4 1     0.0000     2.8748     2.0328
5 1     0.0000     1.4374     4.0655
6 1     1.2448     3.5934     4.0655
7 1     0.0000     0.0000     6.0983
8 1     1.2448     2.1561     6.0983
9 1     1.2448     0.7187     8.1310
10 1     0.0000     2.8748     8.1310
11 1     0.0000     1.4374    10.1638
12 1     1.2448     3.5934    10.1638
13 1     0.0000     0.0000    12.1966
14 1     1.2448     2.1561    12.1966
15 1     0.0000     1.4374    14.2293
16 1     1.2448     3.5934    14.2293
17 1     0.0000     0.0000    16.2621
18 1     1.2448     2.1561    16.2621
19 1     1.2448     0.7187    18.2949
20 1     0.0000     2.8748    18.2949
21 1     0.0000     1.4374    20.3276
22 1     1.2448     3.5934    20.3276
23 1     0.0000     0.0000    22.3604
24 1     1.2448     2.1561    22.3604
25 1     1.2448     0.7187    24.3931
26 1     0.0000     2.8748    24.3931
27 1     0.0000     1.4374    26.4259
28 1     1.2448     3.5934    26.4259
