# ['Ni']

28 atoms
1 atom types

    0.0000     2.2872 xlo xhi
    0.0000     3.9615 ylo yhi
    0.0000    26.1443 zlo zhi

    0.0000     0.0000     0.0000 xy xz yz

Atoms

1 1     0.0000     0.0000     0.0000
2 1     1.1436     1.9807     0.0000
3 1     1.1436     0.6602     1.8675
4 1     0.0000     2.6410     1.8675
5 1     0.0000     1.3205     3.7349
6 1     1.1436     3.3012     3.7349
7 1     0.0000     0.0000     5.6024
8 1     1.1436     1.9807     5.6024
9 1     1.1436     0.6602     7.4698
10 1     0.0000     2.6410     7.4698
11 1     0.0000     1.3205     9.3373
12 1     1.1436     3.3012     9.3373
13 1     0.0000     0.0000    11.2047
14 1     1.1436     1.9807    11.2047
15 1     0.0000     1.3205    13.0722
16 1     1.1436     3.3012    13.0722
17 1     0.0000     0.0000    14.9396
18 1     1.1436     1.9807    14.9396
19 1     1.1436     0.6602    16.8071
20 1     0.0000     2.6410    16.8071
21 1     0.0000     1.3205    18.6745
22 1     1.1436     3.3012    18.6745
23 1     0.0000     0.0000    20.5420
24 1     1.1436     1.9807    20.5420
25 1     1.1436     0.6602    22.4094
26 1     0.0000     2.6410    22.4094
27 1     0.0000     1.3205    24.2769
28 1     1.1436     3.3012    24.2769
