LAMMPS (11 Aug 2017)
Reading data file ...
  triclinic box = (0 0 0) to (3.5167 3.5167 3.5167) with tilt (0 -0 0)
  1 by 1 by 1 MPI processor grid
  reading atoms ...
  4 atoms
4 atoms in group Ni
Neighbor list info ...
  update every 1 steps, delay 0 steps, check yes
  max neighbors/atom: 2000, page size: 100000
  master list distance cutoff = 5.64464
  ghost atom cutoff = 5.64464
  binsize = 2.82232, bins = 2 2 2
  1 neighbor lists, perpetual/occasional/extra = 1 0 0
  (1) pair eam/alloy, perpetual
      attributes: half, newton on
      pair build: half/bin/newton/tri
      stencil: half/bin/3d/newton/tri
      bin: standard
Setting up cg style minimization ...
  Unit style    : metal
  Current step  : 0
WARNING: Energy due to 3 extra global DOFs will be included in minimizer energies
Per MPI rank memory allocation (min/avg/max) = 4.211 | 4.211 | 4.211 Mbytes
Step PotEng Xhi Xlo Yhi Ylo Zhi Xy Xz Yz Press Pxx Pyy Pzz Pxy Pxz Pyz c_eatoms 
       0   -10.460532       3.5167            0       3.5167            0       3.5167            0           -0            0   -10771.286   -10771.286   -10771.286   -10771.286 -3.8342983e-13 -2.9396287e-12 6.3904972e-13   -10.460532 
       8   -10.461782    3.5117246 0.0049753992    3.5117246 0.0049753992    3.5117246            0           -0            0 -1.933956e-06 -1.9339534e-06 -1.9339191e-06 -1.9339954e-06 -5.3365039e-11 -3.4803286e-11 -3.9959329e-12   -10.461782 
Loop time of 0.000257015 on 1 procs for 8 steps with 4 atoms

81.7% CPU use with 1 MPI tasks x no OpenMP threads

Minimization stats:
  Stopping criterion = energy tolerance
  Energy initial, next-to-last, final = 
        -10.4605324451     -10.4617824171     -10.4617824171
  Force two-norm initial, final = 0.506437 9.04438e-11
  Force max component initial, final = 0.29239 5.22023e-11
  Final line search alpha, max atom move = 1 5.22023e-11
  Iterations, force evaluations = 8 14

MPI task timing breakdown:
Section |  min time  |  avg time  |  max time  |%varavg| %total
---------------------------------------------------------------
Pair    | 0.00013423 | 0.00013423 | 0.00013423 |   0.0 | 52.23
Neigh   | 0          | 0          | 0          |   0.0 |  0.00
Comm    | 2.6941e-05 | 2.6941e-05 | 2.6941e-05 |   0.0 | 10.48
Output  | 0          | 0          | 0          |   0.0 |  0.00
Modify  | 0          | 0          | 0          |   0.0 |  0.00
Other   |            | 9.584e-05  |            |       | 37.29

Nlocal:    4 ave 4 max 4 min
Histogram: 1 0 0 0 0 0 0 0 0 0
Nghost:    360 ave 360 max 360 min
Histogram: 1 0 0 0 0 0 0 0 0 0
Neighs:    156 ave 156 max 156 min
Histogram: 1 0 0 0 0 0 0 0 0 0

Total # of neighbors = 156
Ave neighs/atom = 39
Neighbor list builds = 0
Dangerous builds = 0
pypospack:output_section:begin
tot_energy = -10.4617824170852
num_atoms = 4
a11 = 3.50674920151423
a22 = 3.50674920151423
a33 = 3.50674920151423
a12 = 0
a13 = -0
a23 = 0
tot_press = -1.93395596756671e-06
pxx = -1.93395338954551e-06
pyy = -1.93391910186356e-06
pzz = -1.93399541129105e-06
pxy = -5.33650388220052e-11
pxz = -3.48032861882643e-11
pyz = -3.99593285865257e-12
pypospack:output_section:done
pypospack:lammps_sim:done
Total wall time: 0:00:00
