# ['Ni']

28 atoms
1 atom types

    0.0000     2.4878 xlo xhi
    0.0000     4.3090 ylo yhi
    0.0000    28.4380 zlo zhi

    0.0000     0.0000     0.0000 xy xz yz

Atoms

1 1     0.0000     0.0000     0.0000
2 1     1.2439     2.1545     0.0000
3 1     1.2439     0.7182     2.0313
4 1     0.0000     2.8727     2.0313
5 1     0.0000     1.4363     4.0626
6 1     1.2439     3.5908     4.0626
7 1     0.0000     0.0000     6.0939
8 1     1.2439     2.1545     6.0939
9 1     1.2439     0.7182     8.1251
10 1     0.0000     2.8727     8.1251
11 1     0.0000     1.4363    10.1564
12 1     1.2439     3.5908    10.1564
13 1     0.0000     0.0000    12.1877
14 1     1.2439     2.1545    12.1877
15 1     0.0000     1.4363    14.2190
16 1     1.2439     3.5908    14.2190
17 1     0.0000     0.0000    16.2503
18 1     1.2439     2.1545    16.2503
19 1     1.2439     0.7182    18.2816
20 1     0.0000     2.8727    18.2816
21 1     0.0000     1.4363    20.3129
22 1     1.2439     3.5908    20.3129
23 1     0.0000     0.0000    22.3441
24 1     1.2439     2.1545    22.3441
25 1     1.2439     0.7182    24.3754
26 1     0.0000     2.8727    24.3754
27 1     0.0000     1.4363    26.4067
28 1     1.2439     3.5908    26.4067
