LAMMPS (11 Aug 2017)
Reading data file ...
  triclinic box = (0 0 0) to (3.5167 3.5167 3.5167) with tilt (0 -0 0)
  1 by 1 by 1 MPI processor grid
  reading atoms ...
  4 atoms
4 atoms in group Ni
Neighbor list info ...
  update every 1 steps, delay 0 steps, check yes
  max neighbors/atom: 2000, page size: 100000
  master list distance cutoff = 5.64464
  ghost atom cutoff = 5.64464
  binsize = 2.82232, bins = 2 2 2
  1 neighbor lists, perpetual/occasional/extra = 1 0 0
  (1) pair eam/alloy, perpetual
      attributes: half, newton on
      pair build: half/bin/newton/tri
      stencil: half/bin/3d/newton/tri
      bin: standard
Setting up cg style minimization ...
  Unit style    : metal
  Current step  : 0
WARNING: Energy due to 3 extra global DOFs will be included in minimizer energies
Per MPI rank memory allocation (min/avg/max) = 4.086 | 4.086 | 4.086 Mbytes
Step Temp PotEng Press Pxx Pyy Pzz Pxy Pxz Pyz Lx Ly Lz Volume 
       0            0   -5.7558942    181249.06    181249.06    181249.06    181249.06 -1.6934818e-12 -1.4634239e-11 -6.2946397e-12       3.5167       3.5167       3.5167    43.491658 
       1            0   -5.7573683    180727.41    180727.41    180727.41    180727.41 -4.6349151e-11 -3.7628739e-11 -2.6704266e-11    3.5170517    3.5170517    3.5170517    43.504707 
       2            0   -5.7588383    180206.54    180206.54    180206.54    180206.54 -1.6285994e-12 -1.797846e-11 -5.747998e-12    3.5174033    3.5174033    3.5174033    43.517758 
       3            0   -5.7603045    179686.47    179686.47    179686.47    179686.47 2.5538997e-13 -1.7941145e-11 -1.9313866e-11     3.517755     3.517755     3.517755    43.530812 
       4            0   -5.7617667    179167.18    179167.18    179167.18    179167.18 7.7487614e-11 7.4615338e-11  8.12854e-11    3.5181067    3.5181067    3.5181067    43.543869 
       5            0    -5.763225    178648.68    178648.68    178648.68    178648.68 1.1581372e-11 3.956171e-11 2.5523684e-11    3.5184583    3.5184583    3.5184583    43.556928 
       6            0   -5.7646793    178130.96    178130.96    178130.96    178130.96 1.0206413e-11 1.8116383e-11 -2.2964429e-12      3.51881      3.51881      3.51881     43.56999 
       7            0   -5.7661297    177614.02    177614.02    177614.02    177614.02 -5.1016767e-12 6.5684088e-12 8.8960488e-12    3.5191617    3.5191617    3.5191617    43.583054 
       8            0   -5.7675762    177097.87    177097.87    177097.87    177097.87 3.6019793e-11 1.1857843e-11 6.0564253e-13    3.5195134    3.5195134    3.5195134    43.596122 
       9            0   -5.7690188     176582.5     176582.5     176582.5     176582.5 -1.4180534e-11 -7.2336658e-12 -2.6034824e-11     3.519865     3.519865     3.519865    43.609191 
      10            0   -5.7704574    176067.91    176067.91    176067.91    176067.91 1.9114092e-13 2.6441161e-12 -1.6979685e-11    3.5202167    3.5202167    3.5202167    43.622263 
      11            0   -5.7718922    175554.09    175554.09    175554.09    175554.09 -1.1273935e-11 -5.0955639e-12 1.1783492e-12    3.5205684    3.5205684    3.5205684    43.635338 
      12            0    -5.773323    175041.06    175041.06    175041.06    175041.06 1.782913e-11 -1.4104116e-11 1.4645357e-11      3.52092      3.52092      3.52092    43.648416 
      13            0   -5.7747499     174528.8     174528.8     174528.8     174528.8 1.0948899e-11 4.1376653e-13 -1.957434e-11    3.5212717    3.5212717    3.5212717    43.661496 
      14            0    -5.776173    174017.32    174017.32    174017.32    174017.32 2.8318608e-12 -1.6895709e-11 -1.2727464e-11    3.5216234    3.5216234    3.5216234    43.674579 
      15            0   -5.7775921    173506.62    173506.62    173506.62    173506.62 9.8608303e-11 9.3359797e-11 7.4687837e-11     3.521975     3.521975     3.521975    43.687664 
      16            0   -5.7790074    172996.68    172996.68    172996.68    172996.68 -4.8971389e-12 1.6090599e-11 1.3928226e-11    3.5223267    3.5223267    3.5223267    43.700752 
      17            0   -5.7804188    172487.53    172487.53    172487.53    172487.53 -1.6753373e-11 -9.5370242e-12 -3.0041626e-11    3.5226784    3.5226784    3.5226784    43.713843 
      18            0   -5.7818263    171979.14    171979.14    171979.14    171979.14 2.1610782e-12 6.9281625e-12 -2.3581177e-11    3.5230301    3.5230301    3.5230301    43.726936 
      19            0     -5.78323    171471.52    171471.52    171471.52    171471.52 1.4328742e-11 1.1755287e-12 1.5440729e-11    3.5233817    3.5233817    3.5233817    43.740032 
      20            0   -5.7846297    170964.68    170964.68    170964.68    170964.68 -2.3852913e-11 -3.7478612e-12 -9.5602222e-12    3.5237334    3.5237334    3.5237334     43.75313 
      21            0   -5.7860256     170458.6     170458.6     170458.6     170458.6 -2.302022e-11 -1.5018709e-11 -2.0003778e-12    3.5240851    3.5240851    3.5240851    43.766231 
      22            0   -5.7874177    169953.29    169953.29    169953.29    169953.29 -3.9170275e-11 -3.2885255e-11 -5.4628884e-11    3.5244367    3.5244367    3.5244367    43.779335 
      23            0   -5.7888059    169448.75    169448.75    169448.75    169448.75 -5.9658085e-12 1.2058549e-12 -2.2530447e-12    3.5247884    3.5247884    3.5247884    43.792441 
      24            0   -5.7901903    168944.97    168944.97    168944.97    168944.97 2.0017546e-11 3.426141e-11 3.2040763e-11    3.5251401    3.5251401    3.5251401     43.80555 
      25            0   -5.7915708    168441.96    168441.96    168441.96    168441.96 3.2633743e-11 7.4210843e-12 2.5561513e-11    3.5254917    3.5254917    3.5254917    43.818662 
      26            0   -5.7929474    167939.71    167939.71    167939.71    167939.71 3.4875002e-11 2.7804888e-11 1.4932842e-11    3.5258434    3.5258434    3.5258434    43.831776 
      27            0   -5.7943203    167438.23    167438.23    167438.23    167438.23 -4.4373087e-12 -7.131389e-12 -6.117147e-12    3.5261951    3.5261951    3.5261951    43.844892 
      28            0   -5.7956893    166937.51    166937.51    166937.51    166937.51 -2.1482824e-11 -3.0703328e-11 -2.588712e-11    3.5265468    3.5265468    3.5265468    43.858012 
      29            0   -5.7970545    166437.54    166437.54    166437.54    166437.54 1.4571008e-12 1.4412627e-11 2.9142016e-12    3.5268984    3.5268984    3.5268984    43.871134 
      30            0   -5.7984158    165938.34    165938.34    165938.34    165938.34 1.8429979e-11 7.5366581e-12 -2.077331e-11    3.5272501    3.5272501    3.5272501    43.884258 
      31            0   -5.7997734     165439.9     165439.9     165439.9     165439.9 -2.029224e-11 -5.4165402e-11 -2.3236356e-11    3.5276018    3.5276018    3.5276018    43.897386 
      32            0   -5.8011271    164942.21    164942.21    164942.21    164942.21 -2.4970031e-11 -3.3388318e-11 -3.5223884e-11    3.5279534    3.5279534    3.5279534    43.910515 
      33            0   -5.8024771    164445.28    164445.28    164445.28    164445.28 1.0314064e-11 -5.8530731e-12 8.700514e-12    3.5283051    3.5283051    3.5283051    43.923648 
      34            0   -5.8038232    163949.11    163949.11    163949.11    163949.11 6.2751488e-11 5.6362476e-11 7.4390877e-11    3.5286568    3.5286568    3.5286568    43.936783 
      35            0   -5.8051655    163453.69    163453.69    163453.69    163453.69 -3.1935513e-12 -9.1379834e-12 -6.4503412e-12    3.5290084    3.5290084    3.5290084    43.949921 
      36            0   -5.8065041    162959.02    162959.02    162959.02    162959.02 -1.9029141e-11 -9.1984719e-12 1.0368037e-11    3.5293601    3.5293601    3.5293601    43.963061 
      37            0   -5.8078388    162465.11    162465.11    162465.11    162465.11 -1.1376152e-11 -2.8535181e-11 -1.3872585e-11    3.5297118    3.5297118    3.5297118    43.976204 
      38            0   -5.8091698    161971.95    161971.95    161971.95    161971.95 -4.8334197e-12 -1.3994804e-11 -1.355253e-11    3.5300635    3.5300635    3.5300635    43.989349 
      39            0    -5.810497    161479.54    161479.54    161479.54    161479.54 -1.496965e-11 -7.4848248e-12 -6.6005417e-12    3.5304151    3.5304151    3.5304151    44.002498 
      40            0   -5.8118204    160987.88    160987.88    160987.88    160987.88 -3.6497351e-11 -4.2148758e-11 -4.4927103e-11    3.5307668    3.5307668    3.5307668    44.015648 
      41            0   -5.8131401    160496.97    160496.97    160496.97    160496.97 -1.5844461e-11 -5.1762781e-12 1.6349464e-11    3.5311185    3.5311185    3.5311185    44.028802 
      42            0   -5.8144559     160006.8     160006.8     160006.8     160006.8 -1.8931946e-12 -4.0072619e-12 1.9878543e-12    3.5314701    3.5314701    3.5314701    44.041958 
      43            0   -5.8157681    159517.39    159517.39    159517.39    159517.39 5.6305716e-11 6.5232617e-11 5.7252031e-11    3.5318218    3.5318218    3.5318218    44.055116 
      44            0   -5.8170764    159028.71    159028.71    159028.71    159028.71 -1.5136511e-11 4.0994717e-13 -1.1667727e-12    3.5321735    3.5321735    3.5321735    44.068278 
      45            0    -5.818381    158540.79    158540.79    158540.79    158540.79 9.804269e-12 9.898844e-12 1.0434769e-11    3.5325251    3.5325251    3.5325251    44.081441 
      46            0   -5.8196819     158053.6     158053.6     158053.6     158053.6 3.5707138e-11 1.8688732e-11 2.054815e-11    3.5328768    3.5328768    3.5328768    44.094608 
      47            0    -5.820979    157567.16    157567.16    157567.16    157567.16 3.8752574e-12 -1.3799697e-11 4.4738744e-12    3.5332285    3.5332285    3.5332285    44.107777 
      48            0   -5.8222724    157081.46    157081.46    157081.46    157081.46 2.0063431e-11 6.866292e-12 2.1764256e-11    3.5335802    3.5335802    3.5335802    44.120949 
      49            0   -5.8235621    156596.51    156596.51    156596.51    156596.51 5.2583875e-11 9.0368695e-11 8.1331826e-11    3.5339318    3.5339318    3.5339318    44.134123 
      50            0    -5.824848    156112.29    156112.29    156112.29    156112.29 8.6249588e-12 -2.3923243e-12 -1.1709798e-11    3.5342835    3.5342835    3.5342835      44.1473 
      51            0   -5.8261302    155628.81    155628.81    155628.81    155628.81 -7.1056003e-11 -5.71469e-11 -1.4066445e-11    3.5346352    3.5346352    3.5346352     44.16048 
      52            0   -5.8274087    155146.07    155146.07    155146.07    155146.07 -3.963855e-12 -2.5796517e-12 -2.5796517e-12    3.5349868    3.5349868    3.5349868    44.173662 
      53            0   -5.8286834    154664.06    154664.06    154664.06    154664.06 -6.0194878e-11 -6.3371306e-11 -7.7523707e-11    3.5353385    3.5353385    3.5353385    44.186847 
      54            0   -5.8299545    154182.79    154182.79    154182.79    154182.79 2.6315612e-11 8.5832282e-12 -1.3173526e-11    3.5356902    3.5356902    3.5356902    44.200034 
      55            0   -5.8312218    153702.26    153702.26    153702.26    153702.26 -4.9661006e-12 -1.3766785e-11 -6.0033242e-12    3.5360418    3.5360418    3.5360418    44.213224 
      56            0   -5.8324855    153222.46    153222.46    153222.46    153222.46 -2.1366716e-11 -2.3849025e-11 -2.1775197e-11    3.5363935    3.5363935    3.5363935    44.226417 
      57            0   -5.8337454    152743.39    152743.39    152743.39    152743.39 -1.3193153e-12 2.5224052e-11 1.9255721e-11    3.5367452    3.5367452    3.5367452    44.239613 
      58            0   -5.8350017    152265.05    152265.05    152265.05    152265.05 1.0771195e-11 2.9832755e-12 -6.7516235e-12    3.5370969    3.5370969    3.5370969    44.252811 
      59            0   -5.8362543    151787.45    151787.45    151787.45    151787.45 -2.4581138e-11 1.9150057e-11 2.8065821e-11    3.5374485    3.5374485    3.5374485    44.266011 
      60            0   -5.8375032    151310.58    151310.58    151310.58    151310.58 -6.9672868e-12 1.0984461e-11 4.9586996e-12    3.5378002    3.5378002    3.5378002    44.279214 
      61            0   -5.8387484    150834.43    150834.43    150834.43    150834.43 -7.8123295e-12 -2.7986337e-11 -2.7170592e-11    3.5381519    3.5381519    3.5381519     44.29242 
      62            0   -5.8399899    150359.01    150359.01    150359.01    150359.01 2.9483536e-11 3.9238195e-11 4.1935625e-11    3.5385035    3.5385035    3.5385035    44.305629 
      63            0   -5.8412278    149884.32    149884.32    149884.32    149884.32 -1.7057726e-11 -1.3012787e-11 -1.1476338e-11    3.5388552    3.5388552    3.5388552     44.31884 
      64            0   -5.8424619    149410.36    149410.36    149410.36    149410.36 2.162927e-12 1.4106046e-11 -2.4325092e-11    3.5392069    3.5392069    3.5392069    44.332053 
      65            0   -5.8436925    148937.12    148937.12    148937.12    148937.12 -2.506994e-12 6.4868471e-12 1.1814209e-11    3.5395585    3.5395585    3.5395585     44.34527 
      66            0   -5.8449194     148464.6     148464.6     148464.6     148464.6 -6.9861634e-12 -9.0538171e-12 1.4661545e-11    3.5399102    3.5399102    3.5399102    44.358489 
      67            0   -5.8461426    147992.81    147992.81    147992.81    147992.81 4.290669e-11 3.513964e-11 4.7353953e-11    3.5402619    3.5402619    3.5402619     44.37171 
      68            0   -5.8473622    147521.74    147521.74    147521.74    147521.74 -9.7372298e-12 -1.2930791e-11 -3.6632022e-12    3.5406136    3.5406136    3.5406136    44.384935 
      69            0   -5.8485781    147051.39    147051.39    147051.39    147051.39 5.6340168e-13 -2.2504767e-11 -1.336514e-11    3.5409652    3.5409652    3.5409652    44.398162 
      70            0   -5.8497904    146581.76    146581.76    146581.76    146581.76 1.342374e-11 -1.0857897e-11 -5.6323385e-13    3.5413169    3.5413169    3.5413169    44.411391 
      71            0    -5.850999    146112.85    146112.85    146112.85    146112.85 -1.0979789e-11 1.9707313e-12 9.6659678e-12    3.5416686    3.5416686    3.5416686    44.424623 
      72            0   -5.8522041    145644.66    145644.66    145644.66    145644.66 5.4726232e-12 -6.7860528e-12 -7.8180332e-12    3.5420202    3.5420202    3.5420202    44.437858 
      73            0   -5.8534055    145177.19    145177.19    145177.19    145177.19 2.3791006e-11 -4.3767948e-12 -4.9082628e-12    3.5423719    3.5423719    3.5423719    44.451095 
      74            0   -5.8546033    144710.43    144710.43    144710.43    144710.43 6.2100726e-11 7.6633609e-11 6.8788978e-11    3.5427236    3.5427236    3.5427236    44.464335 
      75            0   -5.8557974    144244.39    144244.39    144244.39    144244.39 -1.2560171e-11 2.5932691e-12 1.4372335e-12    3.5430752    3.5430752    3.5430752    44.477578 
      76            0    -5.856988    143779.07    143779.07    143779.07    143779.07 -4.4665913e-12 3.7232006e-11 2.6955722e-11    3.5434269    3.5434269    3.5434269    44.490823 
      77            0   -5.8581749    143314.45    143314.45    143314.45    143314.45 -1.6674474e-11 6.2451212e-14 3.9344264e-12    3.5437786    3.5437786    3.5437786    44.504071 
      78            0   -5.8593582    142850.55    142850.55    142850.55    142850.55 -1.4421936e-11 -4.0269042e-12 -1.1955847e-11    3.5441303    3.5441303    3.5441303    44.517322 
      79            0    -5.860538    142387.36    142387.36    142387.36    142387.36 -1.8162486e-11 -1.2950914e-11 -2.1720087e-11    3.5444819    3.5444819    3.5444819    44.530575 
      80            0   -5.8617141    141924.89    141924.89    141924.89    141924.89 -2.0403318e-11  -3.0293e-11 -2.4989385e-11    3.5448336    3.5448336    3.5448336     44.54383 
      81            0   -5.8628867    141463.12    141463.12    141463.12    141463.12 -1.712246e-11 2.7820099e-11 7.0174015e-12    3.5451853    3.5451853    3.5451853    44.557089 
      82            0   -5.8640556    141002.06    141002.06    141002.06    141002.06 5.8959814e-11 8.6459843e-11 9.1074361e-11    3.5455369    3.5455369    3.5455369     44.57035 
      83            0    -5.865221    140541.71    140541.71    140541.71    140541.71 -4.4385932e-11 -2.4530708e-11 -2.4811237e-11    3.5458886    3.5458886    3.5458886    44.583614 
      84            0   -5.8663828    140082.06    140082.06    140082.06    140082.06 1.0594612e-11 -1.2059161e-11 5.297306e-13    3.5462403    3.5462403    3.5462403     44.59688 
      85            0   -5.8675411    139623.12    139623.12    139623.12    139623.12 -2.3052003e-12 -1.4080413e-11 -9.2519525e-12    3.5465919    3.5465919    3.5465919    44.610149 
      86            0   -5.8686957    139164.89    139164.89    139164.89    139164.89 -4.5156031e-12 1.7159292e-11 7.5986701e-12    3.5469436    3.5469436    3.5469436     44.62342 
      87            0   -5.8698468    138707.36    138707.36    138707.36    138707.36 7.7832073e-13 -2.4968529e-11 -7.8766058e-12    3.5472953    3.5472953    3.5472953    44.636695 
      88            0   -5.8709944    138250.53    138250.53    138250.53    138250.53 -4.1083115e-12 -1.7117965e-11 3.4547165e-12     3.547647     3.547647     3.547647    44.649971 
      89            0   -5.8721384    137794.41    137794.41    137794.41    137794.41 -7.4052077e-12 9.6143243e-12 5.8183775e-12    3.5479986    3.5479986    3.5479986    44.663251 
      90            0   -5.8732788    137338.99    137338.99    137338.99    137338.99 -3.0078601e-11 -4.326715e-11 -4.7124178e-11    3.5483503    3.5483503    3.5483503    44.676533 
      91            0   -5.8744157    136884.26    136884.26    136884.26    136884.26 1.0572579e-12 4.1668401e-12 1.3495587e-11     3.548702     3.548702     3.548702    44.689818 
      92            0    -5.875549    136430.24    136430.24    136430.24    136430.24 1.7470657e-11 1.880738e-11 1.1128995e-11    3.5490536    3.5490536    3.5490536    44.703105 
      93            0   -5.8766788    135976.92    135976.92    135976.92    135976.92 -2.6726512e-12 -2.5794192e-12 -7.7693349e-13    3.5494053    3.5494053    3.5494053    44.716395 
      94            0   -5.8778051    135524.29    135524.29    135524.29    135524.29 -8.6990692e-13 -6.7417786e-12 -2.7961294e-13     3.549757     3.549757     3.549757    44.729688 
      95            0   -5.8789278    135072.36    135072.36    135072.36    135072.36 -6.4229748e-11 -7.1280112e-11 -6.1869274e-11    3.5501086    3.5501086    3.5501086    44.742983 
      96            0    -5.880047    134621.13    134621.13    134621.13    134621.13 2.1424254e-12 2.2386793e-11 1.9468127e-11    3.5504603    3.5504603    3.5504603    44.756281 
      97            0   -5.8811627    134170.59    134170.59    134170.59    134170.59 -1.5147725e-11 -2.3187194e-11 -4.5194851e-11     3.550812     3.550812     3.550812    44.769581 
      98            0   -5.8822749    133720.74    133720.74    133720.74    133720.74 -9.9299836e-13 4.4374614e-12 2.2963087e-12    3.5511637    3.5511637    3.5511637    44.782884 
      99            0   -5.8833836    133271.59    133271.59    133271.59    133271.59 -1.5510991e-12 1.3835804e-11 1.3339452e-12    3.5515153    3.5515153    3.5515153     44.79619 
     100            0   -5.8844887    132823.13    132823.13    132823.13    132823.13 -6.2335664e-12 -7.8462303e-12 -4.8069791e-12     3.551867     3.551867     3.551867    44.809499 
Loop time of 0.00237417 on 1 procs for 100 steps with 4 atoms

98.7% CPU use with 1 MPI tasks x no OpenMP threads

Minimization stats:
  Stopping criterion = max iterations
  Energy initial, next-to-last, final = 
        -5.75589421328      -5.8833835635     -5.88448871714
  Force two-norm initial, final = 8.52181 6.37049
  Force max component initial, final = 4.92007 3.678
  Final line search alpha, max atom move = 2.71025e-05 9.96832e-05
  Iterations, force evaluations = 100 100

MPI task timing breakdown:
Section |  min time  |  avg time  |  max time  |%varavg| %total
---------------------------------------------------------------
Pair    | 0.00090504 | 0.00090504 | 0.00090504 |   0.0 | 38.12
Neigh   | 0          | 0          | 0          |   0.0 |  0.00
Comm    | 0.00016952 | 0.00016952 | 0.00016952 |   0.0 |  7.14
Output  | 0.00071454 | 0.00071454 | 0.00071454 |   0.0 | 30.10
Modify  | 0          | 0          | 0          |   0.0 |  0.00
Other   |            | 0.0005851  |            |       | 24.64

Nlocal:    4 ave 4 max 4 min
Histogram: 1 0 0 0 0 0 0 0 0 0
Nghost:    360 ave 360 max 360 min
Histogram: 1 0 0 0 0 0 0 0 0 0
Neighs:    156 ave 156 max 156 min
Histogram: 1 0 0 0 0 0 0 0 0 0

Total # of neighbors = 156
Ave neighs/atom = 39
Neighbor list builds = 0
Dangerous builds = 0
System init for write_restart ...
Reading restart file ...
  restart file = 11 Aug 2017, LAMMPS = 11 Aug 2017
  triclinic box = (-0.0175835 -0.0175835 -0.0175835) to (3.53428 3.53428 3.53428) with tilt (0 -0 0)
  1 by 1 by 1 MPI processor grid
  4 atoms
4 atoms in group Ni
Changing box ...
  triclinic box = (-0.0175835 -0.0175835 -0.0175835) to (3.53428 3.53428 3.53428) with tilt (0 -0 0)
Neighbor list info ...
  update every 1 steps, delay 0 steps, check yes
  max neighbors/atom: 2000, page size: 100000
  master list distance cutoff = 5.64464
  ghost atom cutoff = 5.64464
  binsize = 2.82232, bins = 2 2 2
  1 neighbor lists, perpetual/occasional/extra = 1 0 0
  (1) pair eam/alloy, perpetual
      attributes: half, newton on
      pair build: half/bin/newton/tri
      stencil: half/bin/3d/newton/tri
      bin: standard
Setting up cg style minimization ...
  Unit style    : metal
  Current step  : 100
Per MPI rank memory allocation (min/avg/max) = 4.086 | 4.086 | 4.086 Mbytes
Step Temp PotEng Press Pxx Pyy Pzz Pxy Pxz Pyz Lx Ly Lz Volume 
     100            0    -5.884485    132824.64    132824.86    132824.52    132824.52 4.1557151e-12 3.0082415e-12 -1.1846889e-11    3.5518634     3.551867     3.551867    44.809454 
     101            0    -5.884485    132824.63    132824.85    132824.52    132824.52 1.8700718e-11 -1.296335e-11 3.9696383e-12    3.5518634     3.551867     3.551867    44.809454 
     102            0    -5.884485    132824.63    132824.85    132824.52    132824.52 3.1881158e-11 3.3121669e-11 3.9696383e-12    3.5518634     3.551867     3.551867    44.809454 
Loop time of 7.9155e-05 on 1 procs for 2 steps with 4 atoms

73.3% CPU use with 1 MPI tasks x no OpenMP threads

Minimization stats:
  Stopping criterion = force tolerance
  Energy initial, next-to-last, final = 
        -5.88448500233     -5.88448504272     -5.88448504272
  Force two-norm initial, final = 0.00095017 3.13077e-15
  Force max component initial, final = 0.00027429 1.77636e-15
  Final line search alpha, max atom move = 1 1.77636e-15
  Iterations, force evaluations = 2 4

MPI task timing breakdown:
Section |  min time  |  avg time  |  max time  |%varavg| %total
---------------------------------------------------------------
Pair    | 4.6968e-05 | 4.6968e-05 | 4.6968e-05 |   0.0 | 59.34
Neigh   | 0          | 0          | 0          |   0.0 |  0.00
Comm    | 8.5831e-06 | 8.5831e-06 | 8.5831e-06 |   0.0 | 10.84
Output  | 9.0599e-06 | 9.0599e-06 | 9.0599e-06 |   0.0 | 11.45
Modify  | 0          | 0          | 0          |   0.0 |  0.00
Other   |            | 1.454e-05  |            |       | 18.37

Nlocal:    4 ave 4 max 4 min
Histogram: 1 0 0 0 0 0 0 0 0 0
Nghost:    360 ave 360 max 360 min
Histogram: 1 0 0 0 0 0 0 0 0 0
Neighs:    156 ave 156 max 156 min
Histogram: 1 0 0 0 0 0 0 0 0 0

Total # of neighbors = 156
Ave neighs/atom = 39
Neighbor list builds = 0
Dangerous builds = 0
Reading restart file ...
  restart file = 11 Aug 2017, LAMMPS = 11 Aug 2017
  triclinic box = (-0.0175835 -0.0175835 -0.0175835) to (3.53428 3.53428 3.53428) with tilt (0 -0 0)
  1 by 1 by 1 MPI processor grid
  4 atoms
4 atoms in group Ni
Changing box ...
  triclinic box = (-0.0175835 -0.0175835 -0.0175835) to (3.53429 3.53428 3.53428) with tilt (0 -0 0)
Neighbor list info ...
  update every 1 steps, delay 0 steps, check yes
  max neighbors/atom: 2000, page size: 100000
  master list distance cutoff = 5.64464
  ghost atom cutoff = 5.64464
  binsize = 2.82232, bins = 2 2 2
  1 neighbor lists, perpetual/occasional/extra = 1 0 0
  (1) pair eam/alloy, perpetual
      attributes: half, newton on
      pair build: half/bin/newton/tri
      stencil: half/bin/3d/newton/tri
      bin: standard
Setting up cg style minimization ...
  Unit style    : metal
  Current step  : 100
Per MPI rank memory allocation (min/avg/max) = 4.086 | 4.086 | 4.086 Mbytes
Step Temp PotEng Press Pxx Pyy Pzz Pxy Pxz Pyz Lx Ly Lz Volume 
     100            0   -5.8844924    132821.62     132821.4    132821.73    132821.73 3.1353877e-11 3.3679832e-11 -1.2684209e-11    3.5518706     3.551867     3.551867    44.809544 
     101            0   -5.8844925    132821.61    132821.39    132821.72    132821.72 -2.5244368e-11 -3.3214641e-11 1.8390553e-11    3.5518706     3.551867     3.551867    44.809544 
     102            0   -5.8844925    132821.61    132821.39    132821.72    132821.72 -1.4265859e-12 -7.7531843e-12 2.8531718e-12    3.5518706     3.551867     3.551867    44.809544 
Loop time of 8.01086e-05 on 1 procs for 2 steps with 4 atoms

78.6% CPU use with 1 MPI tasks x no OpenMP threads

Minimization stats:
  Stopping criterion = force tolerance
  Energy initial, next-to-last, final = 
         -5.8844924319     -5.88449247229     -5.88449247229
  Force two-norm initial, final = 0.00095016 1.77445e-16
  Force max component initial, final = 0.000274288 1.06902e-16
  Final line search alpha, max atom move = 1 1.06902e-16
  Iterations, force evaluations = 2 4

MPI task timing breakdown:
Section |  min time  |  avg time  |  max time  |%varavg| %total
---------------------------------------------------------------
Pair    | 4.8161e-05 | 4.8161e-05 | 4.8161e-05 |   0.0 | 60.12
Neigh   | 0          | 0          | 0          |   0.0 |  0.00
Comm    | 9.5367e-06 | 9.5367e-06 | 9.5367e-06 |   0.0 | 11.90
Output  | 8.1062e-06 | 8.1062e-06 | 8.1062e-06 |   0.0 | 10.12
Modify  | 0          | 0          | 0          |   0.0 |  0.00
Other   |            | 1.431e-05  |            |       | 17.86

Nlocal:    4 ave 4 max 4 min
Histogram: 1 0 0 0 0 0 0 0 0 0
Nghost:    360 ave 360 max 360 min
Histogram: 1 0 0 0 0 0 0 0 0 0
Neighs:    156 ave 156 max 156 min
Histogram: 1 0 0 0 0 0 0 0 0 0

Total # of neighbors = 156
Ave neighs/atom = 39
Neighbor list builds = 0
Dangerous builds = 0
Reading restart file ...
  restart file = 11 Aug 2017, LAMMPS = 11 Aug 2017
  triclinic box = (-0.0175835 -0.0175835 -0.0175835) to (3.53428 3.53428 3.53428) with tilt (0 -0 0)
  1 by 1 by 1 MPI processor grid
  4 atoms
4 atoms in group Ni
Changing box ...
  triclinic box = (-0.0175835 -0.0175835 -0.0175835) to (3.53428 3.53428 3.53428) with tilt (0 -0 0)
Neighbor list info ...
  update every 1 steps, delay 0 steps, check yes
  max neighbors/atom: 2000, page size: 100000
  master list distance cutoff = 5.64464
  ghost atom cutoff = 5.64464
  binsize = 2.82232, bins = 2 2 2
  1 neighbor lists, perpetual/occasional/extra = 1 0 0
  (1) pair eam/alloy, perpetual
      attributes: half, newton on
      pair build: half/bin/newton/tri
      stencil: half/bin/3d/newton/tri
      bin: standard
Setting up cg style minimization ...
  Unit style    : metal
  Current step  : 100
Per MPI rank memory allocation (min/avg/max) = 4.086 | 4.086 | 4.086 Mbytes
Step Temp PotEng Press Pxx Pyy Pzz Pxy Pxz Pyz Lx Ly Lz Volume 
     100            0    -5.884485    132824.64    132824.52    132824.86    132824.52 -7.9392766e-12 -7.5981358e-12 -7.722187e-12     3.551867    3.5518634     3.551867    44.809454 
     101            0    -5.884485    132824.63    132824.52    132824.85    132824.52 -4.7759711e-12 -2.7291263e-12 1.0234224e-12     3.551867    3.5518634     3.551867    44.809454 
     102            0    -5.884485    132824.63    132824.52    132824.85    132824.52 3.0392543e-12 6.4506622e-12 4.6209071e-11     3.551867    3.5518634     3.551867    44.809454 
Loop time of 7.79629e-05 on 1 procs for 2 steps with 4 atoms

80.8% CPU use with 1 MPI tasks x no OpenMP threads

Minimization stats:
  Stopping criterion = force tolerance
  Energy initial, next-to-last, final = 
        -5.88448500233     -5.88448504272     -5.88448504272
  Force two-norm initial, final = 0.00095017 2.71227e-15
  Force max component initial, final = 0.00027429 1.77354e-15
  Final line search alpha, max atom move = 1 1.77354e-15
  Iterations, force evaluations = 2 4

MPI task timing breakdown:
Section |  min time  |  avg time  |  max time  |%varavg| %total
---------------------------------------------------------------
Pair    | 4.6968e-05 | 4.6968e-05 | 4.6968e-05 |   0.0 | 60.24
Neigh   | 0          | 0          | 0          |   0.0 |  0.00
Comm    | 9.2983e-06 | 9.2983e-06 | 9.2983e-06 |   0.0 | 11.93
Output  | 8.8215e-06 | 8.8215e-06 | 8.8215e-06 |   0.0 | 11.31
Modify  | 0          | 0          | 0          |   0.0 |  0.00
Other   |            | 1.287e-05  |            |       | 16.51

Nlocal:    4 ave 4 max 4 min
Histogram: 1 0 0 0 0 0 0 0 0 0
Nghost:    360 ave 360 max 360 min
Histogram: 1 0 0 0 0 0 0 0 0 0
Neighs:    156 ave 156 max 156 min
Histogram: 1 0 0 0 0 0 0 0 0 0

Total # of neighbors = 156
Ave neighs/atom = 39
Neighbor list builds = 0
Dangerous builds = 0
Reading restart file ...
  restart file = 11 Aug 2017, LAMMPS = 11 Aug 2017
  triclinic box = (-0.0175835 -0.0175835 -0.0175835) to (3.53428 3.53428 3.53428) with tilt (0 -0 0)
  1 by 1 by 1 MPI processor grid
  4 atoms
4 atoms in group Ni
Changing box ...
  triclinic box = (-0.0175835 -0.0175835 -0.0175835) to (3.53428 3.53429 3.53428) with tilt (0 -0 0)
Neighbor list info ...
  update every 1 steps, delay 0 steps, check yes
  max neighbors/atom: 2000, page size: 100000
  master list distance cutoff = 5.64464
  ghost atom cutoff = 5.64464
  binsize = 2.82232, bins = 2 2 2
  1 neighbor lists, perpetual/occasional/extra = 1 0 0
  (1) pair eam/alloy, perpetual
      attributes: half, newton on
      pair build: half/bin/newton/tri
      stencil: half/bin/3d/newton/tri
      bin: standard
Setting up cg style minimization ...
  Unit style    : metal
  Current step  : 100
Per MPI rank memory allocation (min/avg/max) = 4.086 | 4.086 | 4.086 Mbytes
Step Temp PotEng Press Pxx Pyy Pzz Pxy Pxz Pyz Lx Ly Lz Volume 
     100            0   -5.8844924    132821.62    132821.73     132821.4    132821.73 8.4354645e-12 -2.4344999e-11 4.3696947e-11     3.551867    3.5518706     3.551867    44.809544 
     101            0   -5.8844925    132821.61    132821.72    132821.39    132821.72 1.3955732e-12 2.6143737e-11 -2.7384247e-11     3.551867    3.5518706     3.551867    44.809544 
     102            0   -5.8844925    132821.61    132821.72    132821.39    132821.72 1.2219018e-11 2.5430444e-12 -2.5430444e-12     3.551867    3.5518706     3.551867    44.809544 
Loop time of 7.89165e-05 on 1 procs for 2 steps with 4 atoms

81.1% CPU use with 1 MPI tasks x no OpenMP threads

Minimization stats:
  Stopping criterion = force tolerance
  Energy initial, next-to-last, final = 
         -5.8844924319     -5.88449247229     -5.88449247229
  Force two-norm initial, final = 0.00095016 1.28727e-16
  Force max component initial, final = 0.000274288 8.32667e-17
  Final line search alpha, max atom move = 1 8.32667e-17
  Iterations, force evaluations = 2 4

MPI task timing breakdown:
Section |  min time  |  avg time  |  max time  |%varavg| %total
---------------------------------------------------------------
Pair    | 4.7922e-05 | 4.7922e-05 | 4.7922e-05 |   0.0 | 60.73
Neigh   | 0          | 0          | 0          |   0.0 |  0.00
Comm    | 8.8215e-06 | 8.8215e-06 | 8.8215e-06 |   0.0 | 11.18
Output  | 9.0599e-06 | 9.0599e-06 | 9.0599e-06 |   0.0 | 11.48
Modify  | 0          | 0          | 0          |   0.0 |  0.00
Other   |            | 1.311e-05  |            |       | 16.62

Nlocal:    4 ave 4 max 4 min
Histogram: 1 0 0 0 0 0 0 0 0 0
Nghost:    360 ave 360 max 360 min
Histogram: 1 0 0 0 0 0 0 0 0 0
Neighs:    156 ave 156 max 156 min
Histogram: 1 0 0 0 0 0 0 0 0 0

Total # of neighbors = 156
Ave neighs/atom = 39
Neighbor list builds = 0
Dangerous builds = 0
Reading restart file ...
  restart file = 11 Aug 2017, LAMMPS = 11 Aug 2017
  triclinic box = (-0.0175835 -0.0175835 -0.0175835) to (3.53428 3.53428 3.53428) with tilt (0 -0 0)
  1 by 1 by 1 MPI processor grid
  4 atoms
4 atoms in group Ni
Changing box ...
  triclinic box = (-0.0175835 -0.0175835 -0.0175835) to (3.53428 3.53428 3.53428) with tilt (0 -0 0)
Neighbor list info ...
  update every 1 steps, delay 0 steps, check yes
  max neighbors/atom: 2000, page size: 100000
  master list distance cutoff = 5.64464
  ghost atom cutoff = 5.64464
  binsize = 2.82232, bins = 2 2 2
  1 neighbor lists, perpetual/occasional/extra = 1 0 0
  (1) pair eam/alloy, perpetual
      attributes: half, newton on
      pair build: half/bin/newton/tri
      stencil: half/bin/3d/newton/tri
      bin: standard
Setting up cg style minimization ...
  Unit style    : metal
  Current step  : 100
Per MPI rank memory allocation (min/avg/max) = 4.086 | 4.086 | 4.086 Mbytes
Step Temp PotEng Press Pxx Pyy Pzz Pxy Pxz Pyz Lx Ly Lz Volume 
     100            0    -5.884485    132824.64    132824.52    132824.52    132824.86 4.0626767e-12 1.6405771e-11 -8.1563662e-12     3.551867     3.551867    3.5518634    44.809454 
     101            0    -5.884485    132824.63    132824.52    132824.52    132824.85 -7.9082638e-12 -3.5974847e-12 1.2467145e-11     3.551867     3.551867    3.5518634    44.809454 
     102            0    -5.884485    132824.63    132824.52    132824.52    132824.85 -5.6443294e-12 -9.0557373e-12 4.3417919e-13     3.551867     3.551867    3.5518634    44.809454 
Loop time of 7.70092e-05 on 1 procs for 2 steps with 4 atoms

101.3% CPU use with 1 MPI tasks x no OpenMP threads

Minimization stats:
  Stopping criterion = force tolerance
  Energy initial, next-to-last, final = 
        -5.88448500233     -5.88448504272     -5.88448504272
  Force two-norm initial, final = 0.00095017 3.62793e-15
  Force max component initial, final = 0.00027429 1.88738e-15
  Final line search alpha, max atom move = 1 1.88738e-15
  Iterations, force evaluations = 2 4

MPI task timing breakdown:
Section |  min time  |  avg time  |  max time  |%varavg| %total
---------------------------------------------------------------
Pair    | 4.6968e-05 | 4.6968e-05 | 4.6968e-05 |   0.0 | 60.99
Neigh   | 0          | 0          | 0          |   0.0 |  0.00
Comm    | 1.0014e-05 | 1.0014e-05 | 1.0014e-05 |   0.0 | 13.00
Output  | 9.0599e-06 | 9.0599e-06 | 9.0599e-06 |   0.0 | 11.76
Modify  | 0          | 0          | 0          |   0.0 |  0.00
Other   |            | 1.097e-05  |            |       | 14.24

Nlocal:    4 ave 4 max 4 min
Histogram: 1 0 0 0 0 0 0 0 0 0
Nghost:    360 ave 360 max 360 min
Histogram: 1 0 0 0 0 0 0 0 0 0
Neighs:    156 ave 156 max 156 min
Histogram: 1 0 0 0 0 0 0 0 0 0

Total # of neighbors = 156
Ave neighs/atom = 39
Neighbor list builds = 0
Dangerous builds = 0
Reading restart file ...
  restart file = 11 Aug 2017, LAMMPS = 11 Aug 2017
  triclinic box = (-0.0175835 -0.0175835 -0.0175835) to (3.53428 3.53428 3.53428) with tilt (0 -0 0)
  1 by 1 by 1 MPI processor grid
  4 atoms
4 atoms in group Ni
Changing box ...
  triclinic box = (-0.0175835 -0.0175835 -0.0175835) to (3.53428 3.53428 3.53429) with tilt (0 -0 0)
Neighbor list info ...
  update every 1 steps, delay 0 steps, check yes
  max neighbors/atom: 2000, page size: 100000
  master list distance cutoff = 5.64464
  ghost atom cutoff = 5.64464
  binsize = 2.82232, bins = 2 2 2
  1 neighbor lists, perpetual/occasional/extra = 1 0 0
  (1) pair eam/alloy, perpetual
      attributes: half, newton on
      pair build: half/bin/newton/tri
      stencil: half/bin/3d/newton/tri
      bin: standard
Setting up cg style minimization ...
  Unit style    : metal
  Current step  : 100
Per MPI rank memory allocation (min/avg/max) = 4.086 | 4.086 | 4.086 Mbytes
Step Temp PotEng Press Pxx Pyy Pzz Pxy Pxz Pyz Lx Ly Lz Volume 
     100            0   -5.8844924    132821.62    132821.73    132821.73     132821.4 -1.0978509e-11 -1.7956375e-11 1.5816496e-12     3.551867     3.551867    3.5518706    44.809544 
     101            0   -5.8844925    132821.61    132821.72    132821.72    132821.39 -2.130575e-11 -9.3348339e-12 -1.0327241e-11     3.551867     3.551867    3.5518706    44.809544 
     102            0   -5.8844925    132821.61    132821.72    132821.72    132821.39 -2.4189935e-12 -1.1753827e-11 5.3341908e-12     3.551867     3.551867    3.5518706    44.809544 
Loop time of 8.51154e-05 on 1 procs for 2 steps with 4 atoms

102.2% CPU use with 1 MPI tasks x no OpenMP threads

Minimization stats:
  Stopping criterion = force tolerance
  Energy initial, next-to-last, final = 
         -5.8844924319     -5.88449247229     -5.88449247229
  Force two-norm initial, final = 0.00095016 1.95556e-16
  Force max component initial, final = 0.000274288 1.11022e-16
  Final line search alpha, max atom move = 1 1.11022e-16
  Iterations, force evaluations = 2 4

MPI task timing breakdown:
Section |  min time  |  avg time  |  max time  |%varavg| %total
---------------------------------------------------------------
Pair    | 4.7207e-05 | 4.7207e-05 | 4.7207e-05 |   0.0 | 55.46
Neigh   | 0          | 0          | 0          |   0.0 |  0.00
Comm    | 1.3828e-05 | 1.3828e-05 | 1.3828e-05 |   0.0 | 16.25
Output  | 8.1062e-06 | 8.1062e-06 | 8.1062e-06 |   0.0 |  9.52
Modify  | 0          | 0          | 0          |   0.0 |  0.00
Other   |            | 1.597e-05  |            |       | 18.77

Nlocal:    4 ave 4 max 4 min
Histogram: 1 0 0 0 0 0 0 0 0 0
Nghost:    360 ave 360 max 360 min
Histogram: 1 0 0 0 0 0 0 0 0 0
Neighs:    156 ave 156 max 156 min
Histogram: 1 0 0 0 0 0 0 0 0 0

Total # of neighbors = 156
Ave neighs/atom = 39
Neighbor list builds = 0
Dangerous builds = 0
Reading restart file ...
  restart file = 11 Aug 2017, LAMMPS = 11 Aug 2017
  triclinic box = (-0.0175835 -0.0175835 -0.0175835) to (3.53428 3.53428 3.53428) with tilt (0 -0 0)
  1 by 1 by 1 MPI processor grid
  4 atoms
4 atoms in group Ni
Changing box ...
  triclinic box = (-0.0175835 -0.0175835 -0.0175835) to (3.53428 3.53428 3.53428) with tilt (0 -0 -3.55187e-06)
Neighbor list info ...
  update every 1 steps, delay 0 steps, check yes
  max neighbors/atom: 2000, page size: 100000
  master list distance cutoff = 5.64464
  ghost atom cutoff = 5.64464
  binsize = 2.82232, bins = 2 2 2
  1 neighbor lists, perpetual/occasional/extra = 1 0 0
  (1) pair eam/alloy, perpetual
      attributes: half, newton on
      pair build: half/bin/newton/tri
      stencil: half/bin/3d/newton/tri
      bin: standard
Setting up cg style minimization ...
  Unit style    : metal
  Current step  : 100
Per MPI rank memory allocation (min/avg/max) = 4.086 | 4.086 | 4.086 Mbytes
Step Temp PotEng Press Pxx Pyy Pzz Pxy Pxz Pyz Lx Ly Lz Volume 
     100            0   -5.8844887    132823.13    132823.13    132823.13    132823.13 -4.0068496e-11 -2.6050725e-12   0.54947049     3.551867     3.551867     3.551867    44.809499 
     101            0   -5.8844888    132823.12    132823.12    132823.12    132823.12 2.1926027e-11 1.5196256e-11   0.54947049     3.551867     3.551867     3.551867    44.809499 
     102            0   -5.8844888    132823.12    132823.12    132823.12    132823.12 2.8531747e-12 -8.7766134e-12   0.54947049     3.551867     3.551867     3.551867    44.809499 
     103            0   -5.8844888    132823.12    132823.12    132823.12    132823.12 -1.2405107e-12 -7.7252805e-11   0.54947049     3.551867     3.551867     3.551867    44.809499 
Loop time of 0.000108004 on 1 procs for 3 steps with 4 atoms

100.0% CPU use with 1 MPI tasks x no OpenMP threads

Minimization stats:
  Stopping criterion = force tolerance
  Energy initial, next-to-last, final = 
        -5.88448871713     -5.88448875752     -5.88448875752
  Force two-norm initial, final = 0.000950165 1.63066e-15
  Force max component initial, final = 0.00027429 6.93889e-16
  Final line search alpha, max atom move = 1 6.93889e-16
  Iterations, force evaluations = 3 6

MPI task timing breakdown:
Section |  min time  |  avg time  |  max time  |%varavg| %total
---------------------------------------------------------------
Pair    | 6.6042e-05 | 6.6042e-05 | 6.6042e-05 |   0.0 | 61.15
Neigh   | 0          | 0          | 0          |   0.0 |  0.00
Comm    | 1.3113e-05 | 1.3113e-05 | 1.3113e-05 |   0.0 | 12.14
Output  | 1.4782e-05 | 1.4782e-05 | 1.4782e-05 |   0.0 | 13.69
Modify  | 0          | 0          | 0          |   0.0 |  0.00
Other   |            | 1.407e-05  |            |       | 13.02

Nlocal:    4 ave 4 max 4 min
Histogram: 1 0 0 0 0 0 0 0 0 0
Nghost:    360 ave 360 max 360 min
Histogram: 1 0 0 0 0 0 0 0 0 0
Neighs:    156 ave 156 max 156 min
Histogram: 1 0 0 0 0 0 0 0 0 0

Total # of neighbors = 156
Ave neighs/atom = 39
Neighbor list builds = 0
Dangerous builds = 0
Reading restart file ...
  restart file = 11 Aug 2017, LAMMPS = 11 Aug 2017
  triclinic box = (-0.0175835 -0.0175835 -0.0175835) to (3.53428 3.53428 3.53428) with tilt (0 -0 0)
  1 by 1 by 1 MPI processor grid
  4 atoms
4 atoms in group Ni
Changing box ...
  triclinic box = (-0.0175835 -0.0175835 -0.0175835) to (3.53428 3.53428 3.53428) with tilt (0 -0 3.55187e-06)
Neighbor list info ...
  update every 1 steps, delay 0 steps, check yes
  max neighbors/atom: 2000, page size: 100000
  master list distance cutoff = 5.64464
  ghost atom cutoff = 5.64464
  binsize = 2.82232, bins = 2 2 2
  1 neighbor lists, perpetual/occasional/extra = 1 0 0
  (1) pair eam/alloy, perpetual
      attributes: half, newton on
      pair build: half/bin/newton/tri
      stencil: half/bin/3d/newton/tri
      bin: standard
Setting up cg style minimization ...
  Unit style    : metal
  Current step  : 100
Per MPI rank memory allocation (min/avg/max) = 4.086 | 4.086 | 4.086 Mbytes
Step Temp PotEng Press Pxx Pyy Pzz Pxy Pxz Pyz Lx Ly Lz Volume 
     100            0   -5.8844887    132823.13    132823.13    132823.13    132823.13 -7.1329367e-13 1.5475371e-11  -0.54947049     3.551867     3.551867     3.551867    44.809499 
     101            0   -5.8844888    132823.12    132823.12    132823.12    132823.12 3.349379e-11 7.8462303e-12  -0.54947049     3.551867     3.551867     3.551867    44.809499 
     102            0   -5.8844888    132823.12    132823.12    132823.12    132823.12 -8.5285112e-12 1.680892e-11  -0.54947049     3.551867     3.551867     3.551867    44.809499 
     103            0   -5.8844888    132823.12    132823.12    132823.12    132823.12 -3.070264e-12 -7.0088856e-12  -0.54947049     3.551867     3.551867     3.551867    44.809499 
Loop time of 0.000108004 on 1 procs for 3 steps with 4 atoms

88.0% CPU use with 1 MPI tasks x no OpenMP threads

Minimization stats:
  Stopping criterion = force tolerance
  Energy initial, next-to-last, final = 
        -5.88448871713     -5.88448875752     -5.88448875752
  Force two-norm initial, final = 0.000950165 2.76347e-15
  Force max component initial, final = 0.00027429 1.55431e-15
  Final line search alpha, max atom move = 1 1.55431e-15
  Iterations, force evaluations = 3 6

MPI task timing breakdown:
Section |  min time  |  avg time  |  max time  |%varavg| %total
---------------------------------------------------------------
Pair    | 6.628e-05  | 6.628e-05  | 6.628e-05  |   0.0 | 61.37
Neigh   | 0          | 0          | 0          |   0.0 |  0.00
Comm    | 1.2636e-05 | 1.2636e-05 | 1.2636e-05 |   0.0 | 11.70
Output  | 1.6212e-05 | 1.6212e-05 | 1.6212e-05 |   0.0 | 15.01
Modify  | 0          | 0          | 0          |   0.0 |  0.00
Other   |            | 1.287e-05  |            |       | 11.92

Nlocal:    4 ave 4 max 4 min
Histogram: 1 0 0 0 0 0 0 0 0 0
Nghost:    360 ave 360 max 360 min
Histogram: 1 0 0 0 0 0 0 0 0 0
Neighs:    156 ave 156 max 156 min
Histogram: 1 0 0 0 0 0 0 0 0 0

Total # of neighbors = 156
Ave neighs/atom = 39
Neighbor list builds = 0
Dangerous builds = 0
Reading restart file ...
  restart file = 11 Aug 2017, LAMMPS = 11 Aug 2017
  triclinic box = (-0.0175835 -0.0175835 -0.0175835) to (3.53428 3.53428 3.53428) with tilt (0 -0 0)
  1 by 1 by 1 MPI processor grid
  4 atoms
4 atoms in group Ni
Changing box ...
  triclinic box = (-0.0175835 -0.0175835 -0.0175835) to (3.53428 3.53428 3.53428) with tilt (0 -3.55187e-06 0)
Neighbor list info ...
  update every 1 steps, delay 0 steps, check yes
  max neighbors/atom: 2000, page size: 100000
  master list distance cutoff = 5.64464
  ghost atom cutoff = 5.64464
  binsize = 2.82232, bins = 2 2 2
  1 neighbor lists, perpetual/occasional/extra = 1 0 0
  (1) pair eam/alloy, perpetual
      attributes: half, newton on
      pair build: half/bin/newton/tri
      stencil: half/bin/3d/newton/tri
      bin: standard
Setting up cg style minimization ...
  Unit style    : metal
  Current step  : 100
Per MPI rank memory allocation (min/avg/max) = 4.086 | 4.086 | 4.086 Mbytes
Step Temp PotEng Press Pxx Pyy Pzz Pxy Pxz Pyz Lx Ly Lz Volume 
     100            0   -5.8844887    132823.13    132823.13    132823.13    132823.13 -3.7773552e-11   0.54947049 4.7759663e-12     3.551867     3.551867     3.551867    44.809499 
     101            0   -5.8844888    132823.12    132823.12    132823.12    132823.12 4.279762e-12   0.54947049 -4.4348258e-12     3.551867     3.551867     3.551867    44.809499 
     102            0   -5.8844888    132823.12    132823.12    132823.12    132823.12 -3.8300769e-11   0.54947049 2.6174776e-11     3.551867     3.551867     3.551867    44.809499 
     103            0   -5.8844888    132823.12    132823.12    132823.12    132823.12 1.882475e-11   0.54947049 -3.4238096e-11     3.551867     3.551867     3.551867    44.809499 
Loop time of 0.000110149 on 1 procs for 3 steps with 4 atoms

100.8% CPU use with 1 MPI tasks x no OpenMP threads

Minimization stats:
  Stopping criterion = force tolerance
  Energy initial, next-to-last, final = 
        -5.88448871713     -5.88448875752     -5.88448875752
  Force two-norm initial, final = 0.000950165 3.63553e-15
  Force max component initial, final = 0.00027429 1.66544e-15
  Final line search alpha, max atom move = 1 1.66544e-15
  Iterations, force evaluations = 3 6

MPI task timing breakdown:
Section |  min time  |  avg time  |  max time  |%varavg| %total
---------------------------------------------------------------
Pair    | 6.5327e-05 | 6.5327e-05 | 6.5327e-05 |   0.0 | 59.31
Neigh   | 0          | 0          | 0          |   0.0 |  0.00
Comm    | 1.2398e-05 | 1.2398e-05 | 1.2398e-05 |   0.0 | 11.26
Output  | 1.502e-05  | 1.502e-05  | 1.502e-05  |   0.0 | 13.64
Modify  | 0          | 0          | 0          |   0.0 |  0.00
Other   |            | 1.74e-05   |            |       | 15.80

Nlocal:    4 ave 4 max 4 min
Histogram: 1 0 0 0 0 0 0 0 0 0
Nghost:    360 ave 360 max 360 min
Histogram: 1 0 0 0 0 0 0 0 0 0
Neighs:    156 ave 156 max 156 min
Histogram: 1 0 0 0 0 0 0 0 0 0

Total # of neighbors = 156
Ave neighs/atom = 39
Neighbor list builds = 0
Dangerous builds = 0
Reading restart file ...
  restart file = 11 Aug 2017, LAMMPS = 11 Aug 2017
  triclinic box = (-0.0175835 -0.0175835 -0.0175835) to (3.53428 3.53428 3.53428) with tilt (0 -0 0)
  1 by 1 by 1 MPI processor grid
  4 atoms
4 atoms in group Ni
Changing box ...
  triclinic box = (-0.0175835 -0.0175835 -0.0175835) to (3.53428 3.53428 3.53428) with tilt (0 3.55187e-06 0)
Neighbor list info ...
  update every 1 steps, delay 0 steps, check yes
  max neighbors/atom: 2000, page size: 100000
  master list distance cutoff = 5.64464
  ghost atom cutoff = 5.64464
  binsize = 2.82232, bins = 2 2 2
  1 neighbor lists, perpetual/occasional/extra = 1 0 0
  (1) pair eam/alloy, perpetual
      attributes: half, newton on
      pair build: half/bin/newton/tri
      stencil: half/bin/3d/newton/tri
      bin: standard
Setting up cg style minimization ...
  Unit style    : metal
  Current step  : 100
Per MPI rank memory allocation (min/avg/max) = 4.086 | 4.086 | 4.086 Mbytes
Step Temp PotEng Press Pxx Pyy Pzz Pxy Pxz Pyz Lx Ly Lz Volume 
     100            0   -5.8844887    132823.13    132823.13    132823.13    132823.13 -8.0633197e-12  -0.54947049 5.0550812e-12     3.551867     3.551867     3.551867    44.809499 
     101            0   -5.8844888    132823.12    132823.12    132823.12    132823.12 -2.1243746e-11  -0.54947049 1.8359559e-11     3.551867     3.551867     3.551867    44.809499 
     102            0   -5.8844888    132823.12    132823.12    132823.12    132823.12 -9.769022e-11  -0.54947049 1.3645618e-11     3.551867     3.551867     3.551867    44.809499 
     103            0   -5.8844888    132823.12    132823.12    132823.12    132823.12 -2.7601364e-12  -0.54947049 1.1629788e-11     3.551867     3.551867     3.551867    44.809499 
Loop time of 0.000111103 on 1 procs for 3 steps with 4 atoms

90.9% CPU use with 1 MPI tasks x no OpenMP threads

Minimization stats:
  Stopping criterion = force tolerance
  Energy initial, next-to-last, final = 
        -5.88448871713     -5.88448875752     -5.88448875752
  Force two-norm initial, final = 0.000950165 2.79387e-15
  Force max component initial, final = 0.00027429 1.65146e-15
  Final line search alpha, max atom move = 1 1.65146e-15
  Iterations, force evaluations = 3 6

MPI task timing breakdown:
Section |  min time  |  avg time  |  max time  |%varavg| %total
---------------------------------------------------------------
Pair    | 6.5804e-05 | 6.5804e-05 | 6.5804e-05 |   0.0 | 59.23
Neigh   | 0          | 0          | 0          |   0.0 |  0.00
Comm    | 1.5497e-05 | 1.5497e-05 | 1.5497e-05 |   0.0 | 13.95
Output  | 1.6689e-05 | 1.6689e-05 | 1.6689e-05 |   0.0 | 15.02
Modify  | 0          | 0          | 0          |   0.0 |  0.00
Other   |            | 1.311e-05  |            |       | 11.80

Nlocal:    4 ave 4 max 4 min
Histogram: 1 0 0 0 0 0 0 0 0 0
Nghost:    360 ave 360 max 360 min
Histogram: 1 0 0 0 0 0 0 0 0 0
Neighs:    156 ave 156 max 156 min
Histogram: 1 0 0 0 0 0 0 0 0 0

Total # of neighbors = 156
Ave neighs/atom = 39
Neighbor list builds = 0
Dangerous builds = 0
Reading restart file ...
  restart file = 11 Aug 2017, LAMMPS = 11 Aug 2017
  triclinic box = (-0.0175835 -0.0175835 -0.0175835) to (3.53428 3.53428 3.53428) with tilt (0 -0 0)
  1 by 1 by 1 MPI processor grid
  4 atoms
4 atoms in group Ni
Changing box ...
  triclinic box = (-0.0175835 -0.0175835 -0.0175835) to (3.53428 3.53428 3.53428) with tilt (-3.55187e-06 -0 0)
Neighbor list info ...
  update every 1 steps, delay 0 steps, check yes
  max neighbors/atom: 2000, page size: 100000
  master list distance cutoff = 5.64464
  ghost atom cutoff = 5.64464
  binsize = 2.82232, bins = 2 2 2
  1 neighbor lists, perpetual/occasional/extra = 1 0 0
  (1) pair eam/alloy, perpetual
      attributes: half, newton on
      pair build: half/bin/newton/tri
      stencil: half/bin/3d/newton/tri
      bin: standard
Setting up cg style minimization ...
  Unit style    : metal
  Current step  : 100
Per MPI rank memory allocation (min/avg/max) = 4.086 | 4.086 | 4.086 Mbytes
Step Temp PotEng Press Pxx Pyy Pzz Pxy Pxz Pyz Lx Ly Lz Volume 
     100            0   -5.8844887    132823.13    132823.13    132823.13    132823.13   0.54947049 -4.3759016e-11 1.4886129e-12     3.551867     3.551867     3.551867    44.809499 
     101            0   -5.8844888    132823.12    132823.12    132823.12    132823.12   0.54947049 -1.1040545e-11 9.2418049e-12     3.551867     3.551867     3.551867    44.809499 
     102            0   -5.8844888    132823.12    132823.12    132823.12    132823.12   0.54947049 -1.758424e-11 -2.8686811e-11     3.551867     3.551867     3.551867    44.809499 
     103            0   -5.8844888    132823.12    132823.12    132823.12    132823.12   0.54947049 -1.0110162e-11 1.3056375e-11     3.551867     3.551867     3.551867    44.809499 
Loop time of 0.000115156 on 1 procs for 3 steps with 4 atoms

99.9% CPU use with 1 MPI tasks x no OpenMP threads

Minimization stats:
  Stopping criterion = force tolerance
  Energy initial, next-to-last, final = 
        -5.88448871713     -5.88448875752     -5.88448875752
  Force two-norm initial, final = 0.000950165 2.98862e-15
  Force max component initial, final = 0.00027429 2.06432e-15
  Final line search alpha, max atom move = 1 2.06432e-15
  Iterations, force evaluations = 3 6

MPI task timing breakdown:
Section |  min time  |  avg time  |  max time  |%varavg| %total
---------------------------------------------------------------
Pair    | 6.9141e-05 | 6.9141e-05 | 6.9141e-05 |   0.0 | 60.04
Neigh   | 0          | 0          | 0          |   0.0 |  0.00
Comm    | 1.3113e-05 | 1.3113e-05 | 1.3113e-05 |   0.0 | 11.39
Output  | 1.4782e-05 | 1.4782e-05 | 1.4782e-05 |   0.0 | 12.84
Modify  | 0          | 0          | 0          |   0.0 |  0.00
Other   |            | 1.812e-05  |            |       | 15.73

Nlocal:    4 ave 4 max 4 min
Histogram: 1 0 0 0 0 0 0 0 0 0
Nghost:    360 ave 360 max 360 min
Histogram: 1 0 0 0 0 0 0 0 0 0
Neighs:    156 ave 156 max 156 min
Histogram: 1 0 0 0 0 0 0 0 0 0

Total # of neighbors = 156
Ave neighs/atom = 39
Neighbor list builds = 0
Dangerous builds = 0
Reading restart file ...
  restart file = 11 Aug 2017, LAMMPS = 11 Aug 2017
  triclinic box = (-0.0175835 -0.0175835 -0.0175835) to (3.53428 3.53428 3.53428) with tilt (0 -0 0)
  1 by 1 by 1 MPI processor grid
  4 atoms
4 atoms in group Ni
Changing box ...
  triclinic box = (-0.0175835 -0.0175835 -0.0175835) to (3.53428 3.53428 3.53428) with tilt (3.55187e-06 -0 0)
Neighbor list info ...
  update every 1 steps, delay 0 steps, check yes
  max neighbors/atom: 2000, page size: 100000
  master list distance cutoff = 5.64464
  ghost atom cutoff = 5.64464
  binsize = 2.82232, bins = 2 2 2
  1 neighbor lists, perpetual/occasional/extra = 1 0 0
  (1) pair eam/alloy, perpetual
      attributes: half, newton on
      pair build: half/bin/newton/tri
      stencil: half/bin/3d/newton/tri
      bin: standard
Setting up cg style minimization ...
  Unit style    : metal
  Current step  : 100
Per MPI rank memory allocation (min/avg/max) = 4.086 | 4.086 | 4.086 Mbytes
Step Temp PotEng Press Pxx Pyy Pzz Pxy Pxz Pyz Lx Ly Lz Volume 
     100            0   -5.8844887    132823.13    132823.13    132823.13    132823.13  -0.54947049 -3.5664683e-12 -3.2253279e-12     3.551867     3.551867     3.551867    44.809499 
     101            0   -5.8844888    132823.12    132823.12    132823.12    132823.12  -0.54947049 -2.0406401e-11 -7.629141e-12     3.551867     3.551867     3.551867    44.809499 
     102            0   -5.8844888    132823.12    132823.12    132823.12    132823.12  -0.54947049 -7.6880652e-11 3.0392513e-12     3.551867     3.551867     3.551867    44.809499 
     103            0   -5.8844888    132823.12    132823.12    132823.12    132823.12  -0.54947049 4.6333076e-11 -2.4717176e-11     3.551867     3.551867     3.551867    44.809499 
Loop time of 0.000115156 on 1 procs for 3 steps with 4 atoms

101.6% CPU use with 1 MPI tasks x no OpenMP threads

Minimization stats:
  Stopping criterion = force tolerance
  Energy initial, next-to-last, final = 
        -5.88448871713     -5.88448875752     -5.88448875752
  Force two-norm initial, final = 0.000950165 2.57561e-15
  Force max component initial, final = 0.00027429 1.60288e-15
  Final line search alpha, max atom move = 1 1.60288e-15
  Iterations, force evaluations = 3 6

MPI task timing breakdown:
Section |  min time  |  avg time  |  max time  |%varavg| %total
---------------------------------------------------------------
Pair    | 6.3419e-05 | 6.3419e-05 | 6.3419e-05 |   0.0 | 55.07
Neigh   | 0          | 0          | 0          |   0.0 |  0.00
Comm    | 1.3351e-05 | 1.3351e-05 | 1.3351e-05 |   0.0 | 11.59
Output  | 1.5259e-05 | 1.5259e-05 | 1.5259e-05 |   0.0 | 13.25
Modify  | 0          | 0          | 0          |   0.0 |  0.00
Other   |            | 2.313e-05  |            |       | 20.08

Nlocal:    4 ave 4 max 4 min
Histogram: 1 0 0 0 0 0 0 0 0 0
Nghost:    360 ave 360 max 360 min
Histogram: 1 0 0 0 0 0 0 0 0 0
Neighs:    156 ave 156 max 156 min
Histogram: 1 0 0 0 0 0 0 0 0 0

Total # of neighbors = 156
Ave neighs/atom = 39
Neighbor list builds = 0
Dangerous builds = 0
c11 = 173.109407050651 GPa
c22 = 173.109407050651 GPa
c33 = 173.109407050651 GPa
c12 = 139.743487948727 GPa
c13 = 139.743487948727 GPa
c23 = 139.743487948727 GPa
c44 = 54.9470493424174 GPa
c55 = 54.9470493410622 GPa
c66 = 54.9470493433369 GPa
c14 = 2.7911661875597e-11 GPa
c15 = 1.02187134366891e-09 GPa
c16 = 8.32693585307065e-10 GPa
c24 = 1.2188028786507e-09 GPa
c25 = 9.76904444113725e-11 GPa
c26 = -2.29494102609345e-10 GPa
c34 = -1.22500289853096e-10 GPa
c35 = 6.74522504154655e-11 GPa
c36 = -8.0633398687402e-11 GPa
c45 = -2.90279509575583e-09 GPa
c46 = 9.90082622136803e-10 GPa
c56 = -8.7145878408909e-10 GPa
lammps_sim_done
Total wall time: 0:00:00
