# ['Ni']

20 atoms
1 atom types

    0.0000     3.2450 xlo xhi
    0.0000     3.2450 ylo yhi
    0.0000    32.4501 zlo zhi

    0.0000    -0.0000     0.0000 xy xz yz

Atoms

1 1     0.0000     0.0000     0.0000
2 1     1.6225     1.6225     0.0000
3 1     1.6225     0.0000     1.6225
4 1     0.0000     1.6225     1.6225
5 1     0.0000     0.0000     3.2450
6 1     1.6225     1.6225     3.2450
7 1     1.6225     0.0000     4.8675
8 1     0.0000     1.6225     4.8675
9 1     0.0000     0.0000     6.4900
10 1     1.6225     1.6225     6.4900
11 1     1.6225     0.0000     8.1125
12 1     0.0000     1.6225     8.1125
13 1     0.0000     0.0000     9.7350
14 1     1.6225     1.6225     9.7350
15 1     1.6225     0.0000    11.3575
16 1     0.0000     1.6225    11.3575
17 1     0.0000     0.0000    12.9801
18 1     1.6225     1.6225    12.9801
19 1     1.6225     0.0000    14.6026
20 1     0.0000     1.6225    14.6026
