# ['Ni']

10 atoms
1 atom types

    0.0000     3.6791 xlo xhi
    0.0000     2.6337 ylo yhi
    0.0000    26.3367 zlo zhi

    0.0000     0.0000     0.0000 xy xz yz

Atoms

1 1     0.0000     0.0000     0.0000
2 1     1.8396     1.3168     1.3168
3 1     0.0000     0.0000     2.6337
4 1     1.8396     1.3168     3.9505
5 1     0.0000     0.0000     5.2673
6 1     1.8396     1.3168     6.5842
7 1     0.0000     0.0000     7.9010
8 1     1.8396     1.3168     9.2179
9 1     0.0000     0.0000    10.5347
10 1     1.8396     1.3168    11.8515
