   4   4   0   0
  0.1064635E+02  0.3492102E-09  0.3492102E-09  0.3492102E-09  0.5000000E-15
  1.000000000000000E-004
  CAR 
 automatically generated by pyflamestk   
     33.71430072     -0.88038429  301      9.49363243      1.00000000
     -0.880  0.0000E+00  0.0000E+00  0.0000E+00  0.0000E+00
     -0.765  0.0000E+00  0.0000E+00  0.0000E+00  0.0000E+00
     -0.650  0.0000E+00  0.0000E+00  0.0000E+00  0.0000E+00
     -0.534 -0.4993E-29 -0.4993E-29 -0.5758E-30 -0.5757E-30
     -0.419 -0.4617E-25 -0.4617E-25 -0.5325E-26 -0.5325E-26
     -0.304 -0.2184E-21 -0.2184E-21 -0.2519E-22 -0.2519E-22
     -0.188 -0.5277E-18 -0.5276E-18 -0.6087E-19 -0.6087E-19
     -0.073 -0.6506E-15 -0.6505E-15 -0.7508E-16 -0.7508E-16
      0.042 -0.3947E-12 -0.3947E-12 -0.4559E-13 -0.4559E-13
      0.157 -0.1248E-09 -0.1248E-09 -0.1444E-10 -0.1444E-10
      0.273 -0.1990E-07 -0.1990E-07 -0.2310E-08 -0.2309E-08
      0.388 -0.1587E-05 -0.1587E-05 -0.1853E-06 -0.1853E-06
      0.503 -0.6228E-04 -0.6227E-04 -0.7367E-05 -0.7367E-05
      0.619 -0.1166E-02 -0.1166E-02 -0.1419E-03 -0.1419E-03
      0.734 -0.9632E-02 -0.9632E-02 -0.1253E-02 -0.1253E-02
      0.849 -0.2533E-01 -0.2533E-01 -0.4174E-02 -0.4174E-02
      0.965  0.5430E-01  0.5429E-01  0.2087E-02  0.2087E-02
      1.080  0.3460E+00  0.3460E+00  0.4199E-01  0.4199E-01
      1.195  0.4990E+00  0.4990E+00  0.9953E-01  0.9953E-01
      1.311  0.2423E+00  0.2424E+00  0.1275E+00  0.1275E+00
      1.426  0.6961E-02  0.6962E-02  0.1283E+00  0.1283E+00
      1.541 -0.2241E-01 -0.2241E-01  0.1257E+00  0.1257E+00
      1.657 -0.5488E-02 -0.5488E-02  0.1251E+00  0.1251E+00
      1.772 -0.5070E-03 -0.5070E-03  0.1250E+00  0.1250E+00
      1.887 -0.2388E-04 -0.2388E-04  0.1250E+00  0.1250E+00
      2.003 -0.1108E-03 -0.1108E-03  0.1250E+00  0.1250E+00
      2.118 -0.2328E-02 -0.2328E-02  0.1247E+00  0.1247E+00
      2.233 -0.2207E-01 -0.2207E-01  0.1222E+00  0.1222E+00
      2.348 -0.7357E-01 -0.7357E-01  0.1137E+00  0.1137E+00
      2.464  0.8231E-01  0.8231E-01  0.1232E+00  0.1232E+00
      2.579  0.8835E+00  0.8835E+00  0.2251E+00  0.2251E+00
      2.694  0.1516E+01  0.1516E+01  0.3999E+00  0.3999E+00
      2.810  0.8838E+00  0.8838E+00  0.5018E+00  0.5018E+00
      2.925  0.8244E-01  0.8245E-01  0.5113E+00  0.5113E+00
      3.040 -0.7358E-01 -0.7358E-01  0.5028E+00  0.5028E+00
      3.156 -0.2208E-01 -0.2208E-01  0.5003E+00  0.5003E+00
      3.271 -0.2444E-02 -0.2444E-02  0.5000E+00  0.5000E+00
      3.386 -0.2495E-02 -0.2495E-02  0.4997E+00  0.4997E+00
      3.502 -0.2243E-01 -0.2243E-01  0.4971E+00  0.4971E+00
      3.617 -0.7383E-01 -0.7383E-01  0.4886E+00  0.4886E+00
      3.732  0.8638E-01  0.8638E-01  0.4986E+00  0.4986E+00
      3.848  0.8925E+00  0.8925E+00  0.6015E+00  0.6015E+00
      3.963  0.1516E+01  0.1516E+01  0.7763E+00  0.7763E+00
      4.078  0.8705E+00  0.8705E+00  0.8766E+00  0.8766E+00
      4.194  0.5757E-01  0.5758E-01  0.8833E+00  0.8833E+00
      4.309 -0.8477E-01 -0.8477E-01  0.8735E+00  0.8735E+00
      4.424  0.1386E+00  0.1386E+00  0.8895E+00  0.8895E+00
      4.539  0.4223E+00  0.4223E+00  0.9382E+00  0.9382E+00
      4.655  0.7486E+00  0.7486E+00  0.1025E+01  0.1024E+01
      4.770  0.1367E+01  0.1367E+01  0.1182E+01  0.1182E+01
      4.885  0.1289E+01  0.1289E+01  0.1331E+01  0.1331E+01
      5.001  0.2929E+00  0.2929E+00  0.1365E+01  0.1365E+01
      5.116  0.1438E+00  0.1438E+00  0.1381E+01  0.1381E+01
      5.231  0.1640E+01  0.1640E+01  0.1570E+01  0.1570E+01
      5.347  0.3098E+01  0.3098E+01  0.1928E+01  0.1928E+01
      5.462  0.3401E+01  0.3401E+01  0.2320E+01  0.2320E+01
      5.577  0.3067E+01  0.3067E+01  0.2673E+01  0.2673E+01
      5.693  0.1481E+01  0.1481E+01  0.2844E+01  0.2844E+01
      5.808  0.1099E+01  0.1099E+01  0.2971E+01  0.2971E+01
      5.923  0.3771E+01  0.3771E+01  0.3406E+01  0.3406E+01
      6.039  0.5198E+01  0.5198E+01  0.4005E+01  0.4005E+01
      6.154  0.3142E+01  0.3142E+01  0.4367E+01  0.4367E+01
      6.269  0.2783E+01  0.2783E+01  0.4688E+01  0.4688E+01
      6.384  0.4148E+01  0.4148E+01  0.5167E+01  0.5167E+01
      6.500  0.3000E+01  0.3000E+01  0.5513E+01  0.5513E+01
      6.615  0.2498E+01  0.2498E+01  0.5801E+01  0.5801E+01
      6.730  0.3675E+01  0.3675E+01  0.6224E+01  0.6224E+01
      6.846  0.3196E+01  0.3196E+01  0.6593E+01  0.6593E+01
      6.961  0.2632E+01  0.2632E+01  0.6896E+01  0.6896E+01
      7.076  0.3637E+01  0.3637E+01  0.7316E+01  0.7316E+01
      7.192  0.5526E+01  0.5526E+01  0.7953E+01  0.7953E+01
      7.307  0.7060E+01  0.7060E+01  0.8767E+01  0.8767E+01
      7.422  0.5897E+01  0.5897E+01  0.9447E+01  0.9447E+01
      7.538  0.3485E+01  0.3485E+01  0.9849E+01  0.9849E+01
      7.653  0.3682E+01  0.3682E+01  0.1027E+02  0.1027E+02
      7.768  0.6230E+01  0.6230E+01  0.1099E+02  0.1099E+02
      7.884  0.7988E+01  0.7988E+01  0.1191E+02  0.1191E+02
      7.999  0.6337E+01  0.6337E+01  0.1264E+02  0.1264E+02
      8.114  0.2893E+01  0.2893E+01  0.1298E+02  0.1298E+02
      8.230  0.2362E+01  0.2362E+01  0.1325E+02  0.1325E+02
      8.345  0.4064E+01  0.4064E+01  0.1372E+02  0.1372E+02
      8.460  0.4205E+01  0.4205E+01  0.1420E+02  0.1420E+02
      8.575  0.5559E+01  0.5559E+01  0.1484E+02  0.1484E+02
      8.691  0.7949E+01  0.7949E+01  0.1576E+02  0.1576E+02
      8.806  0.6076E+01  0.6076E+01  0.1646E+02  0.1646E+02
      8.921  0.2341E+01  0.2341E+01  0.1673E+02  0.1673E+02
      9.037  0.2667E+01  0.2667E+01  0.1704E+02  0.1704E+02
      9.152  0.5872E+01  0.5872E+01  0.1772E+02  0.1772E+02
      9.267  0.6604E+01  0.6604E+01  0.1848E+02  0.1848E+02
      9.383  0.5754E+01  0.5754E+01  0.1914E+02  0.1914E+02
      9.498  0.7781E+01  0.7781E+01  0.2004E+02  0.2004E+02
      9.613  0.8105E+01  0.8105E+01  0.2097E+02  0.2097E+02
      9.729  0.3722E+01  0.3722E+01  0.2140E+02  0.2140E+02
      9.844  0.2117E+00  0.2118E+00  0.2143E+02  0.2143E+02
      9.959 -0.3389E+00 -0.3389E+00  0.2139E+02  0.2139E+02
     10.075 -0.1012E+00 -0.1012E+00  0.2138E+02  0.2138E+02
     10.190 -0.1153E-01 -0.1154E-01  0.2138E+02  0.2138E+02
     10.305 -0.6149E-03 -0.6151E-03  0.2138E+02  0.2138E+02
     10.421 -0.1287E-03 -0.1287E-03  0.2137E+02  0.2137E+02
     10.536 -0.2966E-02 -0.2965E-02  0.2137E+02  0.2137E+02
     10.651 -0.3615E-01 -0.3615E-01  0.2137E+02  0.2137E+02
     10.766 -0.1753E+00 -0.1753E+00  0.2135E+02  0.2135E+02
     10.882 -0.6584E-01 -0.6587E-01  0.2134E+02  0.2134E+02
     10.997  0.1720E+01  0.1720E+01  0.2154E+02  0.2154E+02
     11.112  0.4305E+01  0.4305E+01  0.2204E+02  0.2204E+02
     11.228  0.3548E+01  0.3548E+01  0.2245E+02  0.2245E+02
     11.343  0.8045E+00  0.8045E+00  0.2254E+02  0.2254E+02
     11.458 -0.2127E+00 -0.2127E+00  0.2251E+02  0.2251E+02
     11.574 -0.1116E+00 -0.1116E+00  0.2250E+02  0.2250E+02
     11.689 -0.1594E-01 -0.1594E-01  0.2250E+02  0.2250E+02
     11.804 -0.2586E-02 -0.2586E-02  0.2250E+02  0.2250E+02
     11.920 -0.1717E-01 -0.1717E-01  0.2250E+02  0.2250E+02
     12.035 -0.6823E-01 -0.6823E-01  0.2249E+02  0.2249E+02
     12.150  0.2800E-01  0.2799E-01  0.2249E+02  0.2249E+02
     12.266  0.7477E+00  0.7477E+00  0.2258E+02  0.2258E+02
     12.381  0.1502E+01  0.1502E+01  0.2275E+02  0.2275E+02
     12.496  0.1018E+01  0.1018E+01  0.2287E+02  0.2287E+02
     12.612  0.1511E+00  0.1511E+00  0.2289E+02  0.2289E+02
     12.727 -0.7601E-01 -0.7601E-01  0.2288E+02  0.2288E+02
     12.842 -0.2871E-01 -0.2872E-01  0.2288E+02  0.2288E+02
     12.957 -0.1365E-01 -0.1365E-01  0.2287E+02  0.2287E+02
     13.073 -0.5476E-01 -0.5476E-01  0.2287E+02  0.2287E+02
     13.188 -0.3797E-01 -0.3797E-01  0.2286E+02  0.2286E+02
     13.303  0.5099E+00  0.5099E+00  0.2292E+02  0.2292E+02
     13.419  0.1405E+01  0.1405E+01  0.2308E+02  0.2308E+02
     13.534  0.1242E+01  0.1242E+01  0.2323E+02  0.2323E+02
     13.649  0.3144E+00  0.3144E+00  0.2326E+02  0.2326E+02
     13.765 -0.6801E-01 -0.6801E-01  0.2326E+02  0.2326E+02
     13.880 -0.4079E-01 -0.4079E-01  0.2325E+02  0.2325E+02
     13.995 -0.6177E-02 -0.6178E-02  0.2325E+02  0.2325E+02
     14.111 -0.2479E-02 -0.2479E-02  0.2325E+02  0.2325E+02
     14.226 -0.2526E-01 -0.2526E-01  0.2325E+02  0.2325E+02
     14.341 -0.1203E+00 -0.1203E+00  0.2323E+02  0.2323E+02
     14.457 -0.3476E-01 -0.3477E-01  0.2323E+02  0.2323E+02
     14.572  0.1197E+01  0.1197E+01  0.2337E+02  0.2337E+02
     14.687  0.2904E+01  0.2904E+01  0.2370E+02  0.2370E+02
     14.803  0.2321E+01  0.2321E+01  0.2397E+02  0.2397E+02
     14.918  0.4922E+00  0.4922E+00  0.2403E+02  0.2403E+02
     15.033 -0.1468E+00 -0.1468E+00  0.2401E+02  0.2401E+02
     15.148 -0.7112E-01 -0.7112E-01  0.2400E+02  0.2400E+02
     15.264 -0.9717E-02 -0.9718E-02  0.2400E+02  0.2400E+02
     15.379 -0.5744E-03 -0.5744E-03  0.2400E+02  0.2400E+02
     15.494 -0.1637E-04 -0.1637E-04  0.2400E+02  0.2400E+02
     15.610 -0.1732E-04 -0.1732E-04  0.2400E+02  0.2400E+02
     15.725 -0.5295E-03 -0.5295E-03  0.2400E+02  0.2400E+02
     15.840 -0.7687E-02 -0.7687E-02  0.2400E+02  0.2400E+02
     15.956 -0.4661E-01 -0.4661E-01  0.2399E+02  0.2399E+02
     16.071 -0.5837E-01 -0.5838E-01  0.2399E+02  0.2399E+02
     16.186  0.3937E+00  0.3937E+00  0.2403E+02  0.2403E+02
     16.302  0.1319E+01  0.1319E+01  0.2418E+02  0.2418E+02
     16.417  0.1341E+01  0.1341E+01  0.2434E+02  0.2434E+02
     16.532  0.4056E+00  0.4056E+00  0.2439E+02  0.2439E+02
     16.648 -0.1210E+00 -0.1210E+00  0.2437E+02  0.2437E+02
     16.763 -0.3035E-01 -0.3036E-01  0.2437E+02  0.2437E+02
     16.878  0.7109E+00  0.7109E+00  0.2445E+02  0.2445E+02
     16.994  0.1494E+01  0.1494E+01  0.2462E+02  0.2462E+02
     17.109  0.1046E+01  0.1046E+01  0.2474E+02  0.2474E+02
     17.224  0.1675E+00  0.1675E+00  0.2476E+02  0.2476E+02
     17.339 -0.7616E-01 -0.7616E-01  0.2475E+02  0.2475E+02
     17.455 -0.3324E-01 -0.3324E-01  0.2475E+02  0.2475E+02
     17.570 -0.4311E-01 -0.4311E-01  0.2474E+02  0.2474E+02
     17.685 -0.1432E+00 -0.1432E+00  0.2473E+02  0.2473E+02
     17.801  0.1130E+00  0.1129E+00  0.2474E+02  0.2474E+02
     17.916  0.1646E+01  0.1646E+01  0.2493E+02  0.2493E+02
     18.031  0.3026E+01  0.3026E+01  0.2528E+02  0.2528E+02
     18.147  0.1888E+01  0.1888E+01  0.2550E+02  0.2550E+02
     18.262  0.2206E+00  0.2206E+00  0.2552E+02  0.2552E+02
     18.377 -0.1621E+00 -0.1621E+00  0.2550E+02  0.2550E+02
     18.493 -0.7356E-01 -0.7356E-01  0.2550E+02  0.2550E+02
     18.608  0.7706E-01  0.7705E-01  0.2551E+02  0.2551E+02
     18.723  0.3873E+00  0.3873E+00  0.2555E+02  0.2555E+02
     18.839  0.4837E+00  0.4838E+00  0.2561E+02  0.2561E+02
     18.954  0.1987E+00  0.1988E+00  0.2563E+02  0.2563E+02
     19.069 -0.5978E-02 -0.5976E-02  0.2563E+02  0.2563E+02
     19.185 -0.2041E-01 -0.2041E-01  0.2563E+02  0.2563E+02
     19.300 -0.1160E-01 -0.1160E-01  0.2562E+02  0.2562E+02
     19.415 -0.6031E-01 -0.6031E-01  0.2562E+02  0.2562E+02
     19.530 -0.1518E+00 -0.1518E+00  0.2560E+02  0.2560E+02
     19.646  0.3524E+00  0.3523E+00  0.2564E+02  0.2564E+02
     19.761  0.2119E+01  0.2119E+01  0.2588E+02  0.2588E+02
     19.876  0.2982E+01  0.2982E+01  0.2623E+02  0.2623E+02
     19.992  0.1409E+01  0.1409E+01  0.2639E+02  0.2639E+02
     20.107  0.2656E-01  0.2657E-01  0.2639E+02  0.2639E+02
     20.222 -0.1381E+00 -0.1381E+00  0.2638E+02  0.2638E+02
     20.338 -0.7154E-01 -0.7154E-01  0.2637E+02  0.2637E+02
     20.453 -0.7182E-01 -0.7182E-01  0.2636E+02  0.2636E+02
     20.568  0.3044E+00  0.3044E+00  0.2640E+02  0.2640E+02
     20.684  0.1231E+01  0.1231E+01  0.2654E+02  0.2654E+02
     20.799  0.1412E+01  0.1412E+01  0.2670E+02  0.2670E+02
     20.914  0.5219E+00  0.5219E+00  0.2676E+02  0.2676E+02
     21.030 -0.3547E-01 -0.3546E-01  0.2676E+02  0.2676E+02
     21.145 -0.5668E-01 -0.5668E-01  0.2675E+02  0.2675E+02
     21.260 -0.2861E-01 -0.2861E-01  0.2675E+02  0.2675E+02
     21.376 -0.1024E+00 -0.1024E+00  0.2674E+02  0.2674E+02
     21.491 -0.9928E-01 -0.9928E-01  0.2672E+02  0.2672E+02
     21.606  0.8900E+00  0.8899E+00  0.2683E+02  0.2683E+02
     21.721  0.2666E+01  0.2666E+01  0.2713E+02  0.2713E+02
     21.837  0.2601E+01  0.2601E+01  0.2743E+02  0.2743E+02
     21.952  0.1442E+01  0.1442E+01  0.2760E+02  0.2760E+02
     22.067  0.1369E+01  0.1369E+01  0.2776E+02  0.2776E+02
     22.183  0.9622E+00  0.9622E+00  0.2787E+02  0.2787E+02
     22.298  0.1545E+00  0.1545E+00  0.2789E+02  0.2789E+02
     22.413 -0.1003E+00 -0.1003E+00  0.2788E+02  0.2788E+02
     22.529 -0.1236E+00 -0.1236E+00  0.2786E+02  0.2786E+02
     22.644 -0.3363E-02 -0.3370E-02  0.2786E+02  0.2786E+02
     22.759  0.9337E+00  0.9337E+00  0.2797E+02  0.2797E+02
     22.875  0.2374E+01  0.2374E+01  0.2824E+02  0.2824E+02
     22.990  0.2420E+01  0.2420E+01  0.2852E+02  0.2852E+02
     23.105  0.1001E+01  0.1001E+01  0.2864E+02  0.2864E+02
     23.221  0.1957E-01  0.1958E-01  0.2864E+02  0.2864E+02
     23.336 -0.1006E+00 -0.1006E+00  0.2863E+02  0.2863E+02
     23.451 -0.5619E-01 -0.5619E-01  0.2862E+02  0.2862E+02
     23.567 -0.1080E+00 -0.1080E+00  0.2861E+02  0.2861E+02
     23.682  0.2391E-01  0.2390E-01  0.2861E+02  0.2861E+02
     23.797  0.1027E+01  0.1027E+01  0.2873E+02  0.2873E+02
     23.912  0.2843E+01  0.2843E+01  0.2906E+02  0.2906E+02
     24.028  0.3707E+01  0.3707E+01  0.2949E+02  0.2949E+02
     24.143  0.2211E+01  0.2211E+01  0.2974E+02  0.2974E+02
     24.258  0.3259E+00  0.3259E+00  0.2978E+02  0.2978E+02
     24.374 -0.1680E+00 -0.1680E+00  0.2976E+02  0.2976E+02
     24.489 -0.6493E-01 -0.6494E-01  0.2975E+02  0.2975E+02
     24.604 -0.8142E-02 -0.8143E-02  0.2975E+02  0.2975E+02
     24.720 -0.4664E-03 -0.4664E-03  0.2975E+02  0.2975E+02
     24.835 -0.5455E-03 -0.5455E-03  0.2975E+02  0.2975E+02
     24.950 -0.9192E-02 -0.9191E-02  0.2975E+02  0.2975E+02
     25.066 -0.6886E-01 -0.6886E-01  0.2974E+02  0.2974E+02
     25.181 -0.1515E+00 -0.1515E+00  0.2972E+02  0.2972E+02
     25.296  0.4386E+00  0.4386E+00  0.2977E+02  0.2977E+02
     25.412  0.2231E+01  0.2230E+01  0.3003E+02  0.3003E+02
     25.527  0.3074E+01  0.3074E+01  0.3039E+02  0.3039E+02
     25.642  0.1996E+01  0.1996E+01  0.3062E+02  0.3062E+02
     25.758  0.9533E+00  0.9533E+00  0.3073E+02  0.3073E+02
     25.873  0.2952E+00  0.2952E+00  0.3076E+02  0.3076E+02
     25.988 -0.3293E-01 -0.3293E-01  0.3076E+02  0.3076E+02
     26.103 -0.4347E-01 -0.4347E-01  0.3075E+02  0.3075E+02
     26.219 -0.9044E-02 -0.9044E-02  0.3075E+02  0.3075E+02
     26.334 -0.8486E-03 -0.8486E-03  0.3075E+02  0.3075E+02
     26.449 -0.1959E-02 -0.1959E-02  0.3075E+02  0.3075E+02
     26.565 -0.1942E-01 -0.1942E-01  0.3075E+02  0.3075E+02
     26.680 -0.7111E-01 -0.7111E-01  0.3074E+02  0.3074E+02
     26.795  0.5260E-01  0.5260E-01  0.3075E+02  0.3075E+02
     26.911  0.8135E+00  0.8135E+00  0.3084E+02  0.3084E+02
     27.026  0.1512E+01  0.1512E+01  0.3101E+02  0.3101E+02
     27.141  0.9534E+00  0.9534E+00  0.3112E+02  0.3112E+02
     27.257  0.1160E+00  0.1160E+00  0.3114E+02  0.3114E+02
     27.372 -0.7527E-01 -0.7527E-01  0.3113E+02  0.3113E+02
     27.487 -0.2498E-01 -0.2498E-01  0.3113E+02  0.3113E+02
     27.603 -0.2806E-02 -0.2806E-02  0.3113E+02  0.3113E+02
     27.718 -0.3438E-03 -0.3438E-03  0.3112E+02  0.3112E+02
     27.833 -0.3744E-02 -0.3744E-02  0.3112E+02  0.3112E+02
     27.949 -0.3017E-01 -0.3017E-01  0.3112E+02  0.3112E+02
     28.064 -0.7587E-01 -0.7587E-01  0.3111E+02  0.3111E+02
     28.179  0.1784E+00  0.1784E+00  0.3113E+02  0.3113E+02
     28.294  0.1063E+01  0.1063E+01  0.3126E+02  0.3126E+02
     28.410  0.1490E+01  0.1490E+01  0.3143E+02  0.3143E+02
     28.525  0.7009E+00  0.7009E+00  0.3151E+02  0.3151E+02
     28.640  0.1226E-01  0.1227E-01  0.3151E+02  0.3151E+02
     28.756 -0.6606E-01 -0.6606E-01  0.3150E+02  0.3150E+02
     28.871 -0.1857E-01 -0.1858E-01  0.3150E+02  0.3150E+02
     28.986 -0.2722E-01 -0.2722E-01  0.3150E+02  0.3150E+02
     29.102 -0.7563E-01 -0.7563E-01  0.3149E+02  0.3149E+02
     29.217  0.1258E+00  0.1258E+00  0.3150E+02  0.3150E+02
     29.332  0.9723E+00  0.9723E+00  0.3161E+02  0.3161E+02
     29.448  0.1510E+01  0.1510E+01  0.3179E+02  0.3179E+02
     29.563  0.7943E+00  0.7943E+00  0.3188E+02  0.3188E+02
     29.678  0.4512E-01  0.4512E-01  0.3189E+02  0.3189E+02
     29.794 -0.7032E-01 -0.7032E-01  0.3188E+02  0.3188E+02
     29.909 -0.1873E-01 -0.1873E-01  0.3188E+02  0.3188E+02
     30.024 -0.1832E-02 -0.1832E-02  0.3188E+02  0.3188E+02
     30.140 -0.8120E-04 -0.8120E-04  0.3188E+02  0.3188E+02
     30.255 -0.1735E-05 -0.1735E-05  0.3188E+02  0.3188E+02
     30.370 -0.1834E-07 -0.1834E-07  0.3188E+02  0.3188E+02
     30.485 -0.9719E-10 -0.9719E-10  0.3188E+02  0.3188E+02
     30.601 -0.3167E-12 -0.3167E-12  0.3187E+02  0.3187E+02
     30.716 -0.2222E-10 -0.2221E-10  0.3187E+02  0.3187E+02
     30.831 -0.4391E-08 -0.4391E-08  0.3187E+02  0.3187E+02
     30.947 -0.4353E-06 -0.4352E-06  0.3187E+02  0.3187E+02
     31.062 -0.2137E-04 -0.2137E-04  0.3187E+02  0.3187E+02
     31.177 -0.5070E-03 -0.5069E-03  0.3187E+02  0.3187E+02
     31.293 -0.5488E-02 -0.5488E-02  0.3187E+02  0.3187E+02
     31.408 -0.2241E-01 -0.2241E-01  0.3187E+02  0.3187E+02
     31.523  0.6964E-02  0.6961E-02  0.3187E+02  0.3187E+02
     31.639  0.2424E+00  0.2423E+00  0.3190E+02  0.3190E+02
     31.754  0.4990E+00  0.4990E+00  0.3196E+02  0.3196E+02
     31.869  0.3460E+00  0.3460E+00  0.3200E+02  0.3200E+02
     31.985  0.5429E-01  0.5430E-01  0.3200E+02  0.3200E+02
     32.100 -0.2533E-01 -0.2533E-01  0.3200E+02  0.3200E+02
     32.215 -0.9632E-02 -0.9632E-02  0.3200E+02  0.3200E+02
     32.331 -0.1166E-02 -0.1166E-02  0.3200E+02  0.3200E+02
     32.446 -0.6227E-04 -0.6228E-04  0.3200E+02  0.3200E+02
     32.561 -0.1587E-05 -0.1587E-05  0.3200E+02  0.3200E+02
     32.676 -0.1990E-07 -0.1990E-07  0.3200E+02  0.3200E+02
     32.792 -0.1248E-09 -0.1248E-09  0.3200E+02  0.3200E+02
     32.907 -0.3945E-12 -0.3947E-12  0.3200E+02  0.3200E+02
     33.022 -0.7221E-15 -0.7221E-15  0.3200E+02  0.3200E+02
     33.138  0.0000E+00  0.0000E+00  0.3200E+02  0.3200E+02
     33.253  0.0000E+00  0.0000E+00  0.3200E+02  0.3200E+02
     33.368  0.0000E+00  0.0000E+00  0.3200E+02  0.3200E+02
     33.484  0.0000E+00  0.0000E+00  0.3200E+02  0.3200E+02
     33.599  0.0000E+00  0.0000E+00  0.3200E+02  0.3200E+02
     33.714  0.0000E+00  0.0000E+00  0.3200E+02  0.3200E+02
