    4    4    1    2
  0.1064635E+02  0.3492102E-09  0.3492102E-09  0.3492102E-09  0.5000000E-15
  1.000000000000000E-004
  CAR 
 automatically generated by pyflamestk   
     40      4     32
 
  0.1250000E+00  0.1250000E+00  0.1250000E+00  0.1250000E+00
    1        1.119616      1.119617   1.000000   1.000000
    2        5.309468      5.309474   1.000000   1.000000
    3        5.309468      5.309474   1.000000   1.000000
    4        5.309468      5.309474   1.000000   1.000000
    5        5.880597      5.880601   1.000000   1.000000
    6        5.880597      5.880601   1.000000   1.000000
    7        5.880597      5.880601   1.000000   1.000000
    8        7.416211      7.416215   1.000000   1.000000
    9        7.696465      7.696469   1.000000   1.000000
   10        7.696465      7.696469   1.000000   1.000000
   11        8.674332      8.674342   1.000000   1.000000
   12        8.674332      8.674342   1.000000   1.000000
   13        8.691034      8.691038   1.000000   1.000000
   14        8.691034      8.691038   1.000000   1.000000
   15        8.691034      8.691038   1.000000   1.000000
   16        9.166657      9.166666   1.021461   1.021463
   17        9.166657      9.166666   1.021461   1.021463
   18        9.166657      9.166666   1.021461   1.021463
   19        9.568126      9.568132   0.207722   0.207702
   20        9.568126      9.568132   0.207722   0.207702
   21        9.568126      9.568132   0.207722   0.207702
   22       12.338886     12.338889  -0.000000  -0.000000
   23       12.338886     12.338889  -0.000000  -0.000000
   24       12.338886     12.338889  -0.000000  -0.000000
   25       20.698637     20.698640   0.000000   0.000000
   26       20.698637     20.698640   0.000000   0.000000
   27       20.698637     20.698640   0.000000   0.000000
   28       22.029377     22.029380   0.000000   0.000000
   29       22.029377     22.029380   0.000000   0.000000
   30       22.029377     22.029380   0.000000   0.000000
   31       25.670098     25.670099   0.000000   0.000000
   32       25.670098     25.670099   0.000000   0.000000
 
  0.3750000E+00  0.1250000E+00  0.1250000E+00  0.3750000E+00
    1        2.636759      2.636760   1.000000   1.000000
    2        4.775742      4.775745   1.000000   1.000000
    3        5.971223      5.971230   1.000000   1.000000
    4        5.971223      5.971230   1.000000   1.000000
    5        6.327812      6.327816   1.000000   1.000000
    6        6.332157      6.332161   1.000000   1.000000
    7        6.332157      6.332161   1.000000   1.000000
    8        6.973886      6.973890   1.000000   1.000000
    9        7.370844      7.370848   1.000000   1.000000
   10        7.370844      7.370848   1.000000   1.000000
   11        7.793870      7.793877   1.000000   1.000000
   12        7.855216      7.855222   1.000000   1.000000
   13        8.009606      8.009611   1.000000   1.000000
   14        8.516451      8.516458   1.000000   1.000000
   15        8.584225      8.584231   1.000000   1.000000
   16        8.717617      8.717627   1.000000   1.000000
   17        8.717617      8.717627   1.000000   1.000000
   18        8.977725      8.977735   1.000806   1.000806
   19        9.366829      9.366838   0.934695   0.934677
   20        9.478659      9.478664   0.563164   0.563143
   21        9.478659      9.478664   0.563164   0.563143
   22        9.594695      9.594700   0.126998   0.126984
   23       14.662804     14.662807  -0.000000  -0.000000
   24       14.662804     14.662807  -0.000000  -0.000000
   25       17.980669     17.980671   0.000000   0.000000
   26       17.980669     17.980671   0.000000   0.000000
   27       21.715365     21.715367   0.000000   0.000000
   28       21.715365     21.715367   0.000000   0.000000
   29       23.838857     23.838859   0.000000   0.000000
   30       23.994700     23.994702   0.000000   0.000000
   31       23.994700     23.994702   0.000000   0.000000
   32       26.976398     26.976398   0.000000   0.000000
 
  0.3750000E+00  0.3750000E+00  0.1250000E+00  0.3750000E+00
    1        3.904202      3.904203   1.000000   1.000000
    2        5.521377      5.521380   1.000000   1.000000
    3        5.521377      5.521380   1.000000   1.000000
    4        6.020182      6.020186   1.000000   1.000000
    5        6.612112      6.612119   1.000000   1.000000
    6        6.722473      6.722478   1.000000   1.000000
    7        6.722473      6.722478   1.000000   1.000000
    8        7.003481      7.003485   1.000000   1.000000
    9        7.184990      7.184996   1.000000   1.000000
   10        7.184990      7.184996   1.000000   1.000000
   11        7.301674      7.301677   1.000000   1.000000
   12        7.615838      7.615845   1.000000   1.000000
   13        7.949394      7.949402   1.000000   1.000000
   14        8.302731      8.302739   1.000000   1.000000
   15        8.302731      8.302739   1.000000   1.000000
   16        8.305127      8.305136   1.000000   1.000000
   17        8.605501      8.605508   1.000000   1.000000
   18        9.135066      9.135073   1.014709   1.014710
   19        9.135066      9.135073   1.014709   1.014710
   20        9.197638      9.197644   1.028535   1.028536
   21        9.547801      9.547808   0.279851   0.279823
   22       11.084496     11.084501  -0.000000  -0.000000
   23       11.084496     11.084501  -0.000000  -0.000000
   24       13.405271     13.405274  -0.000000  -0.000000
   25       16.954816     16.954819   0.000000   0.000000
   26       19.798134     19.798136   0.000000   0.000000
   27       19.798134     19.798136   0.000000   0.000000
   28       22.819397     22.819399   0.000000   0.000000
   29       22.935167     22.935169   0.000000   0.000000
   30       25.438645     25.438647   0.000000   0.000000
   31       25.438645     25.438647   0.000000   0.000000
   32       28.331055     28.331056   0.000000   0.000000
 
  0.3750000E+00  0.3750000E+00  0.3750000E+00  0.1250000E+00
    1        4.513010      4.513012   1.000000   1.000000
    2        5.259594      5.259597   1.000000   1.000000
    3        5.259594      5.259597   1.000000   1.000000
    4        5.259594      5.259597   1.000000   1.000000
    5        7.223221      7.223229   1.000000   1.000000
    6        7.223221      7.223229   1.000000   1.000000
    7        7.223221      7.223229   1.000000   1.000000
    8        7.617287      7.617295   1.000000   1.000000
    9        7.617287      7.617295   1.000000   1.000000
   10        7.777626      7.777633   1.000000   1.000000
   11        7.777626      7.777633   1.000000   1.000000
   12        7.777626      7.777633   1.000000   1.000000
   13        7.854431      7.854433   1.000000   1.000000
   14        7.877720      7.877723   1.000000   1.000000
   15        7.877720      7.877723   1.000000   1.000000
   16        7.877720      7.877723   1.000000   1.000000
   17        9.239594      9.239601   1.035159   1.035159
   18        9.239594      9.239601   1.035159   1.035159
   19        9.480805      9.480812   0.554154   0.554124
   20        9.480805      9.480812   0.554154   0.554124
   21        9.480805      9.480812   0.554154   0.554124
   22       11.104747     11.104751  -0.000000  -0.000000
   23       11.104747     11.104751  -0.000000  -0.000000
   24       11.104747     11.104751  -0.000000  -0.000000
   25       16.303573     16.303576   0.000000   0.000000
   26       16.303573     16.303576   0.000000   0.000000
   27       16.303573     16.303576   0.000000   0.000000
   28       18.747444     18.747447   0.000000   0.000000
   29       29.379705     29.379705   0.000000   0.000000
   30       29.379705     29.379705   0.000000   0.000000
   31       29.379705     29.379705   0.000000   0.000000
   32       31.714298     31.714301   0.000000   0.000000
