ITEM: TIMESTEP
1
ITEM: NUMBER OF ATOMS
13957
ITEM: BOX BOUNDS pp pp ss
0 43.111
0 24.8902
-0.02 140.247
ITEM: ATOMS id type xs ys zs c_peratom fx fy fz 
1 1 0 0.1 0.000119834 -3.90415 0 0 0.00644569 
2 1 0.0166667 0.05 0.0146609 -4.40767 0 0 -0.0227919 
3 1 0.0166667 0.15 0.014663 -4.4072 0 0 -0.0265791 
4 1 0 0 0.000119834 -3.90416 0 0 0.00643529 
5 1 0.05 0.05 0.000119827 -3.90396 0 0 0.00593027 
10 1 0.05 0.15 0.000119896 -3.90404 0 0 0.00772761 
35 1 0.0333333 0 0.0291143 -4.44864 0 0 0.0248514 
43 1 0.0333333 0.1 0.0291143 -4.44885 0 0 0.0252263 
44 1 0.0666667 0.1 0.014661 -4.40776 0 0 -0.0233569 
45 1 0.0833333 0.05 0.0291131 -4.44869 0 0 0.0239512 
46 1 0.0833333 0.15 0.0291143 -4.4485 0 0 0.025065 
47 1 0.0666667 0 0.014661 -4.40777 0 0 -0.0233581 
48 1 0.1 0 0.000119827 -3.90397 0 0 0.00587051 
49 1 0.116667 0.05 0.0146608 -4.40765 0 0 -0.0238666 
62 1 0.116667 0.15 0.0146608 -4.40767 0 0 -0.0233314 
64 1 0.1 0.1 0.000119827 -3.90397 0 0 0.00586945 
65 1 0.15 0.05 0.000119827 -3.90399 0 0 0.00580968 
66 1 0.15 0.15 0.000119827 -3.90398 0 0 0.00581531 
153 1 0.133333 0.1 0.029113 -4.44869 0 0 0.0235742 
156 1 0.133333 0 0.029113 -4.44869 0 0 0.0235704 
157 1 0.166667 0 0.0146608 -4.40765 0 0 -0.0238543 
158 1 0.183333 0.05 0.029113 -4.44869 0 0 0.0236141 
179 1 0.183333 0.15 0.029113 -4.44869 0 0 0.0236168 
181 1 0.166667 0.1 0.0146608 -4.40765 0 0 -0.0238545 
182 1 0.2 0.1 0.000119827 -3.90399 0 0 0.00580994 
183 1 0.216667 0.05 0.0146608 -4.40765 0 0 -0.0238548 
184 1 0.216667 0.15 0.0146608 -4.40765 0 0 -0.0238547 
185 1 0.2 0 0.000119827 -3.90399 0 0 0.0058099 
186 1 0.25 0.05 0.000119827 -3.90399 0 0 0.00580989 
214 1 0.25 0.15 0.000119827 -3.90399 0 0 0.00580989 
335 1 0.233333 0 0.029113 -4.44869 0 0 0.0236136 
368 1 0.233333 0.1 0.029113 -4.44869 0 0 0.0236136 
369 1 0.266667 0.1 0.0146608 -4.40765 0 0 -0.0238547 
370 1 0.283333 0.05 0.029113 -4.44869 0 0 0.0236136 
371 1 0.283333 0.15 0.029113 -4.44869 0 0 0.0236136 
372 1 0.266667 0 0.0146608 -4.40765 0 0 -0.0238547 
373 1 0.3 0 0.000119827 -3.90399 0 0 0.00580988 
374 1 0.316667 0.05 0.0146608 -4.40765 0 0 -0.0238547 
406 1 0.316667 0.15 0.0146608 -4.40765 0 0 -0.0238547 
408 1 0.3 0.1 0.000119827 -3.90399 0 0 0.00580988 
409 1 0.35 0.05 0.000119827 -3.90399 0 0 0.00580988 
410 1 0.35 0.15 0.000119827 -3.90399 0 0 0.00580988 
618 1 0.333333 0.1 0.029113 -4.44869 0 0 0.0236136 
621 1 0.333333 0 0.029113 -4.44869 0 0 0.0236136 
622 1 0.366667 0 0.0146608 -4.40765 0 0 -0.0238547 
623 1 0.383333 0.05 0.029113 -4.44869 0 0 0.0236136 
655 1 0.383333 0.15 0.029113 -4.44869 0 0 0.0236136 
657 1 0.366667 0.1 0.0146608 -4.40765 0 0 -0.0238547 
658 1 0.4 0.1 0.000119827 -3.90399 0 0 0.00580988 
659 1 0.416667 0.05 0.0146608 -4.40765 0 0 -0.0238547 
660 1 0.416667 0.15 0.0146608 -4.40765 0 0 -0.0238547 
661 1 0.4 0 0.000119827 -3.90399 0 0 0.00580988 
662 1 0.45 0.05 0.000119827 -3.90399 0 0 0.00580988 
693 1 0.45 0.15 0.000119827 -3.90399 0 0 0.00580988 
932 1 0.433333 0 0.029113 -4.44869 0 0 0.0236136 
967 1 0.433333 0.1 0.029113 -4.44869 0 0 0.0236136 
968 1 0.466667 0.1 0.0146608 -4.40765 0 0 -0.0238545 
969 1 0.483333 0.05 0.029113 -4.44869 0 0 0.0236135 
970 1 0.483333 0.15 0.029113 -4.44869 0 0 0.0236135 
971 1 0.466667 0 0.0146608 -4.40765 0 0 -0.0238545 
972 1 0.5 0 0.000119827 -3.90399 0 0 0.0058099 
973 1 0.516667 0.05 0.0146608 -4.40766 0 0 -0.0238546 
1005 1 0.516667 0.15 0.0146608 -4.40766 0 0 -0.0238545 
1007 1 0.5 0.1 0.000119827 -3.90399 0 0 0.0058099 
1008 1 0.55 0.05 0.000119827 -3.90401 0 0 0.00580965 
1009 1 0.55 0.15 0.000119827 -3.90401 0 0 0.00580962 
1338 1 0.533333 0.1 0.029113 -4.44868 0 0 0.0235998 
1341 1 0.533333 0 0.029113 -4.44868 0 0 0.0235998 
1342 1 0.566667 0 0.0146608 -4.40767 0 0 -0.0237244 
1343 1 0.583333 0.05 0.029113 -4.44873 0 0 0.0229651 
1375 1 0.583333 0.15 0.029113 -4.44873 0 0 0.0229652 
1377 1 0.566667 0.1 0.0146608 -4.40767 0 0 -0.0237236 
1378 1 0.6 0.1 0.000119868 -3.90396 0 0 0.00468731 
1379 1 0.616667 0.05 0.0146583 -4.40827 0 0 -0.0230886 
1380 1 0.616667 0.15 0.0146583 -4.40827 0 0 -0.0230933 
1381 1 0.6 0 0.000119868 -3.90395 0 0 0.00469913 
1382 1 0.65 0.05 0.0001229 -3.88981 0 0 0.00743661 
1413 1 0.65 0.15 0.0001229 -3.88982 0 0 0.00741431 
1772 1 0.633333 0 0.0291124 -4.44815 0 0 0.0217262 
1807 1 0.633333 0.1 0.0291124 -4.44814 0 0 0.021749 
1808 1 0.666667 0.1 0.0146615 -4.37663 0 0 0.0118408 
1809 1 0.683333 0.05 0.0291015 -4.4508 0 0 -0.0146886 
1810 1 0.683333 0.15 0.0291015 -4.45079 0 0 -0.0147067 
1811 1 0.666667 0 0.0146615 -4.37662 0 0 0.0118298 
1812 1 0.7 0 0.0002512 -3.54373 0 0 0.037269 
1813 1 0.716667 0.05 0.0145256 -4.25493 0 0 0.0551594 
1845 1 0.716667 0.15 0.0145256 -4.25494 0 0 0.0552006 
1847 1 0.7 0.1 0.00025124 -3.54367 0 0 0.0371578 
2288 1 0.733333 0.1 0.0291742 -4.42713 0 0 -0.0960939 
2291 1 0.733333 0 0.0291743 -4.42711 0 0 -0.0957656 
2292 1 0.766667 0 0.0144569 -4.18171 0 0 -0.0640243 
2293 1 0.783333 0.05 0.0291356 -4.43955 0 0 -0.0865582 
2325 1 0.783333 0.15 0.0291356 -4.43959 0 0 -0.0865352 
2327 1 0.766667 0.1 0.0144568 -4.18173 0 0 -0.0644148 
2328 1 0.8 0.1 0.000253024 -3.54377 0 0 0.0605649 
2329 1 0.816667 0.05 0.0146598 -4.34951 0 0 0.0627541 
2330 1 0.816667 0.15 0.0146598 -4.34952 0 0 0.0628088 
2331 1 0.8 0 0.000252989 -3.54388 0 0 0.0609611 
2332 1 0.85 0.05 0.000122601 -3.88977 0 0 -0.000549225 
2363 1 0.85 0.15 0.000122601 -3.88976 0 0 -0.000539614 
2837 1 0.833333 0 0.0291058 -4.44847 0 0 0.0185991 
2872 1 0.833333 0.1 0.0291058 -4.44856 0 0 0.0184457 
2873 1 0.866667 0.1 0.0146499 -4.40797 0 0 -0.0258568 
2874 1 0.883333 0.05 0.0291127 -4.44899 0 0 0.0177995 
2875 1 0.883333 0.15 0.0291129 -4.449 0 0 0.0180553 
2876 1 0.866667 0 0.01465 -4.40796 0 0 -0.0259059 
2877 1 0.9 0 0.000119889 -3.90393 0 0 0.00337383 
2878 1 0.916667 0.05 0.0146607 -4.40787 0 0 -0.0234674 
2910 1 0.916667 0.15 0.014661 -4.40718 0 0 -0.0275701 
2912 1 0.9 0.1 0.000119889 -3.90393 0 0 0.00337346 
2913 1 0.95 0.05 0.000119828 -3.90403 0 0 0.00605836 
2914 1 0.95 0.15 0.000119843 -3.90438 0 0 0.00606766 
3483 1 0.933333 0.1 0.0291134 -4.4488 0 0 0.024655 
3486 1 0.933333 0 0.0291134 -4.44863 0 0 0.0248169 
3487 1 0.966667 0 0.014661 -4.40709 0 0 -0.0279186 
3488 1 0.983333 0.05 0.0291133 -4.44904 0 0 0.0245871 
3520 1 0.983333 0.15 0.0290968 -4.43457 0 0 0.0220967 
3522 1 0.966667 0.1 0.0146611 -4.40713 0 0 -0.0279526 
6 1 0 0.3 0.000121366 -3.90012 0 0 -0.0281296 
7 1 0.0166667 0.25 0.0146304 -4.39648 0 0 0.0430582 
9 1 0 0.2 0.000120245 -3.90337 0 0 -0.00119252 
11 1 0.05 0.25 0.000120317 -3.90326 0 0 8.16953e-05 
40 1 0.0333333 0.2 0.0291181 -4.42347 0 0 0.013655 
56 1 0.0333333 0.3 0.0292514 -4.33215 0 0 0.0494112 
57 1 0.0666667 0.3 0.0146661 -4.40794 0 0 0.00305644 
58 1 0.0833333 0.25 0.0290983 -4.43403 0 0 0.0226082 
60 1 0.0666667 0.2 0.0146632 -4.40732 0 0 -0.0264278 
61 1 0.1 0.2 0.000119834 -3.90415 0 0 0.00650648 
63 1 0.116667 0.25 0.0146611 -4.40708 0 0 -0.0273036 
82 1 0.1 0.3 0.00011985 -3.9045 0 0 0.00669513 
83 1 0.15 0.25 0.000119828 -3.90397 0 0 0.00597207 
174 1 0.133333 0.3 0.0291136 -4.44871 0 0 0.0247486 
177 1 0.133333 0.2 0.0291132 -4.4487 0 0 0.0237856 
178 1 0.166667 0.2 0.0146608 -4.40769 0 0 -0.023846 
180 1 0.183333 0.25 0.029113 -4.44869 0 0 0.0235843 
209 1 0.166667 0.3 0.0146608 -4.40778 0 0 -0.023808 
210 1 0.2 0.3 0.000119827 -3.90399 0 0 0.0058083 
211 1 0.216667 0.25 0.0146608 -4.40765 0 0 -0.0238533 
213 1 0.2 0.2 0.000119827 -3.90399 0 0 0.00580945 
215 1 0.25 0.25 0.000119827 -3.90399 0 0 0.00580989 
365 1 0.233333 0.2 0.029113 -4.44869 0 0 0.023614 
400 1 0.233333 0.3 0.029113 -4.44869 0 0 0.0236151 
401 1 0.266667 0.3 0.0146608 -4.40765 0 0 -0.0238548 
402 1 0.283333 0.25 0.029113 -4.44869 0 0 0.0236136 
404 1 0.266667 0.2 0.0146608 -4.40765 0 0 -0.0238548 
405 1 0.3 0.2 0.000119827 -3.90399 0 0 0.00580988 
407 1 0.316667 0.25 0.0146608 -4.40765 0 0 -0.0238547 
436 1 0.3 0.3 0.000119827 -3.90399 0 0 0.00580988 
437 1 0.35 0.25 0.000119827 -3.90399 0 0 0.00580988 
650 1 0.333333 0.3 0.029113 -4.44869 0 0 0.0236136 
653 1 0.333333 0.2 0.029113 -4.44869 0 0 0.0236136 
654 1 0.366667 0.2 0.0146608 -4.40765 0 0 -0.0238547 
656 1 0.383333 0.25 0.029113 -4.44869 0 0 0.0236136 
688 1 0.366667 0.3 0.0146608 -4.40765 0 0 -0.0238547 
689 1 0.4 0.3 0.000119827 -3.90399 0 0 0.00580988 
690 1 0.416667 0.25 0.0146608 -4.40765 0 0 -0.0238547 
692 1 0.4 0.2 0.000119827 -3.90399 0 0 0.00580988 
694 1 0.45 0.25 0.000119827 -3.90399 0 0 0.00580988 
964 1 0.433333 0.2 0.029113 -4.44869 0 0 0.0236136 
999 1 0.433333 0.3 0.029113 -4.44869 0 0 0.0236136 
1000 1 0.466667 0.3 0.0146608 -4.40765 0 0 -0.0238545 
1001 1 0.483333 0.25 0.029113 -4.44869 0 0 0.0236135 
1003 1 0.466667 0.2 0.0146608 -4.40765 0 0 -0.0238545 
1004 1 0.5 0.2 0.000119827 -3.90399 0 0 0.0058099 
1006 1 0.516667 0.25 0.0146608 -4.40766 0 0 -0.0238545 
1035 1 0.5 0.3 0.000119827 -3.90399 0 0 0.0058099 
1036 1 0.55 0.25 0.000119827 -3.90401 0 0 0.00580962 
1370 1 0.533333 0.3 0.029113 -4.44868 0 0 0.0235999 
1373 1 0.533333 0.2 0.029113 -4.44868 0 0 0.0235999 
1374 1 0.566667 0.2 0.0146608 -4.40767 0 0 -0.0237234 
1376 1 0.583333 0.25 0.029113 -4.44873 0 0 0.0229652 
1408 1 0.566667 0.3 0.0146608 -4.40767 0 0 -0.0237234 
1409 1 0.6 0.3 0.000119868 -3.90396 0 0 0.0046872 
1410 1 0.616667 0.25 0.0146583 -4.40827 0 0 -0.0230932 
1412 1 0.6 0.2 0.000119868 -3.90396 0 0 0.0046872 
1414 1 0.65 0.25 0.0001229 -3.88982 0 0 0.00741421 
1804 1 0.633333 0.2 0.0291124 -4.44814 0 0 0.0217494 
1839 1 0.633333 0.3 0.0291124 -4.44814 0 0 0.0217494 
1840 1 0.666667 0.3 0.0146615 -4.37663 0 0 0.011841 
1841 1 0.683333 0.25 0.0291015 -4.45079 0 0 -0.0147067 
1843 1 0.666667 0.2 0.0146615 -4.37663 0 0 0.011841 
1844 1 0.7 0.2 0.00025124 -3.54367 0 0 0.0371537 
1846 1 0.716667 0.25 0.0145256 -4.25494 0 0 0.0552005 
1873 1 0.7 0.3 0.00025124 -3.54367 0 0 0.0371537 
2320 1 0.733333 0.3 0.0291742 -4.42713 0 0 -0.0960958 
2323 1 0.733333 0.2 0.0291742 -4.42713 0 0 -0.0960958 
2324 1 0.766667 0.2 0.0144568 -4.18173 0 0 -0.0644224 
2326 1 0.783333 0.25 0.0291356 -4.43959 0 0 -0.0865315 
2358 1 0.766667 0.3 0.0144568 -4.18173 0 0 -0.0644225 
2359 1 0.8 0.3 0.000253024 -3.54377 0 0 0.0605599 
2360 1 0.816667 0.25 0.0146598 -4.34951 0 0 0.062803 
2362 1 0.8 0.2 0.000253024 -3.54377 0 0 0.0605602 
2364 1 0.85 0.25 0.000122601 -3.88974 0 0 -0.000479396 
2869 1 0.833333 0.2 0.0291058 -4.44856 0 0 0.0184029 
2904 1 0.833333 0.3 0.0291059 -4.44857 0 0 0.0184227 
2905 1 0.866667 0.3 0.0146502 -4.40807 0 0 -0.024705 
2906 1 0.883333 0.25 0.0291142 -4.44882 0 0 0.0192095 
2908 1 0.866667 0.2 0.01465 -4.40798 0 0 -0.0253096 
2909 1 0.9 0.2 0.000119896 -3.90411 0 0 0.00401419 
2911 1 0.916667 0.25 0.0146632 -4.40668 0 0 -0.0305128 
2940 1 0.9 0.3 0.000119964 -3.90418 0 0 0.00585569 
2941 1 0.95 0.25 0.000120255 -3.9036 0 0 -0.00130185 
3515 1 0.933333 0.3 0.0291018 -4.40896 0 0 0.0104924 
3518 1 0.933333 0.2 0.029097 -4.43416 0 0 0.0224605 
3519 1 0.966667 0.2 0.0146639 -4.40784 0 0 0.00194804 
3521 1 0.983333 0.25 0.0292317 -4.34406 0 0 0.0546191 
3548 1 0.966667 0.3 0.014632 -4.39722 0 0 0.0733175 
8 1 0.0166667 0.35 0.0145964 -4.38553 0 0 0.110984 
12 1 0 0.5 0.000120245 -3.90336 0 0 -0.00118713 
13 1 0.0166667 0.45 0.0146304 -4.39648 0 0 0.0430587 
15 1 0 0.4 0.000121366 -3.90012 0 0 -0.0281296 
16 1 0.05 0.35 0.000120671 -3.90239 0 0 -0.0091388 
17 1 0.05 0.45 0.000120317 -3.90326 0 0 8.14978e-05 
53 1 0.0333333 0.4 0.0292514 -4.33215 0 0 0.049412 
59 1 0.0833333 0.35 0.0290816 -4.41983 0 0 0.0193458 
74 1 0.0333333 0.5 0.0291181 -4.42347 0 0 0.0136167 
75 1 0.0666667 0.5 0.0146632 -4.40732 0 0 -0.0264328 
76 1 0.0833333 0.45 0.0290983 -4.43403 0 0 0.0226124 
78 1 0.0666667 0.4 0.0146661 -4.40794 0 0 0.00305628 
79 1 0.1 0.4 0.00011985 -3.9045 0 0 0.00669524 
80 1 0.116667 0.35 0.0146613 -4.40649 0 0 -0.0316795 
81 1 0.116667 0.45 0.0146611 -4.40708 0 0 -0.0273037 
84 1 0.15 0.35 0.000119828 -3.90397 0 0 0.00612228 
99 1 0.1 0.5 0.000119834 -3.90415 0 0 0.00650621 
100 1 0.15 0.45 0.000119828 -3.90397 0 0 0.00597217 
202 1 0.133333 0.5 0.0291132 -4.4487 0 0 0.0237897 
205 1 0.133333 0.4 0.0291136 -4.44871 0 0 0.0247486 
206 1 0.166667 0.4 0.0146608 -4.40778 0 0 -0.023808 
207 1 0.183333 0.35 0.029113 -4.44869 0 0 0.0235511 
208 1 0.183333 0.45 0.029113 -4.44869 0 0 0.0235843 
233 1 0.166667 0.5 0.0146608 -4.40769 0 0 -0.0238462 
212 1 0.216667 0.35 0.0146608 -4.40765 0 0 -0.0238519 
234 1 0.2 0.5 0.000119827 -3.90399 0 0 0.00580948 
235 1 0.216667 0.45 0.0146608 -4.40765 0 0 -0.0238533 
237 1 0.2 0.4 0.000119827 -3.90399 0 0 0.0058083 
238 1 0.25 0.35 0.000119827 -3.90399 0 0 0.00580987 
239 1 0.25 0.45 0.000119827 -3.90399 0 0 0.00580989 
397 1 0.233333 0.4 0.029113 -4.44869 0 0 0.0236151 
403 1 0.283333 0.35 0.029113 -4.44869 0 0 0.0236136 
428 1 0.233333 0.5 0.029113 -4.44869 0 0 0.023614 
429 1 0.266667 0.5 0.0146608 -4.40765 0 0 -0.0238548 
430 1 0.283333 0.45 0.029113 -4.44869 0 0 0.0236136 
432 1 0.266667 0.4 0.0146608 -4.40765 0 0 -0.0238548 
433 1 0.3 0.4 0.000119827 -3.90399 0 0 0.00580988 
434 1 0.316667 0.35 0.0146608 -4.40765 0 0 -0.0238547 
435 1 0.316667 0.45 0.0146608 -4.40765 0 0 -0.0238547 
438 1 0.35 0.35 0.000119827 -3.90399 0 0 0.00580988 
456 1 0.3 0.5 0.000119827 -3.90399 0 0 0.00580988 
457 1 0.35 0.45 0.000119827 -3.90399 0 0 0.00580988 
681 1 0.333333 0.5 0.029113 -4.44869 0 0 0.0236136 
684 1 0.333333 0.4 0.029113 -4.44869 0 0 0.0236136 
685 1 0.366667 0.4 0.0146608 -4.40765 0 0 -0.0238547 
686 1 0.383333 0.35 0.029113 -4.44869 0 0 0.0236136 
687 1 0.383333 0.45 0.029113 -4.44869 0 0 0.0236136 
712 1 0.366667 0.5 0.0146608 -4.40765 0 0 -0.0238547 
691 1 0.416667 0.35 0.0146608 -4.40765 0 0 -0.0238547 
713 1 0.4 0.5 0.000119827 -3.90399 0 0 0.00580988 
714 1 0.416667 0.45 0.0146608 -4.40765 0 0 -0.0238547 
716 1 0.4 0.4 0.000119827 -3.90399 0 0 0.00580988 
717 1 0.45 0.35 0.000119827 -3.90399 0 0 0.00580988 
718 1 0.45 0.45 0.000119827 -3.90399 0 0 0.00580988 
996 1 0.433333 0.4 0.029113 -4.44869 0 0 0.0236136 
1002 1 0.483333 0.35 0.029113 -4.44869 0 0 0.0236135 
1027 1 0.433333 0.5 0.029113 -4.44869 0 0 0.0236136 
1028 1 0.466667 0.5 0.0146608 -4.40765 0 0 -0.0238545 
1029 1 0.483333 0.45 0.029113 -4.44869 0 0 0.0236135 
1031 1 0.466667 0.4 0.0146608 -4.40765 0 0 -0.0238545 
1032 1 0.5 0.4 0.000119827 -3.90399 0 0 0.0058099 
1033 1 0.516667 0.35 0.0146608 -4.40766 0 0 -0.0238545 
1034 1 0.516667 0.45 0.0146608 -4.40766 0 0 -0.0238546 
1037 1 0.55 0.35 0.000119827 -3.90401 0 0 0.00580962 
1055 1 0.5 0.5 0.000119827 -3.90399 0 0 0.0058099 
1056 1 0.55 0.45 0.000119827 -3.90401 0 0 0.00580965 
1401 1 0.533333 0.5 0.029113 -4.44868 0 0 0.0235998 
1404 1 0.533333 0.4 0.029113 -4.44868 0 0 0.0235998 
1405 1 0.566667 0.4 0.0146608 -4.40767 0 0 -0.0237236 
1406 1 0.583333 0.35 0.029113 -4.44873 0 0 0.0229652 
1407 1 0.583333 0.45 0.029113 -4.44873 0 0 0.0229651 
1432 1 0.566667 0.5 0.0146608 -4.40767 0 0 -0.0237244 
1411 1 0.616667 0.35 0.0146583 -4.40827 0 0 -0.0230933 
1433 1 0.6 0.5 0.000119868 -3.90395 0 0 0.00469913 
1434 1 0.616667 0.45 0.0146583 -4.40827 0 0 -0.0230886 
1436 1 0.6 0.4 0.000119868 -3.90396 0 0 0.00468731 
1437 1 0.65 0.35 0.0001229 -3.88982 0 0 0.00741431 
1438 1 0.65 0.45 0.0001229 -3.88981 0 0 0.00743661 
1836 1 0.633333 0.4 0.0291124 -4.44814 0 0 0.021749 
1842 1 0.683333 0.35 0.0291015 -4.45079 0 0 -0.0147067 
1865 1 0.633333 0.5 0.0291124 -4.44815 0 0 0.0217262 
1866 1 0.666667 0.5 0.0146615 -4.37662 0 0 0.0118298 
1867 1 0.683333 0.45 0.0291015 -4.4508 0 0 -0.0146886 
1869 1 0.666667 0.4 0.0146615 -4.37663 0 0 0.0118408 
1870 1 0.7 0.4 0.00025124 -3.54367 0 0 0.0371578 
1871 1 0.716667 0.35 0.0145256 -4.25494 0 0 0.0552006 
1872 1 0.716667 0.45 0.0145256 -4.25493 0 0 0.0551594 
1891 1 0.7 0.5 0.0002512 -3.54373 0 0 0.037269 
2351 1 0.733333 0.5 0.0291743 -4.42711 0 0 -0.0957657 
2354 1 0.733333 0.4 0.0291742 -4.42713 0 0 -0.0960941 
2355 1 0.766667 0.4 0.0144568 -4.18173 0 0 -0.0644151 
2356 1 0.783333 0.35 0.0291356 -4.43959 0 0 -0.0865279 
2357 1 0.783333 0.45 0.0291356 -4.43955 0 0 -0.0865541 
2382 1 0.766667 0.5 0.0144569 -4.18171 0 0 -0.0640245 
2361 1 0.816667 0.35 0.0146598 -4.34951 0 0 0.0627938 
2383 1 0.8 0.5 0.000252989 -3.54388 0 0 0.0609608 
2384 1 0.816667 0.45 0.0146598 -4.34951 0 0 0.062749 
2386 1 0.8 0.4 0.000253024 -3.54377 0 0 0.0605643 
2387 1 0.85 0.35 0.000122601 -3.88973 0 0 -0.000426358 
2388 1 0.85 0.45 0.000122601 -3.88974 0 0 -0.00048339 
2901 1 0.833333 0.4 0.0291059 -4.44857 0 0 0.0184266 
2907 1 0.883333 0.35 0.0291157 -4.44863 0 0 0.0202335 
2932 1 0.833333 0.5 0.0291058 -4.44848 0 0 0.0185613 
2933 1 0.866667 0.5 0.01465 -4.40797 0 0 -0.0253549 
2934 1 0.883333 0.45 0.0291142 -4.44883 0 0 0.0192154 
2936 1 0.866667 0.4 0.0146502 -4.40807 0 0 -0.0247037 
2937 1 0.9 0.4 0.000119964 -3.90418 0 0 0.00585565 
2938 1 0.916667 0.35 0.0146656 -4.40685 0 0 -0.0288041 
2939 1 0.916667 0.45 0.0146632 -4.40668 0 0 -0.030511 
2942 1 0.95 0.35 0.000120767 -3.90251 0 0 -0.00901328 
2960 1 0.9 0.5 0.000119896 -3.90411 0 0 0.00401302 
2961 1 0.95 0.45 0.000120255 -3.9036 0 0 -0.00130233 
3541 1 0.933333 0.5 0.029097 -4.43416 0 0 0.0224279 
3544 1 0.933333 0.4 0.0291018 -4.40896 0 0 0.0104929 
3545 1 0.966667 0.4 0.014632 -4.39722 0 0 0.0733175 
3546 1 0.983333 0.35 0.029375 -4.26316 0 0 0.169819 
3547 1 0.983333 0.45 0.0292317 -4.34406 0 0 0.0546228 
3566 1 0.966667 0.5 0.0146639 -4.40788 0 0 0.00195593 
14 1 0.0166667 0.55 0.0146631 -4.40722 0 0 -0.0260442 
19 1 0.0166667 0.65 0.014663 -4.40721 0 0 -0.026277 
21 1 0 0.6 0.000119841 -3.90434 0 0 0.00706094 
22 1 0.05 0.55 0.000119896 -3.90402 0 0 0.00778837 
23 1 0.05 0.65 0.000119896 -3.90403 0 0 0.00772025 
71 1 0.0333333 0.6 0.0291155 -4.44865 0 0 0.0264027 
77 1 0.0833333 0.55 0.0291143 -4.4485 0 0 0.0250905 
93 1 0.0833333 0.65 0.0291143 -4.44848 0 0 0.025049 
95 1 0.0666667 0.6 0.0146612 -4.40789 0 0 -0.022847 
96 1 0.1 0.6 0.000119827 -3.90396 0 0 0.00593025 
97 1 0.116667 0.55 0.0146608 -4.40766 0 0 -0.0233364 
98 1 0.116667 0.65 0.0146608 -4.40766 0 0 -0.0233265 
101 1 0.15 0.55 0.000119827 -3.90398 0 0 0.00581504 
112 1 0.15 0.65 0.000119827 -3.90398 0 0 0.00581518 
229 1 0.133333 0.6 0.029113 -4.44869 0 0 0.0235323 
230 1 0.166667 0.6 0.0146608 -4.40765 0 0 -0.0238538 
231 1 0.183333 0.55 0.029113 -4.44869 0 0 0.0236175 
232 1 0.183333 0.65 0.029113 -4.44869 0 0 0.0236168 
236 1 0.216667 0.55 0.0146608 -4.40765 0 0 -0.0238548 
251 1 0.216667 0.65 0.0146608 -4.40765 0 0 -0.0238547 
253 1 0.2 0.6 0.000119827 -3.90399 0 0 0.00580989 
254 1 0.25 0.55 0.000119827 -3.90399 0 0 0.0058099 
255 1 0.25 0.65 0.000119827 -3.90399 0 0 0.00580989 
425 1 0.233333 0.6 0.029113 -4.44869 0 0 0.0236136 
431 1 0.283333 0.55 0.029113 -4.44869 0 0 0.0236136 
450 1 0.283333 0.65 0.029113 -4.44869 0 0 0.0236136 
452 1 0.266667 0.6 0.0146608 -4.40765 0 0 -0.0238548 
453 1 0.3 0.6 0.000119827 -3.90399 0 0 0.00580988 
454 1 0.316667 0.55 0.0146608 -4.40765 0 0 -0.0238547 
455 1 0.316667 0.65 0.0146608 -4.40765 0 0 -0.0238547 
458 1 0.35 0.55 0.000119827 -3.90399 0 0 0.00580988 
469 1 0.35 0.65 0.000119827 -3.90399 0 0 0.00580988 
708 1 0.333333 0.6 0.029113 -4.44869 0 0 0.0236136 
709 1 0.366667 0.6 0.0146608 -4.40765 0 0 -0.0238547 
710 1 0.383333 0.55 0.029113 -4.44869 0 0 0.0236136 
711 1 0.383333 0.65 0.029113 -4.44869 0 0 0.0236136 
715 1 0.416667 0.55 0.0146608 -4.40765 0 0 -0.0238547 
730 1 0.416667 0.65 0.0146608 -4.40765 0 0 -0.0238547 
732 1 0.4 0.6 0.000119827 -3.90399 0 0 0.00580988 
733 1 0.45 0.55 0.000119827 -3.90399 0 0 0.00580988 
734 1 0.45 0.65 0.000119827 -3.90399 0 0 0.00580988 
1024 1 0.433333 0.6 0.029113 -4.44869 0 0 0.0236136 
1030 1 0.483333 0.55 0.029113 -4.44869 0 0 0.0236135 
1049 1 0.483333 0.65 0.029113 -4.44869 0 0 0.0236136 
1051 1 0.466667 0.6 0.0146608 -4.40765 0 0 -0.0238545 
1052 1 0.5 0.6 0.000119827 -3.90399 0 0 0.00580993 
1053 1 0.516667 0.55 0.0146608 -4.40766 0 0 -0.023855 
1054 1 0.516667 0.65 0.0146608 -4.40766 0 0 -0.0238545 
1057 1 0.55 0.55 0.000119827 -3.90401 0 0 0.00581096 
1068 1 0.55 0.65 0.000119827 -3.90401 0 0 0.0058106 
1428 1 0.533333 0.6 0.029113 -4.44868 0 0 0.0236008 
1429 1 0.566667 0.6 0.0146608 -4.40767 0 0 -0.0237281 
1430 1 0.583333 0.55 0.029113 -4.44874 0 0 0.0229688 
1431 1 0.583333 0.65 0.029113 -4.44872 0 0 0.0231182 
1435 1 0.616667 0.55 0.0146583 -4.40826 0 0 -0.0231923 
1450 1 0.616667 0.65 0.0146589 -4.40811 0 0 -0.0232307 
1452 1 0.6 0.6 0.000119866 -3.90397 0 0 0.00481655 
1453 1 0.65 0.55 0.000122862 -3.88989 0 0 0.00839349 
1454 1 0.65 0.65 0.00012242 -3.88964 0 0 0.00718266 
1862 1 0.633333 0.6 0.0291124 -4.44805 0 0 0.0230847 
1868 1 0.683333 0.55 0.0291018 -4.45064 0 0 -0.0134123 
1885 1 0.683333 0.65 0.0291049 -4.45077 0 0 -0.0166438 
1887 1 0.666667 0.6 0.0146657 -4.37686 0 0 0.0134918 
1888 1 0.7 0.6 0.00024911 -3.55902 0 0 0.0359243 
1889 1 0.716667 0.55 0.0145263 -4.25493 0 0 0.055944 
1890 1 0.716667 0.65 0.0145188 -4.2835 0 0 0.0201141 
2378 1 0.733333 0.6 0.0291769 -4.42761 0 0 -0.101657 
2379 1 0.766667 0.6 0.014438 -4.19684 0 0 -0.0763702 
2380 1 0.783333 0.55 0.0291359 -4.43999 0 0 -0.0911684 
2381 1 0.783333 0.65 0.0291407 -4.43912 0 0 -0.0685994 
2385 1 0.816667 0.55 0.0146606 -4.34942 0 0 0.0628079 
2400 1 0.816667 0.65 0.0146505 -4.36501 0 0 0.0434361 
2402 1 0.8 0.6 0.000250381 -3.55896 0 0 0.0493966 
2403 1 0.85 0.55 0.00012258 -3.88983 0 0 -0.00028964 
2404 1 0.85 0.65 0.000122136 -3.88958 0 0 -0.00173601 
2929 1 0.833333 0.6 0.0291062 -4.44889 0 0 0.0166669 
2935 1 0.883333 0.55 0.0291129 -4.44898 0 0 0.0181729 
2954 1 0.883333 0.65 0.0291129 -4.44893 0 0 0.0195865 
2956 1 0.866667 0.6 0.0146506 -4.40784 0 0 -0.0258903 
2957 1 0.9 0.6 0.000119887 -3.90394 0 0 0.00364653 
2958 1 0.916667 0.55 0.014661 -4.40727 0 0 -0.0275544 
2959 1 0.916667 0.65 0.014661 -4.40716 0 0 -0.0276656 
2962 1 0.95 0.55 0.000119843 -3.90437 0 0 0.00622531 
2973 1 0.95 0.65 0.000119843 -3.90437 0 0 0.00605764 
3562 1 0.933333 0.6 0.0291137 -4.44882 0 0 0.0256215 
3563 1 0.966667 0.6 0.0146613 -4.40649 0 0 -0.032026 
3564 1 0.983333 0.55 0.0290969 -4.43457 0 0 0.0223062 
3565 1 0.983333 0.65 0.0290969 -4.43457 0 0 0.0223358 
18 1 0 0.7 0.000120237 -3.90316 0 0 -0.00196276 
20 1 0.0166667 0.75 0.014628 -4.39697 0 0 0.0477464 
27 1 0 0.8 0.000120823 -3.90081 0 0 -0.0210199 
28 1 0.05 0.75 0.000120237 -3.90317 0 0 -0.00196786 
88 1 0.0333333 0.8 0.0292512 -4.35937 0 0 0.0615444 
91 1 0.0333333 0.7 0.0291179 -4.42383 0 0 0.0123885 
92 1 0.0666667 0.7 0.014663 -4.4072 0 0 -0.0268132 
94 1 0.0833333 0.75 0.0290967 -4.43421 0 0 0.0215654 
107 1 0.0666667 0.8 0.0146635 -4.4084 0 0 0.0068264 
108 1 0.1 0.8 0.000119843 -3.90434 0 0 0.00595185 
109 1 0.116667 0.75 0.014661 -4.40705 0 0 -0.0279187 
111 1 0.1 0.7 0.000119834 -3.90417 0 0 0.00643041 
113 1 0.15 0.75 0.000119828 -3.90398 0 0 0.00596578 
226 1 0.133333 0.7 0.0291132 -4.44869 0 0 0.0238232 
245 1 0.133333 0.8 0.0291134 -4.4487 0 0 0.0245429 
246 1 0.166667 0.8 0.0146608 -4.40774 0 0 -0.0238348 
247 1 0.183333 0.75 0.029113 -4.44869 0 0 0.0235805 
249 1 0.166667 0.7 0.0146608 -4.40769 0 0 -0.0238466 
250 1 0.2 0.7 0.000119827 -3.90399 0 0 0.00580942 
252 1 0.216667 0.75 0.0146608 -4.40765 0 0 -0.0238534 
261 1 0.2 0.8 0.000119827 -3.90399 0 0 0.00580891 
262 1 0.25 0.75 0.000119827 -3.90399 0 0 0.00580987 
445 1 0.233333 0.8 0.029113 -4.44869 0 0 0.0236147 
448 1 0.233333 0.7 0.029113 -4.44869 0 0 0.0236141 
449 1 0.266667 0.7 0.0146608 -4.40765 0 0 -0.0238548 
451 1 0.283333 0.75 0.029113 -4.44869 0 0 0.0236136 
464 1 0.266667 0.8 0.0146608 -4.40765 0 0 -0.0238548 
465 1 0.3 0.8 0.000119827 -3.90399 0 0 0.00580988 
466 1 0.316667 0.75 0.0146608 -4.40765 0 0 -0.0238547 
468 1 0.3 0.7 0.000119827 -3.90399 0 0 0.00580988 
470 1 0.35 0.75 0.000119827 -3.90399 0 0 0.00580988 
705 1 0.333333 0.7 0.029113 -4.44869 0 0 0.0236136 
724 1 0.333333 0.8 0.029113 -4.44869 0 0 0.0236136 
725 1 0.366667 0.8 0.0146608 -4.40765 0 0 -0.0238547 
726 1 0.383333 0.75 0.029113 -4.44869 0 0 0.0236136 
728 1 0.366667 0.7 0.0146608 -4.40765 0 0 -0.0238547 
729 1 0.4 0.7 0.000119827 -3.90399 0 0 0.00580988 
731 1 0.416667 0.75 0.0146608 -4.40765 0 0 -0.0238547 
740 1 0.4 0.8 0.000119827 -3.90399 0 0 0.00580988 
741 1 0.45 0.75 0.000119827 -3.90399 0 0 0.00580988 
1044 1 0.433333 0.8 0.029113 -4.44869 0 0 0.0236136 
1047 1 0.433333 0.7 0.029113 -4.44869 0 0 0.0236136 
1048 1 0.466667 0.7 0.0146608 -4.40765 0 0 -0.0238546 
1050 1 0.483333 0.75 0.029113 -4.44869 0 0 0.0236136 
1063 1 0.466667 0.8 0.0146608 -4.40765 0 0 -0.0238546 
1064 1 0.5 0.8 0.000119827 -3.90399 0 0 0.00580987 
1065 1 0.516667 0.75 0.0146608 -4.40766 0 0 -0.0238535 
1067 1 0.5 0.7 0.000119827 -3.90399 0 0 0.00580987 
1069 1 0.55 0.75 0.000119827 -3.904 0 0 0.00580496 
1425 1 0.533333 0.7 0.029113 -4.44868 0 0 0.0236057 
1444 1 0.533333 0.8 0.029113 -4.44868 0 0 0.0236057 
1445 1 0.566667 0.8 0.0146608 -4.40767 0 0 -0.0237814 
1446 1 0.583333 0.75 0.029113 -4.44868 0 0 0.0232897 
1448 1 0.566667 0.7 0.0146608 -4.40767 0 0 -0.0237814 
1449 1 0.6 0.7 0.00011985 -3.90399 0 0 0.00510253 
1451 1 0.616667 0.75 0.0146596 -4.408 0 0 -0.0232952 
1460 1 0.6 0.8 0.00011985 -3.90399 0 0 0.00510253 
1461 1 0.65 0.75 0.000120688 -3.90456 0 0 0.00277079 
1880 1 0.633333 0.8 0.0291127 -4.44841 0 0 0.0209855 
1883 1 0.633333 0.7 0.0291127 -4.44841 0 0 0.0209855 
1884 1 0.666667 0.7 0.0146556 -4.39231 0 0 -0.00651026 
1886 1 0.683333 0.75 0.0291065 -4.44947 0 0 0.011122 
1897 1 0.666667 0.8 0.0146556 -4.39231 0 0 -0.00651026 
1898 1 0.7 0.8 0.000187177 -3.72166 0 0 0.00831073 
1899 1 0.716667 0.75 0.0146255 -4.35191 0 0 0.0705515 
1901 1 0.7 0.7 0.000187177 -3.72166 0 0 0.00831073 
1902 1 0.75 0.75 0.000247203 -3.57493 0 0 0.0357653 
2375 1 0.733333 0.7 0.0291405 -4.43914 0 0 -0.0523356 
2394 1 0.733333 0.8 0.0291405 -4.43914 0 0 -0.0523356 
2395 1 0.766667 0.8 0.0145444 -4.28158 0 0 0.0175931 
2396 1 0.783333 0.75 0.0291036 -4.45135 0 0 -0.0421676 
2398 1 0.766667 0.7 0.0145444 -4.28158 0 0 0.0175931 
2399 1 0.8 0.7 0.000187964 -3.72174 0 0 0.0304472 
2401 1 0.816667 0.75 0.0146674 -4.37766 0 0 0.0155952 
2410 1 0.8 0.8 0.000187964 -3.72174 0 0 0.0304472 
2411 1 0.85 0.75 0.000120653 -3.9045 0 0 0.00438058 
2949 1 0.833333 0.8 0.0291094 -4.44834 0 0 0.0200765 
2952 1 0.833333 0.7 0.0291094 -4.44834 0 0 0.0200094 
2953 1 0.866667 0.7 0.0146548 -4.40797 0 0 -0.0238946 
2955 1 0.883333 0.75 0.0291142 -4.44859 0 0 0.0213572 
2968 1 0.866667 0.8 0.0146549 -4.40808 0 0 -0.0239259 
2969 1 0.9 0.8 0.000119929 -3.90404 0 0 0.00621367 
2970 1 0.916667 0.75 0.014663 -4.40723 0 0 -0.0265623 
2972 1 0.9 0.7 0.000119867 -3.90416 0 0 0.00498255 
2974 1 0.95 0.75 0.000120237 -3.9032 0 0 -0.00199769 
3559 1 0.933333 0.7 0.0290967 -4.43417 0 0 0.0218133 
3572 1 0.933333 0.8 0.0291179 -4.42363 0 0 0.0122685 
3573 1 0.966667 0.8 0.014628 -4.39697 0 0 0.0477492 
3574 1 0.983333 0.75 0.0292512 -4.35937 0 0 0.0618508 
3576 1 0.966667 0.7 0.0146635 -4.40843 0 0 0.00682964 
24 1 0 0.9 0.000120237 -3.90317 0 0 -0.00196797 
25 1 0.0166667 0.85 0.014628 -4.39697 0 0 0.0477495 
26 1 0.0166667 0.95 0.014663 -4.4072 0 0 -0.0268062 
29 1 0.05 0.85 0.000120237 -3.90317 0 0 -0.00196765 
30 1 0.05 0.95 0.000119896 -3.90405 0 0 0.00766047 
103 1 0.0333333 0.9 0.0291179 -4.42366 0 0 0.0122717 
104 1 0.0666667 0.9 0.014663 -4.4072 0 0 -0.0268048 
105 1 0.0833333 0.85 0.0290967 -4.43422 0 0 0.0215631 
106 1 0.0833333 0.95 0.0291143 -4.44848 0 0 0.0247498 
110 1 0.116667 0.85 0.014661 -4.40705 0 0 -0.0279184 
114 1 0.116667 0.95 0.0146608 -4.40767 0 0 -0.0233197 
115 1 0.1 0.9 0.000119834 -3.90417 0 0 0.00643056 
116 1 0.15 0.85 0.000119828 -3.90398 0 0 0.00596567 
117 1 0.15 0.95 0.000119827 -3.90398 0 0 0.00581534 
242 1 0.133333 0.9 0.0291132 -4.44869 0 0 0.0238285 
248 1 0.183333 0.85 0.029113 -4.44869 0 0 0.0235806 
256 1 0.183333 0.95 0.029113 -4.44869 0 0 0.0236171 
257 1 0.166667 0.9 0.0146608 -4.40769 0 0 -0.0238465 
258 1 0.2 0.9 0.000119827 -3.90399 0 0 0.00580939 
259 1 0.216667 0.85 0.0146608 -4.40765 0 0 -0.0238534 
260 1 0.216667 0.95 0.0146608 -4.40765 0 0 -0.0238547 
263 1 0.25 0.85 0.000119827 -3.90399 0 0 0.00580987 
264 1 0.25 0.95 0.000119827 -3.90399 0 0 0.00580989 
460 1 0.233333 0.9 0.029113 -4.44869 0 0 0.0236141 
461 1 0.266667 0.9 0.0146608 -4.40765 0 0 -0.0238548 
462 1 0.283333 0.85 0.029113 -4.44869 0 0 0.0236136 
463 1 0.283333 0.95 0.029113 -4.44869 0 0 0.0236136 
467 1 0.316667 0.85 0.0146608 -4.40765 0 0 -0.0238547 
471 1 0.316667 0.95 0.0146608 -4.40765 0 0 -0.0238547 
472 1 0.3 0.9 0.000119827 -3.90399 0 0 0.00580988 
473 1 0.35 0.85 0.000119827 -3.90399 0 0 0.00580988 
474 1 0.35 0.95 0.000119827 -3.90399 0 0 0.00580988 
721 1 0.333333 0.9 0.029113 -4.44869 0 0 0.0236136 
727 1 0.383333 0.85 0.029113 -4.44869 0 0 0.0236136 
735 1 0.383333 0.95 0.029113 -4.44869 0 0 0.0236136 
736 1 0.366667 0.9 0.0146608 -4.40765 0 0 -0.0238547 
737 1 0.4 0.9 0.000119827 -3.90399 0 0 0.00580988 
738 1 0.416667 0.85 0.0146608 -4.40765 0 0 -0.0238547 
739 1 0.416667 0.95 0.0146608 -4.40765 0 0 -0.0238547 
742 1 0.45 0.85 0.000119827 -3.90399 0 0 0.00580988 
743 1 0.45 0.95 0.000119827 -3.90399 0 0 0.00580988 
1059 1 0.433333 0.9 0.029113 -4.44869 0 0 0.0236136 
1060 1 0.466667 0.9 0.0146608 -4.40765 0 0 -0.0238545 
1061 1 0.483333 0.85 0.029113 -4.44869 0 0 0.0236136 
1062 1 0.483333 0.95 0.029113 -4.44869 0 0 0.0236135 
1066 1 0.516667 0.85 0.0146608 -4.40766 0 0 -0.0238545 
1070 1 0.516667 0.95 0.0146608 -4.40766 0 0 -0.023855 
1071 1 0.5 0.9 0.000119827 -3.90399 0 0 0.00580993 
1072 1 0.55 0.85 0.000119827 -3.90401 0 0 0.0058106 
1073 1 0.55 0.95 0.000119827 -3.90401 0 0 0.00581096 
1441 1 0.533333 0.9 0.029113 -4.44868 0 0 0.0236008 
1447 1 0.583333 0.85 0.029113 -4.44872 0 0 0.0231182 
1455 1 0.583333 0.95 0.029113 -4.44874 0 0 0.0229688 
1456 1 0.566667 0.9 0.0146608 -4.40767 0 0 -0.0237281 
1457 1 0.6 0.9 0.000119866 -3.90397 0 0 0.00481655 
1458 1 0.616667 0.85 0.0146589 -4.40811 0 0 -0.0232307 
1459 1 0.616667 0.95 0.0146583 -4.40826 0 0 -0.0231923 