# ['Ni']

28 atoms
1 atom types

    0.0000     2.4806 xlo xhi
    0.0000     4.2965 ylo yhi
    0.0000    28.3558 zlo zhi

    0.0000     0.0000     0.0000 xy xz yz

Atoms

1 1     0.0000     0.0000     0.0000
2 1     1.2403     2.1483     0.0000
3 1     1.2403     0.7161     2.0254
4 1     0.0000     2.8644     2.0254
5 1     0.0000     1.4322     4.0508
6 1     1.2403     3.5805     4.0508
7 1     0.0000     0.0000     6.0762
8 1     1.2403     2.1483     6.0762
9 1     1.2403     0.7161     8.1016
10 1     0.0000     2.8644     8.1016
11 1     0.0000     1.4322    10.1271
12 1     1.2403     3.5805    10.1271
13 1     0.0000     0.0000    12.1525
14 1     1.2403     2.1483    12.1525
15 1     0.0000     1.4322    14.1779
16 1     1.2403     3.5805    14.1779
17 1     0.0000     0.0000    16.2033
18 1     1.2403     2.1483    16.2033
19 1     1.2403     0.7161    18.2287
20 1     0.0000     2.8644    18.2287
21 1     0.0000     1.4322    20.2541
22 1     1.2403     3.5805    20.2541
23 1     0.0000     0.0000    22.2795
24 1     1.2403     2.1483    22.2795
25 1     1.2403     0.7161    24.3049
26 1     0.0000     2.8644    24.3049
27 1     0.0000     1.4322    26.3303
28 1     1.2403     3.5805    26.3303
