# ['Ni']

18 atoms
1 atom types

    0.0000     2.3522 xlo xhi
    0.0000     4.0742 ylo yhi
    0.0000    34.5647 zlo zhi

    0.0000     0.0000    -0.0004 xy xz yz

Atoms

1 1     0.0000     0.0000     0.0000
2 1     1.1761     0.6790     1.9203
3 1     0.0000     1.3581     3.8405
4 1     1.1761     2.0371     0.0000
5 1     0.0000     2.7161     1.9203
6 1     1.1761     3.3951     3.8405
7 1     0.0000     0.0000     5.7608
8 1     1.1761     0.6790     7.6810
9 1     0.0000     1.3581     9.6013
10 1     1.1761     2.0371     5.7608
11 1     0.0000     2.7161     7.6810
12 1     1.1761     3.3951     9.6013
13 1     0.0000     0.0000    11.5216
14 1     1.1761     0.6790    13.4418
15 1     0.0000     1.3581    15.3621
16 1     1.1761     2.0371    11.5216
17 1     0.0000     2.7161    13.4418
18 1     1.1761     3.3951    15.3621
