LAMMPS (10 Feb 2015)
# ---- initialize simulations
clear
units metal
dimension 3
boundary p p p
atom_style charge
atom_modify map array
# ---- create atoms
read_data /Users/eugeneragasa/pyflamestk_git/pypospack/tests/tests_integration/workflow/WorkflowLammpsThermalExpansion/param_9544/MgO_NaCl_unit.npt.T300/lammps.structure
  triclinic box = (0 0 0) to (4.2565 4.2565 4.2565) with tilt (0 0 0)
  1 by 1 by 1 MPI processor grid
  reading atoms ...
  8 atoms
# ---- define interatomic potential
include potential.mod
mass 1 24.305
mass 2 15.999

group Mg type 1
4 atoms in group Mg
group O type 2
4 atoms in group O

set group Mg charge 1.64252902328
  4 settings made for charge
set group O charge -1.64252902328
  4 settings made for charge

variable R_cut equal 10.0

pair_style buck/coul/long ${R_cut}
pair_style buck/coul/long 10
pair_coeff 1 1 0.0 0.5 0.0 ${R_cut}
pair_coeff 1 1 0.0 0.5 0.0 10
pair_coeff 1 2 1425.65456865 0.277130619093 0.0 ${R_cut}
pair_coeff 1 2 1425.65456865 0.277130619093 0.0 10
pair_coeff 2 2 8710.58674493 0.211543782712 -4.62088168449 ${R_cut}
pair_coeff 2 2 8710.58674493 0.211543782712 -4.62088168449 10

kspace_style pppm 1.0e-5

neighbor 1.0 bin
neigh_modify every 1 delay 0 check yes
# ---- define settings
compute eng all pe/atom
compute eatoms all reduce sum c_eng
# ---- run minimization
reset_timestep 0
fix 1 all box/relax iso 0.0 vmax 0.001
thermo 10
thermo_style custom step pe lx ly lz xy xz yz press pxx pyy pzz pxy pxz pyz c_eatoms
min_style cg
minimize 1e-25 1e-25 5000 10000
PPPM initialization ...
  G vector (1/distance) = 0.352708
  grid = 8 8 8
  stencil order = 5
  estimated absolute RMS force accuracy = 3.89813e-05
  estimated relative force accuracy = 2.7071e-06
  using double precision FFTs
  3d grid and FFT values/proc = 3375 512
Neighbor list info ...
  1 neighbor list requests
  update every 1 steps, delay 0 steps, check yes
  master list distance cutoff = 11
Memory usage per processor = 4.06549 Mbytes
Step PotEng Lx Ly Lz Xy Xz Yz Press Pxx Pyy Pzz Pxy Pxz Pyz eatoms 
       0   -111.38871       4.2565       4.2565       4.2565            0            0            0   -14022.103   -14022.103   -14022.103   -14022.103 -1.0617953e-11 -7.0203049e-11 5.2505523e-12   -111.38871 
       6    -111.3915    4.2448057    4.2448057    4.2448057            0            0            0    11.870105    11.870105    11.870105    11.870105 -3.2023954e-10 4.899455e-11 2.2757866e-10    -111.3915 
Loop time of 0.0150518 on 1 procs for 6 steps with 8 atoms

Minimization stats:
  Stopping criterion = linesearch alpha is zero
  Energy initial, next-to-last, final = 
        -111.388714234     -111.391500014     -111.391500014
  Force two-norm initial, final = 2.0248 0.00171153
  Force max component initial, final = 2.0248 0.00170464
  Final line search alpha, max atom move = 0.00229153 3.90625e-06
  Iterations, force evaluations = 6 44

Pair  time (%) = 0.00413775 (27.49)
Kspce time (%) = 0.00235176 (15.6244)
Neigh time (%) = 0 (0)
Comm  time (%) = 0.000460148 (3.05709)
Outpt time (%) = 0 (0)
Other time (%) = 0.00810218 (53.8285)

Nlocal:    8 ave 8 max 8 min
Histogram: 1 0 0 0 0 0 0 0 0 0
Nghost:    2189 ave 2189 max 2189 min
Histogram: 1 0 0 0 0 0 0 0 0 0
Neighs:    2344 ave 2344 max 2344 min
Histogram: 1 0 0 0 0 0 0 0 0 0

Total # of neighbors = 2344
Ave neighs/atom = 293
Neighbor list builds = 0
Dangerous builds = 0
unfix 1
# ---- define output variables ----
variable natoms equal "count(all)"
variable tot_energy equal "c_eatoms"
variable length_x equal "lx"
variable length_y equal "ly"
variable length_z equal "lz"
variable tilt_xy equal "xy"
variable tilt_xz equal "xz"
variable tilt_yz equal "yz"
variable tot_press equal "press"
variable press_xx equal "pxx"
variable press_yy equal "pyy"
variable press_zz equal "pzz"
variable press_xy equal "pxy"
variable press_xz equal "pxz"
variable press_yz equal "pyz"

# ---- output ----
print "pypospack:output_section:begin"
pypospack:output_section:begin
print "tot_energy = ${tot_energy}"
tot_energy = -111.391500014071
print "num_atoms = ${natoms}"
num_atoms = 8
print "xx = ${length_x}"
xx = 4.24480566540602
print "yy = ${length_y}"
yy = 4.24480566540602
print "zz = ${length_z}"
zz = 4.24480566540602
print "xy = ${tilt_xy}"
xy = 0
print "xz = ${tilt_xz}"
xz = 0
print "yz = ${tilt_yz}"
yz = 0
print "tot_press = ${tot_press}"
tot_press = 11.8701047091937
print "pxx = ${press_xx}"
pxx = 11.8701047092997
print "pyy = ${press_yy}"
pyy = 11.8701047087814
print "pzz = ${press_zz}"
pzz = 11.8701047094999
print "pxy = ${press_xy}"
pxy = -3.20239539923879e-10
print "pxz = ${press_xz}"
pxz = 4.8994550277695e-11
print "pyz = ${press_yz}"
pyz = 2.27578662531736e-10
print "pypospack:output_section:done"
pypospack:output_section:done
print "pypospack:lammps_sim:done"
pypospack:lammps_sim:done
#------------------------------------------------------------------------------
# RUN THERMOSTAT
# running using an NPT Nose-Hoover style thermostat
#------------------------------------------------------------------------------
variable tempdamp equal 0.1
variable pressdamp equal 1.0
# set initial velocities
velocity all create 300 4595794 mom yes dist gaussian loop all
# fix for Nose-Hoover style thermostat
fix 20 all npt temp 300 300 0.1 aniso 0.0 0.0 1.0 drag 1.0 couple xyz
variable boxx equal lx
variable boxy equal ly
variable boxz equal lz
variable boxp equal press
variable boxt equal temp
# calculate averages every 10000 steps
reset_timestep 0
fix 21 all ave/time 10 10 100 v_boxx v_boxy v_boxz v_boxp v_boxt file lattice.out
thermo_style custom step temp pe ke etotal press lx ly lz press pxx pyy pzz pxy pxz pyz vol
thermo_modify flush yes
thermo 100
run 100000
PPPM initialization ...
  G vector (1/distance) = 0.352825
  grid = 8 8 8
  stencil order = 5
  estimated absolute RMS force accuracy = 3.87738e-05
  estimated relative force accuracy = 2.69269e-06
  using double precision FFTs
  3d grid and FFT values/proc = 3375 512
Memory usage per processor = 3.06549 Mbytes
Step Temp PotEng KinEng TotEng Press Lx Ly Lz Press Pxx Pyy Pzz Pxy Pxz Pyz Volume 
       0          300    -111.3915    0.2714463   -111.12005    3802.7789    4.2448057    4.2448057    4.2448057    3802.7789    5346.0947    2836.0785    3226.1635    1881.8539   -668.52964   -897.63308    76.484501 
     100    165.51269   -111.23213   0.14975936   -111.08237    -3445.521    4.2551385    4.2551385    4.2551385    -3445.521    541.69992   -3787.0666   -7091.1963   -1122.2655    1298.1363    491.96183    77.044405 
     200    168.55618   -111.16137   0.15251318   -111.00886    337.37305    4.2496933    4.2496933    4.2496933    337.37305    1280.7142      1680.93   -1949.5251   -26.321603      3176.12    1905.9974    76.749008 
     300    262.70918   -111.18115   0.23770478   -110.94345     3653.567    4.2535251    4.2535251    4.2535251     3653.567    -4678.558     8915.088    6724.1711   -113.91213    327.19863    1749.2568    76.956797 
     400    389.81966    -111.2481   0.35271702   -110.89538    2829.0449    4.2551503    4.2551503    4.2551503    2829.0449    869.34723    391.79855    7225.9891   -2802.9523   -472.90204    1716.2802    77.045046 
     500    179.54641   -111.02858   0.16245736   -110.86612   -596.25269    4.2558407    4.2558407    4.2558407   -596.25269   -11159.006    12631.263   -3261.0146    943.18336    7745.5241      3879.62    77.082552 
     600    195.45246   -111.02706   0.17684949   -110.85021   -299.07048    4.2535193    4.2535193    4.2535193   -299.07048   -10576.193    13101.683   -3422.7013   -3749.7285    6056.3929    3381.3212    76.956484 
     700    470.61958   -111.26817   0.42582649   -110.84234   -2949.3492    4.2563827    4.2563827    4.2563827   -2949.3492   -806.13615   -1427.6956   -6614.2159    1628.8528   -2521.4145   -1106.2506    77.112008 
     800    350.21107   -111.16092   0.31687834   -110.84404   -7281.2798    4.2589374    4.2589374    4.2589374   -7281.2798   -10012.541    2620.8023   -14452.101    438.28635    4978.6079   -1965.8171    77.250938 
     900    218.28511   -111.04438   0.19750896   -110.84687   -5421.4711    4.2519265    4.2519265    4.2519265   -5421.4711   -9543.4588    5604.9744   -12325.929   -2601.2092    5323.9653    1266.9266    76.870063 
    1000    267.27609   -111.08982   0.24183702   -110.84798   -3135.4806    4.2589777    4.2589777    4.2589777   -3135.4806   -647.57253   -5821.8808   -2936.9886     1297.135   -781.98128    2061.8363    77.253131 
    1100    428.88301   -111.23307   0.38806236   -110.84501    1612.4198    4.2533787    4.2533787    4.2533787    1612.4198    3388.0031   -471.85779    1921.1141   -1218.1283   -2640.9777   -1067.2172    76.948853 
    1200    198.67373   -111.02811   0.17976417   -110.84834    397.99064    4.2558066    4.2558066    4.2558066    397.99064   -7450.7007    8871.9001   -227.22752     1771.296    5088.8476     2274.985    77.080701 
    1300    144.84296   -110.98087   0.13105695   -110.84982    2844.8292    4.2567081    4.2567081    4.2567081    2844.8292    8389.4036    5861.6172   -5716.5333   -3101.5484     4539.358    5746.0792    77.129693 
    1400    284.56215   -111.10424   0.25747782   -110.84676    8546.5667    4.2543756    4.2543756    4.2543756    8546.5667    5535.2906    15234.655    4869.7544   -2156.9631   -1735.6155    3453.4053     77.00297 
    1500    334.24797   -111.14816   0.30243459   -110.84572     3280.016    4.2536098    4.2536098    4.2536098     3280.016    10410.882    6556.6123   -7127.4464    1575.5269    3542.3014    -903.3786    76.961397 
    1600     162.4924   -110.99559   0.14702654   -110.84856   -3850.3185    4.2589136    4.2589136    4.2589136   -3850.3185    1887.9827     7109.735   -20548.673   -2655.9175    5984.7547    270.82709    77.249646 
    1700    254.05241   -111.07757   0.22987196    -110.8477    -2905.416     4.253869     4.253869     4.253869    -2905.416   -8612.8066    6489.7295   -6593.1709    1346.1788     769.5926    1231.9175    76.975466 
    1800    386.26711   -111.19471    0.3495026   -110.84521    504.73612    4.2536846    4.2536846    4.2536846    504.73612    5684.4871    503.50247   -4673.7812   -216.30899   -5306.0045   -3262.8903    76.965456 
    1900    328.91235   -111.14424   0.29760681   -110.84663   -10200.997    4.2596495    4.2596495    4.2596495   -10200.997   -12370.267   -4164.7937   -14067.929    778.62445    3929.6951   -3476.0396    77.289697 
    2000    182.34616   -111.01332   0.16499064   -110.84833   -4044.4031    4.2526813    4.2526813    4.2526813   -4044.4031   -12458.507    9313.8911   -8988.5936    801.05797    6860.7497    2021.0812    76.911011 
    2100    286.16717   -111.10683   0.25893007    -110.8479    792.87865    4.2562423    4.2562423    4.2562423    792.87865   -1372.8228    6666.5534   -2915.0947   -2621.6991    -1911.587    2792.6343    77.104375 
    2200    315.89347   -111.13215   0.28582705   -110.84633    5108.5462    4.2564609    4.2564609    4.2564609    5108.5462    8421.7765    8198.7791    -1294.917    1457.0016    994.11856   -999.72138    77.116258 
    2300     191.6174   -111.02114   0.17337945   -110.84776    2044.2234    4.2531776    4.2531776    4.2531776    2044.2234   -1109.8725    15070.163   -7827.6203   -3340.6202    7463.2648   -358.17856     76.93794 
    2400    220.88333   -111.04803   0.19985987   -110.84817   -1251.4267    4.2577684    4.2577684    4.2577684   -1251.4267    5271.7796     6412.946   -15439.006   -2746.5452    2121.2877    3478.1888    77.187343 
    2500    360.02541   -111.17133   0.32575855   -110.84557    2727.9324    4.2563121    4.2563121    4.2563121    2727.9324    4382.5362    5870.1687   -2068.9078     202.6095    -1328.708    2101.1939    77.108169 
    2600    393.34577   -111.20196   0.35590752   -110.84606   -1766.0799    4.2523618    4.2523618    4.2523618   -1766.0799    4107.8608   -2734.1118   -6671.9888    691.45782    786.02133   -6625.2254    76.893675 
    2700    261.66118   -111.08437   0.23675653   -110.84762   -6165.1847    4.2582799    4.2582799    4.2582799   -6165.1847    383.09715   -5180.4097   -13698.242    1983.4096    4227.4664   -1207.2804    77.215169 
    2800    384.18843   -111.19446   0.34762176   -110.84684   -4839.7107    4.2559992    4.2559992    4.2559992   -4839.7107   -6966.4401    3114.7283    -10667.42    -2280.431   -3353.4746    469.11966    77.091166 
    2900    397.98958   -111.20617   0.36010934   -110.84606    5090.9175    4.2526167    4.2526167    4.2526167    5090.9175    10405.649    2952.2777    1914.8256    3245.1184   -2261.7408   -1967.7225    76.907503 
    3000     284.6529    -111.1048   0.25755992   -110.84724   -425.70555    4.2584356    4.2584356    4.2584356   -425.70555   -188.66686    7084.1401   -8172.5899    194.79349    7352.0073    -951.8949    77.223636 
    3100    217.93827   -111.04497   0.19719512   -110.84778    4809.1479    4.2538012    4.2538012    4.2538012    4809.1479   -583.90219    14044.262    967.08399   -4240.5242    4762.5372    200.32109    76.971789 
    3200    367.73264   -111.17837   0.33273222   -110.84564    4269.2925    4.2546976    4.2546976    4.2546976    4269.2925    3294.4448    14254.086   -4740.6535   -1209.7928   -2136.7229     3437.469    77.020456 
    3300    368.59146   -111.17992    0.3335093   -110.84641    408.42177    4.2569256    4.2569256    4.2569256    408.42177    829.06909   -1936.8914    2333.0876   -1705.1814   -41.810511   -2463.5712     77.14152 
    3400    237.77365   -111.06408    0.2151426   -110.84894   -1770.6499    4.2525267    4.2525267    4.2525267   -1770.6499   -4332.7135    3308.3704   -4287.6066      3807.25    8371.7714   -2658.1017     76.90262 
    3500    355.65057   -111.16944   0.32180011   -110.84764   -4613.8301    4.2556112    4.2556112    4.2556112   -4613.8301    -5328.797   -2922.6885   -5590.0047   -3754.2356    2913.8138    1803.8089    77.070084 
    3600    446.72839   -111.24948   0.40420923   -110.84527   -4231.2152    4.2586561    4.2586561    4.2586561   -4231.2152   -2135.0303   -3032.1063    -7526.509     1617.333   -4413.5636   -3854.4554    77.235631 
    3700    339.91213   -111.15379   0.30755964   -110.84623   -3682.4384     4.251709     4.251709     4.251709   -3682.4384    -3173.285   -3713.5022   -4160.5278    5860.2212    2663.9922   -4668.7287    76.858269 
    3800    214.33465   -111.04229    0.1939345   -110.84836   -1744.4191    4.2560581    4.2560581    4.2560581   -1744.4191    1493.8751    3620.4532   -10347.586   -1779.3131    5387.3499   -1013.7973    77.094365 
    3900    357.66164   -111.17094   0.32361976   -110.84732    3084.3288    4.2560318    4.2560318    4.2560318    3084.3288   -18.394726    8116.4041    1154.9769    240.27034    4.8429046    2243.6203    77.092937 
    4000    376.16198   -111.18603   0.34035926   -110.84568    5396.3409    4.2519949    4.2519949    4.2519949    5396.3409    6705.3912    9586.1823    -102.5508   -2946.7307   -448.26755    2162.8283    76.873776 
    4100    185.99395   -111.01706   0.16829124   -110.84877   -1149.6606    4.2580011    4.2580011    4.2580011   -1149.6606   -41.867586    2427.0738    -5834.188    473.49389    6548.9118   -3163.9036    77.200003 
    4200    223.68223   -111.05091   0.20239239   -110.84852    3038.3289    4.2532186    4.2532186    4.2532186    3038.3289   -1321.7249    2724.1024    7712.6092   -91.173801    3394.7562     1991.959    76.940165 
    4300    408.34156   -111.21551   0.36947602   -110.84603    3119.2991    4.2534443    4.2534443    4.2534443    3119.2991    1089.6461    6672.3169    1595.9344   -2770.4801   -1846.8037   -555.35934    76.952416 
    4400    342.72451   -111.15713   0.31010434   -110.84703   -6089.0358    4.2588646    4.2588646    4.2588646   -6089.0358    -8904.915   -7599.5894   -1762.6029    4345.3853    1201.5878   -3983.8677    77.246981 
    4500    168.42483   -111.00099   0.15239433    -110.8486   -5357.6469    4.2534442    4.2534442    4.2534442   -5357.6469   -8895.7175     928.7051   -8105.9284    1846.6518    8259.9706   -2715.3624    76.952409 
    4600    300.18642   -111.11956   0.27161498   -110.84795   -1114.3576    4.2537536    4.2537536    4.2537536   -1114.3576   -10058.005    3149.5488    3565.3838    735.17425    2663.6005   -2807.5686    76.969201 
    4700    396.03927   -111.20432   0.35834466   -110.84597   -1524.6486    4.2572457    4.2572457    4.2572457   -1524.6486   -7100.3996    5960.9977   -3434.5439    1278.5566   -4286.1013     3046.846    77.158923 
    4800    196.05876   -111.02586   0.17739809   -110.84846   -2807.8979    4.2539204    4.2539204    4.2539204   -2807.8979   -12137.994    6214.2764   -2499.9764     515.2808    7318.6563   -1465.1431    76.978256 
    4900     123.9329   -110.96161   0.11213709   -110.84948   -313.78381    4.2560747    4.2560747    4.2560747   -313.78381    -8198.561    12474.213    -5217.003    -215.4615    8504.1416    607.60311    77.095268 
    5000    332.11499    -111.1466   0.30050462    -110.8461    4239.5049    4.2554453    4.2554453    4.2554453    4239.5049   -3285.1942    4967.4298    11036.279   -5412.0886   -22.128785    3570.7056    77.061072 
    5100    333.08271   -111.14744   0.30138024   -110.84606    1030.1234    4.2540421    4.2540421    4.2540421    1030.1234   -1408.6041    4993.1072   -494.13294    1181.2004    1390.2271   -1435.2054    76.984866 
    5200    172.83557    -111.0056   0.15638526   -110.84921   -4966.6009    4.2567961    4.2567961    4.2567961   -4966.6009   -3917.1887    -2836.515    -8146.099    2196.7199    7481.7012    -1683.595     77.13448 
    5300    244.34584    -111.0693   0.22108926   -110.84821    835.35968    4.2559888    4.2559888    4.2559888    835.35968   -3852.2761    1691.7919    4666.5633   -530.57803    3170.3307     -5112.47    77.090599 
    5400    454.65829   -111.25636   0.41138437   -110.84498    1623.0227     4.253033     4.253033     4.253033    1623.0227    2338.5386    757.19105    1773.3383    2365.0335   -3408.7746    1204.5201    76.930091 
    5500    269.90125   -111.09192   0.24421232   -110.84771   -1903.0536    4.2571661    4.2571661    4.2571661   -1903.0536   -10269.404    119.16178     4441.081    1444.4793    2832.4488    1062.4497    77.154592 
    5600     177.9964    -111.0101   0.16105489   -110.84905   -3451.4124    4.2570077    4.2570077    4.2570077   -3451.4124   -10846.852    5281.7157   -4789.1009    3898.7698    6895.3931   -2957.1842    77.145982 
    5700    291.58982    -111.1112    0.2638366   -110.84736    6546.4407    4.2534355    4.2534355    4.2534355    6546.4407   -4097.6846    11509.212    12227.794   -1560.8923    219.51176    2251.9862    76.951936 
    5800     398.8933   -111.20641   0.36092705   -110.84549    247.48617    4.2567892    4.2567892    4.2567892    247.48617   -6866.6739    6983.8274    625.30497   -2373.8674   -640.44536    2552.9946    77.134102 
    5900    172.31444   -111.00473   0.15591372   -110.84882   -1812.1591    4.2561015    4.2561015    4.2561015   -1812.1591   -5131.0497    4412.5329   -4717.9605     1654.598    8462.7109    1414.3172    77.096725 
    6000     232.2177   -111.05888   0.21011546   -110.84877   -2333.4934    4.2551526    4.2551526    4.2551526   -2333.4934   -3511.9405    3770.7854   -7259.3249   -3281.4908    9184.2289    -3606.961    77.045172 
    6100    410.15184   -111.21703   0.37111401   -110.84591    803.58305    4.2570178    4.2570178    4.2570178    803.58305     2739.951   -3455.3368     3126.135   -692.27921    -3387.552   -2463.2126    77.146531 
    6200    378.32442   -111.18922   0.34231588    -110.8469   -2234.4243    4.2546664    4.2546664    4.2546664   -2234.4243    1443.4735   -4534.4209   -3612.3256    1728.1792    953.02514    2814.4523    77.018762 
    6300    221.96535   -111.04984   0.20083891     -110.849   -4311.2915    4.2559436    4.2559436    4.2559436   -4311.2915   -7954.6614   -1976.1582   -3003.0551    3253.0766     7416.576   -2031.4772    77.088142 
    6400    313.02332   -111.13128   0.28323008   -110.84805   -977.71521     4.258347     4.258347     4.258347   -977.71521   -9820.9606    1920.2789    4967.5361    1690.5501    626.83401    140.18852    77.218816 
    6500    463.88877   -111.26496    0.4197363   -110.84523    2364.4921    4.2537072    4.2537072    4.2537072    2364.4921   -79.204931    3368.4019    3804.2794   -1153.5746   -530.98706    2171.3121    76.966686 
    6600    266.77656   -111.08937   0.24138504   -110.84798    2171.6121    4.2552441    4.2552441    4.2552441    2171.6121   -7273.3523     9051.891    4736.2977    2251.6964    3266.8654    2584.8734    77.050139 
    6700    234.61954    -111.0615   0.21228869   -110.84921   -3113.6252     4.257895     4.257895     4.257895   -3113.6252   -2527.3301    1417.9887   -8231.5342   -387.34173    7692.5686    -1545.416     77.19423 
    6800     336.7854   -111.15241   0.30473051   -110.84768    5169.9021    4.2535039    4.2535039    4.2535039    5169.9021     10717.14    3255.0335    1537.5327   -2249.1914   -1017.2901   -3919.0221    76.955648 
    6900    434.04691   -111.23888   0.39273477   -110.84614   -916.27988    4.2565423    4.2565423    4.2565423   -916.27988    4527.5393   -3424.0074   -3852.3716   -2238.9898   -826.92692    3005.1283    77.120683 
    7000    215.61298   -111.04364   0.19509116   -110.84855    1010.4629    4.2560363    4.2560363    4.2560363    1010.4629    8786.0705   -5142.1446   -612.53724    1622.8482    5704.1429   -1870.4331    77.093181 
    7100    318.47724   -111.13612    0.2881649   -110.84796   -4768.0723    4.2547996    4.2547996    4.2547996   -4768.0723   -4585.1506   -6018.8855   -3700.1808    1185.9937    5010.0222   -4026.5135    77.025996 
    7200    409.92108   -111.21737   0.37090521   -110.84646  -0.25054863    4.2567465    4.2567465    4.2567465  -0.25054863   -1166.5901   -1470.3314    2636.1699    363.90652   -3411.3684    1525.3408    77.131784 
    7300    403.96147   -111.21231   0.36551282    -110.8468   -1828.9657    4.2545989    4.2545989    4.2545989   -1828.9657   -1569.1516   -1044.9054     -2872.84    2539.3863    2773.3157    1683.8085    77.015098 
    7400    215.50145   -111.04394   0.19499024   -110.84895    1219.3179     4.254452     4.254452     4.254452    1219.3179   -6551.3091    8604.3708    1604.8921    2040.2434    10215.157    498.15032    77.007122 
    7500    323.95123   -111.14118   0.29311788   -110.84806   -1960.8095     4.257962     4.257962     4.257962   -1960.8095   -5706.8961    4852.0088   -5027.5414   -2374.5163    2493.9234   -3930.5718    77.197875 
    7600    366.87682   -111.17828   0.33195786   -110.84632    3162.8568    4.2541193    4.2541193    4.2541193    3162.8568    9136.1796    1019.2435   -666.85279   -2101.0694   -2297.4422    1854.5346    76.989057 
    7700    256.88129   -111.08027   0.23243159   -110.84784    3476.1969     4.253594     4.253594     4.253594    3476.1969    6606.8106    6497.0722    -2675.292   -20.030277    694.40338    4565.6027    76.960541 
    7800     220.2036   -111.04783   0.19924484   -110.84858   -2646.5511    4.2574466    4.2574466    4.2574466   -2646.5511   -2427.6901    -7166.321    1654.3578    917.06012    6491.7508    -4579.038    77.169847 
    7900    342.55996    -111.1569   0.30995545   -110.84695   -2847.5381    4.2540254    4.2540254    4.2540254   -2847.5381    2086.2129   -7554.8874   -3073.9398    223.92945   -2187.6526    -356.1126    76.983959 
    8000    388.60355   -111.19803   0.35161666   -110.84641   -4792.2993     4.256163     4.256163     4.256163   -4792.2993   -1093.6276   -7684.6981   -5598.5721   -1104.7914   -1088.9978    3767.6503    77.100067 
    8100    240.37126   -111.06569   0.21749297    -110.8482   -2323.9267    4.2560679    4.2560679    4.2560679   -2323.9267   -2518.4789   -2849.4871   -1603.8142    6377.1609     5777.904    1373.8095    77.094899 
    8200    288.44565   -111.10856   0.26099169   -110.84757   -3357.0545    4.2533102    4.2533102    4.2533102   -3357.0545   -6645.5294   -1670.8385   -1754.7956    1177.7909    6239.0093   -1882.6063    76.945136 
    8300    327.74784   -111.14366   0.29655313   -110.84711    308.65683    4.2565611    4.2565611    4.2565611    308.65683   -435.33648    5548.6079    -4187.301   -877.94851   -353.03423   -562.32201    77.121706 
    8400    291.95246   -111.11157   0.26416472    -110.8474     3158.857    4.2550865    4.2550865    4.2550865     3158.857     10094.05    4380.5702    -4998.049   -2407.6523   -1473.5467    6358.6202    77.041578 
    8500    170.01203   -111.00235   0.15383046   -110.84852    6262.9031    4.2532932    4.2532932    4.2532932    6262.9031    2294.6985    8938.8469    7555.1638   -127.11776    7433.1496   -2162.8838    76.944212 
    8600    290.13963   -111.10976   0.26252443   -110.84723    129.10039     4.256003     4.256003     4.256003    129.10039   -5679.9934    8175.1853   -2107.8907    107.95663    267.51853    -3208.912    77.091373 
    8700    327.32526   -111.14212   0.29617078   -110.84595   -903.49758    4.2560351    4.2560351    4.2560351   -903.49758    2680.5792   -7001.5652    1610.4932   -726.13327   -3818.3804    3655.5868    77.093119 
    8800    284.39449   -111.10448   0.25732611   -110.84715   -2537.0191    4.2530585    4.2530585    4.2530585   -2537.0191   -2287.7677    3578.3266   -8901.6163    1136.2367    4270.1528    3366.1486    76.931478 
    8900    237.56138   -111.06296   0.21495053   -110.84801   -4302.9703    4.2562305    4.2562305    4.2562305   -4302.9703   -12322.177   -3383.2087    2796.4753    3038.0968    6467.3854   -1713.3194    77.103736 
    9000    358.53409   -111.17135   0.32440918   -110.84694   -7100.8116    4.2560285    4.2560285    4.2560285   -7100.8116   -5314.7363   -8935.4795   -7052.2191    1940.5346    948.19986    -2517.063     77.09276 
    9100     274.8641   -111.09601   0.24870281   -110.84731    1832.6096     4.252591     4.252591     4.252591    1832.6096    4917.2825    1139.9593   -559.41298   -1858.8754   -4789.3382    5756.9597    76.906108 
    9200    217.10254   -111.04485   0.19643894   -110.84841   -1892.2117    4.2578926    4.2578926    4.2578926   -1892.2117    4035.6928    246.99658   -9959.3245    73.929248    4481.3964    2999.5168    77.194098 
    9300    225.15586   -111.05147   0.20372575   -110.84775    5439.7144    4.2531553    4.2531553    4.2531553    5439.7144    6292.3594    3688.7375    6338.0463   -1165.2351    5240.9848   -4932.1151    76.936729 
    9400    334.34624    -111.1488   0.30252351   -110.84628    2912.9028    4.2538469    4.2538469    4.2538469    2912.9028    3805.2224    6891.2964   -1957.8103   -1245.4313   -3227.5657    1198.1729    76.974269 
    9500    256.93149   -111.07983   0.23247701   -110.84736    1560.2573    4.2578579    4.2578579    4.2578579    1560.2573    9482.2524    995.17962   -5796.6601   -1027.9976     183.6345    3837.1077    77.192214 
    9600    268.00892   -111.08966   0.24250011   -110.84716   -8.7292496    4.2532609    4.2532609    4.2532609   -8.7292496   -2953.4204    1188.5049    1738.7277    2585.1146    7824.4071   -177.12387    76.942462 
    9700    345.19261   -111.15853   0.31233753    -110.8462   -1563.5578    4.2547607    4.2547607    4.2547607   -1563.5578   -5769.2834    683.04855    395.56145    3580.1014    3508.1285   -777.79564    77.023884 
    9800    347.39134   -111.16051   0.31432699   -110.84618   -2628.2909    4.2579291    4.2579291    4.2579291   -2628.2909    1096.5901   -10944.353    1962.8898    1088.8408   -1598.6548    1526.9016    77.196084 
    9900    280.62945   -111.10105   0.25391942   -110.84713   -3242.1452    4.2535683    4.2535683    4.2535683   -3242.1452    3890.6532   -5063.6855   -8553.4032   -303.35591    1424.2281    6969.5196    76.959147 
   10000    231.07726   -111.05682   0.20908356   -110.84774   -920.96196     4.256293     4.256293     4.256293   -920.96196   -477.16091   -2969.3181     683.5931    150.73772    7406.5182   -2010.2141    77.107133 
   10100    354.50831   -111.16673   0.32076657   -110.84596   -2780.0834    4.2569453    4.2569453    4.2569453   -2780.0834    5430.4005   -7725.0237   -6045.6271    723.31638   -1977.8552   -959.49595    77.142586 
   10200     250.6728    -111.0736   0.22681402   -110.84679    3709.4013     4.253512     4.253512     4.253512    3709.4013    10193.573     1750.081   -815.45014   -3449.4769   -3415.2511    7033.7461    76.956088 
   10300    274.14099   -111.09572   0.24804853   -110.84767   -3512.7856    4.2570041    4.2570041    4.2570041   -3512.7856    1122.0711    4256.5229   -15916.951   -1592.8886    7574.6011    492.08662    77.145784 
   10400       263.02   -111.08511   0.23798603   -110.84713    2711.2106    4.2565567    4.2565567    4.2565567    2711.2106    1121.1536    3401.5389    3610.9394    2411.9302    4777.8501   -1015.8815    77.121465 
   10500    408.01852   -111.21454   0.36918373   -110.84535   -441.66417    4.2535687    4.2535687    4.2535687   -441.66417    630.03781    2001.6623   -3956.6927    2158.7682   -702.38551    397.64221    76.959168 
   10600    283.92003   -111.10362   0.25689681   -110.84672    1126.9965     4.257324     4.257324     4.257324    1126.9965    4883.5361   -2036.9291     534.3825     809.2446   -1123.6314     5816.357    77.163181 
   10700    328.63555   -111.14358   0.29735635   -110.84622   -3033.8413    4.2563923    4.2563923    4.2563923   -3033.8413    2666.3098   -5624.1426    -6143.691    1750.1166    6379.1465    2443.3567    77.112529 
   10800    340.53443   -111.15389   0.30812271   -110.84577      2949.63    4.2537416    4.2537416    4.2537416      2949.63     5363.099   -4589.1952    8074.9861    5877.4718    3141.1977   -2427.9042    76.968554 
   10900    378.46908   -111.18834   0.34244678   -110.84589   -1303.7397    4.2571149    4.2571149    4.2571149   -1303.7397    6632.6602   -9702.0184   -841.86075    721.23074    -4841.539    3445.4328    77.151811 
   11000    268.11924   -111.08967   0.24259993   -110.84707   -331.66817    4.2556691    4.2556691    4.2556691   -331.66817    1301.9518   -1892.9592   -403.99717   -3245.3706    3225.3799      3530.57    77.073231 
   11100    302.14595   -111.12073     0.273388   -110.84734    301.47921    4.2529635    4.2529635    4.2529635    301.47921   -3548.1076    8073.4364   -3620.8911    778.35804    5741.9938   -1957.5996    76.926322 
   11200     339.9876   -111.15406   0.30762792   -110.84644   -1751.5962    4.2585975    4.2585975    4.2585975   -1751.5962   -8633.4248    1969.3573    1409.2789    3420.2275     211.5392    2.4702963    77.232442 
   11300    319.15687   -111.13566   0.28877984   -110.84688    -864.3291    4.2534874    4.2534874    4.2534874    -864.3291   -2803.9209    6691.8008   -6480.8671    1016.6582   -748.93354    3107.0294    76.954753 
   11400    273.35592   -111.09509   0.24733818   -110.84775   -918.43262    4.2539534    4.2539534    4.2539534   -918.43262   -7208.8015     11515.38   -7061.8765   -2534.5653    4540.4026    3671.8889     76.98005 
   11500    337.62734   -111.15255   0.30549231   -110.84706   -3060.4087    4.2585497    4.2585497    4.2585497   -3060.4087   -1990.3486   -1477.0927   -5713.7849    4053.2835    3367.6984   -570.36218    77.229847 
   11600    365.96427   -111.17747   0.33113216   -110.84634    515.95399    4.2525138    4.2525138    4.2525138    515.95399    3873.9496   -3374.3444    1048.2567    6446.9216   -3927.2016    2564.3892    76.901924 
   11700    314.69324   -111.13174   0.28474105     -110.847   -643.95609    4.2553365    4.2553365    4.2553365   -643.95609    4044.2999   -4103.2864   -1872.8818    281.84376    336.55813    6634.8014    77.055158 
   11800     312.8036   -111.13021   0.28303127   -110.84718   -885.13091    4.2569384    4.2569384    4.2569384   -885.13091    5508.5262   -3845.9805   -4317.9384   -722.85647    7278.8292   -2221.0789    77.142215 
   11900    336.18482   -111.15063   0.30418709   -110.84645    2719.0433    4.2527223    4.2527223    4.2527223    2719.0433   -109.68505    -269.7726    8536.5875    3542.0606    1448.0372   -1158.6538    76.913235 
   12000    345.85294   -111.15934     0.312935    -110.8464    -579.3835    4.2561136    4.2561136    4.2561136    -579.3835    -1137.868    372.43997   -972.72247    1108.6634   -1486.8243    1984.1121    77.097384 
   12100    249.73991   -111.07305   0.22596992   -110.84708     1794.195    4.2567067    4.2567067    4.2567067     1794.195   -4757.4259    6202.0156    3937.9954   -370.77443    4149.3711    3233.0247    77.129617 
   12200    318.35716   -111.13457   0.28805625   -110.84651   -3.6463409    4.2525372    4.2525372    4.2525372   -3.6463409   -8510.8224    12083.643   -3583.7592    2545.4064     5555.395     915.8807    76.903192 
   12300    264.50658   -111.08616   0.23933111   -110.84683    1658.9328    4.2572924    4.2572924    4.2572924    1658.9328   -3656.5474    1091.2295    7542.1163    7199.9041    997.58661   -1128.6901    77.161462 
   12400    322.42175   -111.13832   0.29173397   -110.84659   -4473.3946    4.2560585    4.2560585    4.2560585   -4473.3946   -763.14257   -3550.3468   -9106.6943     2188.975   -3679.2301    7375.6483    77.094389 
   12500    219.00577   -111.04554   0.19816103   -110.84738     3289.943    4.2528568    4.2528568    4.2528568     3289.943    2068.1025    5362.9281    2438.7984    -593.7443    4572.4038    4119.2456     76.92053 
   12600    322.37433   -111.13808   0.29169107   -110.84639   -5509.4647    4.2586463    4.2586463    4.2586463   -5509.4647     2645.818   -10990.386    -8183.826    5782.9392    3369.8603   -1108.6509    77.235102 
   12700    280.79494   -111.09988   0.25406916   -110.84581   -1229.7138    4.2552407    4.2552407    4.2552407   -1229.7138    7031.7478   -13228.703    2507.8138    3489.9944   -2767.8491    1599.2446    77.049957 
   12800    323.72934   -111.13875   0.29291711   -110.84584   -4516.5076    4.2540168    4.2540168    4.2540168   -4516.5076   -1471.3265   -6289.8853    -5788.311   -2552.6775    3892.3945    1647.1233    76.983492 
   12900    279.14087   -111.09895   0.25257252   -110.84637   -2906.6204     4.258455     4.258455     4.258455   -2906.6204   -1806.5024   -5801.8493   -1111.5094   -2183.0936    5835.8502    470.50584    77.224694 
   13000     311.8576   -111.12835   0.28217531   -110.84617     -1240.73    4.2545188    4.2545188    4.2545188     -1240.73    86.573597   -5673.7817     1865.018    4815.7387    2268.2274   -2191.8218    77.010748 
   13100    290.89579   -111.10917   0.26320863   -110.84596   -885.42143    4.2552913    4.2552913    4.2552913   -885.42143    805.89992   -6261.1323    2798.9681    4156.7748   -2308.6776    3903.5502    77.052704 
   13200    214.22899   -111.04058   0.19383889   -110.84674    2699.4719    4.2584256    4.2584256    4.2584256    2699.4719    9401.0626   -3911.8856    2609.2389    -130.1279    1690.9394    4466.2509    77.223094 
   13300    245.49201   -111.06926   0.22212633   -110.84714    4211.4077    4.2525157    4.2525157    4.2525157    4211.4077    4206.7472    5802.4715    2625.0043    4466.0945    5335.3279   -494.07243    76.902024 
   13400    195.44876   -111.02441   0.17684614   -110.84756    6306.8872     4.255176     4.255176     4.255176    6306.8872    10339.737   -4997.5123    13578.437    7764.3991   -1314.1857    2673.1902    77.046439 
   13500    285.53624    -111.1051   0.25835919   -110.84674   -5212.7336    4.2593007    4.2593007    4.2593007   -5212.7336    1438.3687   -11714.757   -5361.8129    1573.1491   -2662.6124    4082.4948    77.270711 
   13600    230.35112   -111.05505   0.20842653   -110.84662    93.917027    4.2522385    4.2522385    4.2522385    93.917027   -2680.9521    2657.3856    305.31765   -146.73907    5676.4324    2707.9376    76.886987 
   13700    332.08756   -111.14661   0.30047981   -110.84613   -7365.1931    4.2574295    4.2574295    4.2574295   -7365.1931   -8351.7889    -7645.768   -6098.0223    3474.4368    6547.6943   -2342.3141    77.168915 
   13800    295.40974   -111.11366   0.26729294   -110.84637    -4379.679    4.2576832    4.2576832    4.2576832    -4379.679    2523.9061   -13815.312   -1847.6311    1729.1396   -821.49133    791.53266    77.182713 
   13900    332.47401   -111.14688   0.30082947   -110.84605   -3479.7383    4.2519472    4.2519472    4.2519472   -3479.7383    2101.1558   -7933.9287   -4606.4421   -3951.9501    -1053.911    4813.9471    76.871185 
   14000    256.09119   -111.07908   0.23171669   -110.84736   -1124.9045    4.2592857    4.2592857    4.2592857   -1124.9045    6605.0567   -11017.413    1037.6424   -1073.9435    2865.4726   -1384.7683    77.269892 
   14100      277.553   -111.09835   0.25113579   -110.84722    4072.4751     4.254887     4.254887     4.254887    4072.4751    10579.396   -4143.3704       5781.4    6645.7758    1023.4797    1075.6133    77.030744 
   14200    318.68105   -111.13509   0.28834931   -110.84674    4210.3184    4.2528885    4.2528885    4.2528885    4210.3184    9773.7581   -4054.4561    6911.6531    4899.1106   -3154.3228    3793.9247    76.922255 
   14300     279.7401   -111.10012   0.25311473   -110.84701    264.82562    4.2606398    4.2606398    4.2606398    264.82562    6472.6118   -4804.9978   -873.13722   -818.62397    3481.8447    3049.9211    77.343615 
   14400    328.08371   -111.14299   0.29685703   -110.84614     540.8356    4.2536785    4.2536785    4.2536785     540.8356   -7477.9465    11036.363   -1935.9096    2052.3051    5086.3878    812.70054    76.965126 
   14500    318.49526   -111.13466    0.2881812   -110.84648    2424.8059    4.2542995    4.2542995    4.2542995    2424.8059   -1687.3897    3054.7775    5907.0299    5156.0464     2187.936    -1307.915    76.998839 
   14600    345.08125   -111.15875   0.31223677   -110.84651   -2853.8481    4.2592033    4.2592033    4.2592033   -2853.8481   -618.84153   -5080.0703   -2862.6325   -1082.2582   -1900.9001    3369.4085    77.265411 
   14700    278.36266   -111.09902   0.25186838   -110.84715    1627.6541    4.2539266    4.2539266    4.2539266    1627.6541    2025.9034    2801.7747    55.284112   -3709.4674    3213.7832   -1250.8582    76.978595 
   14800     311.4129   -111.12916   0.28177294   -110.84739   -1634.5715    4.2567334    4.2567334    4.2567334   -1634.5715    1617.0319   -8000.7411    1479.9948      -1362.9    3365.7837   -1747.5462    77.131069 
   14900    294.59885   -111.11349   0.26655923   -110.84694   -679.94689     4.257812     4.257812     4.257812   -679.94689    9962.3246   -13080.609    1078.4438    3760.2207   -4976.9019    3040.4568    77.189719 
   15000    336.02478   -111.15055   0.30404228    -110.8465   -1488.6557    4.2525462    4.2525462    4.2525462   -1488.6557    8299.6359   -5989.5775   -6776.0253    101.07966   -931.06675    2696.2456    76.903678 
   15100    342.07904   -111.15622    0.3095203    -110.8467   -4406.3856    4.2586869    4.2586869    4.2586869   -4406.3856   -2158.7309   -6513.1831   -4547.2427    775.15645    5297.1039    1706.2557    77.237307 
   15200    386.44685   -111.19602   0.34966523   -110.84635   -4186.4215    4.2567211    4.2567211    4.2567211   -4186.4215   -1509.5462   -5558.5624   -5491.1559     5278.416    3574.3639     121.4196    77.130402 
   15300    365.35476   -111.17703   0.33058067   -110.84645    1144.5078    4.2526885    4.2526885    4.2526885    1144.5078    188.45377     3684.636   -439.56632    796.09695   -1852.7605    4185.8129    76.911403 
   15400    329.62717   -111.14556   0.29825359   -110.84731    1391.6991    4.2582439    4.2582439    4.2582439    1391.6991    6482.0845   -1763.0222   -543.96498   -2994.1424   -501.25789    2966.8169     77.21321 
   15500    301.03568   -111.11951   0.27238341   -110.84713    6493.3949    4.2544923    4.2544923    4.2544923    6493.3949    5889.2127    8770.0446    4820.9273   -2203.8619    3507.4052   -4250.9274    77.009311 
   15600    320.96068   -111.13711   0.29041197    -110.8467    5634.4367    4.2537996    4.2537996    4.2537996    5634.4367    11756.036    1246.8674    3900.4068    1295.9301     222.3296    635.60791    76.971697 
   15700    318.08439   -111.13521   0.28780944    -110.8474   -488.75277    4.2582624    4.2582624    4.2582624   -488.75277    6699.6046    -10297.14    2131.2768   -619.99773   -4535.4903    2236.3474    77.214216 
   15800    279.35569   -111.10097    0.2527669    -110.8482    1223.0646    4.2521059    4.2521059    4.2521059    1223.0646   -2204.1803     7320.062   -1446.6879   -3656.2608    5037.2834    1849.6589    76.879795 
   15900    363.92926   -111.17689   0.32929084    -110.8476   -6592.0188     4.256124     4.256124     4.256124   -6592.0188   -9425.1089   -6451.0212   -3899.9264    678.22556    6419.5705   -418.96788    77.097946 
   16000    352.38908   -111.16572   0.31884905   -110.84687   -6647.5494    4.2584332    4.2584332    4.2584332   -6647.5494   -5328.1574   -15224.723    610.23218    7183.8971   -323.63511    108.76594    77.223505 
   16100     322.1761   -111.13823   0.29151171   -110.84671   -3149.6164    4.2512429    4.2512429    4.2512429   -3149.6164   -2109.2018   -4330.2838   -3009.3636   -457.53399    -106.1199    5724.0202    76.832993 
   16200    234.90365   -111.06066   0.21254576   -110.84812    189.30923    4.2570667    4.2570667    4.2570667    189.30923    3402.8509   -3410.1604    575.23724   -4210.0799    2120.5513   -1762.5361    77.149191 
   16300    301.22887   -111.12067   0.27255821   -110.84811    434.19708    4.2553807    4.2553807    4.2553807    434.19708    10949.117   -7344.0811   -2302.4448   -2607.6343    3838.7451   -469.20875     77.05756 
   16400    282.81449   -111.10334   0.25589649   -110.84745     4959.458    4.2521152    4.2521152    4.2521152     4959.458    16275.765   -2873.7857     1476.395    1300.6134   -3343.2662    902.51417    76.880301 
   16500    279.75725   -111.10072   0.25313024   -110.84759   -2202.5736    4.2586141    4.2586141    4.2586141   -2202.5736    6796.6907   -6126.6089   -7277.8026   -3008.2625   -970.80651   -617.03834     77.23335 
   16600    225.39455   -111.05171   0.20394172   -110.84777    897.42643    4.2538023    4.2538023    4.2538023    897.42643    -3250.552    1249.2919    4693.5394   -5241.8766    5146.2592    -178.0237    76.971846 
   16700    327.96029   -111.14361   0.29674537   -110.84687    -1665.073     4.253377     4.253377     4.253377    -1665.073   -401.91791   -2464.8299   -2128.4711    1235.7826    3615.9084    416.57718    76.948762 
   16800    305.82384   -111.12377   0.27671584   -110.84705    -3694.667    4.2595007    4.2595007    4.2595007    -3694.667    615.53242   -16844.746    5145.2129     2798.053   -2214.8584    4200.5759    77.281597 
   16900    237.37104    -111.0627   0.21477831   -110.84792    778.53112    4.2523471    4.2523471    4.2523471    778.53112    2127.6576   -2484.1924    2692.1282   -435.18433    1088.7726     372.4996    76.892878 
   17000    217.71837   -111.04518   0.19699616   -110.84818    438.72483    4.2556403    4.2556403    4.2556403    438.72483     6624.438    -7977.847    2669.5834    -1751.627    4299.5099    -1977.054    77.071665 
   17100    281.34234   -111.10119   0.25456447   -110.84663   -267.01367    4.2582222    4.2582222    4.2582222   -267.01367    13686.874   -18505.628    4017.7131   -400.33957    1088.8381    1913.9713    77.212028 
   17200     320.4339    -111.1357   0.28993532   -110.84576    -197.4525    4.2523651    4.2523651    4.2523651    -197.4525    9936.6974   -9695.2302   -833.82471   -2002.7799   -2613.0033    1575.8984    76.893856 
   17300    228.51627   -111.05414   0.20676632   -110.84738   -2516.6477    4.2575098    4.2575098    4.2575098   -2516.6477    743.46544   -8453.1964    159.78783   -4522.6935    2567.4726    272.99124     77.17328 
   17400    301.17132    -111.1194   0.27250614   -110.84689     -6085.88    4.2570717    4.2570717    4.2570717     -6085.88   -1361.5375   -12239.379   -4656.7238   -3746.5279    3814.0988   -1736.6291    77.149458 
   17500    277.73799   -111.09751   0.25130317   -110.84621    2872.0675     4.251895     4.251895     4.251895    2872.0675    10173.629   -7149.2978     5591.871    1548.6149   -2287.2872    3124.1756    76.868356 
   17600    311.66505   -111.12859   0.28200108   -110.84659    -4060.736     4.258372     4.258372     4.258372    -4060.736    2983.0575   -8268.5727   -6896.6929    648.87396   -171.58883    3107.7016    77.220178 
   17700    162.89117   -110.99558   0.14738735   -110.84819    3272.5479    4.2555356    4.2555356    4.2555356    3272.5479    10063.026   -3960.8806     3715.498   -1963.5893   -135.86918    155.29127    77.065974 
   17800    291.93804   -111.11152   0.26415167   -110.84737    2092.4974    4.2519485    4.2519485    4.2519485    2092.4974    12300.718   -3634.8937   -2388.3321    1521.1622    2980.5298    2648.3438    76.871257 
   17900    283.12528   -111.10338    0.2561777    -110.8472    2435.6316    4.2587401    4.2587401    4.2587401    2435.6316    10620.323   -10907.107    7593.6787    3568.8319   -2539.3261   -266.33109    77.240205 
   18000    311.20251   -111.12876   0.28158257   -110.84717   -1724.2842    4.2539793    4.2539793    4.2539793   -1724.2842   -3400.2731    756.92294   -2529.5025   -90.412409   -79.048526   -865.67868    76.981454 
   18100    284.00138   -111.10453   0.25697042   -110.84756   -472.60397    4.2525653    4.2525653    4.2525653   -472.60397   -5513.5866    662.71704    3433.0576   -3775.6439    9029.6653   -807.18539    76.904714 
   18200    347.96513   -111.16141   0.31484616   -110.84657   -4101.7166    4.2596702    4.2596702    4.2596702   -4101.7166   -176.34761    -15623.09     3494.288   -1986.4091   -1521.0458    1502.5615    77.290825 
   18300    347.73549   -111.16096   0.31463838   -110.84632    1433.6877    4.2517177    4.2517177    4.2517177    1433.6877    6072.8681    -4763.919     2992.114    281.40802    645.23846    2620.2975     76.85874 
   18400    297.31225   -111.11621   0.26901437    -110.8472   -1259.9725    4.2558367    4.2558367    4.2558367   -1259.9725    1640.5696   -3483.0649   -1937.4221    317.92487    295.39848   -2517.1926    77.082335 
   18500    317.43238   -111.13412   0.28721949    -110.8469   -2743.9476    4.2580984    4.2580984    4.2580984   -2743.9476    13910.434   -12090.735   -10051.542   -549.79305    2866.4511    1412.6534    77.205295 
   18600     322.8748   -111.13862    0.2921439   -110.84648    4549.3366    4.2503873    4.2503873    4.2503873    4549.3366    16128.373   -7222.1727     4741.809    2135.9781    1003.3869    3566.9748    76.786616 
   18700    387.07105   -111.19682   0.35023002   -110.84659    -4114.901    4.2578983    4.2578983    4.2578983    -4114.901    3221.2028     -7361.37   -8204.5357    2929.9899   -2692.5412    1105.2025    77.194409 
   18800    315.33923   -111.13286   0.28532556   -110.84753   -1226.0566    4.2565359    4.2565359    4.2565359   -1226.0566    -1882.395   -887.74236   -908.03258   -26.187075    3683.6051   -2247.0153    77.120332 
   18900    359.01619    -111.1722    0.3248454   -110.84736    1211.2562    4.2516725    4.2516725    4.2516725    1211.2562    8425.2856   -937.75612   -3853.7609    1123.7912     1516.095   -2941.9087     76.85629 
   19000    321.60499   -111.13811   0.29099495   -110.84711    1613.1503    4.2584067    4.2584067    4.2584067    1613.1503    3242.9324   -6754.8299    8351.3485    762.28452    22.631106    2123.0726    77.222062 
   19100    346.35867   -111.15984    0.3133926   -110.84645    28.443731    4.2542236    4.2542236    4.2542236    28.443731    2851.9542    1765.6399   -4532.2629   -1989.9841   -1160.6962     709.9787    76.994722 
   19200    270.71627   -111.09202   0.24494977   -110.84707    3335.6163     4.253211     4.253211     4.253211    3335.6163    6991.7341    2984.1587    30.956017   -1738.2615    3027.8144    33.206984    76.939755 
   19300    333.98904   -111.14923   0.30220031   -110.84703   -2047.0968    4.2580721    4.2580721    4.2580721   -2047.0968    6309.8842   -11268.231   -1182.9432    159.62815    1299.9526    457.13892    77.203865 
   19400    316.61364   -111.13348   0.28647867     -110.847    2810.4825    4.2519219    4.2519219    4.2519219    2810.4825     3435.737    -1035.059    6030.7696     4722.049   -320.69145   -37.157416    76.869815 
   19500    341.47648    -111.1558   0.30897509   -110.84682   -3724.4599    4.2549828    4.2549828    4.2549828   -3724.4599   -7911.8716   -1248.5513   -2012.9567    346.16021    3836.0216    1545.4112    77.035945 
   19600    296.57408   -111.11525   0.26834646    -110.8469   -2445.4662    4.2578059    4.2578059    4.2578059   -2445.4662    8907.5705    -11431.92   -4812.0488   -1605.7366    2593.9734    -188.3623    77.189383 
   19700     332.9008   -111.14725   0.30121564   -110.84603    517.01909    4.2523947    4.2523947    4.2523947    517.01909    6832.6999   -11068.496    5786.8533    5017.8484   -539.88196    820.36308    76.895463 
   19800    318.04074   -111.13411   0.28776995   -110.84634    1820.5855    4.2543947    4.2543947    4.2543947    1820.5855     14118.21   -6026.6858   -2629.7677    2312.7903      -1629.4   -1168.5641    77.004007 
   19900    272.36311   -111.09471   0.24643987   -110.84827   -2523.1239    4.2562683    4.2562683    4.2562683   -2523.1239    889.80171   -5979.5626    -2479.611   -734.85897   -574.73135   -1654.1967    77.105792 
   20000    275.11148   -111.09719   0.24892664   -110.84826   -809.42174    4.2516444    4.2516444    4.2516444   -809.42174    13963.649   -10407.757   -5984.1569   -2206.1997    2689.8729    2369.9567    76.854763 
   20100    305.30588   -111.12352   0.27624718   -110.84727   -2666.6915    4.2574741    4.2574741    4.2574741   -2666.6915    27.549448    -14546.96    6519.3365    1097.3309   -897.51336    1248.6863     77.17134 
   20200    298.66997   -111.11675   0.27024287   -110.84651   -1640.2387     4.254363     4.254363     4.254363   -1640.2387   -2736.1569   -374.02253   -1810.5367    2975.5818    -753.3886    762.32098    77.002288 
   20300    207.63303   -111.03511   0.18787073   -110.84724    407.95487    4.2518818    4.2518818    4.2518818    407.95487   -1135.5676  -0.16564539    2359.5978   -313.71598    5415.4673   -1275.9571    76.867638 
   20400    257.05574   -111.08011   0.23258943   -110.84752   -5285.2392    4.2584182    4.2584182    4.2584182   -5285.2392     3983.089   -16289.993   -3548.8136    975.25081    322.10606    569.65591    77.222692 
   20500    290.75714    -111.1095   0.26308317   -110.84641    3133.1333    4.2525275    4.2525275    4.2525275    3133.1333    7556.3273   -4114.3432    5957.4158     3821.703    862.03019    1791.3055    76.902664 
   20600    262.18254   -111.08443   0.23722827    -110.8472    1537.0293    4.2536005    4.2536005    4.2536005    1537.0293     1843.081    2016.0417    751.96526     33.59242   -559.85093   -1205.4551    76.960894 
   20700    195.46038   -111.02487   0.17685666   -110.84801   -127.31405     4.256115     4.256115     4.256115   -127.31405     12775.81   -9063.3499   -4094.4024   -362.85607    1944.2304    338.97709    77.097461 
   20800    295.02821   -111.11432   0.26694773   -110.84737   -2425.3209    4.2538997    4.2538997    4.2538997   -2425.3209     3737.451   -15859.189    4845.7753   -544.62143   -890.07575   -1046.1057    76.977132 
   20900    336.64426   -111.15115    0.3046028   -110.84655   -1700.0182    4.2557964    4.2557964    4.2557964   -1700.0182    8438.2186   -11544.148   -1994.1253   -1715.8622   -328.42369    307.57245    77.080146 
   21000    237.00222    -111.0621   0.21444459   -110.84766   -901.13361    4.2545196    4.2545196    4.2545196   -901.13361   -1764.4134   -1436.8797    497.89235    808.55619   -200.56576    668.48457    77.010793 
   21100    240.63065   -111.06582   0.21772767   -110.84809   -3352.8188    4.2528556    4.2528556    4.2528556   -3352.8188    10265.422   -12823.663   -7500.2152   -2879.6994   -1195.3616    531.38105    76.920468 
   21200    336.59808   -111.15161   0.30456101   -110.84705   -2416.4384    4.2559057    4.2559057    4.2559057   -2416.4384    3652.7868   -14853.587    3951.4846    2276.6562    1669.6411    1928.6036    77.086083 
   21300    342.76985   -111.15717   0.31014537   -110.84702   -2218.1012     4.255969     4.255969     4.255969   -2218.1012    4587.8143   -4535.1604   -6706.9576    2110.5113   -2854.1043   -2673.0767    77.089525 
   21400    209.69149   -111.03806   0.18973327   -110.84833    2094.1864     4.252891     4.252891     4.252891    2094.1864    2772.4019    3585.9668   -75.809355   -502.90395    2946.7173   -842.02496     76.92239 
   21500     305.3589   -111.12394   0.27629515   -110.84764   -1824.2413    4.2555095    4.2555095    4.2555095   -1824.2413    5354.6862   -9027.9642    -1799.446    983.89357    1388.0873    1467.1949    77.064558 
   21600    383.79163   -111.19316   0.34726273    -110.8459    2997.5725    4.2543018    4.2543018    4.2543018    2997.5725    5769.9528    492.26717    2730.4974   -1345.8071   -1693.1498    902.47952    76.998966 
   21700     314.2909   -111.13177   0.28437701    -110.8474    216.64192    4.2550282    4.2550282    4.2550282    216.64192   -556.33177    4267.6491   -3061.3916   -30.448065     3028.009   -559.28715    77.038413 
   21800    229.70122   -111.05686   0.20783849   -110.84902    385.80484    4.2548287    4.2548287    4.2548287    385.80484     7951.786    2366.9183   -9161.2898   -1840.2524   -467.08763   -2811.9357    77.027577 
   21900    370.81498   -111.18315   0.33552119   -110.84763    2175.6453     4.252994     4.252994     4.252994    2175.6453    5922.0661   -1867.9144    2472.7843   -2522.7215    1311.8299    1864.8396    76.927977 
   22000    431.42141   -111.23691   0.39035915   -110.84655   -1481.9825    4.2568626    4.2568626    4.2568626   -1481.9825    6231.3992    -4761.345   -5916.0016    501.83961   -290.92595    1899.8281    77.138091 
   22100    273.00538    -111.0951     0.247021   -110.84807   -2722.3991    4.2551277    4.2551277    4.2551277   -2722.3991   -3248.4814    1811.7057   -6730.4216    1238.1663   -2448.8647    275.77728    77.043819 
   22200    298.26913   -111.11795   0.26988018   -110.84807   -3983.1506    4.2543458    4.2543458    4.2543458   -3983.1506    1040.4762    -6316.149   -6673.7791   -1528.4155    1102.9984   -640.12683    77.001354 
   22300    429.44086   -111.23534   0.38856711   -110.84678    2241.5524    4.2541001    4.2541001    4.2541001    2241.5524    3281.0127   -5791.2829    9234.9274   -360.00863   -1820.6551   -1745.8573    76.988016 
   22400    404.07382   -111.21342   0.36561449   -110.84781   -1128.6172    4.2548579    4.2548579    4.2548579   -1128.6172    3104.2406    -357.3702    -6132.722   -329.28667    277.05169    1217.9411    77.029164 
   22500    204.26726   -111.03466   0.18482531   -110.84984   -1363.4318    4.2562884    4.2562884    4.2562884   -1363.4318    1356.3845   -1021.0407    -4425.639   -368.16261    130.71846   -85.330574     77.10688 
   22600    317.66192   -111.13585   0.28742718   -110.84842    574.39691    4.2544449    4.2544449    4.2544449    574.39691    9081.5015   -5417.5162   -1940.7945   -1953.9429     1447.481    233.16178    77.006738 
   22700    409.49756   -111.21634   0.37052199   -110.84582    5493.0937    4.2537305    4.2537305    4.2537305    5493.0937    9023.6544    3022.2585    4433.3683   -3366.7244    1578.3242   -585.50082    76.967947 
   22800    266.98995   -111.08927   0.24157811   -110.84769   -10.473395    4.2559444    4.2559444    4.2559444   -10.473395   -703.63346    4324.7864   -3652.5731    2510.5368   -1530.1397   -1132.0856    77.088189 
   22900    188.68519   -111.01967   0.17072632   -110.84894   -3761.1602    4.2553197    4.2553197    4.2553197   -3761.1602    397.26135   -1207.5779   -10473.164   -870.27105    1950.0344    2632.8388    77.054248 
   23000    349.08588   -111.16331   0.31586024   -110.84745    538.35382    4.2543008    4.2543008    4.2543008    538.35382    1863.8482   -3269.6871    3020.9004    206.97568   -2442.8904    1813.0465    76.998913 
   23100    374.15343   -111.18518   0.33854189   -110.84664    1157.0916     4.255053     4.255053     4.255053    1157.0916    6492.5804   -2417.6834   -603.62235    1192.7985   -727.63131    207.97348    77.039761 
   23200    172.27899   -111.00478   0.15588165    -110.8489   -2217.3018    4.2555052    4.2555052    4.2555052   -2217.3018    5791.9468   -1721.1285   -10722.724    991.97342   -1927.2577   -1744.2997    77.064324 
   23300    230.28616   -111.05667   0.20836776   -110.84831   -3442.1652     4.255938     4.255938     4.255938   -3442.1652    7790.0274   -9955.9331   -8160.5898    236.24045   -1424.7178   -667.21672    77.087842 
   23400     379.0718     -111.189   0.34299213     -110.846    2045.0491    4.2556385    4.2556385    4.2556385    2045.0491    10415.262   -13471.434    9191.3191   -2482.0385    2303.3096    1138.7444    77.071566 
   23500    328.09803    -111.1445   0.29686999   -110.84763   -190.53031    4.2528847    4.2528847    4.2528847   -190.53031    5706.9867   -3543.9577   -2734.6199    608.35307   -2937.1001   -1248.0459    76.922044 
   23600    122.92851   -110.96112    0.1112283    -110.8499   -2905.7788    4.2571092    4.2571092    4.2571092   -2905.7788   -2509.8936   -6767.2034    559.76051    120.40699    915.87494   -89.515953      77.1515 
   23700    321.84068   -111.13887   0.29120821   -110.84766   -3146.4544    4.2558458    4.2558458    4.2558458   -3146.4544    6002.9325   -12850.014   -2592.2817   -1197.3752     822.9204   -94.570273    77.082831 
   23800    370.15289   -111.18042   0.33492211    -110.8455    4159.8224    4.2535149    4.2535149    4.2535149    4159.8224    10373.298    -6030.303    8136.4725   -368.57611   -1337.5639    400.55351    76.956246 
   23900     206.4743   -111.03505   0.18682228   -110.84822   -2229.5197      4.25686      4.25686      4.25686   -2229.5197    7385.0434    -6505.709   -7567.8934    2516.9202    543.00584    785.95797    77.137951 
   24000    104.12887   -110.94388  0.094217993   -110.84966    365.29058    4.2548121    4.2548121    4.2548121    365.29058    11452.189   -2772.0945   -7584.2224    2531.6249    453.86481   -689.76668    77.026674 
   24100    371.47311    -111.1831   0.33611668   -110.84698    86.271462    4.2540702    4.2540702    4.2540702    86.271462    6093.9307   -4938.7245   -896.39184   -180.56998    1619.8149    1173.3752    76.986393 
   24200    339.57131   -111.15444   0.30725126   -110.84719   -1.1696488    4.2569693    4.2569693    4.2569693   -1.1696488    2129.5285   -5318.7384    3185.7009    1257.1311     287.4022   -3332.9366    77.143894 
   24300    150.32324   -110.98616   0.13601563   -110.85014   -2392.1619     4.253532     4.253532     4.253532   -2392.1619   -97.188175    423.76894   -7503.0665    830.75407    -2002.792   -2745.8692    76.957176 
   24400    255.04387   -111.08003   0.23076905   -110.84926   -3288.6836     4.255767     4.255767     4.255767   -3288.6836   -3874.6163   -1585.0866    -4406.348   -218.44962   -1278.0524    186.92832    77.078551 
   24500    413.16951   -111.22033   0.37384446   -110.84649    1234.8262    4.2572844    4.2572844    4.2572844    1234.8262    9729.7595   -7454.6251    1429.3441   -1652.0523   -277.79765    6.9652544    77.161023 
   24600    323.19856   -111.14099   0.29243685   -110.84856    1422.6024    4.2519695    4.2519695    4.2519695    1422.6024    10176.439   -2649.9971   -3258.6349   -241.60442   -1890.4256    -84.12097    76.872399 
   24700    151.86364   -110.98772   0.13740941   -110.85031   -646.08806    4.2565357    4.2565357    4.2565357   -646.08806      2917.34   -2946.2465   -1909.3577    584.79445    1369.8853   -1789.2388    77.120325 
   24800     392.4071   -111.20242   0.35505819   -110.84737   -2011.4682    4.2565044    4.2565044    4.2565044   -2011.4682    5603.3996   -5400.7078   -6237.0963    -1131.788    2452.8406    2244.8102    77.118621 
   24900    461.42819    -111.2629   0.41750992   -110.84539    3080.1711    4.2534641    4.2534641    4.2534641    3080.1711    5530.3191   -4656.3898     8366.584    1946.9512   -149.82589    1363.2665    76.953488 
   25000    320.45845   -111.13846   0.28995754    -110.8485   -2957.2143    4.2557773    4.2557773    4.2557773   -2957.2143   -478.30796   -4617.8963   -3775.4388     3746.572   -199.58782   -445.25165    77.079106 
   25100    208.46626   -111.03819   0.18862465   -110.84957    1039.2247    4.2564425    4.2564425    4.2564425    1039.2247    8926.5814   -266.03255   -5542.8746    1328.0959   -234.29711   -439.23689    77.115255 
   25200    457.27062   -111.26077   0.41374807   -110.84702    2192.4114     4.252923     4.252923     4.252923    2192.4114    11388.446   -1440.5452   -3370.6665   -1416.1273   -77.452671   -3058.0749    76.924126 
   25300    381.05113   -111.19216   0.34478307   -110.84738    2420.3757    4.2572608    4.2572608    4.2572608    2420.3757    9849.0554   -2152.0624   -435.86595    337.20737   -1025.7435    357.82488    77.159741 
   25400    245.59482   -111.07153   0.22221935   -110.84931   -2805.0979    4.2543897    4.2543897    4.2543897   -2805.0979    7139.1542    288.45677   -15842.905    1507.9373   -1317.0967   -601.08606    77.003738 
   25500     278.2814   -111.10117   0.25179486   -110.84938   -1136.6995     4.252752     4.252752     4.252752   -1136.6995   -8773.1425    8285.9791   -2922.9352    156.72782    443.66061    331.36665    76.914846 
   25600      462.988   -111.26547   0.41892127   -110.84655   -5386.0323    4.2588599    4.2588599    4.2588599   -5386.0323   -3383.2512   -4635.7715   -8139.0741   -3224.3917    926.34024   -233.42589    77.246724 
   25700    335.03411   -111.15069    0.3031459   -110.84754   -1938.9196    4.2537875    4.2537875    4.2537875   -1938.9196    360.58241   -2281.9932   -3895.3479   -538.33144   -3649.8527    -2090.625    76.971043 
   25800    202.25143   -111.03206   0.18300135   -110.84906    440.16007    4.2532352    4.2532352    4.2532352    440.16007    995.39464    1876.9977   -1551.9121    5157.9901   -1756.7386    2554.9794    76.941066 
   25900     316.5787    -111.1343   0.28644706   -110.84785    1397.7139    4.2573283    4.2573283    4.2573283    1397.7139    11019.274   -1818.2832   -5007.8493    1219.7598   -1052.8886    246.27626    77.163411 
   26000    381.49877   -111.19165   0.34518811   -110.84647    4325.5278    4.2530957    4.2530957    4.2530957    4325.5278    14323.416   -6939.7121    5592.8793   -13.829551    684.63946    147.42804    76.933496 
   26100    297.88524   -111.11794   0.26953283    -110.8484   -523.15054     4.255411     4.255411     4.255411   -523.15054    10780.717   -11190.622   -1159.5465   -472.75974   -2254.0891   -1796.5927    77.059206 
   26200    257.92066   -111.08202   0.23337203   -110.84865   -2924.5728    4.2572796    4.2572796    4.2572796   -2924.5728    4142.5712   -5470.9024   -7445.3872    655.16313    2408.6647    -871.6351    77.160762 
   26300    374.38252   -111.18529   0.33874917   -110.84654   -1120.4045    4.2529649    4.2529649    4.2529649   -1120.4045    349.52093   -2473.4231   -1237.3113   -566.68596    3656.8142    2009.7733    76.926395 
   26400    324.74917   -111.14022   0.29383987   -110.84638   -2896.1191    4.2571976    4.2571976    4.2571976   -2896.1191    6789.5292   -17076.076    1598.1894   -4490.6578   -2254.8772   -834.08693    77.156304 
   26500    230.93145   -111.05625   0.20895163    -110.8473   -4286.2739    4.2565394    4.2565394    4.2565394   -4286.2739    12119.674   -11302.319   -13676.176    71.957063    -167.1802    317.78642    77.120522 
   26600    184.84443    -111.0151   0.16725112   -110.84785    2020.9496    4.2533102    4.2533102    4.2533102    2020.9496    5661.7364    4.5641997    396.54827   -1030.6964   -3614.6851   -1006.9428    76.945134 
   26700    306.92825   -111.12435   0.27771513   -110.84663   -1632.4569    4.2564354    4.2564354    4.2564354   -1632.4569    8735.1169   -9444.3149   -4188.1728    -729.1373    1262.5297   -42.605062    77.114869 
   26800      239.069   -111.06302   0.21631465   -110.84671    126.12484    4.2562714    4.2562714    4.2562714    126.12484    8021.3011   -7546.4011   -96.525493    1962.1276    -3469.561    1273.7908    77.105958 
   26900    277.51182   -111.09786   0.25109853   -110.84676    -4850.984    4.2542951    4.2542951    4.2542951    -4850.984    -3765.973   -5890.1213   -4896.8576    1303.1532   -3061.0207   -977.54425    76.998601 
   27000     249.4672   -111.07283   0.22572317    -110.8471    150.00609    4.2568808    4.2568808    4.2568808    150.00609    5747.7844   -3802.8727   -1494.8934   -123.97826    4282.7951    1239.6553    77.139084 
   27100    311.77702   -111.12856    0.2821024   -110.84646    2798.4988    4.2540282    4.2540282    4.2540282    2798.4988    8532.4238     -1009.74    872.81272    -3810.716    433.63847   -1430.1603    76.984111 
   27200    261.48793   -111.08362   0.23659978   -110.84702    3843.7032    4.2539968    4.2539968    4.2539968    3843.7032    14972.684   -11408.815    7967.2408   -3114.7875   -991.39577   -1219.2874    76.982407 
   27300    219.05931   -111.04578   0.19820947   -110.84757     475.6039    4.2568428    4.2568428    4.2568428     475.6039    13138.252   -7173.3077   -4538.1328    583.62994   -1896.5111    1153.2219    77.137015 
   27400    247.77888   -111.07149   0.22419554    -110.8473    1485.5321    4.2535731    4.2535731    4.2535731    1485.5321    3045.7463    -4750.357    6161.2069   -2821.7286    3286.2415   -122.41305    76.959407 
   27500    274.64793   -111.09556   0.24850722   -110.84706    1117.7978    4.2547969    4.2547969    4.2547969    1117.7978    6470.3034   -12179.593    9062.6827   -5092.1578   -584.78723    765.54755    77.025848 
   27600    315.86633   -111.13259    0.2858025   -110.84679   -5505.2506    4.2561261    4.2561261    4.2561261   -5505.2506   -2487.7521    -11502.96   -2525.0396    852.19087   -2353.7906   -2011.3478    77.098063 
   27700    265.64406   -111.08773   0.24036033   -110.84737   -5432.7305    4.2542275    4.2542275    4.2542275   -5432.7305   -10744.793   -3129.3361   -2424.0623    942.13908    803.89117   -79.440242    76.994931 
   27800    325.75868   -111.14188    0.2947533   -110.84712   -7776.9087    4.2562002    4.2562002    4.2562002   -7776.9087   -5132.3321   -12844.629   -5353.7654   -995.85969    2982.6823     1589.267    77.102086 
   27900     283.5003   -111.10397   0.25651703   -110.84745    2193.1421    4.2541656    4.2541656    4.2541656    2193.1421     11758.11    -7446.104    2267.4205   -3007.9055   -1996.8473   -743.57281    76.991572 
   28000    349.95617   -111.16381    0.3166477   -110.84716   -1624.0876    4.2542089    4.2542089    4.2542089   -1624.0876    87.872835   -2498.7048    -2461.431   -1575.4714   -3931.5631    923.96482    76.993919 
   28100    235.74156   -111.06158   0.21330392   -110.84828    3373.6499    4.2559554    4.2559554    4.2559554    3373.6499    12356.634   -3654.5129    1418.8292   -1238.0959    365.11563   -2809.0945    77.088787 
   28200    351.14108   -111.16491   0.31771983   -110.84719    572.30341    4.2546514    4.2546514    4.2546514    572.30341    4973.1887   -4902.9799    1646.7014   -5263.3097    2020.1953   -934.62828    77.017951 
   28300    321.41667   -111.13759   0.29082456   -110.84676    5569.6162    4.2547061    4.2547061    4.2547061    5569.6162    4302.5246    1735.5968    10670.727    1187.9491   -1734.8594    398.37068    77.020921 
   28400    400.73359   -111.20909   0.36259217    -110.8465   -1988.9835    4.2546086    4.2546086    4.2546086   -1988.9835    423.02392    -1012.128   -5377.8463    1081.0516   -1267.4651   -576.68028    77.015627 
   28500    307.21649   -111.12546   0.27797593   -110.84748    1828.9613    4.2544844    4.2544844    4.2544844    1828.9613   -3750.5731     6437.112    2800.3451   -1499.1537    6103.8994   -111.59556     77.00888 
   28600    364.93877   -111.17764   0.33020427   -110.84744   -1254.1101    4.2562993    4.2562993    4.2562993   -1254.1101    -1189.109   -5564.5594     2991.338   -78.444071    112.46821   -2867.0608    77.107475 
   28700    357.92324   -111.17096   0.32385647    -110.8471    1021.1147    4.2549958    4.2549958    4.2549958    1021.1147    7976.7232   -5249.6432    336.26421    1398.6091    -2593.867      2448.99    77.036652 
   28800    286.35386    -111.1067   0.25909899    -110.8476    3372.7081    4.2542571    4.2542571    4.2542571    3372.7081    1221.1029    9026.6908   -129.66932    2189.0257   -3209.4925    2598.7497    76.996538 
   28900    335.43666   -111.15062   0.30351014   -110.84711    -1143.905    4.2556803    4.2556803    4.2556803    -1143.905    5731.7335   -5532.2209   -3631.2276   -4259.8374     1103.538   -1370.9691    77.073837 
   29000     322.9167   -111.13917   0.29218181   -110.84699   -202.08826    4.2551147    4.2551147    4.2551147   -202.08826    7467.5916   -8694.0744    620.21807   -4531.7878   -228.16123   -1198.3349    77.043109 
   29100    373.41085    -111.1846   0.33786999   -110.84673   -5618.2886    4.2555974    4.2555974    4.2555974   -5618.2886   -8693.5245   -2458.9875   -5702.3538    936.47821   -6326.8564   -1722.8826    77.069332 
   29200    298.37946   -111.11707      0.26998   -110.84709   -539.07554    4.2550673    4.2550673    4.2550673   -539.07554   -1595.9452   -809.73974    788.45833    1060.0943    1981.3619    2111.5813    77.040537 
   29300    366.42061   -111.17786   0.33154507   -110.84632   -3798.8684    4.2551256    4.2551256    4.2551256   -3798.8684    85.651076   -6121.6354   -5360.6209   -2621.6892    4426.5839   -930.32358    77.043703 
   29400    298.18424   -111.11645   0.26980336   -110.84664    1149.7838    4.2553161    4.2553161    4.2553161    1149.7838    2694.6534   -9378.4698    10133.168    994.36121   -2237.4476   -1154.0988     77.05405 
   29500    294.10448   -111.11325   0.26611192   -110.84714   -1376.5573    4.2559914    4.2559914    4.2559914   -1376.5573    5242.5867   -5651.6317   -3720.6269    3769.0549   -3969.4248    748.48217    77.090742 
   29600    224.84097   -111.05125   0.20344083   -110.84781    5914.0956    4.2532778    4.2532778    4.2532778    5914.0956    9427.7777   -241.27434    8555.7833    1558.7483    1407.8946    -60.06044    76.943377 
   29700    316.32964   -111.13349   0.28622171   -110.84727    -54.67796    4.2551797    4.2551797    4.2551797    -54.67796    5689.5926   -7407.7779    1554.1515   -434.21389    947.81851    273.46765     77.04664 
   29800     251.3779   -111.07484   0.22745201   -110.84739   -757.68798    4.2563323    4.2563323    4.2563323   -757.68798     6092.594   -12053.786     3688.128    1855.1366   -4115.1843   -2427.5011    77.109269 
   29900    292.54956   -111.11175   0.26470499   -110.84705   -4041.5264    4.2537386    4.2537386    4.2537386   -4041.5264   -7663.1528   -2345.5398   -2115.8866    703.70831   -3189.0741    30.564487    76.968387 
   30000    279.41011   -111.09955   0.25281614   -110.84673   -2340.2099    4.2559147    4.2559147    4.2559147   -2340.2099   -5151.0333   -772.99336   -1096.6031   -2757.2457    4459.7639    -2412.477    77.086573 
   30100    318.41061   -111.13443   0.28810461   -110.84632   -4185.9239    4.2551311    4.2551311    4.2551311   -4185.9239    3496.5127   -15753.562   -300.72268    583.26556    1560.3229   -2937.9017    77.044001 
   30200    256.43099   -111.07906   0.23202415   -110.84703   -2687.6055    4.2543614    4.2543614    4.2543614   -2687.6055   -1660.3158   -5307.4437    -1095.057    1891.1865   -8428.7142    922.84205    77.002204 
   30300    206.35493   -111.03432   0.18671428   -110.84761    2137.3936    4.2563568    4.2563568    4.2563568    2137.3936    3843.6628   -1111.6922    3680.2104    1190.2078   -1125.9264    504.27828      77.1106 
   30400     309.6676   -111.12655   0.28019375   -110.84636    1539.0509     4.253982     4.253982     4.253982    1539.0509     13764.55   -8291.4162   -855.98092   -970.98127    2908.2775    100.29827    76.981601 
   30500    209.50816   -111.03684   0.18956738   -110.84728    6026.2189    4.2539707    4.2539707    4.2539707    6026.2189    7058.2253   -5057.6274    16078.059    977.02068   -2186.7105   -1063.8926    76.980988 
   30600    285.39751   -111.10572   0.25823367   -110.84748    -4104.821    4.2572264    4.2572264    4.2572264    -4104.821    1804.6542   -9777.0425   -4342.0749     4349.938   -5837.7046    691.08214    77.157869 
   30700     239.6675   -111.06423   0.21685619   -110.84737    3418.0999    4.2539716    4.2539716    4.2539716    3418.0999     1198.107    1557.1174    7499.0753   -13.356098    4457.7588    1327.7732    76.981037 
   30800    371.27265   -111.18223    0.3359353   -110.84629   -3589.4815    4.2544054    4.2544054    4.2544054   -3589.4815   -2757.1926   -5938.4985   -2072.7534   -556.83234    6114.2682   -2747.1825     77.00459 
   30900    244.75606   -111.06883   0.22146043   -110.84737   -1596.7874    4.2567898    4.2567898    4.2567898   -1596.7874    2776.3802   -14448.359    6881.6163     1509.246   -3692.5395   -2429.4494    77.134133 
   31000    283.56536   -111.10383   0.25657589   -110.84725   -4094.6741    4.2543698    4.2543698    4.2543698   -4094.6741   -4193.0342   -4841.3494   -3249.6386    535.83905    -5742.081   -504.84242    77.002657 
   31100     287.3854   -111.10732   0.26003235   -110.84729   -52.052575    4.2556519    4.2556519    4.2556519   -52.052575     1660.641   -3684.5231    1867.7244    125.30284    717.15422   -344.06051    77.072296 
   31200    305.06189   -111.12302   0.27602641   -110.84699   -237.19735    4.2555312    4.2555312    4.2555312   -237.19735    7797.5834   -10219.778    1710.6021   -15.090744     1250.132   -2358.0292    77.065738 
   31300     268.3375   -111.09038   0.24279741   -110.84759   -1729.7507    4.2540981    4.2540981    4.2540981   -1729.7507    2364.8167   -7963.6969    409.62797    4943.9424   -8946.4852   -883.58878    76.987908 
   31400     299.7397   -111.11864   0.27121078   -110.84743   -2657.1698    4.2565893    4.2565893    4.2565893   -2657.1698   -4786.5175   -793.33258   -2391.6593    622.53397   -3098.8291   -370.04533    77.123238 
   31500    392.78212   -111.20163   0.35539752   -110.84623    -1306.949    4.2555118    4.2555118    4.2555118    -1306.949   -123.04354    991.82257    -4789.626    -1333.249    6947.2419   -3039.9525    77.064684 
   31600    339.41886   -111.15393   0.30711332   -110.84682    2692.8566    4.2533986    4.2533986    4.2533986    2692.8566    193.41358   -2978.1445    10863.301    3699.5653   -489.62935    -751.3815    76.949937 
   31700    334.83148   -111.15044   0.30296256   -110.84747   -565.95529    4.2553755    4.2553755    4.2553755   -565.95529   -6039.0615    6185.2912   -1844.0956    2155.0891   -6883.3613    1043.0704    77.057278 
   31800    307.01591   -111.12485   0.27779444   -110.84706    3939.2826    4.2570667    4.2570667    4.2570667    3939.2826    4925.2478    1354.8552    5537.7448    370.31759   -832.71344   -299.60854    77.149188 
   31900    405.81864   -111.21314   0.36719324   -110.84594     3245.547    4.2529297    4.2529297    4.2529297     3245.547    4785.1337     4440.808    510.69928   -2648.1753    3841.7646   -2373.8157     76.92449 
   32000     247.7339   -111.07186   0.22415484   -110.84771    6785.2326    4.2546095    4.2546095    4.2546095    6785.2326    13630.767    2659.4945    4065.4365   -57.128612   -5177.8474   -2434.4707    77.015671 
   32100    328.81318   -111.14534   0.29751708   -110.84783   -3623.6012     4.256074     4.256074     4.256074   -3623.6012   -442.09124   -1048.0104   -9380.7019    4091.8392    -7987.188    2446.0707    77.095229 
   32200    330.70296   -111.14662   0.29922699   -110.84739   -516.58161    4.2534167    4.2534167    4.2534167   -516.58161   -4265.0784    3740.8679   -1025.5343    157.80004    1436.1859   -1881.3156    76.950917 
   32300    387.38849   -111.19762   0.35051724    -110.8471   -6942.1028    4.2567788    4.2567788    4.2567788   -6942.1028   -1919.0879   -8820.2588   -10086.962   -39.687577    6409.7952   -5013.1556    77.133538 
   32400    284.63895   -111.10545    0.2575473    -110.8479   -4678.2274    4.2547159    4.2547159    4.2547159   -4678.2274   -9590.8902   -3766.1934   -677.59866    3515.1772   -8361.5095   -458.37529    77.021453 
   32500     283.2355   -111.10409   0.25627743   -110.84781   -2050.1328    4.2527941    4.2527941    4.2527941   -2050.1328   -11735.286    4626.1545    958.73272    623.51502   -8102.3464   -206.40927     76.91713 
   32600    360.83677   -111.17334   0.32649269   -110.84685   -4550.4845    4.2583159    4.2583159    4.2583159   -4550.4845    224.14558   -7565.7772    -6309.822    1617.0364    3916.4685    268.38077    77.217125 
   32700    256.68772    -111.0797   0.23225644   -110.84744    4103.9156    4.2536222    4.2536222    4.2536222    4103.9156    9713.5635   -3856.3633    6454.5465   -1927.4875   -1343.4145   -3626.0691    76.962073 
   32800    255.89396   -111.07985   0.23153823   -110.84831    2494.9451     4.252699     4.252699     4.252699    2494.9451    5602.7438    6199.9703   -4317.8787    651.63232   -8493.4292    1085.8211    76.911971 
   32900    252.95338   -111.07673   0.22887753   -110.84785    3992.5695    4.2573904    4.2573904    4.2573904    3992.5695    9058.8859    3524.8217   -605.99904    362.77182   -3761.7318    593.50882    77.166788 
   33000    383.55662   -111.19305   0.34705009     -110.846   -1464.5138    4.2542952    4.2542952    4.2542952   -1464.5138    1390.7069   -5066.0156   -718.23253   -2316.9953    5915.1594   -5082.5518    76.998607 
   33100    268.49796   -111.09022    0.2429426   -110.84728   -1681.2454    4.2555473    4.2555473    4.2555473   -1681.2454    1702.4655   -3955.5693   -2790.6325    3590.4629     -1415.73   -98.354689    77.066612 
   33200    259.91425   -111.08253   0.23517587   -110.84736   -1780.7976    4.2562389    4.2562389    4.2562389   -1780.7976   -4338.2668    5507.9009   -6512.0269    1208.8529   -9883.4078   -628.21996    77.104193 
   33300    316.34089     -111.133   0.28623188   -110.84677    890.47086    4.2536691    4.2536691    4.2536691    890.47086    1259.6111   -1268.4927    2680.2941    2207.0553    773.18725    1550.1462    76.964615 
   33400    308.92884   -111.12611   0.27952531   -110.84659   -2409.7707    4.2564149    4.2564149    4.2564149   -2409.7707    10420.529   -10844.192   -6805.6487   -469.28721    2980.9078   -2653.3736    77.113756 
   33500    200.02459   -111.02888   0.18098646    -110.8479    -1866.159     4.257168     4.257168     4.257168    -1866.159    6544.2614   -9403.2183   -2739.5202   -677.15789   -7916.4658   -2869.6863    77.154697 
   33600    213.68905   -111.04081   0.19335035   -110.84746    2680.1467    4.2542027    4.2542027    4.2542027    2680.1467    5237.4516    5921.9823   -3118.9938    1388.2541   -9617.1885    3273.0304    76.993582 
   33700    341.73418   -111.15459   0.30920827   -110.84538     177.4557    4.2555144    4.2555144    4.2555144     177.4557    8250.0717   -5814.2143   -1903.4903   -3728.5933    2500.0234   -4532.8929    77.064824 
[...]
   91300    263.78314   -111.08463   0.23867653   -110.84595    9289.6934     4.254194     4.254194     4.254194    9289.6934   -1654.0169    6997.6979    22525.399    174.46124    2690.5135   -679.54408    76.993113 
   91400    254.07573   -111.07715   0.22989306   -110.84726   -3907.0578     4.255664     4.255664     4.255664   -3907.0578   -7429.5454    4889.2372   -9180.8654   -729.31466   -8540.9993    7475.2278    77.072951 
   91500    193.08917   -111.02288   0.17471114   -110.84817   -5686.4809    4.2578225    4.2578225    4.2578225   -5686.4809   -10795.034    5106.9946   -11371.403     1184.868   -5703.3785     1819.282    77.190286 
   91600    335.52689   -111.14987   0.30359178   -110.84627   -2576.7182    4.2566813    4.2566813    4.2566813   -2576.7182   -7622.5328   -1066.6357    959.01387    7223.9412     361.5587   -611.04245    77.128239 
   91700    308.49327   -111.12555    0.2791312   -110.84642    1943.8789     4.253891     4.253891     4.253891    1943.8789   -1447.1656    1218.2342    6060.5681    4281.4363   -5252.8781    1548.1501    76.976661 
   91800    230.60228   -111.05673   0.20865379   -110.84808   -4575.2139    4.2566111    4.2566111    4.2566111   -4575.2139   -1708.6526    7181.0772   -19198.066   -1632.0095   -8491.6897    289.76431    77.124424 
   91900    285.17373    -111.1058   0.25803119   -110.84777   -4817.5343    4.2575949    4.2575949    4.2575949   -4817.5343    -1698.032   -10341.187   -2413.3836    5378.7775   -1308.8456    2752.9152    77.177911 
   92000    325.51441   -111.14134   0.29453227   -110.84681    6429.5835    4.2549097    4.2549097    4.2549097    6429.5835    2718.5835    4127.9634    12442.204    2371.5129     5056.605    -3246.581    77.031975 
   92100    291.10987   -111.11039   0.26340233   -110.84699    3473.4255    4.2555567    4.2555567    4.2555567    3473.4255    -3353.206    6806.0375    6967.4452   -2329.3567   -4992.5765     3480.966     77.06712 
   92200    223.23714   -111.04958   0.20198965   -110.84759    699.48427    4.2550864    4.2550864    4.2550864    699.48427   -4316.4817    3880.4348    2534.4997   -1712.0621   -6527.1651    7273.7237    77.041576 
   92300     365.5274   -111.17749   0.33073688   -110.84675   -3761.7682    4.2571698    4.2571698    4.2571698   -3761.7682   -7705.2916    1493.1465   -5073.1595    853.87278    1088.0648    878.84764    77.154794 
   92400    376.23759   -111.18707   0.34042768   -110.84664   -166.71474    4.2573416    4.2573416    4.2573416   -166.71474   -8880.6232   -474.65916    8855.1381    5034.9454    -966.8679   -980.11082    77.164134 
   92500    331.27033   -111.14675   0.29974036   -110.84701   -1522.8628    4.2533874    4.2533874    4.2533874   -1522.8628   -4197.0667    6815.4093    -7186.931   -392.57951   -7143.1985    896.18633    76.949326 
   92600    290.49972   -111.11029   0.26285025   -110.84744   -3488.1945    4.2570801    4.2570801    4.2570801   -3488.1945   -2565.9256   -3512.1592   -4386.4988    3552.8602    -4855.869    3020.3281    77.149918 
   92700    384.67177   -111.19485    0.3480591   -110.84679   -2342.6249    4.2578287    4.2578287    4.2578287   -2342.6249   -5022.1819   -8507.0044    6501.3115    5352.7951     3003.897   -68.265271    77.190623 
   92800    346.38631   -111.16088   0.31341761   -110.84746    4222.0785    4.2536673    4.2536673    4.2536673    4222.0785    5369.0473   -4978.3941    12275.582   -276.33096     525.2513   -1623.3451     76.96452 
   92900    256.58434   -111.08076    0.2321629    -110.8486    3943.9842    4.2567228    4.2567228    4.2567228    3943.9842    1421.3438    8440.5824    1970.0262   -1321.4079   -7169.9343    5547.8446    77.130491 
   93000    302.48207   -111.12128   0.27369213   -110.84759    1950.3317    4.2566459    4.2566459    4.2566459    1950.3317   -3722.7895   -1351.9791    10925.764    401.07868    835.00514    2466.9257    77.126313 
   93100    372.22125   -111.18285   0.33679361   -110.84606    1301.1895    4.2557092    4.2557092    4.2557092    1301.1895   -1515.9351     3685.659    1733.8445     2001.207    1253.5149    1069.9982    77.075408 
   93200    332.73603   -111.14841   0.30106655   -110.84734   -1621.5081     4.257341     4.257341     4.257341   -1621.5081   -11028.808    9627.2109   -3462.9271   -1292.7163   -5830.6061    240.08153    77.164102 
   93300    246.86096   -111.07136   0.22336499   -110.84799     2345.991    4.2534451    4.2534451    4.2534451     2345.991   -7492.1332    10906.655    3623.4513   -871.42163   -8043.3467    1296.9381    76.952459 
   93400    362.54395   -111.17508   0.32803738   -110.84704   -5898.7516    4.2573225    4.2573225    4.2573225   -5898.7516   -8867.4329   -6984.3909   -1844.4311    6279.8258   -566.45761    3385.0739    77.163098 
   93500    367.38025   -111.17892   0.33241337   -110.84651   -6272.4979    4.2589486    4.2589486    4.2589486   -6272.4979   -7850.3628   -10875.078   -92.052512    3009.0664    2896.6112    -3956.254     77.25155 
   93600    283.91643   -111.10438   0.25689355   -110.84748   -2130.4017    4.2541576    4.2541576    4.2541576   -2130.4017   -278.13677    1496.4817     -7609.55    -129.3376   -8136.6817    6502.0763    76.991137 
   93700    234.86433   -111.06047   0.21251018   -110.84796    2545.8578    4.2554215    4.2554215    4.2554215    2545.8578    8120.0238   -326.93986   -155.51066   -1186.3716   -2224.6317    5421.7808    77.059776 
   93800    334.48661   -111.14948   0.30265052   -110.84683    -929.0968     4.258234     4.258234     4.258234    -929.0968     1012.049    1678.3084   -5477.6478   -128.58142    3195.5536    16.064851    77.212669 
   93900    274.36759   -111.09551   0.24825356   -110.84726    2496.0869    4.2552001    4.2552001    4.2552001    2496.0869    5006.8798      8681.59   -6200.2092    284.38309   -2264.8756    959.89982    77.047749 
   94000    215.47696   -111.04335   0.19496808   -110.84838    4781.6664    4.2559415    4.2559415    4.2559415    4781.6664    2580.2588    22132.618   -10367.877   -2626.9689   -7336.5154    1352.1755    77.088032 
   94100     270.5417   -111.09222   0.24479182   -110.84743    3531.6708    4.2567864    4.2567864    4.2567864    3531.6708   -4286.0292     2716.328    12164.713    3317.3636    -2754.247    3709.0829    77.133949 
   94200    386.62669   -111.19533   0.34982795    -110.8455   -3174.9429    4.2558005    4.2558005    4.2558005   -3174.9429   -4348.0909   -457.83785   -4718.8998      3910.35     1942.599   -3362.3988    77.080367 
   94300     313.8105   -111.13081   0.28394233   -110.84687   -6457.4712    4.2593608    4.2593608    4.2593608   -6457.4712   -10935.438   -2010.3159   -6426.6598    2253.5239   -4816.8311    167.49686     77.27398 
   94400    288.68826    -111.1087   0.26121121   -110.84749   -2483.1077    4.2551274    4.2551274    4.2551274   -2483.1077   -3211.2253   -203.39977    -4034.698    757.38545   -6324.0167    6303.3004    77.043802 
   94500    290.72091   -111.11032   0.26305039   -110.84727    1126.1418    4.2557504    4.2557504    4.2557504    1126.1418    1784.1364    3967.3619   -2373.0729     1205.995    2573.7493    3676.3862    77.077644 
   94600      290.267   -111.10909   0.26263968   -110.84645   -3024.4086    4.2592661    4.2592661    4.2592661   -3024.4086   -2430.8928    6288.6413   -12930.974    1090.4364   -32.338537    110.73005    77.268826 
   94700    187.83268    -111.0172   0.16995496   -110.84725    4.7774815    4.2569177    4.2569177    4.2569177    4.7774815    1216.9639    19386.552   -20589.183   -5090.4789   -7095.1553    564.46495    77.141088 
   94800    204.92273   -111.03316   0.18541839   -110.84774    4072.9549    4.2551867    4.2551867    4.2551867    4072.9549    8340.7353    12366.954   -8488.8249   -2226.9403   -4227.2916    3725.2063    77.047022 
   94900    296.13582   -111.11447   0.26794991   -110.84652    1394.3118    4.2573159    4.2573159    4.2573159    1394.3118    2265.4347    3524.3037    -1606.803    521.62362   -747.33161   -785.65651    77.162738 
   95000    289.00448   -111.10807   0.26149733   -110.84658   -4011.0144    4.2575375    4.2575375    4.2575375   -4011.0144   -2836.5498    38.673057   -9235.1663    2799.0707   -4839.0415   -2488.2479     77.17479 
   95100    307.40947   -111.12484   0.27815055   -110.84669   -7012.7559    4.2569755    4.2569755    4.2569755   -7012.7559    -3230.092   -2261.5452    -15546.63     1044.417   -8026.1969    5634.0164    77.144229 
   95200      300.166   -111.11814    0.2715965   -110.84654    2874.1667    4.2561768    4.2561768    4.2561768    2874.1667   -1779.7921    -702.1793    11104.471    1694.4408    379.80964    3881.7062    77.100819 
   95300    387.91761   -111.19696   0.35099601   -110.84597   -1342.8523    4.2559641    4.2559641    4.2559641   -1342.8523   -5115.8813      3541.52   -2454.1955    7160.2237    1493.8793    2007.9416     77.08926 
   95400    228.96184   -111.05438   0.20716948   -110.84721    194.55562    4.2579206    4.2579206    4.2579206    194.55562   -9047.7523    14769.508   -5138.0885   -986.13414   -4168.4482    743.93389    77.195621 
   95500     309.1218   -111.12656    0.2796999   -110.84686   -2268.9443     4.257236     4.257236     4.257236   -2268.9443   -2676.4858    5595.2766   -9725.6236   -999.79218   -1506.4042    4982.8973    77.158394 
   95600    282.80863   -111.10213   0.25589119   -110.84624    8497.9698    4.2538479    4.2538479    4.2538479    8497.9698    3931.8638    16480.633    5081.4124   -1421.9016    2154.2984    2374.2463     76.97432 
   95700    346.58322   -111.15999   0.31359578    -110.8464   -2815.3188    4.2567728    4.2567728    4.2567728   -2815.3188    -529.4296   -4403.0321   -3513.4947    580.40448   -1975.7565   -4393.1955     77.13321 
   95800    241.16782   -111.06531   0.21821371    -110.8471   -4930.2468    4.2586033    4.2586033    4.2586033   -4930.2468   -3462.4951   -642.13299   -10686.112    1680.2256   -9431.2733    532.91502    77.232761 
   95900    343.04526    -111.1565   0.31039456    -110.8461   -3767.6348    4.2554781    4.2554781    4.2554781   -3767.6348    1204.5426   -5279.4428   -7228.0041   -2593.0371   -4738.2624    6237.6312     77.06285 
   96000    314.00423   -111.13011   0.28411762   -110.84599    2795.9917    4.2558614    4.2558614    4.2558614    2795.9917   -1648.9816     3498.803    6538.1537    7626.7742    957.15144    3556.6614    77.083679 
   96100    272.20522   -111.09343     0.246297   -110.84714   -1407.2649    4.2564027    4.2564027    4.2564027   -1407.2649   -7958.2612    7056.8376   -3320.3712    4830.1026   -7348.1698    46.472495    77.113093 
   96200    252.51683   -111.07607   0.22848253   -110.84759   -1955.0642    4.2571105    4.2571105    4.2571105   -1955.0642   -10148.614     12508.36   -8224.9385    559.41984   -3876.8015    5840.6202    77.151572 
   96300    309.21948   -111.12627   0.27978828   -110.84648    2985.2773    4.2568175    4.2568175    4.2568175    2985.2773   -5695.7282    14083.945    567.61478    2216.3744    2267.8902    7262.2684     77.13564 
   96400     354.2591   -111.16673   0.32054108   -110.84619   -1101.0503    4.2564348    4.2564348    4.2564348   -1101.0503   -11147.611    7606.1623    238.29754   -1379.5103   -3252.6455   -1088.6127    77.114836 
   96500    308.53057    -111.1257   0.27916495   -110.84654   -2289.2775    4.2554344    4.2554344    4.2554344   -2289.2775   -7363.6031    3192.1636   -2696.3929    1606.5945   -5307.1515   -2048.6453    77.060478 
   96600    404.54378   -111.21206   0.36603971   -110.84602   -6705.4584    4.2591517    4.2591517    4.2591517   -6705.4584    -7347.358   -7023.4724   -5745.5447   -3810.0724   -578.74965    1360.6008    77.262601 
   96700    346.54612   -111.15957   0.31356221     -110.846    1929.1515     4.256395     4.256395     4.256395    1929.1515   -2062.9699    8518.0375   -667.61306    2118.2437    2492.8826    3410.9117    77.112675 
   96800    319.00089   -111.13548   0.28863871   -110.84685    1385.2361    4.2548952    4.2548952    4.2548952    1385.2361   -5632.9464    8807.5837    981.07093    4629.7758   -5235.7522   -994.40073    77.031189 
   96900     250.6949   -111.07445   0.22683401   -110.84762    3934.4008    4.2584317    4.2584317    4.2584317    3934.4008   -1921.2651    13468.365    256.10293    1675.5974   -4851.7229    3139.9894    77.223426 
   97000     296.2779   -111.11452   0.26807847   -110.84644    4373.6654    4.2571116    4.2571116    4.2571116    4373.6654   -1109.3598    13937.376    292.98049     2430.876    2139.9164    7753.7058     77.15163 
   97100     276.1873   -111.09674   0.24990008   -110.84684    2272.0027    4.2563805    4.2563805    4.2563805    2272.0027   -2471.3135    2923.8719    6363.4498    2604.9389   -2464.3237    5369.5807     77.11189 
   97200    262.71101   -111.08482   0.23770644   -110.84711    60.931574    4.2577148    4.2577148    4.2577148    60.931574   -3433.7334    258.68125    3357.8469    3049.4779   -5536.1755    735.69135    77.184429 
   97300    340.49069   -111.15463   0.30808313   -110.84654   -2437.4576    4.2558711    4.2558711    4.2558711   -2437.4576   -3743.1854   -6284.1628    2714.9753   -2057.0929   -3745.2951     1931.897    77.084207 
   97400    329.45201   -111.14482   0.29809511   -110.84672    -3811.458    4.2575107    4.2575107    4.2575107    -3811.458   -3936.0029   -385.91527   -7112.4558   -1239.5256    1460.9575    3171.5834    77.173332 
   97500    311.55787   -111.12856   0.28190411   -110.84665   -7125.3057    4.2589651    4.2589651    4.2589651   -7125.3057   -14714.633    4007.7414   -10669.026    1819.8608    -4173.291   -2496.2776    77.252447 
   97600     292.8343   -111.11182   0.26496263   -110.84686    53.405633    4.2546532    4.2546532    4.2546532    53.405633   -7770.3242    10804.264   -2873.7232    899.37685   -2109.1525    880.58342    77.018045 
   97700    314.67041    -111.1313    0.2847204   -110.84658    480.03308    4.2572069    4.2572069    4.2572069    480.03308   -6056.2809    12648.461   -5152.0807    113.74209    5216.3485    6425.6985    77.156811 
   97800    260.86811   -111.08341   0.23603895   -110.84737    -1333.755    4.2584332    4.2584332    4.2584332    -1333.755   -8021.8469    2125.7112    1894.8706     3188.647   -1390.4974     4548.998    77.223506 
   97900    248.38241   -111.07287   0.22474163   -110.84813    2369.0497    4.2535251    4.2535251    4.2535251    2369.0497   -1993.4787    3333.1567     5767.471    3262.5757   -7716.0016    60.526097    76.956802 
   98000    273.14604   -111.09472   0.24714828   -110.84757    3919.3125    4.2570987    4.2570987    4.2570987    3919.3125    2131.6544   -4743.4296    14369.713     418.3523   -4675.7119    614.45079    77.150927 
   98100    330.65844   -111.14605   0.29918671   -110.84687   -2059.4914    4.2575399    4.2575399    4.2575399   -2059.4914      2864.45   -5579.5458   -3463.3785   -1802.1308    1567.7853    5158.7422    77.174918 
   98200    283.37067    -111.1034   0.25639974     -110.847   -3008.3559    4.2548574    4.2548574    4.2548574   -3008.3559     2569.871    -3799.178   -7795.7607    2782.2084   -2957.5076   -518.81056    77.029134 
   98300    305.71467   -111.12382   0.27661706   -110.84721   -3954.4231    4.2585152    4.2585152    4.2585152   -3954.4231   -8104.3925    4333.2351    -8092.112    2489.0424   -6674.4019   -2654.4128     77.22797 
   98400    303.01293   -111.12144   0.27417247   -110.84727    3989.6574    4.2546083    4.2546083    4.2546083    3989.6574    3054.8299    6325.7905    2588.3519   -2632.3727    2377.7456    4117.2848     77.01561 
   98500    292.63235   -111.11204    0.2647799   -110.84726   -953.07265    4.2562472    4.2562472    4.2562472   -953.07265   -3230.2069    2205.4926   -1834.5036    743.72033    2670.3221    6443.1806    77.104641 
   98600      232.262   -111.05853   0.21015554   -110.84838   -963.91297    4.2591376    4.2591376    4.2591376   -963.91297   -11818.437    2448.1046     6478.594    2863.6501   -4425.8969    2572.7735    77.261835 
   98700    258.27128   -111.08102   0.23368928   -110.84733    6294.4993    4.2542925    4.2542925    4.2542925    6294.4993   -1757.1788    2463.1422    18177.534    3820.1271   -4941.8226    889.47982    76.998461 
   98800    363.99607   -111.17569    0.3293513   -110.84633   -1218.3791    4.2565167    4.2565167    4.2565167   -1218.3791   -3.0000674   -5367.3627    1715.2257   -767.41554     -2185.38    4042.6173    77.119293 
   98900     308.9977   -111.12657   0.27958761   -110.84698   -4561.1163    4.2588841    4.2588841    4.2588841   -4561.1163    620.53212   -8932.7892   -5371.0917    2133.7691   -158.55398    109.89494    77.248041 
   99000    327.48874   -111.14328   0.29631869   -110.84697     -5598.45    4.2565573    4.2565573    4.2565573     -5598.45   -5146.1304   -6872.9713   -4776.2483    5051.0993   -6993.2137   -2784.3639    77.121498 
   99100    293.68178   -111.11278   0.26572945   -110.84705    3454.3261    4.2553553    4.2553553    4.2553553    3454.3261    1149.2006    -1372.972     10586.75    -2356.074   -265.65753    1027.5369    77.056182 
   99200    348.15747    -111.1617    0.3150202   -110.84668   -2844.6496    4.2572945    4.2572945    4.2572945   -2844.6496   -1175.7234   -9111.2216    1752.9962   -387.09142    4973.4595    7230.0004    77.161572 
   99300    250.75963   -111.07444   0.22689258   -110.84755   -602.86594     4.257288     4.257288     4.257288   -602.86594   -4035.6543   -6546.6342    8773.6907    1970.9103   -2207.1863    3814.6859    77.161223 
   99400    276.71157   -111.09749   0.25037444   -110.84712     1140.004    4.2564008    4.2564008    4.2564008     1140.004   -10279.279    2243.3872    11455.904    1450.9829   -4190.9597    -729.2142    77.112988 
   99500    353.45841   -111.16593    0.3198166   -110.84612    78.955877    4.2560444    4.2560444    4.2560444    78.955877   -1878.7773    4683.9036   -2568.2587   -1720.3815    -3452.909    5202.0755    77.093621 
   99600    340.47354   -111.15453   0.30806761   -110.84646   -979.12326    4.2560697    4.2560697    4.2560697   -979.12326    643.34162   -4869.8905    1289.1791     246.1521    528.05232    5322.1105    77.094997 
   99700    324.60007   -111.14079   0.29370496   -110.84709   -2212.0044    4.2568224    4.2568224    4.2568224   -2212.0044   -4846.8243   -903.22578   -885.96312    5627.6185   -5452.0869   -2051.8918    77.135906 
   99800    299.33065   -111.11795   0.27084066   -110.84711    3159.2706    4.2564581    4.2564581    4.2564581    3159.2706   -560.95416    4203.6457    5835.1202    2182.9464   -4765.8034    -3147.208    77.116108 
   99900    355.71765   -111.16792   0.32186081   -110.84606      2819.46    4.2548765    4.2548765    4.2548765      2819.46    3266.8001   -8200.8726    13392.452    378.39964    3712.3664    1143.9164    77.030173 
  100000    283.18301   -111.10321   0.25622993   -110.84698    2727.9799    4.2555106    4.2555106    4.2555106    2727.9799    376.54236   -6449.7554    14257.153    2825.9411   -1705.7213    4652.0613    77.064618 
Loop time of 22.4037 on 1 procs for 100000 steps with 8 atoms

Pair  time (%) = 7.20771 (32.172)
Kspce time (%) = 5.37399 (23.987)
Neigh time (%) = 0 (0)
Comm  time (%) = 1.09318 (4.87948)
Outpt time (%) = 0.0251391 (0.112209)
Other time (%) = 8.70369 (38.8493)

Nlocal:    8 ave 8 max 8 min
Histogram: 1 0 0 0 0 0 0 0 0 0
Nghost:    2189 ave 2189 max 2189 min
Histogram: 1 0 0 0 0 0 0 0 0 0
Neighs:    2344 ave 2344 max 2344 min
Histogram: 1 0 0 0 0 0 0 0 0 0

Total # of neighbors = 2344
Ave neighs/atom = 293
Neighbor list builds = 0
Dangerous builds = 0
unfix 20
unfix 21
print "seeds:4595794"
seeds:4595794
