# ['Ni']

18 atoms
1 atom types

    0.0000     2.2485 xlo xhi
    0.0000     3.8945 ylo yhi
    0.0000    33.0401 zlo zhi

    0.0000     0.0000    -0.0004 xy xz yz

Atoms

1 1     0.0000     0.0000     0.0000
2 1     1.1242     0.6491     1.8356
3 1     0.0000     1.2982     3.6711
4 1     1.1242     1.9472     0.0000
5 1     0.0000     2.5963     1.8356
6 1     1.1242     3.2454     3.6711
7 1     0.0000     0.0000     5.5067
8 1     1.1242     0.6491     7.3422
9 1     0.0000     1.2982     9.1778
10 1     1.1242     1.9472     5.5067
11 1     0.0000     2.5963     7.3422
12 1     1.1242     3.2454     9.1778
13 1     0.0000     0.0000    11.0133
14 1     1.1242     0.6491    12.8489
15 1     0.0000     1.2982    14.6845
16 1     1.1242     1.9472    11.0133
17 1     0.0000     2.5963    12.8489
18 1     1.1242     3.2454    14.6845
