LAMMPS (10 Feb 2015)
Reading data file ...
  triclinic box = (0 0 0) to (4.2565 4.2565 4.2565) with tilt (0 0 0)
  1 by 1 by 1 MPI processor grid
  reading atoms ...
  8 atoms
4 atoms in group Mg
4 atoms in group O
Setting atom values ...
  4 settings made for charge
Setting atom values ...
  4 settings made for charge
PPPM initialization ...
  G vector (1/distance) = 0.352172
  grid = 8 8 8
  stencil order = 5
  estimated absolute RMS force accuracy = 3.68665e-05
  estimated relative force accuracy = 2.56024e-06
  using double precision FFTs
  3d grid and FFT values/proc = 3375 512
Neighbor list info ...
  1 neighbor list requests
  update every 1 steps, delay 0 steps, check yes
  master list distance cutoff = 11
Setting up minimization ...
Memory usage per processor = 4.06549 Mbytes
Step PotEng Lx Ly Lz Xy Xz Yz Press Pxx Pyy Pzz Pxy Pxz Pyz eatoms 
       0   -101.30442       4.2565       4.2565       4.2565            0            0            0    88329.967    88329.967    88329.967    88329.967 -1.1961844e-11 -2.4099438e-10 5.9240466e-12   -101.30442 
      10    -101.3918     4.299065     4.299065     4.299065            0            0            0    35693.934    35693.934    35693.934    35693.934 1.4632835e-11 -2.3788485e-11 -3.8066587e-11    -101.3918 
      20   -101.41159    4.3315082    4.3315082    4.3315082            0            0            0   -5.9294003   -5.9294003   -5.9294003   -5.9294003 1.7198652e-10 1.1926792e-10 -5.3176444e-11   -101.41159 
Loop time of 0.0120151 on 1 procs for 20 steps with 8 atoms

Minimization stats:
  Stopping criterion = linesearch alpha is zero
  Energy initial, next-to-last, final = 
        -101.304424021     -101.411593199     -101.411593199
  Force two-norm initial, final = 12.7549 0.00088671
  Force max component initial, final = 12.7549 0.000886651
  Final line search alpha, max atom move = 0.015625 1.38539e-05
  Iterations, force evaluations = 20 34

Pair  time (%) = 0.0032208 (26.8062)
Kspce time (%) = 0.002038 (16.962)
Neigh time (%) = 0 (0)
Comm  time (%) = 0.000380754 (3.16897)
Outpt time (%) = 1.28746e-05 (0.107153)
Other time (%) = 0.00636268 (52.9557)

Nlocal:    8 ave 8 max 8 min
Histogram: 1 0 0 0 0 0 0 0 0 0
Nghost:    2189 ave 2189 max 2189 min
Histogram: 1 0 0 0 0 0 0 0 0 0
Neighs:    2344 ave 2344 max 2344 min
Histogram: 1 0 0 0 0 0 0 0 0 0

Total # of neighbors = 2344
Ave neighs/atom = 293
Neighbor list builds = 0
Dangerous builds = 0
pypospack:output_section:begin
tot_energy = -101.411593198701
num_atoms = 8
xx = 4.33150823558717
yy = 4.33150823558717
zz = 4.33150823558717
xy = 0
xz = 0
yz = 0
tot_press = -5.92940031006952
pxx = -5.92940030994687
pyy = -5.92940031012476
pzz = -5.92940031013695
pxy = 1.71986520125442e-10
pxz = 1.19267916823708e-10
pyz = -5.31764436793611e-11
pypospack:output_section:done
pypospack:lammps_sim:done
PPPM initialization ...
  G vector (1/distance) = 0.351443
  grid = 8 8 8
  stencil order = 5
  estimated absolute RMS force accuracy = 3.81088e-05
  estimated relative force accuracy = 2.64651e-06
  using double precision FFTs
  3d grid and FFT values/proc = 3375 512
Setting up run ...
Memory usage per processor = 3.06549 Mbytes
Step Temp PotEng KinEng TotEng Press Lx Ly Lz Press Pxx Pyy Pzz Pxy Pxz Pyz Volume 
       0         1000    -101.4116   0.90482102   -100.50678    11884.562    4.3315082    4.3315082    4.3315082    11884.562    8379.6547    7343.7648    19930.268   -4977.3765   -10138.219    9747.4282      81.2676 
     100    240.45191   -100.59802   0.21756594   -100.38045    4904.8384    4.3542452    4.3542452    4.3542452    4904.8384    16373.565    21830.512   -23489.562     9093.537    2793.6665   -1889.2918    82.554098 
     200    524.21295   -100.60863   0.47431889   -100.13431   -16420.203     4.371672     4.371672     4.371672   -16420.203   -4991.4159   -2337.1542   -41932.039    1956.3773   -1842.0278    1290.2843    83.549278 
     300    1452.4025   -101.23438    1.3141643   -99.920212    1745.3875    4.3547826    4.3547826    4.3547826    1745.3875   -3245.4338   -3217.3233     11698.92   -5978.5751   -12389.651    14001.916     82.58467 
     400    427.51418   -100.14382   0.38682382   -99.756998    19375.725    4.3578493    4.3578493    4.3578493    19375.725    36439.406    41646.945   -19959.176    15326.189    6483.1396    -4327.987    82.759262 
     500    766.71162   -100.33359   0.69373678   -99.639852   -12013.127    4.3799511    4.3799511    4.3799511   -12013.127   -6686.4215    5401.6009   -34754.559    1861.1608   -4800.9249    2899.3814    84.024857 
     600     1744.174   -101.16097    1.5781653   -99.582807   -11371.052    4.3708316    4.3708316    4.3708316   -11371.052    -19770.88    -18797.15     4454.872    -6763.656   -11019.791    16625.086    83.501105 
     700    393.33315   -99.923148    0.3558961   -99.567252    27198.898    4.3591816    4.3591816    4.3591816    27198.898    38539.463    59130.302   -16073.071    17093.269    4142.6578   -3879.1705     82.83519 
     800      877.737   -100.36849   0.79419488   -99.574292   -14728.828    4.3754429    4.3754429    4.3754429   -14728.828   -9122.0711    -6632.472    -28431.94     2253.839   -3989.4802    3806.3447    83.765668 
     900      1704.61   -101.11497    1.5423669   -99.572605   -6368.5663    4.3736272    4.3736272    4.3736272   -6368.5663    -13514.46   -10583.349    4992.1106   -5419.7824   -12675.582    16934.868    83.661429 
    1000    355.31488   -99.897525   0.32149637   -99.576029    5223.4416    4.3646276    4.3646276    4.3646276    5223.4416    17277.167    37431.345   -39038.188    17424.533    6593.4738   -6461.4586    83.146045 
    1100    1035.3755    -100.5183   0.93682949    -99.58147   -4157.6541    4.3685062    4.3685062    4.3685062   -4157.6541    1781.9979   -8019.7831    -6235.177    2129.3108   -5918.5925    8661.9729    83.367899 
    1200    1652.5957    -101.0751    1.4953033   -99.579801   -12140.743    4.3729574    4.3729574    4.3729574   -12140.743   -21731.217   -10746.966   -3944.0458   -3899.0693   -9433.8727    12093.617    83.623002 
    1300    202.92284   -99.767725   0.18360885   -99.584116   -1389.8129     4.372411     4.372411     4.372411   -1389.8129    15201.223    23121.512   -42492.174    15559.455    5657.6094   -9016.0638    83.591656 
    1400    1272.2766   -100.73146    1.1511826   -99.580281    1863.2052    4.3657621    4.3657621    4.3657621    1863.2052    6412.2856   -12826.192    12003.522    474.03189   -8963.5255    6599.2231    83.210895 
    1500    1392.1169   -100.84201    1.2596166   -99.582396   -10553.883    4.3698575    4.3698575    4.3698575   -10553.883   -10484.287   -15852.679   -5324.6827   -606.92705   -6921.1787    7235.5819    83.445287 
    1600    335.48401   -99.885883   0.30355298    -99.58233   -4031.5348    4.3737225    4.3737225    4.3737225   -4031.5348     17306.68    9437.6466   -38838.931    13737.592    5376.1752    -5782.355    83.666897 
    1700    1217.7752   -100.68065    1.1018686   -99.578781    11339.123     4.367077     4.367077     4.367077    11339.123    19804.168   -8284.0197     22497.22    2339.3307   -6961.3823    876.35848    83.286105 
    1800    1514.6783   -100.94811    1.3705127   -99.577599   -16032.024    4.3712537    4.3712537    4.3712537   -16032.024   -13893.912   -21332.855   -12869.305   -2742.5245   -7911.6859    13007.337    83.525299 
    1900    192.27533   -99.758449   0.17397476   -99.584475    13448.854    4.3705169    4.3705169    4.3705169    13448.854    47456.508    9080.8357   -16190.781    10299.773    5623.7848   -8328.6446    83.483069 
    2000    1435.8412   -100.88101    1.2991793   -99.581829    3945.4568    4.3707651    4.3707651    4.3707651    3945.4568   -12989.965    12115.755    12710.581    5709.3926   -6532.3999    1409.2478    83.497295 
    2100    1234.0352   -100.69658    1.1165809   -99.580004   -911.54071    4.3689178    4.3689178    4.3689178   -911.54071     4868.867   -12004.137    4400.6482   -8582.7952   -7370.4562    12328.215    83.391466 
    2200    319.86807    -99.87359   0.28942335   -99.584167    3630.3347    4.3696473    4.3696473    4.3696473    3630.3347    18757.061    27471.885   -35337.942    9571.2734    5276.2269   -11602.131     83.43325 
    2300    1527.3379   -100.96333    1.3819675   -99.581359    4141.5748    4.3713336    4.3713336    4.3713336    4141.5748   -12685.255    17881.099    7228.8809    4599.8231   -3620.3803    9097.9562    83.529879 
    2400    1091.1473   -100.56876   0.98729297   -99.581465   -17163.391    4.3708453    4.3708453    4.3708453   -17163.391   -5795.7984   -11782.149   -33912.226   -6456.0163   -5598.2624    8601.9716    83.501891 
    2500    455.37494   -99.996598   0.41203281   -99.584565    6453.2358    4.3674513    4.3674513    4.3674513    6453.2358    11441.462    45707.635   -37789.389    10768.117    4607.6473   -5200.3466    83.307524 
    2600    1523.5703   -100.96305    1.3785584   -99.584495    418.01648    4.3706607    4.3706607    4.3706607    418.01648   -9826.2031   -407.36621    11487.619    2689.6112   -3426.3608    9874.7797    83.491313 
    2700    1003.6117   -100.48908   0.90808896   -99.580994   -16079.627     4.370523     4.370523     4.370523   -16079.627    -10404.22    1235.6608   -39070.322   -5379.9634   -8103.9264    9473.1285    83.483421 
    2800    496.87651   -100.03328   0.44958431     -99.5837    6877.0659    4.3692062    4.3692062    4.3692062    6877.0659    2530.4568    41522.047   -23421.307    8959.5683     10361.54   -4715.4706    83.407986 
    2900    1576.0441   -101.00623    1.4260378   -99.580197   -616.75732    4.3700906    4.3700906    4.3700906   -616.75732   -6585.7731   -13467.415    18202.916     6151.506   -2529.4719    12634.337    83.458642 
    3000    764.49406   -100.27183   0.69173029   -99.580098   -9549.8923    4.3695972    4.3695972    4.3695972   -9549.8923   -6096.7428    15416.293   -37969.227   -6436.1536   -6435.6963    5885.2978    83.430381 
    3100    668.37321   -100.18815   0.60475812   -99.583391    7420.5708    4.3691052    4.3691052    4.3691052    7420.5708     14944.14    14281.615   -6964.0426    9722.9694    8785.1705   -5398.2242    83.402201 
    3200    1608.3522   -101.03767    1.4552709   -99.582401    827.99566     4.370626     4.370626     4.370626    827.99566    4703.8595   -12969.405    10749.532    62.657106   -14948.568    10183.044     83.48932 
    3300    592.98116   -100.12138   0.53654181   -99.584837   -5270.2995    4.3696946    4.3696946    4.3696946   -5270.2995    17254.926    4715.9504   -37781.775    290.20875    2504.7986    1787.3354    83.435957 
    3400    854.44002   -100.35804   0.77311528   -99.584929    8484.9661    4.3691204    4.3691204    4.3691204    8484.9661    15299.955    12179.953   -2025.0091    13168.507    2678.2537    353.91255    83.403071 
    3500    1554.4002   -100.99001    1.4064539    -99.58356   -186.01511    4.3677527    4.3677527    4.3677527   -186.01511   -1004.3534   -8747.7712    9194.0792   -4616.1989   -11736.048    12262.246    83.324769 
    3600    493.13986   -100.02917   0.44620331   -99.582966   -7129.2769        4.372        4.372        4.372   -7129.2769    8024.2195    21475.434   -50887.485    3129.6298    4595.9712   -2424.2886    83.568086 
    3700      1080.15    -100.5604   0.97734245   -99.583061   -7104.6997    4.3716224    4.3716224    4.3716224   -7104.6997    3244.2781   -9049.7277   -15508.649    5757.8105    -963.9937    -614.5322    83.546437 
    3800    1394.1459   -100.84475    1.2614525   -99.583301   -2502.4281    4.3658052    4.3658052    4.3658052   -2502.4281   -1793.4463   -8404.2473    2690.4093   -3486.0034   -12228.192   -2028.3935    83.213363 
    3900    510.82239   -100.04823   0.46220283   -99.586029   -20223.419    4.3726533    4.3726533    4.3726533   -20223.419    1496.6044    4127.1151   -66293.976    12894.721    6747.8532   -3222.3059    83.605557 
    4000    1147.0006   -100.62471    1.0378302   -99.586882    242.78165    4.3685954    4.3685954    4.3685954    242.78165     4453.878   -12640.473    8914.9403    1191.6662   -3350.6559    4698.7709    83.373009 
    4100    1322.1141   -100.78019    1.1962766   -99.583916   -8632.2419     4.368712     4.368712     4.368712   -8632.2419   -2584.2139   -15867.514   -7444.9974    -2796.932   -9226.7587    7553.2605    83.379686 
    4200    427.04415   -99.971233   0.38639852   -99.584835   -7519.8621    4.3711976    4.3711976    4.3711976   -7519.8621    14865.744    11684.312   -49109.643    12098.796     11360.22   -1492.2494    83.522086 
    4300    1269.8556   -100.73077    1.1489921   -99.581774    15354.222    4.3677777    4.3677777    4.3677777    15354.222    19751.553   -8945.8893    35257.002    412.50413   -12594.645   -1359.3811    83.326199 
    4400    1248.6143   -100.71116    1.1297724   -99.581389   -15359.519    4.3749333    4.3749333    4.3749333   -15359.519   -6830.9166   -6210.6399   -33036.999   -1861.5247   -3236.7905    8503.3831    83.736407 
    4500     524.0279   -100.05574   0.47415145   -99.581585    11732.026    4.3676073    4.3676073    4.3676073    11732.026    39847.649    9680.2009   -14331.771    7641.7833    5722.2537   -3491.1993     83.31645 
    4600     1300.209   -100.75877    1.1764564    -99.58231    15500.911    4.3679102    4.3679102    4.3679102    15500.911   -1440.8167    10005.217    37938.333    2383.2509   -11025.522    2600.2105    83.333781 
    4700    1180.9838   -100.65204    1.0685789   -99.583459   -8913.6732    4.3721535    4.3721535    4.3721535   -8913.6732    2442.8673   -15421.969   -13761.918   -4003.2316     1549.302    8662.7254    83.576887 
    4800    432.87382   -99.977157   0.39167333   -99.585483    19485.926    4.3684293    4.3684293    4.3684293    19485.926    26714.372    31678.296    65.108167    12774.484      1049.56   -8460.5608    83.363496 
    4900    1478.9594   -100.92306    1.3381935    -99.58487   -7994.2847    4.3744682    4.3744682    4.3744682   -7994.2847   -26109.301   -11529.507    13655.954   -874.62825   -2345.6316    8357.6822      83.7097 
    5000    979.25585   -100.46672   0.88605128   -99.580664   -2599.6916    4.3672387    4.3672387    4.3672387   -2599.6916    15429.061    208.72847   -23436.864    1371.4383   -2355.1942    5933.2239    83.295355 
    5100    554.24435   -100.08623   0.50149194   -99.584733    2062.5786    4.3670034    4.3670034    4.3670034    2062.5786   -1590.7345    31360.768   -23582.298    7158.4041    2701.6685   -6066.5667    83.281893 
    5200    1564.3463   -100.99806    1.4154534   -99.582608   -12452.094    4.3756326    4.3756326    4.3756326   -12452.094   -28406.917    -18320.92    9371.5558    3722.8317   -6362.6218    15281.832    83.776567 
    5300    782.78329   -100.28983   0.70827877    -99.58155   -9021.4527    4.3680445    4.3680445    4.3680445   -9021.4527    2955.1595    13921.638   -43941.156   -407.72103   -3670.9276    3153.8086     83.34147 
    5400    660.68239   -100.18297   0.59779931   -99.585173    1491.6702    4.3690574    4.3690574    4.3690574    1491.6702   -8434.2281    24757.697   -11848.459     7529.283    368.48367   -3896.0495    83.399463 
    5500    1635.2551   -101.06133    1.4796132   -99.581721    -14352.99    4.3728953    4.3728953    4.3728953    -14352.99   -27482.139   -25779.216    10202.386    2799.7722   -4711.9103     16435.12    83.619435 
    5600     499.9389   -100.03441   0.45235523    -99.58205    2739.4037    4.3675494    4.3675494    4.3675494    2739.4037    20006.412    36644.614   -48432.814   -1115.4468   -2244.6992   -4326.2931    83.313133 
    5700    1140.4766   -100.61511    1.0319272    -99.58318    -5291.547    4.3696557    4.3696557    4.3696557    -5291.547   -20243.257   -8333.1563    12701.772    6016.2031    3222.1801    2458.6725    83.433731 
    5800    1341.8551    -100.8008    1.2141387   -99.586659    3578.5482    4.3702652    4.3702652    4.3702652    3578.5482    691.64045    15890.471   -5846.4671   -2320.4323   -5847.1644    3461.3054    83.468645 
    5900    578.92073   -100.11169   0.52381965    -99.58787    8374.0042     4.370161     4.370161     4.370161    8374.0042    13408.326    16773.259   -5059.5725   -546.04693   -1327.1105    -2419.877     83.46268 
    6000    1180.8549   -100.65371    1.0684624   -99.585248    2937.8438    4.3731622    4.3731622    4.3731622    2937.8438   -12528.614    2294.0706    19048.074    1350.8123    2397.2903    10973.439    83.634747 
    6100    1129.8394   -100.60469    1.0223024    -99.58239    21410.962    4.3667726    4.3667726    4.3667726    21410.962   -234.08449    27739.712    36727.259   -1624.0787   -8166.7867    -942.2294    83.268689 
    6200    617.43128   -100.14243    0.5586648   -99.583766   -4394.7565    4.3734543    4.3734543    4.3734543   -4394.7565    16593.583   -663.76922   -29114.084   -3476.8166    6355.6046     2790.577    83.651506 
    6300    1192.4556   -100.66416    1.0789589   -99.585203    4236.3317    4.3711373    4.3711373    4.3711373    4236.3317   -19906.221    20370.868    12244.348   -1585.0219    369.89549    751.28261    83.518625 
    6400    1189.2909   -100.65972    1.0760954   -99.583625   -1667.1066    4.3679117    4.3679117    4.3679117   -1667.1066   -3859.0408    4073.0874   -5215.3665    -1254.453   -5140.0426   -13685.596    83.333868 
    6500    660.86762   -100.18196   0.59796691   -99.583992   -15062.571    4.3741202    4.3741202    4.3741202   -15062.571   -4561.8682    14100.389   -54726.234   -8344.6385    4512.9611    9130.4572    83.689727 
    6600    1287.1765   -100.74528    1.1646644   -99.580617    5203.6248     4.369455     4.369455     4.369455    5203.6248   -28113.274    25762.194    17961.954    428.12637   -1083.2857   -12470.567    83.422231 
    6700    1080.6978   -100.55822   0.97783811   -99.580377   -20673.415    4.3723184    4.3723184    4.3723184   -20673.415   -14909.598    1869.8289   -48980.475   -4095.9165     -4459.22   -5073.7325    83.586344 
    6800    600.82506   -100.12938   0.54363914   -99.585739   -599.22806    4.3705872    4.3705872    4.3705872   -599.22806   -9571.5633    47616.463   -39842.584   -2149.0207    3976.1747    3551.0881    83.487096 
    6900    1445.2613   -100.89586    1.3077028   -99.588162   -3155.2639    4.3699142    4.3699142    4.3699142   -3155.2639   -14965.723   -9035.3011    14535.232   -953.47476   -4942.5858   -12592.567    83.448535 
    7000    713.13823   -100.23674   0.64526246   -99.591479   -15091.358    4.3754762    4.3754762    4.3754762   -15091.358   -8024.6847    22133.417   -59382.805   -3158.2732   -2944.2762    5255.4796    83.767581 
    7100    969.45351   -100.46156   0.87718191   -99.584375   -23.717976    4.3692088    4.3692088    4.3692088   -23.717976   -4777.0544    1019.4042    3686.4963    682.42809    4703.1957   -9317.7531    83.408135 
    7200    1254.4776   -100.71876    1.1350777   -99.583678    580.83385    4.3720431    4.3720431    4.3720431    580.83385   -20973.455     15664.31    7051.6467    1614.8718   -6757.2467   -7714.9642     83.57056 
    7300    856.53622   -100.35844   0.77501197   -99.583432   -6101.4099    4.3728068    4.3728068    4.3728068   -6101.4099    3291.4017    13203.285   -34798.917    3036.6145    808.91249    5560.0551    83.614359 
    7400    919.14872   -100.41679   0.83166508   -99.585125    13298.018    4.3702661    4.3702661    4.3702661    13298.018   -4723.0944    26534.324    18082.826    1374.1747    3417.5277   -7164.8947    83.468699 
    7500    1354.8852   -100.80962    1.2259286   -99.583691   -3653.5606    4.3716316    4.3716316    4.3716316   -3653.5606   -10516.982    9720.9899    -10164.69    5234.3276   -11030.222    9607.3455    83.546966 
    7600    752.32556   -100.26551   0.68071998   -99.584786    7274.3752    4.3702343    4.3702343    4.3702343    7274.3752    8160.6805    20043.872   -6381.4265    3676.9513    1513.1556   -5956.8264    83.466878 
    7700    999.48632   -100.49069   0.90435622   -99.586337    14790.448    4.3715448    4.3715448    4.3715448    14790.448    351.96242    36887.547    7131.8345   -747.70114   -1432.7491    13097.475    83.541986 
    7800    1214.1668    -100.6826    1.0986036   -99.583999   -3847.2285    4.3749694    4.3749694    4.3749694   -3847.2285   -18702.553   -5245.9334    12406.801    -1021.273   -9779.2886    606.49248    83.738474 
    7900    579.20568   -100.10966   0.52407748   -99.585579     16709.17     4.365696     4.365696     4.365696     16709.17    18950.884    40977.151   -9800.5254    3745.5714    2694.3205   -3432.1405    83.207118 
    8000    1250.1458   -100.72097    1.1311582   -99.589814    2618.6442    4.3710987    4.3710987    4.3710987    2618.6442   -16102.988    11701.649    12257.272   -6740.1354    -5706.985    15448.701    83.516413 
    8100    937.51948   -100.43711   0.84828733   -99.588825    2494.7866     4.374725     4.374725     4.374725    2494.7866   -13417.202    12355.983    8545.5791   -3300.6404   -6501.4363   -5616.2394    83.724446 
    8200    793.58646   -100.30338   0.71805371   -99.585321   -2292.5005    4.3670964    4.3670964    4.3670964   -2292.5005    8324.9602    26588.224   -41790.685    1869.4548   -559.04087    9154.2957    83.287212 
    8300    1220.8535    -100.6909    1.1046539   -99.586245    2776.5829    4.3705538    4.3705538    4.3705538    2776.5829   -29841.134    17025.743    21145.139    -6285.449    807.10997    1950.9556    83.485187 
    8400      1065.17   -100.54654   0.96378819   -99.582751   -10199.029    4.3708951    4.3708951    4.3708951   -10199.029   -10284.123    19908.774   -40221.739   -5143.6111   -7214.7172   -9182.0908    83.504744 
    8500    796.58085   -100.30252    0.7207631   -99.581754   -10066.291    4.3699283    4.3699283    4.3699283   -10066.291   -5752.4731    24910.479   -49356.879    -1133.809    6605.4794    5755.8119    83.449344 
    8600    1330.1119   -100.78846    1.2035132   -99.584942    -10301.41    4.3695832    4.3695832    4.3695832    -10301.41   -41969.036    7153.3577     3911.447   -6524.3627   -4376.7236   -6709.3198    83.429575 
    8700     1039.606   -100.52884   0.94065732   -99.588182   -15751.837    4.3710669    4.3710669    4.3710669   -15751.837   -2460.0101    16728.863   -61524.365    3455.5881   -2083.1717   -98.506955    83.514592 
    8800    858.37754    -100.3672   0.77667804   -99.590527   -16064.536    4.3736965    4.3736965    4.3736965   -16064.536   -31191.752    12929.953   -29931.808    -679.4819    4750.1535    -3518.994    83.665409 
    8900    1195.0275   -100.66943     1.081286   -99.588146   -2846.1982     4.369582     4.369582     4.369582   -2846.1982   -23817.749    12383.339     2895.816   -2292.4674   -1747.7362   -4406.0825    83.429509 
    9000    1010.3824   -100.50128   0.91421519    -99.58706    -11251.21    4.3711571    4.3711571    4.3711571    -11251.21   -2609.6974    22934.743   -54078.676    7194.5362   -2625.9959   -2040.4795    83.519759 
    9100     827.9008   -100.33806   0.74910204    -99.58896    3148.9629    4.3742473    4.3742473    4.3742473    3148.9629    -35001.74    44463.764   -15.135504    326.20531    1846.4185   -4692.7619    83.697018 
    9200    1108.2093   -100.59178     1.002731   -99.589045   -7743.4722    4.3749628    4.3749628    4.3749628   -7743.4722   -19076.643    4632.7131   -8786.4865   -1678.6818   -2760.1185   -1630.3606    83.738101 
    9300    989.38519   -100.48145   0.89521652   -99.586238    -3198.096    4.3689924    4.3689924    4.3689924    -3198.096     4021.566    17338.959   -30954.813   -1569.1978   -7570.3037     2154.058    83.395742 
    9400    924.78748   -100.42158   0.83676714   -99.584808   -231.64951    4.3741695    4.3741695    4.3741695   -231.64951   -25232.292    5677.0172    18860.326   -5130.0003     3159.839    3877.8483    83.692555 
    9500    1165.2106   -100.63587     1.054307   -99.581559   -14677.556    4.3749348    4.3749348    4.3749348   -14677.556   -7812.3743   -7504.5869   -28715.708    5935.0039   -10939.419   -440.51475    83.736491 
    9600    827.54553   -100.33034   0.74878059   -99.581562    10276.609    4.3706519    4.3706519    4.3706519    10276.609    5718.4415    35319.963   -10208.579    2484.0736    1104.8423    6337.3205    83.490807 
    9700    1056.8286   -100.53785    0.9562407   -99.581606    6303.6636    4.3669478    4.3669478    4.3669478    6303.6636   -6194.3024    8583.5862    16521.707   -1614.6123   -2676.3379    8135.2503    83.278714 
    9800    893.46174   -100.39505   0.80842296   -99.586624    10884.292      4.37436      4.37436      4.37436    10884.292    7546.2797    34122.893   -9016.2953    3085.9074   -6564.1164   -7253.5909    83.703491 
    9900    1068.1447   -100.54868    0.9664798   -99.582198    3643.2877    4.3745582    4.3745582    4.3745582    3643.2877    2814.0982    15069.754   -6953.9888   -3308.1613   -477.55202    8771.8953    83.714868 
   10000    974.04627    -100.4611   0.88133753   -99.579766    20841.226    4.3675998    4.3675998    4.3675998    20841.226     3305.291    41732.734    17485.653    -5316.512   -3564.0608    351.83837    83.316018 
   10100    993.76028   -100.47846   0.89917519   -99.579282   -2449.4066     4.375383     4.375383     4.375383   -2449.4066   -2665.5288    3914.2202   -8596.9112    6067.4771   -5446.3008   -5125.3622    83.762226 
   10200    1109.0075   -100.58303    1.0034533   -99.579572    536.01505     4.372637     4.372637     4.372637    536.01505   -7303.0355     26210.44    -17299.36   -8583.9974   -119.66802    3762.8864    83.604621 
   10300    986.21256    -100.4734   0.89234585   -99.581055    10461.905    4.3689748    4.3689748    4.3689748    10461.905   -13364.264    16267.407    28482.573   -541.23208   -2330.4445   -1796.8322     83.39473 
   10400    906.00378   -100.40302   0.81977126   -99.583252   -12400.482    4.3752974    4.3752974    4.3752974   -12400.482   -6831.6005    15572.524    -45942.37    9.5413415   -12083.524   -2900.5125    83.757315 
   10500    1204.8676    -100.6733    1.0901895   -99.583112   -842.26837    4.3706765    4.3706765    4.3706765   -842.26837   -6737.1259    6676.2811   -2465.9603   -198.30089    3717.5463    4840.1174    83.492219 
   10600    833.24533   -100.33892   0.75393788   -99.584978   -12133.517    4.3753968    4.3753968    4.3753968   -12133.517    -33202.81    2060.3743   -5258.1147    4514.9825   -11714.697   -6142.4092    83.763024 
   10700    1135.4505   -100.60786    1.0273794   -99.580478   -11654.624    4.3681821    4.3681821    4.3681821   -11654.624    5732.6435    9039.5901   -49736.104   -121.13575    -4651.945    6444.8691    83.349346 
   10800    1130.0154   -100.60844    1.0224617   -99.585978   -3246.7246    4.3746929    4.3746929    4.3746929   -3246.7246   -27375.732    16369.344    1266.2145   -2746.7036   -4434.7833   -13347.377    83.722602 
   10900    950.09228   -100.44159   0.85966346   -99.581922   -11395.116     4.376309     4.376309     4.376309   -11395.116   -23082.605    11069.332   -22172.074    4585.3649   -5948.6298    1677.5485    83.815422 
   11000    850.83863   -100.34808   0.76985667   -99.578218    10226.041    4.3708464    4.3708464    4.3708464    10226.041    9848.9435    59934.632   -39105.452   -9342.2504   -3424.7869    229.55484    83.501953 
   11100    1071.8008   -100.55092   0.96978793    -99.58113   -4713.1325    4.3756424    4.3756424    4.3756424   -4713.1325   -30609.392     24041.81    -7571.816    1543.9455   -6236.7174   -10212.503    83.777125 
   11200    896.68367   -100.39573   0.81133823   -99.584393   -1334.7626     4.370621     4.370621     4.370621   -1334.7626   -3904.5818    29620.767   -29720.473   -730.91788    -4096.824   -4223.0861    83.489033 
   11300    977.92443   -100.47509   0.88484657   -99.590247   -6658.0175    4.3704512    4.3704512    4.3704512   -6658.0175    1032.8235    13804.237   -34811.113   -825.48911   -6641.9998   -3881.3739    83.479305 
   11400    1073.0897   -100.55832   0.97095416   -99.587363   -11163.854    4.3743331    4.3743331    4.3743331   -11163.854    -32172.57   -5496.8779    4177.8874    1909.0323    1385.7338    3866.5806    83.701945 
   11500    989.10959   -100.47848   0.89496714   -99.583516    -6138.583     4.371137     4.371137     4.371137    -6138.583     1545.679    18261.886   -38223.314    4660.7237   -7341.7963   -3832.7155     83.51861 
   11600    1145.6815   -100.61797    1.0366367   -99.581331   -6436.5975    4.3715728    4.3715728    4.3715728   -6436.5975   -8946.2717   -4924.2994   -5439.2215   -8054.9604    3218.0043   -2121.6647    83.543592 
   11700    749.84415   -100.26349   0.67847474   -99.585016    6977.6421    4.3716063    4.3716063    4.3716063    6977.6421    -19991.47    39710.251    1214.1456    4965.3657   -4343.7967    4222.0421    83.545512 
   11800    1247.7186   -100.71405     1.128962   -99.585086   -1312.1083    4.3698721    4.3698721    4.3698721   -1312.1083    2295.4069    20116.195   -26347.927   -10287.998   -313.59918    -2116.483    83.446127 
   11900    854.45168   -100.36184   0.77312584    -99.58871    11353.973     4.371231     4.371231     4.371231    11353.973    -6665.632    27996.118    12731.434   -8534.3683    2045.6144   -342.17742    83.523996 
   12000    933.68743   -100.43189   0.84482001   -99.587072   -408.66921    4.3745862    4.3745862    4.3745862   -408.66921   -21234.377    38065.095   -18056.725    3237.5208   -661.98801   -8438.8163    83.716478 
   12100    1230.6611   -100.69747     1.113528   -99.583944    5445.7757    4.3716748    4.3716748    4.3716748    5445.7757    10302.604    14685.283   -8650.5593   -11195.964   -1203.3231    50.795379    83.549441 
   12200    808.09712   -100.31443   0.73118326   -99.583246    586.65781    4.3735123    4.3735123    4.3735123    586.65781   -27526.068    41484.791    -12198.75    2470.2832    1367.4804   -1208.5471    83.654836 
   12300    1029.4421   -100.51713   0.93146082   -99.585671   -2934.9552    4.3703726    4.3703726    4.3703726   -2934.9552   -20593.044    7618.1701    4170.0082   -3247.1834   -1472.5936   -33.050022      83.4748 
   12400      1191.31   -100.67023    1.0779223   -99.592304     4486.103    4.3741248    4.3741248    4.3741248     4486.103     5511.733    36199.427   -28252.851    1638.4032   -6653.0569    8075.2624    83.689988 
   12500    954.44623   -100.45312     0.863603   -99.589512    -15138.14    4.3744177    4.3744177    4.3744177    -15138.14   -52687.368    14104.282   -6831.3349   -282.15357    958.35657   -8798.8306      83.7068 
   12600    754.40372   -100.27227   0.68260034   -99.589669    8848.4406    4.3711589    4.3711589    4.3711589    8848.4406   -19133.676     51559.24   -5880.2422    2469.7103   -6072.5725    5109.9524    83.519864 
   12700    1586.1927   -101.01806    1.4352205    -99.58284   -11412.229    4.3708151    4.3708151    4.3708151   -11412.229   -4853.0873   -3605.1207    -25778.48     8050.667   -1612.9715   -3654.0146    83.500157 
   12800    454.40121   -100.00257   0.41115177    -99.59142    1984.1833    4.3764158    4.3764158    4.3764158    1984.1833   -57004.557    61796.827    1160.2798   -1986.1238   -3095.9697    3541.3022    83.821558 
   12900    1311.3224   -100.77121     1.186512   -99.584699   -2922.5432    4.3729336    4.3729336    4.3729336   -2922.5432    2506.2026    7435.6265   -18709.459    6814.2731   -4276.1704    3831.2028    83.621636 
   13000     973.6804   -100.46843   0.88100648   -99.587424    8056.5056    4.3718546    4.3718546    4.3718546    8056.5056   -20942.362    61541.932   -16430.053   -7510.9399   -2472.3847    702.97997    83.559751 
   13100    941.69125   -100.43602   0.85206203   -99.583955   -10832.825    4.3743362    4.3743362    4.3743362   -10832.825   -42412.919    11420.554   -1506.1093     6341.246     2957.134    10992.363    83.702122 
   13200    967.18155   -100.46163   0.87512619   -99.586504    9505.9063    4.3735797    4.3735797    4.3735797    9505.9063     16363.25    34738.356   -22583.887   -4731.8245    -1700.665   -5443.6373    83.658707 
   13300    1092.5086   -100.57421   0.98852478   -99.585682   -11430.249     4.373901     4.373901     4.373901   -11430.249    -36254.52    11085.734   -9121.9601   -3394.5345   -957.77951    10116.814    83.677146 
   13400    875.10138      -100.38   0.79181012   -99.588195   -1594.6593    4.3726912    4.3726912    4.3726912   -1594.6593   -26138.074    26688.084   -5333.9884   -465.90649    5588.3628    -480.6085     83.60773 
   13500     1017.581   -100.50787   0.92072864   -99.587142    13767.318    4.3746981    4.3746981    4.3746981    13767.318    11971.562    34827.037   -5496.6468    -12978.12   -8228.4978    454.11688    83.722898 
   13600    1021.3413   -100.50567    0.9241311   -99.581542   -12248.907    4.3771684    4.3771684    4.3771684   -12248.907   -46665.316    20508.667   -10590.073    -1277.736   -2127.1105    9703.6752    83.864809 
   13700    942.46271   -100.43396   0.85276006   -99.581198    14355.487     4.368518     4.368518     4.368518    14355.487   -5411.3501    42897.951    5579.8619   -1492.8249    2102.5835    927.64508    83.368579 
   13800    1160.6735     -100.638    1.0502018   -99.587799    -4589.066    4.3764505    4.3764505    4.3764505    -4589.066    2013.0043    8338.7262   -24118.929   -2282.2168   -8295.3836   -1653.0068    83.823552 
   13900    914.28714   -100.41706   0.82726622    -99.58979   -7757.2465     4.375368     4.375368     4.375368   -7757.2465   -44829.842    13318.132    8239.9701    7096.5402    -1673.629   -4646.3214    83.761368 
   14000    1156.9462   -100.63739    1.0468292   -99.590565     917.9789    4.3703985    4.3703985    4.3703985     917.9789    499.61979    24200.444   -21946.128   -8004.4781   -1653.9955    2157.9942    83.476283 
   14100    884.10512   -100.39122   0.79995689   -99.591265   -680.62001     4.370542     4.370542     4.370542   -680.62001   -11196.931    926.00731    8229.0632    10187.586   -12225.871   -1923.4228    83.484506 
   14200    869.38791   -100.37571   0.78664045   -99.589071   -7378.4498    4.3754198    4.3754198    4.3754198   -7378.4498   -45778.201    36348.558   -12705.706   -2981.2226   -226.76507    7828.5776    83.764341 
   14300     1460.575   -100.90967     1.321559   -99.588111   -1985.0102    4.3732016    4.3732016    4.3732016   -1985.0102    2455.8397    -3838.194   -4572.6762    10373.314   -4706.3853    5113.8445    83.637008 
   14400    568.33517   -100.10487   0.51424161   -99.590624    1455.0874    4.3700319    4.3700319    4.3700319    1455.0874   -23411.482    20211.288    7565.4559    739.22049    -11683.33   -1237.1378    83.455281 
   14500    953.03649   -100.45168   0.86232744   -99.589354   -1858.0777    4.3693671    4.3693671    4.3693671   -1858.0777   -25644.908    15231.249    4839.4261    8295.1949    6474.4347    10191.047    83.417197 
   14600      1401.07   -100.85409    1.2677176   -99.586376   -3172.0505    4.3775798    4.3775798    4.3775798   -3172.0505   -2990.0023    7910.9867   -14437.136    12497.062   -9967.0182   -418.19862    83.888459 
   14700    429.86174   -99.973439   0.38894794   -99.584491   -7810.9647    4.3739871    4.3739871    4.3739871   -7810.9647   -33046.304    13164.584    -3551.174   -3850.4216   -9471.6814    4515.5235    83.682085 
   14800    1030.6661   -100.51823    0.9325683   -99.585661    8889.2476    4.3653654    4.3653654    4.3653654    8889.2476    -5756.684    30191.696    2232.7308     11791.64    3389.0446   -988.40355    83.188214 
   14900    1492.9723   -100.94109    1.3508727   -99.590221   -15862.831    4.3799771    4.3799771    4.3799771   -15862.831    -10791.99   -6526.7583   -30269.746    -5798.372   -1746.1547    2341.7573    84.026357 
   15000    497.96321   -100.03749   0.45056757   -99.586926    4218.8811    4.3726645    4.3726645    4.3726645    4218.8811   -21922.205    27483.258     7095.591   -3798.6945   -6554.2817   -2640.0321    83.606195 
   15100    1207.6176   -100.67587    1.0926778   -99.583196   -882.17079    4.3730048    4.3730048    4.3730048   -882.17079   -8019.7678    22349.362   -16976.107     1480.861   -223.22812   -903.90945     83.62572 
   15200     1195.828   -100.66825    1.0820103   -99.586244    9038.8318    4.3699699    4.3699699    4.3699699    9038.8318    2936.4251    46450.991   -22270.921   -9851.3912    426.16588    4941.6912    83.451729 
   15300    505.61488   -100.04776   0.45749097   -99.590266   -6494.5912    4.3725606    4.3725606    4.3725606   -6494.5912    -41484.19     22219.96   -219.54358     5593.399    -4016.356   -4290.8546    83.600237 
   15400    1334.5044   -100.79615    1.2074876   -99.588658   -881.41571    4.3724991    4.3724991    4.3724991   -881.41571   -3415.5729     5593.491   -4822.1652   -8388.1497   -7301.0048    3953.3089     83.59671 
   15500      1094.51   -100.57407   0.99033567   -99.583738     906.3047    4.3696787    4.3696787    4.3696787     906.3047   -14198.069    36851.181   -19934.198    9935.4222    1185.7469    2197.1402    83.435048 
   15600    712.20108   -100.22988   0.64441451   -99.585465   -12407.136    4.3754712    4.3754712    4.3754712   -12407.136    -41390.81    9627.7475   -5458.3466   -3260.1265   -2987.8704     1002.969    83.767292 
   15700    1193.5935   -100.66605    1.0799885   -99.586061    13605.877    4.3716732    4.3716732    4.3716732    13605.877    7531.5051    35826.041   -2539.9152   -841.78993   -12345.727    714.62583    83.549348 
   15800    1039.0031   -100.52608   0.94011187    -99.58597   -692.08592    4.3682515    4.3682515    4.3682515   -692.08592   -41681.336    41385.219   -1780.1409    13310.088     786.2453    2019.2794    83.353318 
   15900    808.05879   -100.32189   0.73114857    -99.59074   -1501.2304    4.3742343    4.3742343    4.3742343   -1501.2304   -25695.441    22385.743   -1193.9932   -1026.9395   -14.772235    7757.3683    83.696277 
   16000    1348.4399   -100.80617    1.2200968   -99.586072   -3883.1467    4.3740246    4.3740246    4.3740246   -3883.1467    -5860.105   -1524.7319   -4264.6033    4565.7875       -11162    -3537.463    83.684239 
   16100     762.9351   -100.27736   0.69031971   -99.587038    10925.074     4.369009     4.369009     4.369009    10925.074   -43723.851    61120.843    15378.231    7648.4436    394.93244    6870.6481    83.396693 
   16200    1034.3956   -100.52174   0.93594285   -99.585801    -3551.659    4.3757174    4.3757174    4.3757174    -3551.659   -16571.279    14213.149   -8296.8466    3163.1204    1841.1342    457.73649    83.781436 
   16300    1067.1785    -100.5515   0.96560555   -99.585891    4003.1767    4.3696316    4.3696316    4.3696316    4003.1767   -9703.3366    17090.924    4621.9431   -2626.2263   -8995.5451   -7133.2538    83.432348 
   16400    870.15076   -100.37872    0.7873307   -99.591392   -7973.2285    4.3654537    4.3654537    4.3654537   -7973.2285   -54826.917    21922.599    8984.6324    3535.7547    515.89469    4827.4056    83.193261 
   16500    1306.7126   -100.77616     1.182341   -99.593818   -4216.9992    4.3719741    4.3719741    4.3719741   -4216.9992   -7087.5005    13577.631   -19141.128   -8812.5661   -1305.1612    -410.0215    83.566603 
   16600     716.8774   -100.23952   0.64864574    -99.59087   -164.06983    4.3776224    4.3776224    4.3776224   -164.06983   -29944.769    18632.996    10819.563    2763.9734   -4877.8578   -1566.1952    83.890906 
   16700    882.24926   -100.38327   0.79827767   -99.584991   -3264.7407    4.3693095    4.3693095    4.3693095   -3264.7407   -47454.051    53084.326   -15424.498    3834.3959    1251.6772    -1435.362    83.413903 
   16800    1376.6481   -100.83172    1.2456201   -99.586103    162.85515    4.3660019    4.3660019    4.3660019    162.85515    51.648416     17016.14   -16579.223   -2287.5609   -1559.3178    7546.3676    83.224606 
   16900    692.54671   -100.21767   0.62663082   -99.591043   -19299.302    4.3763189    4.3763189    4.3763189   -19299.302    -48428.39   -4572.1373   -4897.3789    7685.7061   -3736.2871   -3826.5764    83.815991 
   17000    990.19034   -100.49146   0.89594503   -99.595511   -891.96045    4.3733764    4.3733764    4.3733764   -891.96045   -32606.032    55579.678   -25649.528    1479.4114    2787.0145    2214.1605    83.647036 
   17100    1290.4782   -100.76459    1.1676518   -99.596942    2883.8672    4.3632633    4.3632633    4.3632633    2883.8672   -4107.7247    28550.492   -15791.165    9133.5851   -211.52874    4628.9576    83.068098 
   17200    538.91977   -100.09012   0.48762593   -99.602495   -965.52782    4.3680511    4.3680511    4.3680511   -965.52782     -46379.4    36324.446    7158.3702   -893.93681    -2130.279   -7313.3026    83.341848 
   17300     1230.156   -100.70877     1.113071   -99.595703   -12293.607    4.3810961    4.3810961    4.3810961   -12293.607   -19470.086    5900.1439   -23310.879    2529.4863   -957.88973    3009.4747    84.090774 
   17400    1235.7126    -100.7107    1.1180987   -99.592599    3395.6391    4.3685245    4.3685245    4.3685245    3395.6391    -25373.07     57744.79   -22184.802   -5272.8211   -228.71963    4202.5473    83.368949 
   17500    552.65989   -100.09313   0.50005828   -99.593068    4020.7207    4.3613149    4.3613149    4.3613149    4020.7207   -29770.216    31719.032    10113.346    6765.7834    216.76531   -3347.4845    82.956867 
   17600    1073.2494   -100.56645   0.97109863   -99.595348    6635.5695    4.3698308    4.3698308    4.3698308    6635.5695    899.37406     32844.73   -13837.395   -10139.907   -1369.4737   -2638.3678     83.44376 
   17700    1286.2594   -100.75628    1.1638346   -99.592448   -19630.212     4.378481     4.378481     4.378481   -19630.212   -34263.469   -369.91454   -24257.251    2718.2547   -2477.7161    1495.1196    83.940278 
   17800    718.64405   -100.23681   0.65024424   -99.586563    1373.4155    4.3620622    4.3620622    4.3620622    1373.4155   -20861.781    25255.518   -273.49085    2115.5576    1059.3383     1003.401    82.999517 
   17900    985.03091   -100.48502   0.89127667    -99.59374    4215.3466    4.3692122    4.3692122    4.3692122    4215.3466    12896.995    7703.0997   -7954.0545   -12983.206   -5178.2996   -5646.1317     83.40833 
   18000    972.23314   -100.46684   0.87969698   -99.587145    41.575719    4.3799057    4.3799057    4.3799057    41.575719   -37666.614    53267.321    -15475.98    7571.1799   -3708.2299    7046.6675    84.022246 
   18100    901.40157   -100.40168   0.81560709   -99.586069   -559.34864    4.3676644    4.3676644    4.3676644   -559.34864   -17431.675    35439.054   -19685.424   -7795.2734    1850.4694    812.41195    83.319714 
   18200    989.77651   -100.48697   0.89557059     -99.5914    674.55917    4.3659554    4.3659554    4.3659554    674.55917    15913.397   -6930.7126   -6959.0065    6322.1304   -3678.3251   -3733.2863    83.221948 
   18300    1099.4646   -100.58717   0.99481866   -99.592355    2171.5507    4.3735368    4.3735368    4.3735368    2171.5507   -23616.047    34270.747   -4140.0477    2167.6623   -2969.9816    6313.4299    83.656244 
   18400    845.00291   -100.35408   0.76457639   -99.589504   -1783.1034    4.3750548    4.3750548    4.3750548   -1783.1034   -10988.982    33436.359   -27796.688    4520.2644    396.56253   -5115.9205     83.74338 
   18500    842.27276   -100.35003   0.76210609   -99.587922    10155.709    4.3672873    4.3672873    4.3672873    10155.709    13062.827     20634.22   -3229.9188    9730.1492   -42.174367     848.5014    83.298139 
   18600    1206.3964   -100.68269    1.0915729   -99.591114   -1081.5749     4.366697     4.366697     4.366697   -1081.5749   -20023.018    17405.822   -627.52861    1204.9777   -2669.0086   -11992.226    83.264365 
   18700    990.13541   -100.49603   0.89589532   -99.600131   -9516.6853    4.3776657    4.3776657    4.3776657   -9516.6853   -22180.404    8295.6875    -14665.34    800.78718    2270.7995    7733.0449    83.893396 
   18800    896.03454   -100.40146   0.81075089   -99.590713    19754.253    4.3635817    4.3635817    4.3635817    19754.253    17442.784    38378.335    3441.6401   -13601.401   -408.88268   -5001.7189    83.086285 
   18900    882.18066   -100.38857    0.7982156   -99.590359    15868.267     4.362673     4.362673     4.362673    15868.267   -27017.895    55212.897    19409.798    3396.9216    -1253.387   -2585.5717     83.03439 
   19000    1311.5894   -100.77527    1.1867536   -99.588519    -2709.822    4.3746745    4.3746745    4.3746745    -2709.822   -9701.0977    14525.511    -12953.88   -3696.4544    2144.5337    9367.3427    83.721546 
   19100    707.90469   -100.22903   0.64052704   -99.588502   -4722.1734    4.3711754    4.3711754    4.3711754   -4722.1734   -1189.5306   -1824.5304   -11152.459   -6431.6949     -4390.13   -7751.9844     83.52081 
   19200    1181.9219   -100.65389    1.0694278   -99.584462   -2467.0106    4.3650321    4.3650321    4.3650321   -2467.0106   -34740.448    13934.435    13404.981    8438.0269   -572.93354    8449.3234    83.169163 
   19300     1162.814   -100.63954    1.0521386     -99.5874    1221.7835    4.3701499    4.3701499    4.3701499    1221.7835   -6981.7532    38002.325   -27355.221   -2782.9373    33.080483    2887.5782    83.462041 
   19400    680.11511   -100.20352   0.61538244   -99.588138   -16131.254     4.372654     4.372654     4.372654   -16131.254   -14960.231    -23648.36   -9785.1717    493.72658   -926.32959    3784.1336    83.605595 
   19500    1117.4582   -100.59757    1.0110997   -99.586473   -3276.0627    4.3694621    4.3694621    4.3694621   -3276.0627     -42487.3    38683.495   -6024.3831    1933.9824   -4585.9292    1786.2695     83.42264 
   19600     1332.874   -100.79111    1.2060124   -99.585094   -3760.3059    4.3664375    4.3664375    4.3664375   -3760.3059    -6407.906     21102.45   -25975.462   -788.15556    1863.6332    3123.7699     83.24952 
   19700     579.0238   -100.11106    0.5239129   -99.587146   -8871.9758    4.3713819    4.3713819    4.3713819   -8871.9758   -33307.071    13419.098   -6727.9544   -1184.5064   -3250.7125    3911.2359    83.532649 
   19800    1117.3567    -100.5989    1.0110078   -99.587889   -2233.9023    4.3721685    4.3721685    4.3721685   -2233.9023   -32419.859    41321.582    -15603.43    5462.5285   -4360.1193   -9650.4297    83.577748 
   19900    1350.6851   -100.81232    1.2221283   -99.590189   -2153.0194     4.365373     4.365373     4.365373   -2153.0194   -5884.0389    22452.342   -23027.361    2445.3673    2090.6662    10089.284    83.188648 
   20000    520.14943   -100.06787   0.47064213   -99.597227   -11369.776    4.3713997    4.3713997    4.3713997   -11369.776    -43744.75    11670.172   -2034.7491    814.28699   -4217.2775   -4051.5364    83.533666 
   20100    1236.8716   -100.70944    1.1191474   -99.590288   -4236.8259    4.3706969    4.3706969    4.3706969   -4236.8259   -7506.5319    43.038128   -5246.9839   -2003.6696    1672.9527   -6706.1088    83.493388 
   20200    1192.8402   -100.66618    1.0793068   -99.586877    3516.6047    4.3687296    4.3687296    4.3687296    3516.6047   -22731.515    48533.662   -15252.333   -2613.8738   -3227.6334    12731.699    83.380691 
   20300    693.37954   -100.21378   0.62738438   -99.586398    -5888.524    4.3711777    4.3711777    4.3711777    -5888.524   -24142.772   -7215.7645    13692.965    1911.0164      3133.06   -7391.9716     83.52094 
   20400    1014.0536   -100.51127   0.91753704   -99.593734    4748.6313    4.3694937    4.3694937    4.3694937    4748.6313    -1364.178    19530.217   -3920.1455   -6705.4713   -5172.4846     382.7379     83.42445 
   20500    1433.5621   -100.88731    1.2971171   -99.590189    6983.8697    4.3644498    4.3644498    4.3644498    6983.8697   -9267.8505     29215.64     1003.819    7343.0284    3208.9691    8626.0198    83.135879 
   20600      502.672   -100.04679   0.45482819   -99.591957   -8119.9058    4.3708083    4.3708083    4.3708083   -8119.9058   -28886.526   -3567.7654    8094.5738    3613.3103    920.65285   -1288.8762    83.499769 
   20700    1146.8129   -100.62589    1.0376604   -99.588226   -415.97925    4.3726047    4.3726047    4.3726047   -415.97925   -1045.7166    -1766.739    1564.5178   -5263.9141   -6366.9901    8135.0136    83.602765 
   20800    1453.9345    -100.9029    1.3155504   -99.587347   -7640.6745    4.3692766    4.3692766    4.3692766   -7640.6745   -28826.308    22780.147   -16875.863    10377.521    3549.9688    7879.9666    83.412013 
   20900    504.19786    -100.0467   0.45620882   -99.590488    9051.1833    4.3617206    4.3617206    4.3617206    9051.1833   -21381.441    25614.509    22920.481    174.61156    -1785.842    1033.6555    82.980021 
   21000     1056.588   -100.55209   0.95602307   -99.596065    -13669.73    4.3759959    4.3759959    4.3759959    -13669.73   -16121.598   -11309.585   -13578.006      1456.33   -4422.5879    152.14426    83.797436 
   21100     1221.843   -100.69693    1.1055492   -99.591385     -954.348    4.3720087    4.3720087    4.3720087     -954.348    -38474.81    52062.349   -16450.583    4518.1799    145.67941    12000.262    83.568583 
   21200    783.72273   -100.29801    0.7091288   -99.588879    16925.408    4.3581502    4.3581502    4.3581502    16925.408   -4315.2567    33273.015    21818.466    762.03373    1347.1378   -4390.8338    82.776411 
   21300    831.35737   -100.35269   0.75222962   -99.600465   -17457.265    4.3753502    4.3753502    4.3753502   -17457.265    -18289.31    -11891.34   -22191.145   -2582.4855   -9227.2729     2623.199    83.760347 
   21400     1265.048   -100.73728     1.144642   -99.592635    7523.7631    4.3685036    4.3685036    4.3685036    7523.7631   -19320.632    40979.192    912.72916      -2312.2    3681.3996    9712.8127    83.367754 
   21500     813.6509   -100.32908   0.73620844   -99.592872   -11151.788    4.3702523    4.3702523    4.3702523   -11151.788    -14236.23   -17871.875   -1347.2607    3572.4626   -521.27224   -5512.7684     83.46791 
   21600    992.70472    -100.4875   0.89822009   -99.589278    32.519178    4.3662929    4.3662929    4.3662929    32.519178    3753.3487    1969.8162   -5625.6074   -1484.8496   -7262.7456    1212.7744    83.241252 
   21700    1121.2604   -100.60928      1.01454   -99.594736     7183.468    4.3690089    4.3690089    4.3690089     7183.468   -28253.333    60007.145   -10203.408    -3032.046    7754.4325   -1245.1573    83.396683 
   21800    975.34222   -100.47194   0.88251013   -99.589425   -3318.6449    4.3715859    4.3715859    4.3715859   -3318.6449   -182.29138   -5286.2515   -4487.3917    5127.8733   -3008.3119     1518.678    83.544345 
   21900    856.63329   -100.36105    0.7750998   -99.585945    2715.1919    4.3636728    4.3636728    4.3636728    2715.1919   -4417.7998     13299.53   -736.15448    2959.4554   -1560.3626    3819.0304    83.091489 
   22000    1164.2114   -100.64258     1.053403   -99.589173   -2248.3207    4.3682814    4.3682814    4.3682814   -2248.3207   -32905.984    26819.249   -658.22705   -5677.1337    2843.6844   -870.19535    83.355029 
   22100    1081.5353   -100.56962   0.97859587    -99.59102     1221.745    4.3717059    4.3717059    4.3717059     1221.745   -8999.7398    31389.162   -18724.187    7448.2735    47.233739    -6906.205    83.551226 
   22200    746.73615   -100.26623   0.67566256   -99.590568   -4565.9461    4.3636227    4.3636227    4.3636227   -4565.9461   -22769.631    709.24035    8362.5528   -5639.3479   -4287.2329    3486.0546    83.088626 
   22300    1035.9291   -100.53119   0.93733044   -99.593857   -8440.9207    4.3701478    4.3701478    4.3701478   -8440.9207    -48968.67    31910.817   -8264.9092    5709.2056    7633.6679   -5937.3544     83.46192 
   22400    1277.2685   -100.74523    1.1556994   -99.589533     -11164.4    4.3725658    4.3725658    4.3725658     -11164.4   -11182.271    286.02179   -22596.951    6273.6428    3069.8727   -5456.0254    83.600536 
   22500    659.86362   -100.18191   0.59705847   -99.584848   -10821.122    4.3664083    4.3664083    4.3664083   -10821.122   -42554.236    1402.6449    8688.2245    1258.2133   -6889.4448    4951.8353    83.247852 
   22600    892.00517   -100.39752   0.80710502   -99.590416    5830.0504    4.3674868    4.3674868    4.3674868    5830.0504   -43703.187     71062.22   -9868.8827   -1068.2344    14582.073    720.33627    83.309551 
   22700    1325.3385   -100.79621    1.1991941   -99.597017    11390.966    4.3701299    4.3701299    4.3701299    11390.966   -1408.5738     48767.79   -13186.318    992.88931   -824.64315   -2204.1694    83.460893 
   22800    572.73344   -100.11319   0.51822126   -99.594967   -18505.367    4.3763215    4.3763215    4.3763215   -18505.367   -61071.731    3628.7225    1926.9079    6277.4266    34.250874   -1373.2278    83.816138 
   22900    1016.1508   -100.50807   0.91943462   -99.588633   -5637.0916    4.3718581    4.3718581    4.3718581   -5637.0916   -17729.541      4760.69   -3942.4235   -6257.8985    7083.8121    -810.7588    83.559949 
   23000    1597.3546   -101.03197      1.44532   -99.586646   -1566.0662    4.3628313    4.3628313    4.3628313   -1566.0662    3210.7284    3479.9082   -11388.835    9902.0955    3690.8577   -8765.7246    83.043425 
   23100    506.02254   -100.05526   0.45785983     -99.5974   -20664.244    4.3804182    4.3804182    4.3804182   -20664.244   -48820.053    -8955.085    -4217.595   -1359.4135    77.595621    -1641.187    84.051741 
   23200    986.17237   -100.48255   0.89230949    -99.59024     6672.266    4.3725111    4.3725111    4.3725111     6672.266    12124.574    6168.3966    1723.8272    4372.9546    6982.6987   -413.45407    83.597396 
   23300    1421.9961   -100.86897    1.2866519   -99.582322    8510.0834    4.3668748    4.3668748    4.3668748    8510.0834   -2860.9217    33183.242   -4792.0697    12926.335   -124.27174   -5691.3489    83.274535 
   23400    480.25644   -100.02215   0.43454612   -99.587606     6252.346    4.3724135    4.3724135    4.3724135     6252.346   -2076.2067    18525.265    2307.9798   -7655.2827   -1.2465321    1398.6413    83.591802 
   23500    1204.7152   -100.67765    1.0900516   -99.587603    1463.4374      4.37459      4.37459      4.37459    1463.4374    -3056.079    10694.065    -3247.674    11777.588     6236.008   -1663.9093    83.716693 
   23600    1262.1627   -100.73077    1.1420313   -99.588741    9449.6394    4.3722381    4.3722381    4.3722381    9449.6394    9826.1215    35664.067    -17141.27   -38.671283    721.13487   -10035.108    83.581739 
   23700    531.13928   -100.07077   0.48058598   -99.590184    8436.8267    4.3661439    4.3661439    4.3661439    8436.8267   -13059.825    32244.333    6125.9723   -6043.2173   -1588.6719   -2101.3208    83.232728 
   23800    1061.3996   -100.55322   0.96037669   -99.592848   -9619.1429    4.3772448    4.3772448    4.3772448   -9619.1429   -14199.935   -2151.2585   -12506.235    2540.6009    8457.0995    570.78418    83.869198 
   23900    1395.3865   -100.84782     1.262575   -99.585249   -6681.1199    4.3714517    4.3714517    4.3714517   -6681.1199   -5557.3928    9934.0383   -24420.005   -11804.195     1871.516   -9496.7207    83.536647 
   24000    626.46808   -100.15206   0.56684148   -99.585221    -8391.495    4.3684685    4.3684685    4.3684685    -8391.495   -30457.262    2432.8606    2849.9162    708.21299   -2333.8354   -470.73763    83.365742 
   24100    932.83464   -100.43638   0.84404839    -99.59233    6686.8024    4.3709873    4.3709873    4.3709873    6686.8024   -8253.8662    42626.073     -14311.8   -4433.7075    7639.2457    1175.2825    83.510029 
   24200    1256.5253   -100.73582    1.1369305   -99.598891   -5199.7211    4.3739112    4.3739112    4.3739112   -5199.7211   -30034.932    40326.049    -25890.28    4183.2449   -65.908317   -9651.8566    83.677727 
   24300    781.55665   -100.30226   0.70716888   -99.595086    12785.097    4.3633825    4.3633825    4.3633825    12785.097   -27831.186    65128.631    1057.8466    8525.9086     1665.808   -3434.4338    83.074907 
   24400    1035.7787   -100.53278   0.93719429   -99.595588   -12615.251    4.3703941    4.3703941    4.3703941   -12615.251     7329.876   -29735.705   -15439.924    4588.6627   -1152.3551   -525.49619    83.476032 
   24500    994.08321   -100.49479   0.89946738   -99.595319    5149.3487     4.375392     4.375392     4.375392    5149.3487   -47449.254    80992.636   -18095.336   -30.340854    5047.4387    1276.6145    83.762746 
   24600    1157.7387   -100.63884    1.0475463   -99.591298   -7301.2921    4.3688532    4.3688532    4.3688532   -7301.2921    -22807.75    14720.662   -13816.788    6400.8398   -4520.4453   -7463.7291     83.38777 
   24700     733.1829   -100.25717    0.6633993   -99.593772   -9101.0712    4.3687283    4.3687283    4.3687283   -9101.0712    2088.1554   -22501.215   -6890.1541   -2912.6851    3094.6126    3519.1861    83.380617 
   24800    1244.1404   -100.71929    1.1257244   -99.593565    1109.5122    4.3681252    4.3681252    4.3681252    1109.5122    -43407.77    57032.093   -10295.786    5792.9887    201.03168    2122.2307    83.346091 
   24900    1142.0794    -100.6405    1.0333774   -99.607121    -4705.877      4.37622      4.37622      4.37622    -4705.877   -20050.865      41159.2   -35225.966   -1877.9198    455.20712   -3132.2456    83.810308 
   25000    672.94131   -100.20815   0.60889144   -99.599254    10925.685    4.3686095    4.3686095    4.3686095    10925.685    -5546.057    45388.779   -7065.6657    9221.2657   -2529.3497   -476.64817    83.373818 
   25100    1091.9009   -100.58396   0.98797488   -99.595981   -12331.728    4.3714768    4.3714768    4.3714768   -12331.728   -36181.358    19065.344   -19879.171   -3126.4958    2708.8142   -2518.1578     83.53809 
   25200    1245.0405   -100.71824    1.1265388   -99.591705    3318.0337    4.3699699    4.3699699    4.3699699    3318.0337   -8277.6263    46228.695   -27996.968   -5796.5927    731.78377   -3654.8705    83.451727 
   25300    649.22541   -100.17988   0.58743279   -99.592444   -8235.9986    4.3682707    4.3682707    4.3682707   -8235.9986    -9675.486    -685.9745   -14346.535     3562.935   -3218.4869    -3175.184    83.354422 
   25400    1014.9262   -100.51414   0.91832659   -99.595814   -8929.8761    4.3741906    4.3741906    4.3741906   -8929.8761   -38290.516    32969.484   -21468.596   -7229.1826     3043.331    4001.4765    83.693766 
   25500    1356.0306   -100.81661     1.226965   -99.589647   -759.72867    4.3673647    4.3673647    4.3673647   -759.72867    3376.1542    18736.433   -24391.774    11293.192   -3325.7441   -3368.0453    83.302568 
   25600    488.80684   -100.03962    0.4422827   -99.597335   -12832.897    4.3757167    4.3757167    4.3757167   -12832.897   -23398.537   -469.30003   -14630.852   -2165.2769    789.48797   -1982.7085    83.781393 
   25700     1138.516   -100.61995    1.0301532   -99.589799    7819.7128    4.3709909    4.3709909    4.3709909    7819.7128   -7490.0904    56353.484   -25404.255    5543.8838   -3313.9094    5181.8062    83.510237 
   25800    1363.2835   -100.82528    1.2335276    -99.59175    3539.8101    4.3662423    4.3662423    4.3662423    3539.8101    4618.8121    26963.833   -20963.215   -7582.2694    4632.1912   -3378.2881    83.238358 
   25900    662.14939   -100.18946   0.59912669   -99.590328    1982.2987    4.3686117    4.3686117    4.3686117    1982.2987   -18248.473    23862.645    332.72424   -2429.0905   -2927.4385    285.29693    83.373942 
   26000    1118.8669   -100.60321    1.0123743   -99.590832    -5327.223    4.3773649    4.3773649    4.3773649    -5327.223   -4358.6988    20481.944   -32104.914    -4826.239    2165.1823   -1920.5583    83.876102 
   26100    1299.4924   -100.75951     1.175808   -99.583703    2488.4573     4.367683     4.367683     4.367683    2488.4573    2865.7586    26006.662   -21407.049    3882.6103    1232.5149    410.66279     83.32078 
   26200     466.0704   -100.00827    0.4217103   -99.586561    1050.6849    4.3669286    4.3669286    4.3669286    1050.6849    26799.601   -19381.992   -4265.5548     6121.757    3419.5199   -941.00529    83.277616 
   26300    1183.9883   -100.66075    1.0712975   -99.589448   -9948.4549    4.3762062    4.3762062    4.3762062   -9948.4549    646.02622    3126.6928   -33618.084   -1798.9458    1990.1844    528.37446    83.809516 
   26400    1220.0263   -100.69152    1.1039054   -99.587614    5245.6604    4.3687628    4.3687628    4.3687628    5245.6604    37576.392     8426.812   -30266.223    1825.4647    2785.6464    6241.2089    83.382594 
   26500    469.32385   -100.01493   0.42465408   -99.590274    -6335.604    4.3720119    4.3720119    4.3720119    -6335.604    -13938.17   -1725.0819   -3343.5597   -2455.4096    1190.3006    135.62747     83.56877 
   26600    1097.7188   -100.58011     0.993239   -99.586869   -634.60449    4.3696578    4.3696578    4.3696578   -634.60449   -6389.4197    35853.501   -31367.895   -454.60611   -2750.2302   -108.99885    83.433851 
   26700    1369.7596   -100.82205    1.2393873   -99.582666   -7251.9584    4.3688803    4.3688803    4.3688803   -7251.9584    881.93947    1431.5142   -24069.329    8095.1053    3845.9508     8213.856    83.389323 
   26800    462.53613   -100.00342   0.41851241   -99.584912   -16319.074    4.3771992    4.3771992    4.3771992   -16319.074   -43882.558    5529.6691   -10604.333   -949.63683   -3535.9758   -4868.9082    83.866583 
   26900    1389.3019   -100.83621    1.2570696   -99.579143   -6725.1902    4.3669948    4.3669948    4.3669948   -6725.1902   -9047.7109    27697.053   -38824.913    4256.3081    2357.0267    1061.9347    83.281404 
   27000    1192.1944   -100.66853    1.0787226   -99.589804    920.79162    4.3729311    4.3729311    4.3729311    920.79162   -11416.365     38305.21    -24126.47   -2223.5516   -2104.1925    2791.5825    83.621493 
   27100    687.58381   -100.21304   0.62214028   -99.590896   -14141.817    4.3714377    4.3714377    4.3714377   -14141.817   -18733.485   -4552.2181   -19139.747   -8745.1503    2055.8554   -6963.5344    83.535846 
   27200    1056.6387   -100.54955   0.95606887   -99.593485    5395.4924    4.3679189    4.3679189    4.3679189    5395.4924    25421.114    24376.053    -33610.69    1387.8268    -625.4451    1145.4738    83.334284 
   27300    1057.9193   -100.55135    0.9572276   -99.594124    -3755.777    4.3708049    4.3708049    4.3708049    -3755.777   -4517.3162    15605.161   -22355.176    3155.1169   -5231.7354   -1026.7432    83.499576 
   27400    718.20011    -100.2374   0.64984255   -99.587561    1409.6509    4.3671244    4.3671244    4.3671244    1409.6509    33242.465   -9320.1814   -19693.331   -2031.1238     3688.638   -5877.1588    83.288818 
   27500    949.21095    -100.4495   0.85886602    -99.59063   -6937.7777    4.3764998    4.3764998    4.3764998   -6937.7777    9174.9238    15345.733    -45333.99    1934.6834      -3092.8    1528.1748    83.826384 
   27600    1354.1359    -100.8077    1.2252506   -99.582445    4212.0269    4.3655177    4.3655177    4.3655177    4212.0269    12210.589    6980.2481   -6554.7567   -362.77694    995.13581   -4747.1474    83.196921 
   27700     667.1837   -100.18873   0.60368183   -99.585052   -11458.128    4.3665964    4.3665964    4.3665964   -11458.128   -9122.8123   -4610.8224   -20640.749   -7197.3272   -3853.6554   -2696.2945    83.258609 
   27800    1008.6401   -100.50332   0.91263873    -99.59068   -10713.896    4.3745397    4.3745397    4.3745397   -10713.896   -3071.0078    6755.1506   -35825.831    8474.1878    899.21585    151.58911    83.713803 
   27900    1403.2761   -100.85246    1.2697137   -99.582749    2252.3756    4.3669817    4.3669817    4.3669817    2252.3756    17150.138   -8767.8414   -1625.1694    621.21311    2847.4228   -11918.067    83.280649 
   28000    347.31473   -99.902182   0.31425767   -99.587924   -17039.918    4.3722326    4.3722326    4.3722326   -17039.918   -16335.356    -18044.15   -16740.249    -2179.053   -3291.9457     1204.223    83.581425 
   28100    1261.9789   -100.72599    1.1418651   -99.584128    9441.5369    4.3650861    4.3650861    4.3650861    9441.5369     30155.64    10708.727   -12539.757    6775.0755    8340.6653   -648.04021    83.172247 
   28200     1104.869   -100.58794   0.99970871   -99.588235   -11014.352     4.374446     4.374446     4.374446   -11014.352   -17409.384    -10785.52   -4848.1519    37.947827    1413.6667   -13142.225    83.708425 
   28300    621.58366   -100.14558   0.56242195   -99.583162      3074.55    4.3705718    4.3705718    4.3705718      3074.55    13038.451   -6979.2918    3164.4908    2722.3682     1031.726    624.58041    83.486217 
   28400    1349.4927    -100.8039    1.2210494   -99.582852    1348.7686     4.365119     4.365119     4.365119    1348.7686    4428.4931     10618.07   -11000.257    6434.0856    5505.8602   -4048.1144     83.17413 
   28500    1189.5829   -100.66621    1.0763596   -99.589852    10281.757     4.368796     4.368796     4.368796    10281.757     12047.46   -219.91056    19017.722    2042.8139    -6435.798   -8682.9897    83.384496 
   28600    552.35463   -100.08626   0.49978208   -99.586475    4030.0677    4.3738669    4.3738669    4.3738669    4030.0677    23572.882    8595.7523   -20078.432   -4170.0986   -958.68197   -2606.1227    83.675184 
   28700    1054.2626   -100.54118   0.95391895   -99.587261   -3478.3331    4.3700766    4.3700766    4.3700766   -3478.3331    14334.842   -4934.3738   -19835.468    3893.3517      3200.42   -756.27313    83.457843 
   28800    1353.1705   -100.80997    1.2243771   -99.585595    18442.562    4.3621384    4.3621384    4.3621384    18442.562    26092.799    9075.6642    20159.223    2214.3171   -7781.3191   -9082.4995    83.003868 
   28900    447.04629   -99.993238   0.40449688   -99.588741   -17420.832    4.3762577    4.3762577    4.3762577   -17420.832   -7209.6268    1200.6109   -46253.482   -3059.8819   -1108.0753    2881.5504    83.812472 
   29000    1124.9421   -100.60001    1.0178713    -99.58214   -7053.6145     4.373254     4.373254     4.373254   -7053.6145    2332.2341   -13644.464   -9848.6134    6343.3336    1853.2314    2421.9812    83.640017 
   29100    1479.7196   -100.91924    1.3388814   -99.580354   -835.31067    4.3639296    4.3639296    4.3639296   -835.31067   -317.76377    -10600.15    8411.9814    4177.2928   -7071.9298   -7205.8085    83.106159 
   29200    539.66699   -100.07504   0.48830204   -99.586737    -11343.42    4.3697263    4.3697263    4.3697263    -11343.42     12570.37    -7809.846   -38790.784    2469.3458   -1221.0417    326.09989    83.437772 
   29300    1116.6674   -100.59492    1.0103842   -99.584534   -2937.3581    4.3739164    4.3739164    4.3739164   -2937.3581    4007.7667   -11338.539   -1481.3018   -411.97978   -700.48879    9854.6842     83.67803 
   29400    1253.2966   -100.71831    1.1340091   -99.584302    142.26297    4.3687987    4.3687987    4.3687987    142.26297    39184.428   -36025.588   -2732.0504    7039.4047   -8175.7828   -3889.8403    83.384648 
   29500    586.14919   -100.11777   0.53036011   -99.587405     2521.663    4.3652184    4.3652184    4.3652184     2521.663    36112.043    3757.7041   -32304.758   -5619.3976    476.19715   -3033.1445    83.179812 
   29600    1123.5637    -100.6055     1.016624   -99.588877    -1188.669    4.3736266    4.3736266    4.3736266    -1188.669    2779.1194   -6677.0878    331.96155    501.04828    -1101.529    12379.046    83.661397 
   29700    1297.4893   -100.75963    1.1739956   -99.585635   -8548.7894    4.3725568    4.3725568    4.3725568   -8548.7894    3423.6906   -24311.135   -4758.9241    5253.3386    1057.4935   -4693.5438    83.600017 
   29800    662.71607   -100.18392   0.59963943   -99.584284   -2753.7804    4.3660932    4.3660932    4.3660932   -2753.7804    14310.046    10704.148   -33275.536    2213.7888    1012.3267    550.61942    83.229827 
   29900    1203.4726   -100.67898    1.0889273   -99.590049     3206.922    4.3683447    4.3683447    4.3683447     3206.922    2584.3826   -4342.3749    11378.758    4578.0167    8096.1189    11224.256    83.358654 
   30000    1023.0429   -100.51243   0.92567073   -99.586762    6124.2415    4.3714739    4.3714739    4.3714739    6124.2415    35864.327   -6312.8271   -11178.775    2249.1678    2375.9531   -771.79983    83.537924 
   30100    660.80872   -100.18322   0.59791362   -99.585304   -10165.337    4.3709469    4.3709469    4.3709469   -10165.337    24314.858   -7258.2787   -47552.589   -2528.8414   -8545.2063   -220.49357    83.507712 
   30200    1279.9156    -100.7465    1.1580945   -99.588407    10962.901    4.3673213    4.3673213    4.3673213    10962.901    8478.9294    3949.1981    20460.574   -402.67235    8906.5199     11260.57    83.300081 
   30300    1113.7277   -100.59638    1.0077242   -99.588659   -10164.074     4.372741     4.372741     4.372741   -10164.074    16321.874   -12301.291   -34512.806    -1405.647   -6450.8946   -3107.2347    83.610586 
   30400    785.21065   -100.29835    0.7104751   -99.587874    -1009.958    4.3684083    4.3684083    4.3684083    -1009.958    29671.456   -6690.4202    -26010.91    6501.1823    1668.6358    888.07892    83.362294 
   30500    1080.1949   -100.56366   0.97738307    -99.58628    9952.2789    4.3717238    4.3717238    4.3717238    9952.2789    17565.644   -5655.4938    17946.686    -3533.929    8430.3582     13878.45    83.552252 
   30600    974.86998   -100.46911   0.88208285   -99.587026    -3821.722    4.3683601    4.3683601    4.3683601    -3821.722    28361.884   -4557.2267   -35269.824    7637.2061   -15538.477   -3355.1145    83.359539 
   30700    1008.3139   -100.49825   0.91234365   -99.585906    1538.4727    4.3660005    4.3660005    4.3660005    1538.4727    18939.885   -10263.946   -4060.5212    1933.5957   -3250.0698    4395.0135    83.224527 
   30800    1052.7872   -100.54071   0.95258395   -99.588122   -18943.596    4.3783138    4.3783138    4.3783138   -18943.596    -44437.11   -15774.418     3380.739   -2384.3358   -5522.1538    13630.282    83.930663 
   30900    1049.1376   -100.53121   0.94928176   -99.581925   -2660.0626    4.3645719    4.3645719    4.3645719   -2660.0626    14292.827    1914.7108   -24187.726    318.61278   -8969.4403    -535.9143    83.142861 
   31000     976.2873   -100.46798   0.88336527    -99.58461   -5017.6473    4.3688218    4.3688218    4.3688218   -5017.6473    842.15581   -20805.507    4910.4094    4274.4333    520.11508    1656.0282     83.38597 
   31100    954.92968   -100.45161   0.86404044   -99.587567   -2407.9219     4.374796     4.374796     4.374796   -2407.9219    4471.5499   -12882.654    1187.3387   -4475.8304   -3598.3839    12617.454    83.728521 
   31200    885.27604   -100.38633   0.80101636   -99.585311    13747.386    4.3666979    4.3666979    4.3666979    13747.386    47286.223    15763.648   -21807.715    3020.0238    2473.9276   -5315.3353    83.264415 
   31300    1045.1617   -100.53454   0.94568423   -99.588855    2867.6381    4.3704533    4.3704533    4.3704533    2867.6381    35720.263    -23599.58   -3517.7689    8001.8727    -4112.648    2171.0682    83.479425 
   31400    951.90297   -100.44537   0.86130181   -99.584068    6065.6644    4.3722156    4.3722156    4.3722156    6065.6644   -211.25334    20639.432    -2231.186   -1651.2099    1485.2137    7383.3483    83.580453 
   31500     1052.425    -100.5338   0.95225621   -99.581542   -3172.2542    4.3679004    4.3679004    4.3679004   -3172.2542    9996.2655    15395.192    -34908.22     5088.389   -6953.3499   -6197.6102    83.333225 
   31600    1240.1595   -100.70425    1.1221224   -99.582129    32.265596    4.3724615    4.3724615    4.3724615    32.265596    13569.208   -11159.484   -2312.9272    7869.3087   -7500.1667    7417.7709    83.594552 
   31700     954.0966   -100.44352   0.86328665    -99.58023   -2429.7089    4.3686706    4.3686706    4.3686706   -2429.7089   -22352.415    32938.994   -17875.705   -2411.4486   -21.464566   -3258.4682    83.377313 
   31800    822.43204   -100.33373   0.74415379   -99.589576   -10806.889    4.3703058    4.3703058    4.3703058   -10806.889    16300.639    794.83574   -49516.143    6087.7351   -6049.3107     5345.005    83.470973 
   31900    1335.6442   -100.79423     1.208519   -99.585708    5243.9918    4.3704295    4.3704295    4.3704295    5243.9918   -10830.443    18786.129    7776.2891    3603.1046    4852.7059    2131.3557    83.478064 
   32000    781.90758   -100.29271   0.70748641   -99.585222   -12132.482    4.3692374    4.3692374    4.3692374   -12132.482    -29004.26    19577.399   -26970.586    -1717.982   -2625.3884   -9043.8322    83.409769 
   32100    861.66322   -100.36436   0.77965099    -99.58471    6126.5823    4.3702868    4.3702868    4.3702868    6126.5823    5768.4199    33587.908    -20976.58    8742.3848    1394.5323    5689.5198    83.469888 
   32200    1254.6362    -100.7213    1.1352212   -99.586074   -536.02787    4.3717995    4.3717995    4.3717995   -536.02787   -15047.665   -3134.8694    16574.451    175.25369    7063.5978   -15621.501     83.55659 
   32300    672.31164   -100.19738    0.6083217   -99.589062   -3280.3629    4.3715662    4.3715662    4.3715662   -3280.3629   -20468.864    24187.957   -13560.182    1624.1009    1231.6484    868.04796    83.543214 
   32400    869.65134   -100.37336   0.78687881   -99.586479    10268.559    4.3706628    4.3706628    4.3706628    10268.559    16490.247    14205.666    109.76391    1284.0866    174.77881    2602.0639    83.491433 
   32500     1335.399   -100.79501    1.2082971   -99.586714   -11917.818     4.372496     4.372496     4.372496   -11917.818   -15688.857   -23423.653    3359.0558    -5344.644     8154.856   -12288.562    83.596531 
   32600    589.71624   -100.11977   0.53358764   -99.586182    7256.6656    4.3687936    4.3687936    4.3687936    7256.6656    9192.8183    35820.961   -23243.783    3026.0059    342.11563    12192.366    83.384356 
   32700    1002.3707   -100.49593   0.90696608   -99.588966   -9449.5145    4.3735972    4.3735972    4.3735972   -9449.5145    12144.971   -17092.207   -23401.308   -8751.5784    1753.6568   -9553.7116    83.659709 
   32800    1426.8311   -100.87691    1.2910268    -99.58588    4024.0693    4.3716005    4.3716005    4.3716005    4024.0693    8112.7894    6024.8337   -2065.4154    3941.1781     7768.975   -1446.2933    83.545181 
   32900    527.17672   -100.06484   0.47700058   -99.587837   -3526.9655    4.3660754    4.3660754    4.3660754   -3526.9655    8514.4687    14240.139   -33335.504    374.91103    -11358.38    5450.3147    83.228814 
   33000     1130.791   -100.61436    1.0231635   -99.591197   -12937.591     4.372283     4.372283     4.372283   -12937.591   -421.79062   -15954.395   -22436.587   -1688.3702    7836.2914   -11988.168    83.584317 
   33100    1381.7887     -100.835    1.2502715   -99.584733   -256.94544    4.3702914    4.3702914    4.3702914   -256.94544   -3235.7119    942.97061     1521.905    4478.2836   -433.12361    3258.0676    83.470148 
   33200    409.82411   -99.957949   0.37081747   -99.587132   -14194.714    4.3729102    4.3729102    4.3729102   -14194.714    2015.1391    4253.8512   -48853.133   -2431.2722    -4320.307    1735.4239     83.62029 
   33300    1244.7352   -100.70896    1.1262626   -99.582694    4793.0875    4.3683696    4.3683696    4.3683696    4793.0875    21701.138   -16539.744    9217.8684    1296.5047     11923.23   -8002.6053    83.360082 
   33400    1174.1547   -100.65031    1.0623999    -99.58791   -4095.7802    4.3731575    4.3731575    4.3731575   -4095.7802    7726.1449    4070.1053   -24083.591    1280.6135   -12167.657     5465.321    83.634482 
   33500     563.2706   -100.09166   0.50965908   -99.582005   -1608.1172    4.3704397    4.3704397    4.3704397   -1608.1172    36473.818    4698.7912   -45996.961    331.67259   -498.84473    1616.2315    83.478644 
   33600    1370.3096   -100.82268    1.2398849   -99.582794   -4721.5364    4.3689455    4.3689455    4.3689455   -4721.5364   -8353.9675   -11807.759    5997.1175    4902.6814   -9267.1954   -7769.6339    83.393056 
   33700      868.747   -100.36994   0.78606054   -99.583883     3524.877    4.3726426    4.3726426    4.3726426     3524.877    46130.519    11155.528   -46711.416   -1266.8329   -1292.2654    6654.5837     83.60494 
   33800    1015.8399   -100.50587    0.9191533   -99.586712    -13661.49    4.3706744    4.3706744    4.3706744    -13661.49   -5314.7724   -10393.618   -25276.079    10374.679   -1842.4376    -2797.746    83.492093 
   33900    1111.4742   -100.59818    1.0056852   -99.592495    14533.896    4.3669868    4.3669868    4.3669868    14533.896    37240.543    11260.349   -4899.2032   -6326.8508    2232.0403   -4470.6701    83.280943 
   34000    888.66922   -100.39686   0.80408658   -99.592773   -10728.054    4.3709935    4.3709935    4.3709935   -10728.054    20632.927   -3042.6963   -49774.393    3794.1188    4300.0408    6496.5981    83.510384 
   34100    1074.0638   -100.55964   0.97183552   -99.587801   -951.03245    4.3724579    4.3724579    4.3724579   -951.03245    22883.468    -4648.988   -21087.577    3222.5002   -8601.6867   -5010.3387    83.594345 
   34200    1176.5786   -100.64778     1.064593   -99.583192    -4237.468    4.3691066    4.3691066    4.3691066    -4237.468   -10130.112    8949.8674   -11532.159   -7473.6045    1291.4173    -3820.111    83.402277 
   34300    708.86826   -100.22862    0.6413989   -99.587224   -1295.0664    4.3656229    4.3656229    4.3656229   -1295.0664    36254.391    5497.5729   -45637.163    9916.8754   -7986.4954    6145.9874    83.202937 
   34400    1417.8384   -100.87076    1.2828899   -99.587865   -5217.5088    4.3727027    4.3727027    4.3727027   -5217.5088    7942.3048   -15572.627   -8022.2037   -1087.7205    8242.6543   -9935.8547    83.608386 
   34500    713.19152     -100.233   0.64531067   -99.587685    2173.3079    4.3713319    4.3713319    4.3713319    2173.3079     21638.82     5443.498   -20562.395    541.85632   -5389.6927    -2015.087    83.529784 
   34600     861.6135    -100.3609     0.779606   -99.581292   -1252.3311    4.3666586    4.3666586    4.3666586   -1252.3311    37074.845    3245.4561   -44077.295    6087.1819    4971.1952    1658.2036    83.262168 
   34700    1543.5431    -100.9811    1.3966302   -99.584466   -7247.6366    4.3697088    4.3697088    4.3697088   -7247.6366   -13857.245   -15095.219     7209.554   -5084.5713    7738.6316   -11526.589     83.43677 
   34800    507.88548   -100.04373   0.45954546   -99.584181    56.315542    4.3726313    4.3726313    4.3726313    56.315542    31307.464    16095.205   -47233.722    1804.2456   -4074.9115   -487.04682     83.60429 
   34900     1165.771   -100.63582    1.0548141   -99.581003   -8387.2935    4.3654213    4.3654213    4.3654213   -8387.2935    11998.182   -11618.366   -25541.697    1604.3883    6208.2094   -1495.4362    83.191412 
   35000    1233.4636   -100.70324    1.1160637   -99.587181    12597.565    4.3697928    4.3697928    4.3697928    12597.565    27245.879     3196.225    7350.5919    6476.7368   -6153.1309   -6407.0919    83.441582 
[...]
   91200    1088.1981   -100.56253   0.98462448   -99.577903    4763.5098    4.3780869    4.3780869    4.3780869    4763.5098    17841.967   -5086.2527    1534.8151   -652.82586   -1555.1668    605.19424    83.917612 
   91300     1091.713   -100.56351   0.98780489   -99.575704   -3409.9539    4.3778609    4.3778609    4.3778609   -3409.9539    -16613.97   -38.311041    6422.4193    4231.9005    999.22776   -4632.6619     83.90462 
   91400    785.44112   -100.29169   0.71068363   -99.581011    13253.166    4.3818597    4.3818597    4.3818597    13253.166    318.72555    11351.695    28089.079    5963.6563   -4277.0779     10561.85    84.134748 
   91500    912.48822   -100.40359   0.82563852   -99.577954    8769.2851     4.381718     4.381718     4.381718    8769.2851    12188.356   -4127.1384    18246.638   -6320.8176    4108.9039     3564.635    84.126587 
   91600    1116.9687   -100.58595    1.0106568   -99.575295    1642.8991    4.3797267    4.3797267    4.3797267    1642.8991    -5374.317   -1142.2698    11445.284    4395.1954    3421.4195   -1183.7913    84.011944 
   91700    756.61129    -100.2613    0.6845978   -99.576703    21912.504    4.3775348    4.3775348    4.3775348    21912.504    31047.763    7901.7914    26787.956    774.68538    3632.7305    3694.8605    83.885874 
   91800    969.86922   -100.45852   0.87755805   -99.580967   -15591.279    4.3843565    4.3843565    4.3843565   -15591.279    8254.3352   -7905.3379   -47122.835   -9209.7607    2712.0264   -193.55008    84.278651 
   91900     1224.628   -100.68959    1.1080691   -99.581521    4145.4982    4.3744955    4.3744955    4.3744955    4145.4982    14504.355   -8185.9827    6118.1225    7027.1128   -8375.2396   -939.80382    83.711268 
   92000    807.08701   -100.31786   0.73026929   -99.587594   -10369.694    4.3845234    4.3845234    4.3845234   -10369.694    19889.658   -20834.274   -30164.467   -7594.1967   -2425.2109    -4231.283    84.288279 
   92100    1077.9678   -100.55442   0.97536792   -99.579055   -14765.096     4.381424     4.381424     4.381424   -14765.096    6727.9539   -4453.3789   -46569.862   -7241.1755   -4695.8691   -1109.7148    84.109653 
   92200    1110.1636   -100.57804    1.0044993   -99.573544   -2320.9011    4.3741703    4.3741703    4.3741703   -2320.9011   -3408.7979   -19106.079    15552.174    4843.5075    -6532.758   -1432.1298    83.692598 
   92300    939.61021    -100.4316   0.85017906   -99.581423   -22805.286    4.3836987    4.3836987    4.3836987   -22805.286    -2233.492   -15950.134   -50232.231   -3741.7596   -1633.4885    501.05913    84.240725 
   92400     1072.354   -100.55365   0.97028843   -99.583357   -1768.7351    4.3792977    4.3792977    4.3792977   -1768.7351     3211.234   -5628.0785   -2889.3607    656.23182    609.52695   -5369.6848    83.987256 
   92500     1101.378   -100.57993   0.99654992   -99.583381   -5948.4403     4.378541     4.378541     4.378541   -5948.4403    -14829.87   -20614.704    17599.253   -1876.7003    795.59446    1637.6959    83.943731 
   92600    853.90522   -100.35585   0.77263139   -99.583219    3355.3655    4.3793307    4.3793307    4.3793307    3355.3655    33815.895   -7526.0649   -16223.734    2475.7123    6758.7328    2853.6808    83.989158 
   92700    1126.7177    -100.5967    1.0194779   -99.577224     7934.624    4.3790811    4.3790811    4.3790811     7934.624   -5209.0619   -1054.3693    30067.303     -3927.27   -4734.9792   -4112.8464      83.9748 
   92800     894.1626   -100.38634   0.80905711   -99.577283    286.90579    4.3805608    4.3805608    4.3805608    286.90579    26340.058   -18677.428   -6801.9122   -1107.2086    6807.4625    6712.9483    84.059954 
   92900      912.945   -100.40288   0.82605182   -99.576824    17272.721    4.3777584    4.3777584    4.3777584    17272.721     13795.95    19394.661    18627.551   -9442.3247   -1692.6586    3437.4865    83.898729 
   93000     1147.207   -100.61877     1.038017   -99.580749   -3560.1464    4.3839185    4.3839185    4.3839185   -3560.1464    13009.412   -9325.8145   -14364.036   -4763.4204   -3114.2339   -1141.7321    84.253396 
   93100    713.82591   -100.22252   0.64588469   -99.576634    18371.284    4.3802555    4.3802555    4.3802555    18371.284    11403.156    17181.603    26529.092    264.71805     3623.965    2249.6524    84.042377 
   93200    1004.2539   -100.48391   0.90867005   -99.575241    4207.5533     4.380793     4.380793     4.380793    4207.5533    24352.482    12850.089   -24579.911   -6801.3354     -13239.7    1136.0135    84.073322 
   93300     1235.958   -100.69334    1.1183208   -99.575019    -2308.829    4.3805889    4.3805889    4.3805889    -2308.829   -10850.639   -2632.8068    6556.9592   -2237.7805    4000.5146   -2543.5438    84.061568 
   93400    508.62109   -100.04312   0.46021105   -99.582912    15905.447    4.3786615    4.3786615    4.3786615    15905.447    34131.994    23120.777   -9536.4294    9671.3678   -2316.5595     84.66442    83.950662 
   93500    1437.8388   -100.88695    1.3009868    -99.58596   -16151.117    4.3786882    4.3786882    4.3786882   -16151.117   -1552.5568   -20696.722   -26204.074    -11010.15     10106.85   -4761.0103    83.952195 
   93600    862.76917   -100.37024   0.78065168   -99.589585     7816.511    4.3797017    4.3797017    4.3797017     7816.511    5488.4363    6591.0252    11370.071    3820.1509   -7148.9952    3840.9584    84.010502 
   93700    871.12722   -100.36954   0.78821422   -99.581327    -5056.926    4.3809217    4.3809217    4.3809217    -5056.926    10196.029    18400.511   -43767.318   -3438.9154   -733.94111    294.41095    84.080732 
   93800     1313.103   -100.76843    1.1881232   -99.580303    1573.8852    4.3814616    4.3814616    4.3814616    1573.8852    15685.856    -8455.862   -2508.3381   -9079.5822     4162.054   -4415.6074    84.111818 
   93900    974.78623   -100.46503   0.88200706   -99.583026    7370.3365    4.3770285    4.3770285    4.3770285    7370.3365    460.85861    41026.617   -19376.467    1475.4107   -7051.2813    3480.1459     83.85677 
   94000    758.13503   -100.27508   0.68597651   -99.589108   -6804.6638    4.3803657    4.3803657    4.3803657   -6804.6638    27115.636   -13919.177   -33610.451    -3196.887    2875.6211   -965.33462    84.048721 
   94100    1298.8076   -100.76022    1.1751884   -99.585029    14461.201    4.3762155    4.3762155    4.3762155    14461.201    14138.592    41602.113   -12357.103    8757.6404   -5813.7463    3996.1198    83.810048 
   94200    792.33527   -100.29696    0.7169216   -99.580037   -5697.0733    4.3807002    4.3807002    4.3807002   -5697.0733    27265.443     3988.718   -48345.381    265.45372   -2855.6698   -2321.7226    84.067975 
   94300    970.62067   -100.45751   0.87823798   -99.579276   -2877.0739    4.3789858    4.3789858    4.3789858   -2877.0739    4534.6781    14580.423   -27746.323    1215.6313   -2103.5289    2148.5596    83.969317 
   94400    1296.9262     -100.754    1.1734861   -99.580512     7340.352    4.3783886    4.3783886    4.3783886     7340.352    30356.737    1521.1865   -9856.8675    4132.5892   -4542.6069    9741.9273    83.934963 
   94500    795.75319   -100.30448   0.72001421   -99.584471   -21507.557    4.3819441    4.3819441    4.3819441   -21507.557   -13917.064   -4188.1906   -46417.416   -6918.6244   -7255.9511    342.51954    84.139613 
   94600    893.83503   -100.39472   0.80876072   -99.585964    20185.237    4.3734577    4.3734577    4.3734577    20185.237    13460.132    26703.982    20391.596    3202.3302   -3045.2221   -1524.4244    83.651704 
   94700    1357.6864   -100.81056    1.2284632   -99.582102    -7527.317    4.3781077    4.3781077    4.3781077    -7527.317   -10301.005   -14568.717     2287.771    1629.4034   -7842.2211    8204.5806    83.918809 
   94800    497.84089   -100.03344    0.4504569   -99.582978   -1035.5002    4.3829272    4.3829272    4.3829272   -1035.5002   -14506.519    12082.561    -682.5427   -201.40298   -3700.8789   -2596.1239    84.196252 
   94900    1247.3188   -100.70358    1.1286003   -99.574976    10057.362     4.379155     4.379155     4.379155    10057.362   -11783.718    14607.692    27348.113    12070.054   -1348.3112   -3751.9443    83.979051 
   95000    1144.2142   -100.60969     1.035309   -99.574378   -1718.7918    4.3723735    4.3723735    4.3723735   -1718.7918   -24308.925   -172.59872    19325.148   -4954.6759    -3814.123    17472.169    83.589508 
   95100    672.77674   -100.18977   0.60874254   -99.581028    4369.2436    4.3821263    4.3821263    4.3821263    4369.2436   -9085.3174    24812.014   -2618.9659      6368.74   -829.58661   -4642.6014    84.150106 
   95200    1381.2628   -100.82725    1.2497956   -99.577455   -9850.7559    4.3834591    4.3834591    4.3834591   -9850.7559   -27939.431    806.78101   -2419.6176    7355.3433   -1818.8364    7983.0022    84.226914 
   95300    882.76003   -100.37291   0.79873982   -99.574171    5835.5773    4.3681705    4.3681705    4.3681705    5835.5773   -25391.984    4369.3763    38529.339   -11456.611    1311.4178    6503.0647    83.348685 
   95400    865.91966   -100.36673    0.7835023   -99.583225   -11170.584    4.3826716    4.3826716    4.3826716   -11170.584    -17914.17    23423.838   -39021.421    4154.7121   -10235.583    -2042.601    84.181522 
   95500    1249.0928   -100.70877    1.1302054   -99.578567   -4281.1355    4.3844731    4.3844731    4.3844731   -4281.1355   -23608.034   -9938.4472    20703.075    1346.3558   -1137.9146    16360.438    84.285379 
   95600    789.29103   -100.28994   0.71416711   -99.575768   -5074.9291    4.3739455    4.3739455    4.3739455   -5074.9291   -22347.847    26260.715   -19137.655   -2773.6652    967.89831   -2631.0825    83.679697 
   95700    943.42044   -100.43761   0.85362664   -99.583987   -2046.4318    4.3729873    4.3729873    4.3729873   -2046.4318   -8795.1403    18090.099   -15434.254    4049.0599    -5805.629    16501.123    83.624715 
   95800    1252.4704   -100.71947    1.1332615   -99.586211   -4864.9194    4.3791405    4.3791405    4.3791405   -4864.9194   -22205.636    8239.5845   -628.70635   -160.32902    2159.6513    8398.6389    83.978213 
   95900    488.64518   -100.03004   0.44213642   -99.587904   -6681.7462    4.3807492    4.3807492    4.3807492   -6681.7462   -18642.106    38872.933   -40276.065    1824.0629   -1072.9538   -6357.6921    84.070797 
   96000     1413.544   -100.85973    1.2790044   -99.580723   -13084.557    4.3763053    4.3763053    4.3763053   -13084.557   -17514.496   -13261.097    -8478.077   -5880.9234    2161.1331    10599.379    83.815207 
   96100    845.49821   -100.35108   0.76502455   -99.586053    8863.1874    4.3778008    4.3778008    4.3778008    8863.1874   -29813.809    61533.305   -5129.9337    1242.0661   -2656.0432   -6224.5875    83.901166 
   96200    930.63283   -100.42843   0.84205615   -99.586375   -17764.922    4.3804024    4.3804024    4.3804024   -17764.922    5551.4711   -5150.5091   -53695.728   -2705.3619    3434.1233    7171.0588    84.050834 
   96300    1101.2447   -100.58256   0.99642932   -99.586133    7057.3413    4.3804558    4.3804558    4.3804558    7057.3413   -35958.178    41932.132     15198.07   -353.25876    1222.4611    6100.5616    84.053907 
   96400    1192.0387    -100.6576    1.0785817   -99.579023   -8826.6814    4.3736189    4.3736189    4.3736189   -8826.6814   -9657.8826    6017.2193   -22839.381   -673.94816    1055.5464   -15000.872    83.660952 
   96500    480.26476   -100.02192   0.43455365   -99.587361    15082.936    4.3797855    4.3797855    4.3797855    15082.936   -5067.4815    63841.886   -13525.597    5806.7861    1513.7825    5872.3368    84.015325 
   96600    1531.0454   -100.97157    1.3853221   -99.586243   -15878.619    4.3806255    4.3806255    4.3806255   -15878.619   -36036.676   -11053.379   -545.80253   -804.28141    6879.9251   -19467.631    84.063676 
   96700     692.5133   -100.21874   0.62660059   -99.592142    16127.723    4.3725266    4.3725266    4.3725266    16127.723    3731.5066    56024.425   -11372.763     6371.619    2723.9636    5467.8088    83.598289 
   96800    963.44392   -100.46102   0.87174431   -99.589271    349.38941    4.3780656    4.3780656    4.3780656    349.38941   -3344.2737    4197.1714    195.27051    7406.4007    1005.2711   -5917.2567    83.916388 
   96900    1082.0088   -100.56788   0.97902429   -99.588851    2534.5347    4.3799457    4.3799457    4.3799457    2534.5347   -23415.906    35696.389   -4676.8787   -13031.615     6358.139   -3503.3596    84.024548 
   97000    940.39877   -100.43514   0.85089257   -99.584244    7972.5292    4.3734802    4.3734802    4.3734802    7972.5292    5181.2558    24182.509   -5446.1777     8661.571    4599.1742    9640.4631    83.652997 
   97100    942.75462   -100.44544   0.85302419   -99.592411   -1072.7232    4.3798644    4.3798644    4.3798644   -1072.7232   -16981.353    32098.744   -18335.561   -2963.6927   -1911.5387   -6201.4918    84.019867 
   97200     1205.883   -100.68108    1.0911083   -99.589974    9231.0113    4.3767957    4.3767957    4.3767957    9231.0113   -1585.1529    21925.376    7352.8105    3441.0721    10081.208    12562.022    83.843387 
   97300    679.08997   -100.20277   0.61445488   -99.588315    4182.9924    4.3742286    4.3742286    4.3742286    4182.9924   -8458.1116    41850.004   -20842.915    568.60887   -1760.0823    -8292.082    83.695947 
   97400     988.2706   -100.48144   0.89420801   -99.587234    10916.546     4.377158     4.377158     4.377158    10916.546    9571.4665    20001.231    3176.9412   -14468.565    4342.7035    4328.8912    83.864211 
   97500    1379.8129   -100.82831    1.2484837    -99.57983   -15938.854    4.3793342    4.3793342    4.3793342   -15938.854   -21783.476   -20293.384    -5739.703     8269.948    2753.8805    8896.3504    83.989361 
   97600    490.69655   -100.02617   0.44399255   -99.582174   -853.69207    4.3757907    4.3757907    4.3757907   -853.69207    8417.7895    31361.767   -42340.633   -13404.969     -1047.71    -2715.568    83.785648 
   97700    1532.3717   -100.96442    1.3865221   -99.577899    1750.0839    4.3720503    4.3720503    4.3720503    1750.0839   -8375.6445     1266.284    12359.612    1794.0904     6588.545     20076.74    83.570969 
   97800    677.89471       -100.2   0.61337338   -99.586625   -7274.4031    4.3831946    4.3831946    4.3831946   -7274.4031   -10276.148    19265.919    -30812.98   -47.611817   -6059.0267    9774.4505    84.211666 
   97900    912.76214   -100.40825   0.82588637   -99.582363   -6961.8323    4.3761912    4.3761912    4.3761912   -6961.8323   -7483.5867    24694.215   -38096.125    3940.0276    4222.9582    5246.6506    83.808654 
   98000     1433.925   -100.88266    1.2974455    -99.58521    1316.4272    4.3722582    4.3722582    4.3722582    1316.4272   -18878.419   -1804.8053    24632.507    106.46467   -312.15809    12321.157    83.582892 
   98100    538.05687   -100.07457   0.48684516   -99.587726   -7059.6846    4.3808098    4.3808098    4.3808098   -7059.6846   -8703.9467    35292.728   -47767.835   -10417.553   -1945.8426   -9842.3726    84.074289 
   98200    1212.4185    -100.6767    1.0970217    -99.57968   -9349.2506     4.377591     4.377591     4.377591   -9349.2506   -7800.3825    7522.3441   -27769.713    3008.5906   -2421.5422    5308.9618    83.889104 
   98300    970.16263   -100.45846   0.87782353   -99.580637    11034.007    4.3753593    4.3753593    4.3753593    11034.007     1284.136    32564.166   -746.28219   -11345.791    4329.6905    3365.2654    83.760866 
   98400    856.50976   -100.35267   0.77498803   -99.577678   -14667.532    4.3755704    4.3755704    4.3755704   -14667.532    5507.3328    16060.365   -65570.295    93.248693   -9588.2331     -3633.54    83.772992 
   98500    1108.0521   -100.58634    1.0025889   -99.583749    9258.0632    4.3791271    4.3791271    4.3791271    9258.0632    20674.825    13041.552   -5942.1871   -1654.9911    5900.1767    8544.4041    83.977446 
   98600    1143.6901   -100.61341    1.0348348   -99.578573   -17591.287    4.3812337    4.3812337    4.3812337   -17591.287   -14723.737   -2393.2674   -35656.857    575.26282   -1597.6909     -4771.96    84.098695 
   98700     586.1963   -100.11226   0.53040273   -99.581862    9124.9339    4.3702042    4.3702042    4.3702042    9124.9339    34906.902    33485.912   -41018.012    8628.7919   -5071.1009    4161.0155    83.465151 
   98800    1432.1566   -100.88459    1.2958454    -99.58874   -1546.8414    4.3756026    4.3756026    4.3756026   -1546.8414   -23859.379    25795.485   -6576.6303    -3549.276    6129.6693   -2313.2223    83.774842 
   98900    811.83638   -100.32947   0.73456662   -99.594905   -10805.684    4.3838172    4.3838172    4.3838172   -10805.684    -797.3411     13510.26   -45129.971    4097.4561   -7164.3218    -1901.571    84.247558 
   99000    765.02816   -100.28406   0.69221355   -99.591845    11690.642    4.3747163    4.3747163    4.3747163    11690.642   -7867.2277    52414.572   -9475.4173   -6562.9526    6272.1703   -1299.7333    83.723944 
   99100    1607.2516   -101.04341     1.454275   -99.589139   -10042.672    4.3759029    4.3759029    4.3759029   -10042.672   -34103.133    16199.275   -12224.159   -5264.9517    2727.4372   -21504.323    83.792092 
   99200    535.73261   -100.07803   0.48474213   -99.593284    13842.847    4.3747386    4.3747386    4.3747386    13842.847    14875.351    55858.307   -29205.117     3743.474   -599.79843    5821.5566    83.725223 
   99300    1217.0846   -100.69561    1.1012437   -99.594365    -19194.19    4.3827908    4.3827908    4.3827908    -19194.19   -37458.165    -249.1205   -19875.286    1507.6128    689.97199   -9147.6245    84.188394 
   99400    994.74461   -100.49626   0.90006583   -99.596198    9277.0369    4.3788155    4.3788155    4.3788155    9277.0369   -17826.517    59394.386   -13736.759    6113.6668    3786.3224    10021.867     83.95952 
   99500    977.69856   -100.47709    0.8846422   -99.592451   -5558.8666    4.3719208    4.3719208    4.3719208   -5558.8666    380.92293    21205.942   -38263.465   -6680.7086   -4141.1546   -5195.4629    83.563544 
   99600    890.41133   -100.39817   0.80566289   -99.592509    180.66384    4.3823961    4.3823961    4.3823961    180.66384   -40015.828    50901.543   -10343.724    2113.9723    7965.9282     4150.361    84.165651 
   99700    1352.6958   -100.80866    1.2239476   -99.584714   -18128.707    4.3765389    4.3765389    4.3765389   -18128.707   -11123.547   -12216.331   -31046.243    1118.5192    10.941851    12524.272     83.82863 
   99800    720.36995   -100.23711   0.65180587   -99.585301    1624.0197     4.374643     4.374643     4.374643    1624.0197   -20542.605    64577.924    -39163.26    4234.5397   -1052.4305   -2542.6988    83.719737 
   99900    1114.9051   -100.59381    1.0087896   -99.585025   -17803.698    4.3826612    4.3826612    4.3826612   -17803.698   -29036.353   -12286.735   -12088.006   -4724.0812    3170.9124    17412.292    84.180928 
  100000    1087.6648   -100.56523   0.98414195   -99.581091   -8728.5631    4.3758987    4.3758987    4.3758987   -8728.5631   -4570.7591    30865.789   -52480.719    2813.4558   -5029.7919    944.81581    83.791852 
Loop time of 21.7206 on 1 procs for 100000 steps with 8 atoms

Pair  time (%) = 6.70411 (30.8653)
Kspce time (%) = 5.27798 (24.2995)
Neigh time (%) = 0 (0)
Comm  time (%) = 1.05577 (4.86069)
Outpt time (%) = 0.0251429 (0.115756)
Other time (%) = 8.65755 (39.8588)

Nlocal:    8 ave 8 max 8 min
Histogram: 1 0 0 0 0 0 0 0 0 0
Nghost:    2189 ave 2189 max 2189 min
Histogram: 1 0 0 0 0 0 0 0 0 0
Neighs:    2056 ave 2056 max 2056 min
Histogram: 1 0 0 0 0 0 0 0 0 0

Total # of neighbors = 2056
Ave neighs/atom = 257
Neighbor list builds = 0
Dangerous builds = 0
seeds:9737765
