# ['Ni']

28 atoms
1 atom types

    0.0000     2.9097 xlo xhi
    0.0000     5.0397 ylo yhi
    0.0000    33.2601 zlo zhi

    0.0000     0.0000     0.0000 xy xz yz

Atoms

1 1     0.0000     0.0000     0.0000
2 1     1.4548     2.5198     0.0000
3 1     1.4548     0.8399     2.3757
4 1     0.0000     3.3598     2.3757
5 1     0.0000     1.6799     4.7514
6 1     1.4548     4.1997     4.7514
7 1     0.0000     0.0000     7.1272
8 1     1.4548     2.5198     7.1272
9 1     1.4548     0.8399     9.5029
10 1     0.0000     3.3598     9.5029
11 1     0.0000     1.6799    11.8786
12 1     1.4548     4.1997    11.8786
13 1     0.0000     0.0000    14.2543
14 1     1.4548     2.5198    14.2543
15 1     0.0000     1.6799    16.6300
16 1     1.4548     4.1997    16.6300
17 1     0.0000     0.0000    19.0058
18 1     1.4548     2.5198    19.0058
19 1     1.4548     0.8399    21.3815
20 1     0.0000     3.3598    21.3815
21 1     0.0000     1.6799    23.7572
22 1     1.4548     4.1997    23.7572
23 1     0.0000     0.0000    26.1329
24 1     1.4548     2.5198    26.1329
25 1     1.4548     0.8399    28.5087
26 1     0.0000     3.3598    28.5087
27 1     0.0000     1.6799    30.8844
28 1     1.4548     4.1997    30.8844
