# ['Ni']

107 atoms
1 atom types

    0.0000    10.5246 xlo xhi
    0.0000    10.5246 ylo yhi
    0.0000    10.5246 zlo zhi

    0.0000    -0.0000    -0.0000 xy xz yz

Atoms

1 1     1.7541     1.7541     0.0000
2 1     1.7541     0.0000     1.7541
3 1     0.0000     1.7541     1.7541
4 1     0.0000     0.0000     3.5082
5 1     1.7541     1.7541     3.5082
6 1     1.7541     0.0000     5.2623
7 1     0.0000     1.7541     5.2623
8 1     0.0000     0.0000     7.0164
9 1     1.7541     1.7541     7.0164
10 1     1.7541     0.0000     8.7705
11 1     0.0000     1.7541     8.7705
12 1     0.0000     3.5082     0.0000
13 1     1.7541     5.2623     0.0000
14 1     1.7541     3.5082     1.7541
15 1     0.0000     5.2623     1.7541
16 1     0.0000     3.5082     3.5082
17 1     1.7541     5.2623     3.5082
18 1     1.7541     3.5082     5.2623
19 1     0.0000     5.2623     5.2623
20 1     0.0000     3.5082     7.0164
21 1     1.7541     5.2623     7.0164
22 1     1.7541     3.5082     8.7705
23 1     0.0000     5.2623     8.7705
24 1     0.0000     7.0164     0.0000
25 1     1.7541     8.7705     0.0000
26 1     1.7541     7.0164     1.7541
27 1     0.0000     8.7705     1.7541
28 1     0.0000     7.0164     3.5082
29 1     1.7541     8.7705     3.5082
30 1     1.7541     7.0164     5.2623
31 1     0.0000     8.7705     5.2623
32 1     0.0000     7.0164     7.0164
33 1     1.7541     8.7705     7.0164
34 1     1.7541     7.0164     8.7705
35 1     0.0000     8.7705     8.7705
36 1     3.5082     0.0000     0.0000
37 1     5.2623     1.7541     0.0000
38 1     5.2623     0.0000     1.7541
39 1     3.5082     1.7541     1.7541
40 1     3.5082     0.0000     3.5082
41 1     5.2623     1.7541     3.5082
42 1     5.2623     0.0000     5.2623
43 1     3.5082     1.7541     5.2623
44 1     3.5082     0.0000     7.0164
45 1     5.2623     1.7541     7.0164
46 1     5.2623     0.0000     8.7705
47 1     3.5082     1.7541     8.7705
48 1     3.5082     3.5082     0.0000
49 1     5.2623     5.2623     0.0000
50 1     5.2623     3.5082     1.7541
51 1     3.5082     5.2623     1.7541
52 1     3.5082     3.5082     3.5082
53 1     5.2623     5.2623     3.5082
54 1     5.2623     3.5082     5.2623
55 1     3.5082     5.2623     5.2623
56 1     3.5082     3.5082     7.0164
57 1     5.2623     5.2623     7.0164
58 1     5.2623     3.5082     8.7705
59 1     3.5082     5.2623     8.7705
60 1     3.5082     7.0164     0.0000
61 1     5.2623     8.7705     0.0000
62 1     5.2623     7.0164     1.7541
63 1     3.5082     8.7705     1.7541
64 1     3.5082     7.0164     3.5082
65 1     5.2623     8.7705     3.5082
66 1     5.2623     7.0164     5.2623
67 1     3.5082     8.7705     5.2623
68 1     3.5082     7.0164     7.0164
69 1     5.2623     8.7705     7.0164
70 1     5.2623     7.0164     8.7705
71 1     3.5082     8.7705     8.7705
72 1     7.0164     0.0000     0.0000
73 1     8.7705     1.7541     0.0000
74 1     8.7705     0.0000     1.7541
75 1     7.0164     1.7541     1.7541
76 1     7.0164     0.0000     3.5082
77 1     8.7705     1.7541     3.5082
78 1     8.7705     0.0000     5.2623
79 1     7.0164     1.7541     5.2623
80 1     7.0164     0.0000     7.0164
81 1     8.7705     1.7541     7.0164
82 1     8.7705     0.0000     8.7705
83 1     7.0164     1.7541     8.7705
84 1     7.0164     3.5082     0.0000
85 1     8.7705     5.2623     0.0000
86 1     8.7705     3.5082     1.7541
87 1     7.0164     5.2623     1.7541
88 1     7.0164     3.5082     3.5082
89 1     8.7705     5.2623     3.5082
90 1     8.7705     3.5082     5.2623
91 1     7.0164     5.2623     5.2623
92 1     7.0164     3.5082     7.0164
93 1     8.7705     5.2623     7.0164
94 1     8.7705     3.5082     8.7705
95 1     7.0164     5.2623     8.7705
96 1     7.0164     7.0164     0.0000
97 1     8.7705     8.7705     0.0000
98 1     8.7705     7.0164     1.7541
99 1     7.0164     8.7705     1.7541
100 1     7.0164     7.0164     3.5082
101 1     8.7705     8.7705     3.5082
102 1     8.7705     7.0164     5.2623
103 1     7.0164     8.7705     5.2623
104 1     7.0164     7.0164     7.0164
105 1     8.7705     8.7705     7.0164
106 1     8.7705     7.0164     8.7705
107 1     7.0164     8.7705     8.7705
