# ['Al']

18 atoms
1 atom types

    0.0000     2.6401 xlo xhi
    0.0000     4.5727 ylo yhi
    0.0000    38.7945 zlo zhi

    0.0000     0.0000    -0.0004 xy xz yz

Atoms

1 1     0.0000     0.0000     0.0000
2 1     1.3200     0.7621     2.1553
3 1     0.0000     1.5242     4.3105
4 1     1.3200     2.2864     0.0000
5 1     0.0000     3.0485     2.1553
6 1     1.3200     3.8106     4.3105
7 1     0.0000     0.0000     6.4658
8 1     1.3200     0.7621     8.6210
9 1     0.0000     1.5242    10.7762
10 1     1.3200     2.2864     6.4658
11 1     0.0000     3.0485     8.6210
12 1     1.3200     3.8106    10.7762
13 1     0.0000     0.0000    12.9315
14 1     1.3200     0.7621    15.0867
15 1     0.0000     1.5242    17.2420
16 1     1.3200     2.2864    12.9315
17 1     0.0000     3.0485    15.0867
18 1     1.3200     3.8106    17.2420
