# ['Ni']

107 atoms
1 atom types

    0.0000     9.3094 xlo xhi
    0.0000     9.3094 ylo yhi
    0.0000     9.3094 zlo zhi

    0.0000    -0.0000    -0.0000 xy xz yz

Atoms

1 1     1.5516     1.5516     0.0000
2 1     1.5516     0.0000     1.5516
3 1     0.0000     1.5516     1.5516
4 1     0.0000     0.0000     3.1031
5 1     1.5516     1.5516     3.1031
6 1     1.5516     0.0000     4.6547
7 1     0.0000     1.5516     4.6547
8 1     0.0000     0.0000     6.2062
9 1     1.5516     1.5516     6.2062
10 1     1.5516     0.0000     7.7578
11 1     0.0000     1.5516     7.7578
12 1     0.0000     3.1031     0.0000
13 1     1.5516     4.6547     0.0000
14 1     1.5516     3.1031     1.5516
15 1     0.0000     4.6547     1.5516
16 1     0.0000     3.1031     3.1031
17 1     1.5516     4.6547     3.1031
18 1     1.5516     3.1031     4.6547
19 1     0.0000     4.6547     4.6547
20 1     0.0000     3.1031     6.2062
21 1     1.5516     4.6547     6.2062
22 1     1.5516     3.1031     7.7578
23 1     0.0000     4.6547     7.7578
24 1     0.0000     6.2062     0.0000
25 1     1.5516     7.7578     0.0000
26 1     1.5516     6.2062     1.5516
27 1     0.0000     7.7578     1.5516
28 1     0.0000     6.2062     3.1031
29 1     1.5516     7.7578     3.1031
30 1     1.5516     6.2062     4.6547
31 1     0.0000     7.7578     4.6547
32 1     0.0000     6.2062     6.2062
33 1     1.5516     7.7578     6.2062
34 1     1.5516     6.2062     7.7578
35 1     0.0000     7.7578     7.7578
36 1     3.1031     0.0000     0.0000
37 1     4.6547     1.5516     0.0000
38 1     4.6547     0.0000     1.5516
39 1     3.1031     1.5516     1.5516
40 1     3.1031     0.0000     3.1031
41 1     4.6547     1.5516     3.1031
42 1     4.6547     0.0000     4.6547
43 1     3.1031     1.5516     4.6547
44 1     3.1031     0.0000     6.2062
45 1     4.6547     1.5516     6.2062
46 1     4.6547     0.0000     7.7578
47 1     3.1031     1.5516     7.7578
48 1     3.1031     3.1031     0.0000
49 1     4.6547     4.6547     0.0000
50 1     4.6547     3.1031     1.5516
51 1     3.1031     4.6547     1.5516
52 1     3.1031     3.1031     3.1031
53 1     4.6547     4.6547     3.1031
54 1     4.6547     3.1031     4.6547
55 1     3.1031     4.6547     4.6547
56 1     3.1031     3.1031     6.2062
57 1     4.6547     4.6547     6.2062
58 1     4.6547     3.1031     7.7578
59 1     3.1031     4.6547     7.7578
60 1     3.1031     6.2062     0.0000
61 1     4.6547     7.7578     0.0000
62 1     4.6547     6.2062     1.5516
63 1     3.1031     7.7578     1.5516
64 1     3.1031     6.2062     3.1031
65 1     4.6547     7.7578     3.1031
66 1     4.6547     6.2062     4.6547
67 1     3.1031     7.7578     4.6547
68 1     3.1031     6.2062     6.2062
69 1     4.6547     7.7578     6.2062
70 1     4.6547     6.2062     7.7578
71 1     3.1031     7.7578     7.7578
72 1     6.2062     0.0000     0.0000
73 1     7.7578     1.5516     0.0000
74 1     7.7578     0.0000     1.5516
75 1     6.2062     1.5516     1.5516
76 1     6.2062     0.0000     3.1031
77 1     7.7578     1.5516     3.1031
78 1     7.7578     0.0000     4.6547
79 1     6.2062     1.5516     4.6547
80 1     6.2062     0.0000     6.2062
81 1     7.7578     1.5516     6.2062
82 1     7.7578     0.0000     7.7578
83 1     6.2062     1.5516     7.7578
84 1     6.2062     3.1031     0.0000
85 1     7.7578     4.6547     0.0000
86 1     7.7578     3.1031     1.5516
87 1     6.2062     4.6547     1.5516
88 1     6.2062     3.1031     3.1031
89 1     7.7578     4.6547     3.1031
90 1     7.7578     3.1031     4.6547
91 1     6.2062     4.6547     4.6547
92 1     6.2062     3.1031     6.2062
93 1     7.7578     4.6547     6.2062
94 1     7.7578     3.1031     7.7578
95 1     6.2062     4.6547     7.7578
96 1     6.2062     6.2062     0.0000
97 1     7.7578     7.7578     0.0000
98 1     7.7578     6.2062     1.5516
99 1     6.2062     7.7578     1.5516
100 1     6.2062     6.2062     3.1031
101 1     7.7578     7.7578     3.1031
102 1     7.7578     6.2062     4.6547
103 1     6.2062     7.7578     4.6547
104 1     6.2062     6.2062     6.2062
105 1     7.7578     7.7578     6.2062
106 1     7.7578     6.2062     7.7578
107 1     6.2062     7.7578     7.7578
