# ['Ni']

18 atoms
1 atom types

    0.0000     2.1942 xlo xhi
    0.0000     3.8006 ylo yhi
    0.0000    32.2434 zlo zhi

    0.0000     0.0000    -0.0003 xy xz yz

Atoms

1 1     0.0000     0.0000     0.0000
2 1     1.0971     0.6334     1.7913
3 1     0.0000     1.2669     3.5826
4 1     1.0971     1.9003     0.0000
5 1     0.0000     2.5337     1.7913
6 1     1.0971     3.1671     3.5826
7 1     0.0000     0.0000     5.3739
8 1     1.0971     0.6334     7.1652
9 1     0.0000     1.2669     8.9565
10 1     1.0971     1.9003     5.3739
11 1     0.0000     2.5337     7.1652
12 1     1.0971     3.1671     8.9565
13 1     0.0000     0.0000    10.7478
14 1     1.0971     0.6334    12.5391
15 1     0.0000     1.2669    14.3304
16 1     1.0971     1.9003    10.7478
17 1     0.0000     2.5337    12.5391
18 1     1.0971     3.1671    14.3304
