# ['Ni']

10 atoms
1 atom types

    0.0000     3.3280 xlo xhi
    0.0000     2.3823 ylo yhi
    0.0000    23.8232 zlo zhi

    0.0000     0.0000     0.0000 xy xz yz

Atoms

1 1     0.0000     0.0000     0.0000
2 1     1.6640     1.1912     1.1912
3 1     0.0000     0.0000     2.3823
4 1     1.6640     1.1912     3.5735
5 1     0.0000     0.0000     4.7646
6 1     1.6640     1.1912     5.9558
7 1     0.0000     0.0000     7.1470
8 1     1.6640     1.1912     8.3381
9 1     0.0000     0.0000     9.5293
10 1     1.6640     1.1912    10.7204
