LAMMPS (11 Aug 2017)
Reading data file ...
  triclinic box = (0 0 0) to (3.6 6.2354 5.8788) with tilt (0 0 0)
  1 by 1 by 1 MPI processor grid
  reading atoms ...
  4 atoms
4 atoms in group Ni
Neighbor list info ...
  update every 1 steps, delay 0 steps, check yes
  max neighbors/atom: 2000, page size: 100000
  master list distance cutoff = 5.64464
  ghost atom cutoff = 5.64464
  binsize = 2.82232, bins = 2 3 3
  1 neighbor lists, perpetual/occasional/extra = 1 0 0
  (1) pair eam/alloy, perpetual
      attributes: half, newton on
      pair build: half/bin/newton/tri
      stencil: half/bin/3d/newton/tri
      bin: standard
Setting up cg style minimization ...
  Unit style    : metal
  Current step  : 0
WARNING: Energy due to 3 extra global DOFs will be included in minimizer energies
Per MPI rank memory allocation (min/avg/max) = 4.194 | 4.194 | 4.194 Mbytes
Step PotEng Xhi Xlo Yhi Ylo Zhi Xy Xz Yz Press Pxx Pyy Pzz Pxy Pxz Pyz c_eatoms 
       0   -7.3338597          3.6            0       6.2354            0       5.8788            0            0            0   -125889.72   -125890.61   -125889.17   -125889.39 2.0218845e-12 1.347923e-12 5.391692e-12   -7.3338597 
      10   -7.6472736        3.582        0.018    6.2042234  0.031176648    5.8494063            0            0            0   -130386.53   -130387.41   -130385.97    -130386.2 -1.9426854e-12 9.8870747e-12 -1.3891828e-11   -7.6472736 
      20   -7.9654032        3.564        0.036    6.1730467  0.062353304    5.8200126            0            0            0   -135053.95   -135054.83   -135053.39   -135053.63 -5.8292734e-12 1.1009607e-11 -8.5928637e-12   -7.9654032 
      30   -8.2882724        3.546        0.054      6.14187  0.093529966    5.7906188            0            0            0   -139894.92    -139895.8   -139894.35    -139894.6 2.9837893e-11 -3.4614725e-12 -2.9537899e-12   -8.2882724 
      40   -8.6158926        3.528        0.072    6.1106934   0.12470664    5.7612251            0            0            0   -144911.32    -144912.2   -144910.75   -144911.01 -5.9512892e-12 2.1424641e-12 3.0470601e-12   -8.6158926 
      50   -8.9482604         3.51         0.09    6.0795167   0.15588331    5.7318313            0            0            0   -150103.67   -150104.55    -150103.1   -150103.37 -1.3658048e-11 4.7164482e-12 -2.2010092e-11   -8.9482604 
      60   -9.2853542        3.492        0.108      6.04834      0.18706    5.7024376            0            0            0   -155470.76   -155471.63   -155470.18   -155470.47 -9.0271571e-12 -6.3900101e-12            0   -9.2853542 
      70   -9.6271306        3.474        0.126    6.0171633   0.21823669    5.6730438            0            0            0   -161009.15   -161010.01   -161008.57   -161008.87 9.9499117e-12 -1.0473591e-12            0   -9.6271306 
      80   -9.9735199        3.456        0.144    5.9859866   0.24941339      5.64365            0            0            0    -166712.6   -166713.46   -166712.02   -166712.34 4.327538e-13 4.4357264e-12 1.0386091e-11   -9.9735199 
      90   -10.324507        3.438        0.162    5.9548099   0.28059012    5.6142562            0            0            0   -172975.46   -172975.92   -172975.25   -172975.21 -8.321697e-12 -9.7680373e-12 -1.1899118e-11   -10.324507 
     100    -10.68257         3.42         0.18     5.923633   0.31176698    5.5848624            0            0            0   -180928.07   -180928.48   -180927.88   -180927.84 -8.3782772e-13 -1.0082823e-11 3.6113264e-12    -10.68257 
     110   -11.048629        3.402        0.198    5.8924562   0.34294385    5.5554685            0            0            0   -189004.49   -189004.85   -189004.33   -189004.29 1.798501e-11 9.5302626e-12 4.9354212e-11   -11.048629 
     120   -11.422289        3.384        0.216    5.8612793   0.37412073    5.5260746            0            0            0    -197186.7      -197187   -197186.57   -197186.54 7.4173262e-13 7.2937041e-12 1.1805911e-11   -11.422289 
     130   -11.803112        3.366        0.234    5.8301024   0.40529764    5.4966807            0            0            0    -205448.3   -205448.52    -205448.2   -205448.17 -9.9788605e-12 9.1472888e-12 1.432862e-11   -11.803112 
     140   -12.190601        3.348        0.252    5.7989254   0.43647456    5.4672868            0            0            0   -213752.53   -213752.67   -213752.47   -213752.44 -2.0397147e-11 -7.2846955e-12 -9.4038797e-12   -12.190601 
     150   -12.584185         3.33         0.27    5.7677485    0.4676515    5.4378928            0            0            0   -222049.94   -222049.98   -222049.93    -222049.9 3.2922932e-12 4.2525454e-12 -1.0699953e-11   -12.584185 
     160   -12.983203        3.312        0.288    5.7365715   0.49882846    5.4084988            0            0            0   -230275.44   -230275.37   -230275.49   -230275.46 -1.8193495e-11 -7.6753805e-12 3.6529126e-11   -12.983203 
     170   -13.386884        3.294        0.306    5.7053946   0.53000545    5.3791049            0            0            0   -238344.79    -238344.6   -238344.91   -238344.88 2.5341841e-11 2.9467257e-13 -5.6135125e-11   -13.386884 
     180    -13.79432        3.276   0.32399999    5.6742176   0.56118244    5.3497109            0            0            0   -246150.18   -246149.83   -246150.36   -246150.34 -1.680719e-11 1.161224e-11 4.6754546e-11    -13.79432 
     190   -14.204444        3.258   0.34199997    5.6430406   0.59235944    5.3203169            0            0            0   -253554.88   -253554.37   -253555.15   -253555.12 3.0753223e-11 4.4386094e-12 -7.6090448e-12   -14.204444 
     200    -14.61599    3.2400001   0.35999993    5.6118636   0.62353644    5.2909229            0            0            0   -260386.74   -260386.03   -260387.11   -260387.08 -3.9489825e-12 -4.6071463e-12 3.7844416e-11    -14.61599 
     210   -15.027462    3.2220001   0.37799987    5.5806866   0.65471343    5.2615289            0            0            0   -266429.93   -266429.18    -266430.6   -266430.01 7.5182247e-12 1.2986024e-11 9.0218696e-11   -15.027462 
     220   -15.436625    3.2040687    0.3959313    5.5496282   0.68577181    5.2321349            0            0            0   -272175.03   -271396.19   -271397.99   -273730.91 6.7453001e-12 9.9404422e-12 4.3666943e-11   -15.436625 
     230   -15.840685    3.1862938    0.4137062    5.5188409   0.71655911    5.2027409            0            0            0   -276550.52   -274953.26    -274955.5    -279742.8 5.1647079e-12 -1.1805047e-11 3.4308416e-11   -15.840685 
     240   -16.237241    3.1686776   0.43132241    5.4883284    0.7470716    5.1733469            0            0            0   -279173.88   -276733.93   -276736.67   -284051.03 -9.2026812e-12 3.6043835e-11 -3.566039e-11   -16.237241 
     250    -16.62353    3.1512238   0.44877619    5.4580972   0.77730281    5.1439529            0            0            0   -279595.06    -276298.1   -276301.39   -286185.69 1.5946421e-12 5.1825869e-12 -4.6643282e-11    -16.62353 
     260   -16.997421    3.1339161    0.4660839     5.428119   0.80728101    5.1145589            0            0            0   -280183.94    -276830.7   -276832.32   -286888.81 1.2107646e-11 -1.5579929e-11 -3.7508437e-11   -16.997421 
     270   -17.366273    3.1164685   0.48353154    5.3978985   0.83750147    5.0851649            0            0            0   -282016.99   -279952.69   -279955.02   -286143.26 2.1210656e-11 3.8483925e-11 4.7626217e-11   -17.366273 
     280    -17.72839    3.0987779   0.50122208    5.3672573   0.86814272    5.0557709            0            0            0   -279714.71   -279046.72   -279049.87   -281047.54 -4.0116692e-11 4.0566179e-11 2.0648297e-11    -17.72839 
     290   -18.077696    3.0808362   0.51916382    5.3361808   0.89921919    5.0264082            0            0            0   -272060.13   -272880.85   -272884.94   -270414.61 -1.4001518e-11 -3.2806903e-12 -9.3411799e-11   -18.077696 
     300   -18.403217    3.0628365   0.53716352    5.3050038   0.93039619    4.9974521            0            0            0   -257721.48   -260072.33   -260077.46   -253014.64 -4.5101854e-11 -2.7134449e-11 -5.6224534e-11   -18.403217 
     310      -18.696    3.0448369   0.55516312    5.2738268   0.96157319    4.9690754            0            0            0   -235183.51   -239035.12   -239041.33   -227474.07 8.0354063e-12 -7.1936018e-11 7.3530345e-11      -18.696 
     320   -18.947178    3.0268374   0.57316258    5.2426498   0.99275019    4.9414069            0            0            0   -202655.63   -207861.25   -207868.52   -192237.12 -1.3313105e-13 5.8577663e-11 -5.0856062e-11   -18.947178 
     330    -19.14692    3.0088382   0.59116184    5.2114728    1.0239272    4.9146674            0            0            0   -159163.63   -164741.22   -164749.28    -148000.4 -5.7816304e-11 -4.5030006e-11 2.960306e-11    -19.14692 
     340   -19.289602    2.9908393   0.60916074    5.1802958    1.0551042    4.8880172            0            0            0   -105270.43   -108056.59   -108064.92   -99689.783 3.2228477e-11 2.5550504e-11 -1.0307306e-10   -19.289602 
     350     -19.3635    2.9728413   0.62715867    5.1491188    1.0862812    4.8602005            0            0            0   -31782.901    -31616.66   -31623.238   -32108.806 -1.0111925e-10 -2.0648977e-11 2.5203898e-11     -19.3635 
     360   -19.369488    2.9669802    0.6330198    5.1389689    1.0964311    4.8481568            0            0            0  -0.01117329 -0.0050476088 0.0014250126 -0.029897274 6.1730878e-12 -1.7901955e-11 -1.2500503e-11   -19.369488 
     370   -19.369488    2.9669802   0.63301984    5.1389689    1.0964311    4.8481567            0            0            0 6.6682209e-09 -7.0422586e-08 -1.3798009e-07 2.2840734e-07 1.543272e-12 2.9630821e-11 -5.3088555e-11   -19.369488 
     376   -19.369488    2.9669802   0.63301984    5.1389689    1.0964311    4.8481567            0            0            0 -2.2699987e-09 -2.8927089e-09 -1.9919011e-09 -1.9253861e-09 -3.8581799e-11 4.2594306e-11 1.9445227e-11   -19.369488 
Loop time of 0.0108099 on 1 procs for 376 steps with 4 atoms

46.2% CPU use with 1 MPI tasks x no OpenMP threads

Minimization stats:
  Stopping criterion = energy tolerance
  Energy initial, next-to-last, final = 
        -7.33385965962     -19.3694878182     -19.3694878182
  Force two-norm initial, final = 17.9596 1.40583e-13
  Force max component initial, final = 10.369 1.00307e-13
  Final line search alpha, max atom move = 1 1.00307e-13
  Iterations, force evaluations = 376 399

MPI task timing breakdown:
Section |  min time  |  avg time  |  max time  |%varavg| %total
---------------------------------------------------------------
Pair    | 0.0022883  | 0.0022883  | 0.0022883  |   0.0 | 21.17
Neigh   | 9.3937e-05 | 9.3937e-05 | 9.3937e-05 |   0.0 |  0.87
Comm    | 0.00050354 | 0.00050354 | 0.00050354 |   0.0 |  4.66
Output  | 0.0064127  | 0.0064127  | 0.0064127  |   0.0 | 59.32
Modify  | 0          | 0          | 0          |   0.0 |  0.00
Other   |            | 0.001511   |            |       | 13.98

Nlocal:    4 ave 4 max 4 min
Histogram: 1 0 0 0 0 0 0 0 0 0
Nghost:    284 ave 284 max 284 min
Histogram: 1 0 0 0 0 0 0 0 0 0
Neighs:    136 ave 136 max 136 min
Histogram: 1 0 0 0 0 0 0 0 0 0

Total # of neighbors = 136
Ave neighs/atom = 34
Neighbor list builds = 6
Dangerous builds = 0
pypospack:output_section:begin
tot_energy = -19.3694878181809
num_atoms = 4
a11 = 2.33396032918601
a22 = 4.04253787300035
a33 = 3.81751347599326
a12 = 0
a13 = 0
a23 = 0
tot_press = -2.26999871183354e-09
pxx = -2.89270894381724e-09
pyy = -1.99190110637266e-09
pzz = -1.92538608531071e-09
pxy = -3.8581798759833e-11
pxz = 4.25943058308557e-11
pyz = 1.94452265749558e-11
pypospack:output_section:done
pypospack:lammps_sim:done
Total wall time: 0:00:00
