LAMMPS (11 Aug 2017)
# ---- initialize simulations
clear
units metal
dimension 3
boundary p p p
atom_style atomic
atom_modify map array
# ---- create atoms
read_data /home/sullberg/repos/pypospack/examples/Ni__eam__born_exp_rose/01_preconditioning_3.5NN/rank_51/Ni_fcc_110_s.lmps_min_pos/lammps.structure
  triclinic box = (0 0 0) to (3.5087 2.5117 25.1166) with tilt (0 0 0)
  1 by 1 by 1 MPI processor grid
  reading atoms ...
  10 atoms
# ---- define interatomic potential
include potential.mod
mass 1 58.6934

group Ni type 1
10 atoms in group Ni

pair_style eam/alloy
pair_coeff * * /home/sullberg/repos/pypospack/examples/Ni__eam__born_exp_rose/01_preconditioning_3.5NN/rank_51/Ni_fcc_110_s.lmps_min_pos/Ni.eam.alloy Ni

neighbor 1.0 bin
neigh_modify every 1 delay 0 check yes
# ---- define settings
compute eng all pe/atom
compute eatoms all reduce sum c_eng

# ---- run minimization
reset_timestep 0
thermo 1
thermo_style custom step pe lx ly lz xy xz yz press pxx pyy pzz pxy pxz pyz c_eatoms
min_style cg
minimize 1e-20 1e-20 1000 100000
Neighbor list info ...
  update every 1 steps, delay 0 steps, check yes
  max neighbors/atom: 2000, page size: 100000
  master list distance cutoff = 11
  ghost atom cutoff = 11
  binsize = 5.5, bins = 1 1 5
  1 neighbor lists, perpetual/occasional/extra = 1 0 0
  (1) pair eam/alloy, perpetual
      attributes: half, newton on
      pair build: half/bin/newton/tri
      stencil: half/bin/3d/newton/tri
      bin: standard
Per MPI rank memory allocation (min/avg/max) = 4.341 | 4.341 | 4.341 Mbytes
Step PotEng Lx Ly Lz Xy Xz Yz Press Pxx Pyy Pzz Pxy Pxz Pyz c_eatoms 
       0   -41.878666       3.5087       2.5117      25.1166            0            0            0   -36801.789    -45240.84   -40792.076   -24372.452 0.0008831563    1.1914981   0.50751072   -41.878666 
       1   -41.906046       3.5087       2.5117      25.1166            0            0            0   -29733.143   -37620.481   -35205.426   -16373.523 9.5110857e-05   -0.6167204   0.19830562   -41.906046 
       2   -41.917447       3.5087       2.5117      25.1166            0            0            0    -25048.63   -32923.022   -31927.807   -10295.061 -0.0013107892    3.7254113 -0.082022872   -41.917447 
       3   -41.928278       3.5087       2.5117      25.1166            0            0            0   -19394.201   -27616.522   -28173.747   -2392.3342 0.00057389354   -4.2535883 -0.099112414   -41.928278 
       4    -41.92931       3.5087       2.5117      25.1166            0            0            0   -18676.483   -27008.423   -27723.253   -1297.7729 6.6255057e-05    3.8006319 0.0093494269    -41.92931 
       5   -41.929388       3.5087       2.5117      25.1166            0            0            0    -18338.99   -26727.954   -27516.373   -772.64238 -0.00012732677   -3.9800188  0.052176429   -41.929388 
       6    -41.92942       3.5087       2.5117      25.1166            0            0            0   -18080.878   -26488.688    -27347.69   -406.25752 -1.3366842e-05    5.0415298  0.073925836    -41.92942 
       7   -41.929443       3.5087       2.5117      25.1166            0            0            0   -17867.929   -26268.488   -27196.152   -139.14625 2.5499912e-05  -0.58279225  0.078050996   -41.929443 
       8   -41.929446       3.5087       2.5117      25.1166            0            0            0   -17811.388     -26209.1   -27153.099   -71.964679 4.1590111e-07   0.15337034  0.069004983   -41.929446 
       9   -41.929446       3.5087       2.5117      25.1166            0            0            0   -17791.599   -26192.458   -27141.006     -41.3317 3.9637366e-07    0.2757864  0.058757986   -41.929446 
      10   -41.929446       3.5087       2.5117      25.1166            0            0            0   -17784.867   -26187.652   -27137.811   -29.137301 -2.676879e-07  -0.14238106  0.051126311   -41.929446 
      11   -41.929446       3.5087       2.5117      25.1166            0            0            0   -17777.736   -26180.887    -27133.21   -19.112083 2.8121518e-07   0.21336049  0.045601752   -41.929446 
      12   -41.929446       3.5087       2.5117      25.1166            0            0            0   -17768.367   -26171.033   -27126.248   -7.8199092 1.4183168e-07   0.03395019  0.042971907   -41.929446 
      13   -41.929446       3.5087       2.5117      25.1166            0            0            0   -17764.101   -26166.968   -27123.303   -2.0313879 1.2819419e-07  0.046836803  0.042804736   -41.929446 
      14   -41.929446       3.5087       2.5117      25.1166            0            0            0   -17763.966   -26166.974   -27123.324   -1.6015515 1.2137288e-07  0.071235571  0.042532858   -41.929446 
      15   -41.929446       3.5087       2.5117      25.1166            0            0            0    -17763.83   -26166.873   -27123.262   -1.3536965 1.2329164e-07  0.050954961  0.042030038   -41.929446 
      16   -41.929446       3.5087       2.5117      25.1166            0            0            0   -17763.403    -26166.44   -27122.956  -0.81296131 1.1369262e-07  0.059380196    0.0409402   -41.929446 
      17   -41.929446       3.5087       2.5117      25.1166            0            0            0    -17762.88   -26165.931   -27122.592  -0.11658948 9.8812163e-08  0.052059968    0.0393695   -41.929446 
      18   -41.929446       3.5087       2.5117      25.1166            0            0            0   -17762.863   -26165.919   -27122.587 -0.080969633 9.1588465e-08  0.046943739  0.038649245   -41.929446 
      19   -41.929446       3.5087       2.5117      25.1166            0            0            0   -17762.858   -26165.916   -27122.585 -0.072698123 8.6547316e-08  0.045945082  0.038188918   -41.929446 
      20   -41.929446       3.5087       2.5117      25.1166            0            0            0    -17762.84     -26165.9   -27122.574 -0.047146647 7.9059724e-08  0.040942858  0.037386472   -41.929446 
      21   -41.929446       3.5087       2.5117      25.1166            0            0            0    -17762.81   -26165.872   -27122.554 -0.002568462 6.591218e-08  0.034586522  0.035944627   -41.929446 
      22   -41.929446       3.5087       2.5117      25.1166            0            0            0   -17762.785   -26165.847   -27122.537  0.028007429 4.7555959e-08  0.025215694  0.033789162   -41.929446 
      23   -41.929446       3.5087       2.5117      25.1166            0            0            0   -17762.782   -26165.843   -27122.534  0.031336818 3.8101932e-08  0.020647753  0.032649934   -41.929446 
      24   -41.929446       3.5087       2.5117      25.1166            0            0            0    -17762.78   -26165.842   -27122.533  0.035681035 1.6245088e-08  0.011502839  0.029822858   -41.929446 
      25   -41.929446       3.5087       2.5117      25.1166            0            0            0   -17762.782   -26165.846   -27122.536  0.035601938 -9.680627e-09 -0.0039968124  0.025721937   -41.929446 
      26   -41.929446       3.5087       2.5117      25.1166            0            0            0   -17762.797    -26165.86   -27122.546  0.013725849 -2.4778095e-08 -0.016427515  0.022111655   -41.929446 
      27   -41.929446       3.5087       2.5117      25.1166            0            0            0   -17762.801   -26165.862   -27122.547 0.0046227212 -2.7256214e-08  -0.02150572  0.020521061   -41.929446 
      28   -41.929446       3.5087       2.5117      25.1166            0            0            0   -17762.805   -26165.865   -27122.549 0.00048359344 -2.5729637e-08 -0.025289371  0.018996279   -41.929446 
      29   -41.929446       3.5087       2.5117      25.1166            0            0            0   -17762.813   -26165.874   -27122.556 -0.0083953309 -2.2930587e-08 -0.025933493  0.017432807   -41.929446 
      30   -41.929446       3.5087       2.5117      25.1166            0            0            0   -17762.813   -26165.874   -27122.556 -0.010211685 -2.227772e-08 -0.025105451  0.017409422   -41.929446 
      31   -41.929446       3.5087       2.5117      25.1166            0            0            0   -17762.813   -26165.873   -27122.555 -0.010071517 -2.0313834e-08 -0.021274614   0.01731676   -41.929446 
      32   -41.929446       3.5087       2.5117      25.1166            0            0            0   -17762.801   -26165.862   -27122.548 0.0062323706 -1.2202177e-08  -0.01001745  0.016821817   -41.929446 
      33   -41.929446       3.5087       2.5117      25.1166            0            0            0   -17762.794   -26165.856   -27122.543  0.016158532 -5.6133841e-09 -0.0035861843  0.016100659   -41.929446 
      34   -41.929446       3.5087       2.5117      25.1166            0            0            0   -17762.795   -26165.857   -27122.544  0.016261558 1.6497452e-09 0.0027922881  0.014693203   -41.929446 
      35   -41.929446       3.5087       2.5117      25.1166            0            0            0   -17762.795   -26165.857   -27122.544  0.015387083 4.3324307e-09 0.0055612288  0.013694986   -41.929446 
      36   -41.929446       3.5087       2.5117      25.1166            0            0            0   -17762.798   -26165.859   -27122.545 0.0093788566 5.5085292e-09 0.0076100331  0.012584916   -41.929446 
      37   -41.929446       3.5087       2.5117      25.1166            0            0            0   -17762.806   -26165.866    -27122.55 -0.0015611673 6.0346518e-09 0.0099647703  0.011242249   -41.929446 
      38   -41.929446       3.5087       2.5117      25.1166            0            0            0   -17762.817   -26165.877   -27122.558 -0.014633633 5.9748332e-09  0.012167032 0.0095775534   -41.929446 
      39   -41.929446       3.5087       2.5117      25.1166            0            0            0   -17762.817   -26165.877   -27122.558 -0.014633633 5.9748332e-09  0.012167032 0.0095775534   -41.929446 
Loop time of 0.0106161 on 1 procs for 39 steps with 10 atoms

98.1% CPU use with 1 MPI tasks x no OpenMP threads

Minimization stats:
  Stopping criterion = linesearch alpha is zero
  Energy initial, next-to-last, final = 
        -41.8786655434     -41.9294462872     -41.9294462872
  Force two-norm initial, final = 0.512557 2.80992e-07
  Force max component initial, final = 0.357611 1.12802e-07
  Final line search alpha, max atom move = 0.5 5.64008e-08
  Iterations, force evaluations = 39 78

MPI task timing breakdown:
Section |  min time  |  avg time  |  max time  |%varavg| %total
---------------------------------------------------------------
Pair    | 0.0094397  | 0.0094397  | 0.0094397  |   0.0 | 88.92
Neigh   | 0          | 0          | 0          |   0.0 |  0.00
Comm    | 0.00049591 | 0.00049591 | 0.00049591 |   0.0 |  4.67
Output  | 0.00051236 | 0.00051236 | 0.00051236 |   0.0 |  4.83
Modify  | 0          | 0          | 0          |   0.0 |  0.00
Other   |            | 0.0001681  |            |       |  1.58

Nlocal:    10 ave 10 max 10 min
Histogram: 1 0 0 0 0 0 0 0 0 0
Nghost:    1357 ave 1357 max 1357 min
Histogram: 1 0 0 0 0 0 0 0 0 0
Neighs:    1766 ave 1766 max 1766 min
Histogram: 1 0 0 0 0 0 0 0 0 0

Total # of neighbors = 1766
Ave neighs/atom = 176.6
Neighbor list builds = 0
Dangerous builds = 0

# ---- define output variables ----
variable natoms equal "count(all)"
variable tot_energy equal "c_eatoms"
variable a11 equal "xhi-xlo"
variable a22 equal "yhi-ylo"
variable a33 equal "zhi-zlo"
variable tilt_xy equal "xy"
variable tilt_xz equal "xz"
variable tilt_yz equal "yz"
variable tot_press equal "press"
variable press_xx equal "pxx"
variable press_yy equal "pyy"
variable press_zz equal "pzz"
variable press_xy equal "pxy"
variable press_xz equal "pxz"
variable press_yz equal "pyz"

# ---- output ----
print "pypospack:output_section:begin"
pypospack:output_section:begin
print "tot_energy = ${tot_energy}"
tot_energy = -41.9294462871917
print "num_atoms = ${natoms}"
num_atoms = 10
print "a11 = ${a11}"
a11 = 3.5087
print "a22 = ${a22}"
a22 = 2.5117
print "a33 = ${a33}"
a33 = 25.1166
print "a12 = ${tilt_xy}"
a12 = 0
print "a13 = ${tilt_xz}"
a13 = 0
print "a23 = ${tilt_yz}"
a23 = 0
print "tot_press = ${tot_press}"
tot_press = -17762.8167346054
print "pxx = ${press_xx}"
pxx = -26165.877424986
print "pyy = ${press_yy}"
pyy = -27122.5581451973
print "pzz = ${press_zz}"
pzz = -0.0146336327775357
print "pxy = ${press_xy}"
pxy = 5.97483324219954e-09
print "pxz = ${press_xz}"
pxz = 0.0121670317411561
print "pyz = ${press_yz}"
pyz = 0.00957755340529457
print "pypospack:output_section:done"
pypospack:output_section:done
print "pypospack:lammps_sim:done"
pypospack:lammps_sim:done
Total wall time: 0:00:00
