LAMMPS (11 Aug 2017)
include init.mod
# ---- init.mod file
variable up equal 1.0e-6
units metal
dimension 3
boundary p p p
atom_style atomic
atom_modify map array
variable cfac equal 1.0e-4
variable cunits string GPa
# ---- define minimization parameters
variable etol equal 0.0
variable ftol equal 1.0e-10
variable maxiter equal 100
variable maxeval equal 1000
variable dmax equal 1.0e-2
# --- read data structure
read_data lammps.structure
  triclinic box = (0 0 0) to (3.5167 3.5167 3.5167) with tilt (0 -0 0)
  1 by 1 by 1 MPI processor grid
  reading atoms ...
  4 atoms
include potential.mod
mass 1 58.6934

group Ni type 1
4 atoms in group Ni

pair_style eam/alloy
pair_coeff * * /ufrc/phillpot/eragasa/pareto_optimization_3.5NN/rank_4/Ni_fcc.lmps_elastic/Ni.eam.alloy Ni

neighbor 1.0 bin
neigh_modify every 1 delay 0 check yes
thermo	1
thermo_style custom step temp pe press pxx pyy pzz pxy pxz pyz lx ly lz vol
thermo_modify norm no
# ---- Compute initial state
fix 3 all box/relax aniso 0.0
minimize ${etol} ${ftol} ${maxiter} ${maxeval}
minimize 0 ${ftol} ${maxiter} ${maxeval}
minimize 0 1e-10 ${maxiter} ${maxeval}
minimize 0 1e-10 100 ${maxeval}
minimize 0 1e-10 100 1000
Neighbor list info ...
  update every 1 steps, delay 0 steps, check yes
  max neighbors/atom: 2000, page size: 100000
  master list distance cutoff = 5.64464
  ghost atom cutoff = 5.64464
  binsize = 2.82232, bins = 2 2 2
  1 neighbor lists, perpetual/occasional/extra = 1 0 0
  (1) pair eam/alloy, perpetual
      attributes: half, newton on
      pair build: half/bin/newton/tri
      stencil: half/bin/3d/newton/tri
      bin: standard
Per MPI rank memory allocation (min/avg/max) = 4.086 | 4.086 | 4.086 Mbytes
Step Temp PotEng Press Pxx Pyy Pzz Pxy Pxz Pyz Lx Ly Lz Volume 
       0            0   -19.318679   -330393.74   -330393.74   -330393.74   -330393.74 -2.4795129e-11 3.8342983e-13 -1.3420044e-11       3.5167       3.5167       3.5167    43.491658 
       1            0   -19.321369   -330138.72   -330138.72   -330138.72   -330138.72 -4.346842e-12 -4.0911454e-12 1.3040526e-11    3.5163483    3.5163483    3.5163483    43.478612 
       2            0   -19.324055   -329883.04   -329883.04   -329883.04   -329883.04 -2.5577332e-11 -4.0923731e-11 -2.7879292e-11    3.5159967    3.5159967    3.5159967    43.465568 
       3            0   -19.326739    -329626.7    -329626.7    -329626.7    -329626.7 -1.4839305e-11 -2.5073308e-11 -2.1747257e-11     3.515645     3.515645     3.515645    43.452527 
       4            0   -19.329421    -329369.7    -329369.7    -329369.7    -329369.7 -2.1113967e-11 -9.341331e-12 -8.7015138e-12    3.5152933    3.5152933    3.5152933    43.439489 
       5            0   -19.332099   -329112.02   -329112.02   -329112.02   -329112.02 1.7664255e-11 2.0480296e-11 3.3152479e-11    3.5149417    3.5149417    3.5149417    43.426453 
       6            0   -19.334776   -328853.68   -328853.68   -328853.68   -328853.68 -8.4506584e-12 -9.0908598e-12 3.4570875e-11      3.51459      3.51459      3.51459     43.41342 
       7            0   -19.337449   -328594.68   -328594.68   -328594.68   -328594.68 -2.6640374e-11 1.5113289e-11 -2.5615744e-12    3.5142383    3.5142383    3.5142383    43.400389 
       8            0    -19.34012      -328335      -328335      -328335      -328335 -3.9460091e-11 -1.2299249e-11 -1.3452304e-11    3.5138866    3.5138866    3.5138866    43.387362 
       9            0   -19.342788   -328074.65   -328074.65   -328074.65   -328074.65 -7.6893392e-12 -1.5891301e-11 -2.3196173e-11     3.513535     3.513535     3.513535    43.374336 
      10            0   -19.345454   -327813.64   -327813.64   -327813.64   -327813.64 -4.3201426e-11 -6.1148606e-11 -4.8200997e-11    3.5131833    3.5131833    3.5131833    43.361313 
      11            0   -19.348117   -327551.95   -327551.95   -327551.95   -327551.95 1.4490289e-11 3.244286e-11 2.5774762e-11    3.5128316    3.5128316    3.5128316    43.348293 
      12            0   -19.350777   -327289.59   -327289.59   -327289.59   -327289.59 -1.0005151e-11 2.2575725e-11  7.69627e-13      3.51248      3.51248      3.51248    43.335276 
      13            0   -19.353435   -327026.55   -327026.55   -327026.55   -327026.55 -1.0649705e-11 7.313653e-12 -1.1291254e-11    3.5121283    3.5121283    3.5121283    43.322261 
      14            0    -19.35609   -326762.84   -326762.84   -326762.84   -326762.84 -2.0664069e-11 2.1819203e-12 8.0859399e-12    3.5117766    3.5117766    3.5117766    43.309249 
      15            0   -19.358742   -326498.46   -326498.46   -326498.46   -326498.46 4.4550226e-11 -1.5791579e-11 2.0028344e-11     3.511425     3.511425     3.511425    43.296239 
      16            0   -19.361391   -326233.39   -326233.39   -326233.39   -326233.39 -2.401555e-11 1.6566877e-11 3.0822096e-12    3.5110733    3.5110733    3.5110733    43.283232 
      17            0   -19.364038   -325967.65   -325967.65   -325967.65   -325967.65 5.3954879e-12 -1.4387968e-11 -1.1304832e-11    3.5107216    3.5107216    3.5107216    43.270227 
      18            0   -19.366682   -325701.23   -325701.23   -325701.23   -325701.23 -1.4006784e-11 -2.3515978e-11 -4.3048374e-11    3.5103699    3.5103699    3.5103699    43.257226 
      19            0   -19.369324   -325434.13   -325434.13   -325434.13   -325434.13 -1.144017e-11 -2.5708248e-11 -2.0566598e-11    3.5100183    3.5100183    3.5100183    43.244226 
      20            0   -19.371963   -325166.35   -325166.35   -325166.35   -325166.35 -1.9286982e-11 -2.8544734e-11 1.5301006e-11    3.5096666    3.5096666    3.5096666     43.23123 
      21            0   -19.374599   -324897.89   -324897.89   -324897.89   -324897.89 1.2090143e-11 2.0193111e-11 -1.4148039e-12    3.5093149    3.5093149    3.5093149    43.218236 
      22            0   -19.377232   -324628.74   -324628.74   -324628.74   -324628.74 -6.561518e-12 1.2865721e-12 1.5052894e-11    3.5089633    3.5089633    3.5089633    43.205244 
      23            0   -19.379863   -324358.91   -324358.91   -324358.91   -324358.91 9.6521929e-12 2.0720041e-11 1.4671333e-11    3.5086116    3.5086116    3.5086116    43.192255 
      24            0   -19.382491   -324088.39   -324088.39   -324088.39   -324088.39 -4.0422668e-11 -5.0850171e-11 -6.2050082e-11    3.5082599    3.5082599    3.5082599    43.179269 
      25            0   -19.385116   -323817.19   -323817.19   -323817.19   -323817.19  3.47688e-11 3.8374453e-11 2.395184e-11    3.5079083    3.5079083    3.5079083    43.166285 
      26            0   -19.387739    -323545.3    -323545.3    -323545.3    -323545.3 2.2284488e-11 5.9124739e-11 1.9192998e-11    3.5075566    3.5075566    3.5075566    43.153304 
      27            0   -19.390358   -323272.72   -323272.72   -323272.72   -323272.72 -1.7008308e-11 5.6307808e-11 -2.1904639e-11    3.5072049    3.5072049    3.5072049    43.140326 
      28            0   -19.392975   -322999.45   -322999.45   -322999.45   -322999.45 -2.178234e-11 -1.2888959e-13 -5.0266939e-11    3.5068532    3.5068532    3.5068532     43.12735 
      29            0    -19.39559   -322725.49   -322725.49   -322725.49   -322725.49 1.6116046e-11 -1.81789e-11 -1.2892837e-13    3.5065016    3.5065016    3.5065016    43.114377 
      30            0   -19.398201   -322450.84   -322450.84   -322450.84   -322450.84 -9.8015049e-12 -1.9989911e-11 -1.186498e-11    3.5061499    3.5061499    3.5061499    43.101406 
      31            0    -19.40081   -322175.49   -322175.49   -322175.49   -322175.49 3.3670562e-11 4.0636885e-11 3.276752e-11    3.5057982    3.5057982    3.5057982    43.088438 
      32            0   -19.403416   -321899.46   -321899.46   -321899.46   -321899.46 5.4198822e-12 -2.438947e-11 -2.4002335e-11    3.5054466    3.5054466    3.5054466    43.075473 
      33            0   -19.406019   -321622.72   -321622.72   -321622.72   -321622.72 1.303745e-11 -1.3941035e-11 -1.8975298e-11    3.5050949    3.5050949    3.5050949     43.06251 
      34            0    -19.40862   -321345.29   -321345.29   -321345.29   -321345.29 -2.4533279e-12 -1.3041375e-11 -2.969818e-12    3.5047432    3.5047432    3.5047432     43.04955 
      35            0   -19.411218   -321067.17   -321067.17   -321067.17   -321067.17 -1.0332912e-11 1.4078592e-11 4.3914875e-12    3.5043916    3.5043916    3.5043916    43.036592 
      36            0   -19.413813   -320788.34   -320788.34   -320788.34   -320788.34 -4.2636096e-12 5.5556125e-12 -2.0672046e-12    3.5040399    3.5040399    3.5040399    43.023637 
      37            0   -19.416405   -320508.82   -320508.82   -320508.82   -320508.82 8.1420695e-12 1.447479e-11 4.0064151e-11    3.5036882    3.5036882    3.5036882    43.010685 
      38            0   -19.418994   -320228.59   -320228.59   -320228.59   -320228.59 8.6616341e-12 -1.0083693e-11 1.8616049e-11    3.5033365    3.5033365    3.5033365    42.997735 
      39            0   -19.421581   -319947.67   -319947.67   -319947.67   -319947.67 -1.4871462e-11 -2.638068e-11 -3.2587899e-11    3.5029849    3.5029849    3.5029849    42.984788 
      40            0   -19.424165   -319666.04   -319666.04   -319666.04   -319666.04 -1.2547533e-11 1.4229162e-12 2.3025371e-11    3.5026332    3.5026332    3.5026332    42.971843 
      41            0   -19.426746   -319383.71   -319383.71   -319383.71   -319383.71 1.9538643e-11 1.4233448e-12 3.3642696e-12    3.5022815    3.5022815    3.5022815    42.958901 
      42            0   -19.429324   -319100.67   -319100.67   -319100.67   -319100.67 -1.760302e-11 -2.5369059e-11 -1.5273209e-11    3.5019299    3.5019299    3.5019299    42.945961 
      43            0     -19.4319   -318816.93   -318816.93   -318816.93   -318816.93 5.9557568e-12 2.9649311e-11 6.0852298e-12    3.5015782    3.5015782    3.5015782    42.933025 
      44            0   -19.434472   -318532.48   -318532.48   -318532.48   -318532.48 1.2951199e-12 2.0074359e-11 -1.2951199e-12    3.5012265    3.5012265    3.5012265     42.92009 
      45            0   -19.437042   -318247.32   -318247.32   -318247.32   -318247.32 6.4775512e-13 2.396694e-11 6.4775512e-13    3.5008749    3.5008749    3.5008749    42.907159 
      46            0   -19.439609   -317961.46   -317961.46   -317961.46   -317961.46 6.4795037e-12 3.2138338e-11 6.3887906e-11    3.5005232    3.5005232    3.5005232     42.89423 
      47            0   -19.442173   -317674.88   -317674.88   -317674.88   -317674.88 3.0592477e-11 5.8333112e-11 4.5499827e-11    3.5001715    3.5001715    3.5001715    42.881303 
      48            0   -19.444734    -317387.6    -317387.6    -317387.6    -317387.6 -2.839734e-11 1.530085e-11 -2.0228242e-11    3.4998198    3.4998198    3.4998198    42.868379 
      49            0   -19.447293    -317099.6    -317099.6    -317099.6    -317099.6 -1.6213414e-11 5.3179999e-12 1.3230146e-11    3.4994682    3.4994682    3.4994682    42.855458 
      50            0   -19.449849   -316810.88   -316810.88   -316810.88   -316810.88 -1.1028446e-11 -4.3465053e-11 -2.8414467e-11    3.4991165    3.4991165    3.4991165     42.84254 
      51            0   -19.452401   -316521.46   -316521.46   -316521.46   -316521.46 5.0875937e-11 1.9727404e-11 2.0506117e-11    3.4987648    3.4987648    3.4987648    42.829624 
      52            0   -19.454951   -316231.31   -316231.31   -316231.31   -316231.31 -2.4017569e-11 -1.5968438e-11 -3.1287752e-11    3.4984132    3.4984132    3.4984132     42.81671 
      53            0   -19.457499   -315940.45   -315940.45   -315940.45   -315940.45 3.1686781e-11 1.5064207e-11 -1.5064207e-11    3.4980615    3.4980615    3.4980615    42.803799 
      54            0   -19.460043   -315648.88   -315648.88   -315648.88   -315648.88 4.4946448e-11 1.8316327e-11 2.3382545e-11    3.4977098    3.4977098    3.4977098    42.790891 
      55            0   -19.462584   -315356.58   -315356.58   -315356.58   -315356.58 -7.4067065e-12 -1.3254106e-11 1.2994222e-13    3.4973582    3.4973582    3.4973582    42.777985 
      56            0   -19.465123   -315063.56   -315063.56   -315063.56   -315063.56 -1.910727e-11 -2.8595914e-11 -2.456649e-11    3.4970065    3.4970065    3.4970065    42.765082 
      57            0   -19.467658   -314769.83   -314769.83   -314769.83   -314769.83 8.3213215e-12 -1.9113035e-11 -2.1843469e-11    3.4966548    3.4966548    3.4966548    42.752182 
      58            0   -19.470191   -314475.37   -314475.37   -314475.37   -314475.37 6.6330542e-12 5.696623e-11 5.5015332e-11    3.4963031    3.4963031    3.4963031    42.739284 
      59            0   -19.472721   -314180.18   -314180.18   -314180.18   -314180.18 -3.8509345e-11 6.1146595e-12 -5.9845604e-12    3.4959515    3.4959515    3.4959515    42.726389 
      60            0   -19.475248   -313884.28   -313884.28   -313884.28   -313884.28 -1.6787855e-11 -2.537699e-11 -2.7849619e-11    3.4955998    3.4955998    3.4955998    42.713496 
      61            0   -19.477772   -313587.64   -313587.64   -313587.64   -313587.64 -1.9656832e-11 -3.0201225e-11 -3.7621353e-11    3.4952481    3.4952481    3.4952481    42.700606 
      62            0   -19.480293   -313290.29   -313290.29   -313290.29   -313290.29 8.8547556e-12 -4.6096816e-11 -2.6043399e-12    3.4948965    3.4948965    3.4948965    42.687718 
      63            0   -19.482812    -312992.2    -312992.2    -312992.2    -312992.2 1.3286144e-11 -1.1853324e-11 -1.7845115e-11    3.4945448    3.4945448    3.4945448    42.674833 
      64            0   -19.485327   -312693.38   -312693.38   -312693.38   -312693.38 4.247638e-11 3.7264554e-11 5.6287718e-11    3.4941931    3.4941931    3.4941931    42.661951 
      65            0    -19.48784   -312393.84   -312393.84   -312393.84   -312393.84 -4.8614952e-11 -4.4313897e-12 1.4858189e-11    3.4938415    3.4938415    3.4938415    42.649071 
      66            0   -19.490349   -312093.56   -312093.56   -312093.56   -312093.56 -1.52538e-11 1.916503e-11 -5.175862e-11    3.4934898    3.4934898    3.4934898    42.636194 
      67            0   -19.492856   -311792.55   -311792.55   -311792.55   -311792.55 1.395427e-11 2.6213161e-11 -1.3171787e-11    3.4931381    3.4931381    3.4931381     42.62332 
      68            0    -19.49536   -311490.81   -311490.81   -311490.81   -311490.81 1.708936e-11 2.6873345e-11 5.413805e-11    3.4927864    3.4927864    3.4927864    42.610448 
      69            0   -19.497861   -311188.33   -311188.33   -311188.33   -311188.33 -1.4745658e-11 1.6050583e-11 1.5528613e-11    3.4924348    3.4924348    3.4924348    42.597578 
      70            0   -19.500358   -310885.12   -310885.12   -310885.12   -310885.12 6.2655347e-12 1.2531069e-11 -3.7854272e-12    3.4920831    3.4920831    3.4920831    42.584712 
      71            0   -19.502853   -310581.17   -310581.17   -310581.17   -310581.17 1.0053999e-11 -1.4232284e-11 6.1368565e-12    3.4917314    3.4917314    3.4917314    42.571847 
      72            0   -19.505345   -310276.48   -310276.48   -310276.48   -310276.48 -2.0244686e-11 -1.7240636e-11 -2.7167062e-11    3.4913798    3.4913798    3.4913798    42.558986 
      73            0   -19.507834   -309971.06   -309971.06   -309971.06   -309971.06 -1.3065035e-13 -1.3065035e-12 -2.3517063e-12    3.4910281    3.4910281    3.4910281    42.546127 
      74            0    -19.51032   -309664.89   -309664.89   -309664.89   -309664.89 -9.4096686e-12 -4.940076e-11 -3.9991092e-11    3.4906764    3.4906764    3.4906764     42.53327 
      75            0   -19.512804   -309357.98   -309357.98   -309357.98   -309357.98 -1.1242724e-11 4.0656828e-11 4.418652e-11    3.4903248    3.4903248    3.4903248    42.520417 
      76            0   -19.515284   -309050.33   -309050.33   -309050.33   -309050.33 -1.7784567e-11 -7.7153635e-12 -1.2815349e-11    3.4899731    3.4899731    3.4899731    42.507565 
      77            0   -19.517761   -308741.94   -308741.94   -308741.94   -308741.94 -1.0987907e-11 -3.4140995e-11 -5.3369832e-11    3.4896214    3.4896214    3.4896214    42.494717 
      78            0   -19.520235    -308432.8    -308432.8    -308432.8    -308432.8 -4.1871349e-12 -2.5907897e-11 -1.8318715e-12    3.4892697    3.4892697    3.4892697    42.481871 
      79            0   -19.522706   -308122.92   -308122.92   -308122.92   -308122.92 -8.6385774e-12 2.4868632e-12 3.0104134e-12    3.4889181    3.4889181    3.4889181    42.469027 
      80            0   -19.525175   -307812.29   -307812.29   -307812.29   -307812.29 2.7101915e-11 -1.0605097e-11 6.284502e-12    3.4885664    3.4885664    3.4885664    42.456186 
      81            0    -19.52764   -307500.91   -307500.91   -307500.91   -307500.91 2.0168876e-11 3.3789416e-11 3.6932617e-11    3.4882147    3.4882147    3.4882147    42.443348 
      82            0   -19.530102   -307188.78   -307188.78   -307188.78   -307188.78 -2.2271079e-12 -5.7511786e-11 -8.1223934e-12    3.4878631    3.4878631    3.4878631    42.430512 
      83            0   -19.532561    -306875.9    -306875.9    -306875.9    -306875.9 2.4636644e-11 5.0059565e-11  5.21563e-11    3.4875114    3.4875114    3.4875114    42.417679 
      84            0   -19.535018   -306562.27   -306562.27   -306562.27   -306562.27 -1.7434389e-11 -3.1984894e-11 -2.8969925e-11    3.4871597    3.4871597    3.4871597    42.404849 
      85            0   -19.537471   -306247.89   -306247.89   -306247.89   -306247.89 -1.337478e-11 1.1932402e-11 1.7308539e-11    3.4868081    3.4868081    3.4868081    42.392021 
      86            0   -19.539921   -305932.75   -305932.75   -305932.75   -305932.75 2.1379892e-11 3.318474e-11 2.2166882e-11    3.4864564    3.4864564    3.4864564    42.379195 
      87            0   -19.542368   -305616.86   -305616.86   -305616.86   -305616.86 -3.9361404e-13 1.7712632e-11 3.1489123e-12    3.4861047    3.4861047    3.4861047    42.366373 
      88            0   -19.544813   -305300.21   -305300.21   -305300.21   -305300.21 -1.4436883e-12 -9.0558632e-12 -1.5618083e-11     3.485753     3.485753     3.485753    42.353553 
      89            0   -19.547254   -304982.81   -304982.81   -304982.81   -304982.81 -6.6954904e-12 -1.6279232e-11 -6.1703539e-12    3.4854014    3.4854014    3.4854014    42.340735 
      90            0   -19.549692   -304664.64   -304664.64   -304664.64   -304664.64 1.6546808e-11 -3.5851417e-11 -2.7840661e-11    3.4850497    3.4850497    3.4850497     42.32792 
      91            0   -19.552127   -304345.72   -304345.72   -304345.72   -304345.72 3.7964091e-11 1.5238182e-11 6.3054545e-12     3.484698     3.484698     3.484698    42.315108 
      92            0   -19.554559   -304026.04   -304026.04   -304026.04   -304026.04 -5.2561366e-13 2.3127001e-11 -1.8527881e-11    3.4843464    3.4843464    3.4843464    42.302298 
      93            0   -19.556988   -303705.59   -303705.59   -303705.59   -303705.59 -1.0515457e-12 6.7036037e-12 -1.2092775e-11    3.4839947    3.4839947    3.4839947    42.289491 
      94            0   -19.559414   -303384.38   -303384.38   -303384.38   -303384.38 -4.8648718e-12 3.5631899e-11 5.1409861e-11     3.483643     3.483643     3.483643    42.276686 
      95            0   -19.561837   -303062.41   -303062.41   -303062.41   -303062.41 1.6440356e-11 -3.2880712e-12 -2.2884976e-11    3.4832914    3.4832914    3.4832914    42.263884 
      96            0   -19.564257   -302739.67   -302739.67   -302739.67   -302739.67 -1.907659e-11 -1.4340333e-11 -2.2365658e-12    3.4829397    3.4829397    3.4829397    42.251084 
      97            0   -19.566673   -302416.16   -302416.16   -302416.16   -302416.16 6.5801275e-13 -9.4753837e-12 -2.4083267e-11     3.482588     3.482588     3.482588    42.238287 
      98            0   -19.569087   -302091.89   -302091.89   -302091.89   -302091.89 1.3690812e-11 1.2374388e-11 1.8824867e-11    3.4822363    3.4822363    3.4822363    42.225493 
      99            0   -19.571498   -301766.85   -301766.85   -301766.85   -301766.85 -2.2122629e-11 2.3044406e-11 -5.0039281e-12    3.4818847    3.4818847    3.4818847    42.212701 
     100            0   -19.573905   -301441.04   -301441.04   -301441.04   -301441.04 -1.0932945e-11 5.268889e-13 1.7123889e-11     3.481533     3.481533     3.481533    42.199912 
Loop time of 0.0367301 on 1 procs for 100 steps with 4 atoms

7.3% CPU use with 1 MPI tasks x no OpenMP threads

Minimization stats:
  Stopping criterion = max iterations
  Energy initial, next-to-last, final = 
        -19.3186792275      -19.571497691     -19.5739052017
  Force two-norm initial, final = 15.5342 13.8909
  Force max component initial, final = 8.96866 8.01989
  Final line search alpha, max atom move = 1.2453e-05 9.98719e-05
  Iterations, force evaluations = 100 100

MPI task timing breakdown:
Section |  min time  |  avg time  |  max time  |%varavg| %total
---------------------------------------------------------------
Pair    | 0.00087762 | 0.00087762 | 0.00087762 |   0.0 |  2.39
Neigh   | 0          | 0          | 0          |   0.0 |  0.00
Comm    | 0.000175   | 0.000175   | 0.000175   |   0.0 |  0.48
Output  | 0.035081   | 0.035081   | 0.035081   |   0.0 | 95.51
Modify  | 0          | 0          | 0          |   0.0 |  0.00
Other   |            | 0.0005968  |            |       |  1.62

Nlocal:    4 ave 4 max 4 min
Histogram: 1 0 0 0 0 0 0 0 0 0
Nghost:    360 ave 360 max 360 min
Histogram: 1 0 0 0 0 0 0 0 0 0
Neighs:    156 ave 156 max 156 min
Histogram: 1 0 0 0 0 0 0 0 0 0

Total # of neighbors = 156
Ave neighs/atom = 39
Neighbor list builds = 0
Dangerous builds = 0

variable tmp equal pxx
variable pxx0 equal ${tmp}
variable pxx0 equal -301441.037942817
variable tmp equal pyy
variable pyy0 equal ${tmp}
variable pyy0 equal -301441.037942817
variable tmp equal pzz
variable pzz0 equal ${tmp}
variable pzz0 equal -301441.037942818
variable tmp equal pyz
variable pyz0 equal ${tmp}
variable pyz0 equal 1.71238893598333e-11
variable tmp equal pxz
variable pxz0 equal ${tmp}
variable pxz0 equal 5.26888903379487e-13
variable tmp equal pxy
variable pxy0 equal ${tmp}
variable pxy0 equal -1.09329447451243e-11

variable tmp equal lx
variable lx0 equal ${tmp}
variable lx0 equal 3.48153300000002
variable tmp equal ly
variable ly0 equal ${tmp}
variable ly0 equal 3.48153300000002
variable tmp equal lz
variable lz0 equal ${tmp}
variable lz0 equal 3.48153300000002

 # ---- define the derivatives w.r.t. strain components
variable d1 equal -(v_pxx1-${pxx0})/(v_delta/v_len0)*${cfac}
variable d1 equal -(v_pxx1--301441.037942817)/(v_delta/v_len0)*${cfac}
variable d1 equal -(v_pxx1--301441.037942817)/(v_delta/v_len0)*0.0001
variable d2 equal -(v_pyy1-${pyy0})/(v_delta/v_len0)*${cfac}
variable d2 equal -(v_pyy1--301441.037942817)/(v_delta/v_len0)*${cfac}
variable d2 equal -(v_pyy1--301441.037942817)/(v_delta/v_len0)*0.0001
variable d3 equal -(v_pzz1-${pzz0})/(v_delta/v_len0)*${cfac}
variable d3 equal -(v_pzz1--301441.037942818)/(v_delta/v_len0)*${cfac}
variable d3 equal -(v_pzz1--301441.037942818)/(v_delta/v_len0)*0.0001
variable d4 equal -(v_pyz1-${pyz0})/(v_delta/v_len0)*${cfac}
variable d4 equal -(v_pyz1-1.71238893598333e-11)/(v_delta/v_len0)*${cfac}
variable d4 equal -(v_pyz1-1.71238893598333e-11)/(v_delta/v_len0)*0.0001
variable d5 equal -(v_pxz1-${pxz0})/(v_delta/v_len0)*${cfac}
variable d5 equal -(v_pxz1-5.26888903379487e-13)/(v_delta/v_len0)*${cfac}
variable d5 equal -(v_pxz1-5.26888903379487e-13)/(v_delta/v_len0)*0.0001
variable d6 equal -(v_pxy1-${pxy0})/(v_delta/v_len0)*${cfac}
variable d6 equal -(v_pxy1--1.09329447451243e-11)/(v_delta/v_len0)*${cfac}
variable d6 equal -(v_pxy1--1.09329447451243e-11)/(v_delta/v_len0)*0.0001

# ---- write restart files
unfix 3
write_restart restart.equil
# ---- uxx Perturbation
variable dir equal 1
include displace.mod
# NOTE: This script should not need to be
# modified. See in.elastic for more info.
# Find which reference length to use

if "${dir} == 1" then    "variable len0 equal ${lx0}"
variable len0 equal ${lx0}
variable len0 equal 3.48153300000002
if "${dir} == 2" then    "variable len0 equal ${ly0}"
if "${dir} == 3" then    "variable len0 equal ${lz0}"
if "${dir} == 4" then    "variable len0 equal ${lz0}"
if "${dir} == 5" then    "variable len0 equal ${lz0}"
if "${dir} == 6" then    "variable len0 equal ${ly0}"

# Reset box and simulation parameters

clear
read_restart restart.equil remap
  triclinic box = (0.0175835 0.0175835 0.0175835) to (3.49912 3.49912 3.49912) with tilt (0 -0 0)
  1 by 1 by 1 MPI processor grid
  4 atoms
include potential.mod
mass 1 58.6934

group Ni type 1
4 atoms in group Ni

pair_style eam/alloy
pair_coeff * * /ufrc/phillpot/eragasa/pareto_optimization_3.5NN/rank_4/Ni_fcc.lmps_elastic/Ni.eam.alloy Ni

neighbor 1.0 bin
neigh_modify every 1 delay 0 check yes
thermo	1
thermo_style custom step temp pe press pxx pyy pzz pxy pxz pyz lx ly lz vol
thermo_modify norm no

# Negative deformation

variable delta equal -${up}*${len0}
variable delta equal -1e-06*${len0}
variable delta equal -1e-06*3.48153300000002
if "${dir} == 1" then    "change_box all x delta 0 ${delta} remap units box"
change_box all x delta 0 ${delta} remap units box
change_box all x delta 0 -3.48153300000002e-06 remap units box
  triclinic box = (0.0175835 0.0175835 0.0175835) to (3.49911 3.49912 3.49912) with tilt (0 -0 0)
if "${dir} == 2" then    "change_box all y delta 0 ${delta} remap units box"
if "${dir} == 3" then    "change_box all z delta 0 ${delta} remap units box"
if "${dir} == 4" then    "change_box all yz delta ${delta} remap units box"
if "${dir} == 5" then    "change_box all xz delta ${delta} remap units box"
if "${dir} == 6" then    "change_box all xy delta ${delta} remap units box"

# Relax atoms positions

minimize ${etol} ${ftol} ${maxiter} ${maxeval}
minimize 0 ${ftol} ${maxiter} ${maxeval}
minimize 0 1e-10 ${maxiter} ${maxeval}
minimize 0 1e-10 100 ${maxeval}
minimize 0 1e-10 100 1000
Neighbor list info ...
  update every 1 steps, delay 0 steps, check yes
  max neighbors/atom: 2000, page size: 100000
  master list distance cutoff = 5.64464
  ghost atom cutoff = 5.64464
  binsize = 2.82232, bins = 2 2 2
  1 neighbor lists, perpetual/occasional/extra = 1 0 0
  (1) pair eam/alloy, perpetual
      attributes: half, newton on
      pair build: half/bin/newton/tri
      stencil: half/bin/3d/newton/tri
      bin: standard
Per MPI rank memory allocation (min/avg/max) = 4.086 | 4.086 | 4.086 Mbytes
Step Temp PotEng Press Pxx Pyy Pzz Pxy Pxz Pyz Lx Ly Lz Volume 
     100            0   -19.573913   -301439.96   -301439.68    -301440.1    -301440.1 -1.9626631e-11 2.4500359e-11 1.3830848e-11    3.4815295     3.481533     3.481533     42.19987 
     101            0   -19.573913   -301439.97   -301439.69   -301440.11   -301440.11 -2.7661695e-11 -1.6070128e-11 1.9231464e-11    3.4815295     3.481533     3.481533     42.19987 
     102            0   -19.573913   -301439.97   -301439.69   -301440.11   -301440.11 2.2392801e-12 -2.5290693e-11 -4.2151154e-12    3.4815295     3.481533     3.481533     42.19987 
Loop time of 7.98702e-05 on 1 procs for 2 steps with 4 atoms

76.4% CPU use with 1 MPI tasks x no OpenMP threads

Minimization stats:
  Stopping criterion = force tolerance
  Energy initial, next-to-last, final = 
        -19.5739131414     -19.5739131713     -19.5739131713
  Force two-norm initial, final = 0.0007022 2.13702e-16
  Force max component initial, final = 0.000202708 1.66533e-16
  Final line search alpha, max atom move = 1 1.66533e-16
  Iterations, force evaluations = 2 4

MPI task timing breakdown:
Section |  min time  |  avg time  |  max time  |%varavg| %total
---------------------------------------------------------------
Pair    | 4.7922e-05 | 4.7922e-05 | 4.7922e-05 |   0.0 | 60.00
Neigh   | 0          | 0          | 0          |   0.0 |  0.00
Comm    | 1.0014e-05 | 1.0014e-05 | 1.0014e-05 |   0.0 | 12.54
Output  | 1.0014e-05 | 1.0014e-05 | 1.0014e-05 |   0.0 | 12.54
Modify  | 0          | 0          | 0          |   0.0 |  0.00
Other   |            | 1.192e-05  |            |       | 14.93

Nlocal:    4 ave 4 max 4 min
Histogram: 1 0 0 0 0 0 0 0 0 0
Nghost:    360 ave 360 max 360 min
Histogram: 1 0 0 0 0 0 0 0 0 0
Neighs:    156 ave 156 max 156 min
Histogram: 1 0 0 0 0 0 0 0 0 0

Total # of neighbors = 156
Ave neighs/atom = 39
Neighbor list builds = 0
Dangerous builds = 0

# Obtain new stress tensor

variable tmp equal pxx
variable pxx1 equal ${tmp}
variable pxx1 equal -301439.688452622
variable tmp equal pyy
variable pyy1 equal ${tmp}
variable pyy1 equal -301440.112444155
variable tmp equal pzz
variable pzz1 equal ${tmp}
variable pzz1 equal -301440.112444155
variable tmp equal pxy
variable pxy1 equal ${tmp}
variable pxy1 equal 2.2392800786429e-12
variable tmp equal pxz
variable pxz1 equal ${tmp}
variable pxz1 equal -2.5290692652908e-11
variable tmp equal pyz
variable pyz1 equal ${tmp}
variable pyz1 equal -4.21511544215134e-12

# Compute elastic constant from pressure tensor

variable C1neg equal ${d1}
variable C1neg equal 134.949019504711
variable C2neg equal ${d2}
variable C2neg equal 92.5498662050813
variable C3neg equal ${d3}
variable C3neg equal 92.5498663040344
variable C4neg equal ${d4}
variable C4neg equal -2.13390048019846e-09
variable C5neg equal ${d5}
variable C5neg equal -2.58175815562875e-09
variable C6neg equal ${d6}
variable C6neg equal 1.31722248237672e-09

# Reset box and simulation parameters

clear
read_restart restart.equil remap
  triclinic box = (0.0175835 0.0175835 0.0175835) to (3.49912 3.49912 3.49912) with tilt (0 -0 0)
  1 by 1 by 1 MPI processor grid
  4 atoms
include potential.mod
mass 1 58.6934

group Ni type 1
4 atoms in group Ni

pair_style eam/alloy
pair_coeff * * /ufrc/phillpot/eragasa/pareto_optimization_3.5NN/rank_4/Ni_fcc.lmps_elastic/Ni.eam.alloy Ni

neighbor 1.0 bin
neigh_modify every 1 delay 0 check yes
thermo	1
thermo_style custom step temp pe press pxx pyy pzz pxy pxz pyz lx ly lz vol
thermo_modify norm no

# Positive deformation

variable delta equal ${up}*${len0}
variable delta equal 1e-06*${len0}
variable delta equal 1e-06*3.48153300000002
if "${dir} == 1" then    "change_box all x delta 0 ${delta} remap units box"
change_box all x delta 0 ${delta} remap units box
change_box all x delta 0 3.48153300000002e-06 remap units box
  triclinic box = (0.0175835 0.0175835 0.0175835) to (3.49912 3.49912 3.49912) with tilt (0 -0 0)
if "${dir} == 2" then    "change_box all y delta 0 ${delta} remap units box"
if "${dir} == 3" then    "change_box all z delta 0 ${delta} remap units box"
if "${dir} == 4" then    "change_box all yz delta ${delta} remap units box"
if "${dir} == 5" then    "change_box all xz delta ${delta} remap units box"
if "${dir} == 6" then    "change_box all xy delta ${delta} remap units box"

# Relax atoms positions

minimize ${etol} ${ftol} ${maxiter} ${maxeval}
minimize 0 ${ftol} ${maxiter} ${maxeval}
minimize 0 1e-10 ${maxiter} ${maxeval}
minimize 0 1e-10 100 ${maxeval}
minimize 0 1e-10 100 1000
Neighbor list info ...
  update every 1 steps, delay 0 steps, check yes
  max neighbors/atom: 2000, page size: 100000
  master list distance cutoff = 5.64464
  ghost atom cutoff = 5.64464
  binsize = 2.82232, bins = 2 2 2
  1 neighbor lists, perpetual/occasional/extra = 1 0 0
  (1) pair eam/alloy, perpetual
      attributes: half, newton on
      pair build: half/bin/newton/tri
      stencil: half/bin/3d/newton/tri
      bin: standard
Per MPI rank memory allocation (min/avg/max) = 4.086 | 4.086 | 4.086 Mbytes
Step Temp PotEng Press Pxx Pyy Pzz Pxy Pxz Pyz Lx Ly Lz Volume 
     100            0   -19.573897   -301442.11    -301442.4   -301441.97   -301441.97 1.2381877e-11 6.0592163e-12 5.9274942e-11    3.4815365     3.481533     3.481533    42.199954 
     101            0   -19.573897   -301442.12   -301442.41   -301441.98   -301441.98 2.2392756e-11 1.3172209e-11 4.8737175e-12    3.4815365     3.481533     3.481533    42.199954 
     102            0   -19.573897   -301442.12   -301442.41   -301441.98   -301441.98 1.9626592e-11 3.016436e-11 8.7595193e-11    3.4815365     3.481533     3.481533    42.199954 
Loop time of 8.10623e-05 on 1 procs for 2 steps with 4 atoms

76.5% CPU use with 1 MPI tasks x no OpenMP threads

Minimization stats:
  Stopping criterion = force tolerance
  Energy initial, next-to-last, final = 
         -19.573897262     -19.5738972919     -19.5738972919
  Force two-norm initial, final = 0.000702188 2.41939e-15
  Force max component initial, final = 0.000202704 1.6636e-15
  Final line search alpha, max atom move = 1 1.6636e-15
  Iterations, force evaluations = 2 4

MPI task timing breakdown:
Section |  min time  |  avg time  |  max time  |%varavg| %total
---------------------------------------------------------------
Pair    | 4.8876e-05 | 4.8876e-05 | 4.8876e-05 |   0.0 | 60.29
Neigh   | 0          | 0          | 0          |   0.0 |  0.00
Comm    | 9.7752e-06 | 9.7752e-06 | 9.7752e-06 |   0.0 | 12.06
Output  | 9.0599e-06 | 9.0599e-06 | 9.0599e-06 |   0.0 | 11.18
Modify  | 0          | 0          | 0          |   0.0 |  0.00
Other   |            | 1.335e-05  |            |       | 16.47

Nlocal:    4 ave 4 max 4 min
Histogram: 1 0 0 0 0 0 0 0 0 0
Nghost:    360 ave 360 max 360 min
Histogram: 1 0 0 0 0 0 0 0 0 0
Neighs:    156 ave 156 max 156 min
Histogram: 1 0 0 0 0 0 0 0 0 0

Total # of neighbors = 156
Ave neighs/atom = 39
Neighbor list builds = 0
Dangerous builds = 0

# Obtain new stress tensor

variable tmp equal pe
variable e1 equal ${tmp}
variable e1 equal -19.573897291872
variable tmp equal press
variable p1 equal ${tmp}
variable p1 equal -301442.124016226
variable tmp equal pxx
variable pxx1 equal ${tmp}
variable pxx1 equal -301442.406676376
variable tmp equal pyy
variable pyy1 equal ${tmp}
variable pyy1 equal -301441.982686151
variable tmp equal pzz
variable pzz1 equal ${tmp}
variable pzz1 equal -301441.982686151
variable tmp equal pxy
variable pxy1 equal ${tmp}
variable pxy1 equal 1.96265920242939e-11
variable tmp equal pxz
variable pxz1 equal ${tmp}
variable pxz1 equal 3.01643595541161e-11
variable tmp equal pyz
variable pyz1 equal ${tmp}
variable pyz1 equal 8.75951925916471e-11

# Compute elastic constant from pressure tensor

variable C1pos equal ${d1}
variable C1pos equal 136.873355897842
variable C2pos equal ${d2}
variable C2pos equal 94.4743333966471
variable C3pos equal ${d3}
variable C3pos equal 94.4743332976941
variable C4pos equal ${d4}
variable C4pos equal -7.04713032318138e-09
variable C5pos equal ${d5}
variable C5pos equal -2.96374706507366e-09
variable C6pos equal ${d6}
variable C6pos equal -3.05595367694182e-09

# Combine positive and negative

variable C1${dir} equal 0.5*(${C1neg}+${C1pos})
variable C11 equal 0.5*(${C1neg}+${C1pos})
variable C11 equal 0.5*(134.949019504711+${C1pos})
variable C11 equal 0.5*(134.949019504711+136.873355897842)
variable C2${dir} equal 0.5*(${C2neg}+${C2pos})
variable C21 equal 0.5*(${C2neg}+${C2pos})
variable C21 equal 0.5*(92.5498662050813+${C2pos})
variable C21 equal 0.5*(92.5498662050813+94.4743333966471)
variable C3${dir} equal 0.5*(${C3neg}+${C3pos})
variable C31 equal 0.5*(${C3neg}+${C3pos})
variable C31 equal 0.5*(92.5498663040344+${C3pos})
variable C31 equal 0.5*(92.5498663040344+94.4743332976941)
variable C4${dir} equal 0.5*(${C4neg}+${C4pos})
variable C41 equal 0.5*(${C4neg}+${C4pos})
variable C41 equal 0.5*(-2.13390048019846e-09+${C4pos})
variable C41 equal 0.5*(-2.13390048019846e-09+-7.04713032318138e-09)
variable C5${dir} equal 0.5*(${C5neg}+${C5pos})
variable C51 equal 0.5*(${C5neg}+${C5pos})
variable C51 equal 0.5*(-2.58175815562875e-09+${C5pos})
variable C51 equal 0.5*(-2.58175815562875e-09+-2.96374706507366e-09)
variable C6${dir} equal 0.5*(${C6neg}+${C6pos})
variable C61 equal 0.5*(${C6neg}+${C6pos})
variable C61 equal 0.5*(1.31722248237672e-09+${C6pos})
variable C61 equal 0.5*(1.31722248237672e-09+-3.05595367694182e-09)

# Delete dir to make sure it is not reused

variable dir delete
# ---- uyy Perturbation
variable dir equal 2
include displace.mod
# NOTE: This script should not need to be
# modified. See in.elastic for more info.
# Find which reference length to use

if "${dir} == 1" then    "variable len0 equal ${lx0}"
if "${dir} == 2" then    "variable len0 equal ${ly0}"
variable len0 equal ${ly0}
variable len0 equal 3.48153300000002
if "${dir} == 3" then    "variable len0 equal ${lz0}"
if "${dir} == 4" then    "variable len0 equal ${lz0}"
if "${dir} == 5" then    "variable len0 equal ${lz0}"
if "${dir} == 6" then    "variable len0 equal ${ly0}"

# Reset box and simulation parameters

clear
read_restart restart.equil remap
  triclinic box = (0.0175835 0.0175835 0.0175835) to (3.49912 3.49912 3.49912) with tilt (0 -0 0)
  1 by 1 by 1 MPI processor grid
  4 atoms
include potential.mod
mass 1 58.6934

group Ni type 1
4 atoms in group Ni

pair_style eam/alloy
pair_coeff * * /ufrc/phillpot/eragasa/pareto_optimization_3.5NN/rank_4/Ni_fcc.lmps_elastic/Ni.eam.alloy Ni

neighbor 1.0 bin
neigh_modify every 1 delay 0 check yes
thermo	1
thermo_style custom step temp pe press pxx pyy pzz pxy pxz pyz lx ly lz vol
thermo_modify norm no

# Negative deformation

variable delta equal -${up}*${len0}
variable delta equal -1e-06*${len0}
variable delta equal -1e-06*3.48153300000002
if "${dir} == 1" then    "change_box all x delta 0 ${delta} remap units box"
if "${dir} == 2" then    "change_box all y delta 0 ${delta} remap units box"
change_box all y delta 0 ${delta} remap units box
change_box all y delta 0 -3.48153300000002e-06 remap units box
  triclinic box = (0.0175835 0.0175835 0.0175835) to (3.49912 3.49911 3.49912) with tilt (0 -0 0)
if "${dir} == 3" then    "change_box all z delta 0 ${delta} remap units box"
if "${dir} == 4" then    "change_box all yz delta ${delta} remap units box"
if "${dir} == 5" then    "change_box all xz delta ${delta} remap units box"
if "${dir} == 6" then    "change_box all xy delta ${delta} remap units box"

# Relax atoms positions

minimize ${etol} ${ftol} ${maxiter} ${maxeval}
minimize 0 ${ftol} ${maxiter} ${maxeval}
minimize 0 1e-10 ${maxiter} ${maxeval}
minimize 0 1e-10 100 ${maxeval}
minimize 0 1e-10 100 1000
Neighbor list info ...
  update every 1 steps, delay 0 steps, check yes
  max neighbors/atom: 2000, page size: 100000
  master list distance cutoff = 5.64464
  ghost atom cutoff = 5.64464
  binsize = 2.82232, bins = 2 2 2
  1 neighbor lists, perpetual/occasional/extra = 1 0 0
  (1) pair eam/alloy, perpetual
      attributes: half, newton on
      pair build: half/bin/newton/tri
      stencil: half/bin/3d/newton/tri
      bin: standard
Per MPI rank memory allocation (min/avg/max) = 4.086 | 4.086 | 4.086 Mbytes
Step Temp PotEng Press Pxx Pyy Pzz Pxy Pxz Pyz Lx Ly Lz Volume 
     100            0   -19.573913   -301439.96    -301440.1   -301439.68    -301440.1 -1.620185e-11 6.428051e-11 4.3073211e-11     3.481533    3.4815295     3.481533     42.19987 
     101            0   -19.573913   -301439.97   -301440.11   -301439.69   -301440.11 -2.8452029e-11 -3.5565037e-12 3.9516707e-13     3.481533    3.4815295     3.481533     42.19987 
     102            0   -19.573913   -301439.97   -301440.11   -301439.69   -301440.11 -1.3303958e-11 -4.3731823e-11 -3.464298e-11     3.481533    3.4815295     3.481533     42.19987 
Loop time of 7.70092e-05 on 1 procs for 2 steps with 4 atoms

79.2% CPU use with 1 MPI tasks x no OpenMP threads

Minimization stats:
  Stopping criterion = force tolerance
  Energy initial, next-to-last, final = 
        -19.5739131414     -19.5739131713     -19.5739131713
  Force two-norm initial, final = 0.0007022 1.69702e-16
  Force max component initial, final = 0.000202708 8.32667e-17
  Final line search alpha, max atom move = 1 8.32667e-17
  Iterations, force evaluations = 2 4

MPI task timing breakdown:
Section |  min time  |  avg time  |  max time  |%varavg| %total
---------------------------------------------------------------
Pair    | 4.7207e-05 | 4.7207e-05 | 4.7207e-05 |   0.0 | 61.30
Neigh   | 0          | 0          | 0          |   0.0 |  0.00
Comm    | 8.8215e-06 | 8.8215e-06 | 8.8215e-06 |   0.0 | 11.46
Output  | 8.8215e-06 | 8.8215e-06 | 8.8215e-06 |   0.0 | 11.46
Modify  | 0          | 0          | 0          |   0.0 |  0.00
Other   |            | 1.216e-05  |            |       | 15.79

Nlocal:    4 ave 4 max 4 min
Histogram: 1 0 0 0 0 0 0 0 0 0
Nghost:    360 ave 360 max 360 min
Histogram: 1 0 0 0 0 0 0 0 0 0
Neighs:    156 ave 156 max 156 min
Histogram: 1 0 0 0 0 0 0 0 0 0

Total # of neighbors = 156
Ave neighs/atom = 39
Neighbor list builds = 0
Dangerous builds = 0

# Obtain new stress tensor

variable tmp equal pxx
variable pxx1 equal ${tmp}
variable pxx1 equal -301440.112444155
variable tmp equal pyy
variable pyy1 equal ${tmp}
variable pyy1 equal -301439.688452622
variable tmp equal pzz
variable pzz1 equal ${tmp}
variable pzz1 equal -301440.112444155
variable tmp equal pxy
variable pxy1 equal ${tmp}
variable pxy1 equal -1.33039581142902e-11
variable tmp equal pxz
variable pxz1 equal ${tmp}
variable pxz1 equal -4.37318227123201e-11
variable tmp equal pyz
variable pyz1 equal ${tmp}
variable pyz1 equal -3.46429800401813e-11

# Compute elastic constant from pressure tensor

variable C1neg equal ${d1}
variable C1neg equal 92.5498662050813
variable C2neg equal ${d2}
variable C2neg equal 134.949019504711
variable C3neg equal ${d3}
variable C3neg equal 92.5498663040344
variable C4neg equal ${d4}
variable C4neg equal -5.17668694000146e-09
variable C5neg equal ${d5}
variable C5neg equal -4.42587116156996e-09
variable C6neg equal ${d6}
variable C6neg equal -2.3710133691659e-10

# Reset box and simulation parameters

clear
read_restart restart.equil remap
  triclinic box = (0.0175835 0.0175835 0.0175835) to (3.49912 3.49912 3.49912) with tilt (0 -0 0)
  1 by 1 by 1 MPI processor grid
  4 atoms
include potential.mod
mass 1 58.6934

group Ni type 1
4 atoms in group Ni

pair_style eam/alloy
pair_coeff * * /ufrc/phillpot/eragasa/pareto_optimization_3.5NN/rank_4/Ni_fcc.lmps_elastic/Ni.eam.alloy Ni

neighbor 1.0 bin
neigh_modify every 1 delay 0 check yes
thermo	1
thermo_style custom step temp pe press pxx pyy pzz pxy pxz pyz lx ly lz vol
thermo_modify norm no

# Positive deformation

variable delta equal ${up}*${len0}
variable delta equal 1e-06*${len0}
variable delta equal 1e-06*3.48153300000002
if "${dir} == 1" then    "change_box all x delta 0 ${delta} remap units box"
if "${dir} == 2" then    "change_box all y delta 0 ${delta} remap units box"
change_box all y delta 0 ${delta} remap units box
change_box all y delta 0 3.48153300000002e-06 remap units box
  triclinic box = (0.0175835 0.0175835 0.0175835) to (3.49912 3.49912 3.49912) with tilt (0 -0 0)
if "${dir} == 3" then    "change_box all z delta 0 ${delta} remap units box"
if "${dir} == 4" then    "change_box all yz delta ${delta} remap units box"
if "${dir} == 5" then    "change_box all xz delta ${delta} remap units box"
if "${dir} == 6" then    "change_box all xy delta ${delta} remap units box"

# Relax atoms positions

minimize ${etol} ${ftol} ${maxiter} ${maxeval}
minimize 0 ${ftol} ${maxiter} ${maxeval}
minimize 0 1e-10 ${maxiter} ${maxeval}
minimize 0 1e-10 100 ${maxeval}
minimize 0 1e-10 100 1000
Neighbor list info ...
  update every 1 steps, delay 0 steps, check yes
  max neighbors/atom: 2000, page size: 100000
  master list distance cutoff = 5.64464
  ghost atom cutoff = 5.64464
  binsize = 2.82232, bins = 2 2 2
  1 neighbor lists, perpetual/occasional/extra = 1 0 0
  (1) pair eam/alloy, perpetual
      attributes: half, newton on
      pair build: half/bin/newton/tri
      stencil: half/bin/3d/newton/tri
      bin: standard
Per MPI rank memory allocation (min/avg/max) = 4.086 | 4.086 | 4.086 Mbytes
Step Temp PotEng Press Pxx Pyy Pzz Pxy Pxz Pyz Lx Ly Lz Volume 
     100            0   -19.573897   -301442.11   -301441.97    -301442.4   -301441.97 -6.5861047e-13 -5.0054396e-12 2.9900915e-11     3.481533    3.4815365     3.481533    42.199954 
     101            0   -19.573897   -301442.12   -301441.98   -301442.41   -301441.98 1.5806651e-11 -2.7529918e-11 4.7946842e-11     3.481533    3.4815365     3.481533    42.199954 
     102            0   -19.573897   -301442.12   -301441.98   -301442.41   -301441.98 2.1075535e-12 3.5169799e-11 2.6344419e-12     3.481533    3.4815365     3.481533    42.199954 
Loop time of 7.79629e-05 on 1 procs for 2 steps with 4 atoms

80.8% CPU use with 1 MPI tasks x no OpenMP threads

Minimization stats:
  Stopping criterion = force tolerance
  Energy initial, next-to-last, final = 
         -19.573897262     -19.5738972919     -19.5738972919
  Force two-norm initial, final = 0.000702188 1.90614e-15
  Force max component initial, final = 0.000202704 1.1241e-15
  Final line search alpha, max atom move = 1 1.1241e-15
  Iterations, force evaluations = 2 4

MPI task timing breakdown:
Section |  min time  |  avg time  |  max time  |%varavg| %total
---------------------------------------------------------------
Pair    | 4.5061e-05 | 4.5061e-05 | 4.5061e-05 |   0.0 | 57.80
Neigh   | 0          | 0          | 0          |   0.0 |  0.00
Comm    | 9.7752e-06 | 9.7752e-06 | 9.7752e-06 |   0.0 | 12.54
Output  | 9.0599e-06 | 9.0599e-06 | 9.0599e-06 |   0.0 | 11.62
Modify  | 0          | 0          | 0          |   0.0 |  0.00
Other   |            | 1.407e-05  |            |       | 18.04

Nlocal:    4 ave 4 max 4 min
Histogram: 1 0 0 0 0 0 0 0 0 0
Nghost:    360 ave 360 max 360 min
Histogram: 1 0 0 0 0 0 0 0 0 0
Neighs:    156 ave 156 max 156 min
Histogram: 1 0 0 0 0 0 0 0 0 0

Total # of neighbors = 156
Ave neighs/atom = 39
Neighbor list builds = 0
Dangerous builds = 0

# Obtain new stress tensor

variable tmp equal pe
variable e1 equal ${tmp}
variable e1 equal -19.573897291872
variable tmp equal press
variable p1 equal ${tmp}
variable p1 equal -301442.124016226
variable tmp equal pxx
variable pxx1 equal ${tmp}
variable pxx1 equal -301441.982686151
variable tmp equal pyy
variable pyy1 equal ${tmp}
variable pyy1 equal -301442.406676376
variable tmp equal pzz
variable pzz1 equal ${tmp}
variable pzz1 equal -301441.982686151
variable tmp equal pxy
variable pxy1 equal ${tmp}
variable pxy1 equal 2.10755350596444e-12
variable tmp equal pxz
variable pxz1 equal ${tmp}
variable pxz1 equal 3.51697991307816e-11
variable tmp equal pyz
variable pyz1 equal ${tmp}
variable pyz1 equal 2.63444188245555e-12

# Compute elastic constant from pressure tensor

variable C1pos equal ${d1}
variable C1pos equal 94.4743333966471
variable C2pos equal ${d2}
variable C2pos equal 136.873355897842
variable C3pos equal ${d3}
variable C3pos equal 94.4743332976941
variable C4pos equal ${d4}
variable C4pos equal 1.44894474773778e-09
variable C5pos equal ${d5}
variable C5pos equal -3.46429102274021e-09
variable C6pos equal ${d6}
variable C6pos equal -1.30404982510887e-09

# Combine positive and negative

variable C1${dir} equal 0.5*(${C1neg}+${C1pos})
variable C12 equal 0.5*(${C1neg}+${C1pos})
variable C12 equal 0.5*(92.5498662050813+${C1pos})
variable C12 equal 0.5*(92.5498662050813+94.4743333966471)
variable C2${dir} equal 0.5*(${C2neg}+${C2pos})
variable C22 equal 0.5*(${C2neg}+${C2pos})
variable C22 equal 0.5*(134.949019504711+${C2pos})
variable C22 equal 0.5*(134.949019504711+136.873355897842)
variable C3${dir} equal 0.5*(${C3neg}+${C3pos})
variable C32 equal 0.5*(${C3neg}+${C3pos})
variable C32 equal 0.5*(92.5498663040344+${C3pos})
variable C32 equal 0.5*(92.5498663040344+94.4743332976941)
variable C4${dir} equal 0.5*(${C4neg}+${C4pos})
variable C42 equal 0.5*(${C4neg}+${C4pos})
variable C42 equal 0.5*(-5.17668694000146e-09+${C4pos})
variable C42 equal 0.5*(-5.17668694000146e-09+1.44894474773778e-09)
variable C5${dir} equal 0.5*(${C5neg}+${C5pos})
variable C52 equal 0.5*(${C5neg}+${C5pos})
variable C52 equal 0.5*(-4.42587116156996e-09+${C5pos})
variable C52 equal 0.5*(-4.42587116156996e-09+-3.46429102274021e-09)
variable C6${dir} equal 0.5*(${C6neg}+${C6pos})
variable C62 equal 0.5*(${C6neg}+${C6pos})
variable C62 equal 0.5*(-2.3710133691659e-10+${C6pos})
variable C62 equal 0.5*(-2.3710133691659e-10+-1.30404982510887e-09)

# Delete dir to make sure it is not reused

variable dir delete
# ---- uzz Perturbation
variable dir equal 3
include displace.mod
# NOTE: This script should not need to be
# modified. See in.elastic for more info.
# Find which reference length to use

if "${dir} == 1" then    "variable len0 equal ${lx0}"
if "${dir} == 2" then    "variable len0 equal ${ly0}"
if "${dir} == 3" then    "variable len0 equal ${lz0}"
variable len0 equal ${lz0}
variable len0 equal 3.48153300000002
if "${dir} == 4" then    "variable len0 equal ${lz0}"
if "${dir} == 5" then    "variable len0 equal ${lz0}"
if "${dir} == 6" then    "variable len0 equal ${ly0}"

# Reset box and simulation parameters

clear
read_restart restart.equil remap
  triclinic box = (0.0175835 0.0175835 0.0175835) to (3.49912 3.49912 3.49912) with tilt (0 -0 0)
  1 by 1 by 1 MPI processor grid
  4 atoms
include potential.mod
mass 1 58.6934

group Ni type 1
4 atoms in group Ni

pair_style eam/alloy
pair_coeff * * /ufrc/phillpot/eragasa/pareto_optimization_3.5NN/rank_4/Ni_fcc.lmps_elastic/Ni.eam.alloy Ni

neighbor 1.0 bin
neigh_modify every 1 delay 0 check yes
thermo	1
thermo_style custom step temp pe press pxx pyy pzz pxy pxz pyz lx ly lz vol
thermo_modify norm no

# Negative deformation

variable delta equal -${up}*${len0}
variable delta equal -1e-06*${len0}
variable delta equal -1e-06*3.48153300000002
if "${dir} == 1" then    "change_box all x delta 0 ${delta} remap units box"
if "${dir} == 2" then    "change_box all y delta 0 ${delta} remap units box"
if "${dir} == 3" then    "change_box all z delta 0 ${delta} remap units box"
change_box all z delta 0 ${delta} remap units box
change_box all z delta 0 -3.48153300000002e-06 remap units box
  triclinic box = (0.0175835 0.0175835 0.0175835) to (3.49912 3.49912 3.49911) with tilt (0 -0 0)
if "${dir} == 4" then    "change_box all yz delta ${delta} remap units box"
if "${dir} == 5" then    "change_box all xz delta ${delta} remap units box"
if "${dir} == 6" then    "change_box all xy delta ${delta} remap units box"

# Relax atoms positions

minimize ${etol} ${ftol} ${maxiter} ${maxeval}
minimize 0 ${ftol} ${maxiter} ${maxeval}
minimize 0 1e-10 ${maxiter} ${maxeval}
minimize 0 1e-10 100 ${maxeval}
minimize 0 1e-10 100 1000
Neighbor list info ...
  update every 1 steps, delay 0 steps, check yes
  max neighbors/atom: 2000, page size: 100000
  master list distance cutoff = 5.64464
  ghost atom cutoff = 5.64464
  binsize = 2.82232, bins = 2 2 2
  1 neighbor lists, perpetual/occasional/extra = 1 0 0
  (1) pair eam/alloy, perpetual
      attributes: half, newton on
      pair build: half/bin/newton/tri
      stencil: half/bin/3d/newton/tri
      bin: standard
Per MPI rank memory allocation (min/avg/max) = 4.086 | 4.086 | 4.086 Mbytes
Step Temp PotEng Press Pxx Pyy Pzz Pxy Pxz Pyz Lx Ly Lz Volume 
     100            0   -19.573913   -301439.96    -301440.1    -301440.1   -301439.68 3.8726373e-11 -3.9516707e-13 -4.2941489e-11     3.481533     3.481533    3.4815295     42.19987 
     101            0   -19.573913   -301439.97   -301440.11   -301440.11   -301439.69 -2.5027248e-11 -1.9758354e-11 -2.8056862e-11     3.481533     3.481533    3.4815295     42.19987 
     102            0   -19.573913   -301439.97   -301440.11   -301440.11   -301439.69 1.7650796e-11 -3.9516707e-13 -5.7957837e-12     3.481533     3.481533    3.4815295     42.19987 
Loop time of 7.60555e-05 on 1 procs for 2 steps with 4 atoms

84.1% CPU use with 1 MPI tasks x no OpenMP threads

Minimization stats:
  Stopping criterion = force tolerance
  Energy initial, next-to-last, final = 
        -19.5739131414     -19.5739131713     -19.5739131713
  Force two-norm initial, final = 0.0007022 3.39403e-16
  Force max component initial, final = 0.000202708 2.18575e-16
  Final line search alpha, max atom move = 1 2.18575e-16
  Iterations, force evaluations = 2 4

MPI task timing breakdown:
Section |  min time  |  avg time  |  max time  |%varavg| %total
---------------------------------------------------------------
Pair    | 4.6015e-05 | 4.6015e-05 | 4.6015e-05 |   0.0 | 60.50
Neigh   | 0          | 0          | 0          |   0.0 |  0.00
Comm    | 1.0014e-05 | 1.0014e-05 | 1.0014e-05 |   0.0 | 13.17
Output  | 7.8678e-06 | 7.8678e-06 | 7.8678e-06 |   0.0 | 10.34
Modify  | 0          | 0          | 0          |   0.0 |  0.00
Other   |            | 1.216e-05  |            |       | 15.99

Nlocal:    4 ave 4 max 4 min
Histogram: 1 0 0 0 0 0 0 0 0 0
Nghost:    360 ave 360 max 360 min
Histogram: 1 0 0 0 0 0 0 0 0 0
Neighs:    156 ave 156 max 156 min
Histogram: 1 0 0 0 0 0 0 0 0 0

Total # of neighbors = 156
Ave neighs/atom = 39
Neighbor list builds = 0
Dangerous builds = 0

# Obtain new stress tensor

variable tmp equal pxx
variable pxx1 equal ${tmp}
variable pxx1 equal -301440.112444155
variable tmp equal pyy
variable pyy1 equal ${tmp}
variable pyy1 equal -301440.112444155
variable tmp equal pzz
variable pzz1 equal ${tmp}
variable pzz1 equal -301439.688452622
variable tmp equal pxy
variable pxy1 equal ${tmp}
variable pxy1 equal 1.76507959140087e-11
variable tmp equal pxz
variable pxz1 equal ${tmp}
variable pxz1 equal -3.95167072701688e-13
variable tmp equal pyz
variable pyz1 equal ${tmp}
variable pyz1 equal -5.79578373295809e-12

# Compute elastic constant from pressure tensor

variable C1neg equal ${d1}
variable C1neg equal 92.5498662050813
variable C2neg equal ${d2}
variable C2neg equal 92.5498662050813
variable C3neg equal ${d3}
variable C3neg equal 134.949019603664
variable C4neg equal ${d4}
variable C4neg equal -2.29196730927914e-09
variable C5neg equal ${d5}
variable C5neg equal -9.22055976081175e-11
variable C6neg equal ${d6}
variable C6neg equal 2.8583740659133e-09

# Reset box and simulation parameters

clear
read_restart restart.equil remap
  triclinic box = (0.0175835 0.0175835 0.0175835) to (3.49912 3.49912 3.49912) with tilt (0 -0 0)
  1 by 1 by 1 MPI processor grid
  4 atoms
include potential.mod
mass 1 58.6934

group Ni type 1
4 atoms in group Ni

pair_style eam/alloy
pair_coeff * * /ufrc/phillpot/eragasa/pareto_optimization_3.5NN/rank_4/Ni_fcc.lmps_elastic/Ni.eam.alloy Ni

neighbor 1.0 bin
neigh_modify every 1 delay 0 check yes
thermo	1
thermo_style custom step temp pe press pxx pyy pzz pxy pxz pyz lx ly lz vol
thermo_modify norm no

# Positive deformation

variable delta equal ${up}*${len0}
variable delta equal 1e-06*${len0}
variable delta equal 1e-06*3.48153300000002
if "${dir} == 1" then    "change_box all x delta 0 ${delta} remap units box"
if "${dir} == 2" then    "change_box all y delta 0 ${delta} remap units box"
if "${dir} == 3" then    "change_box all z delta 0 ${delta} remap units box"
change_box all z delta 0 ${delta} remap units box
change_box all z delta 0 3.48153300000002e-06 remap units box
  triclinic box = (0.0175835 0.0175835 0.0175835) to (3.49912 3.49912 3.49912) with tilt (0 -0 0)
if "${dir} == 4" then    "change_box all yz delta ${delta} remap units box"
if "${dir} == 5" then    "change_box all xz delta ${delta} remap units box"
if "${dir} == 6" then    "change_box all xy delta ${delta} remap units box"

# Relax atoms positions

minimize ${etol} ${ftol} ${maxiter} ${maxeval}
minimize 0 ${ftol} ${maxiter} ${maxeval}
minimize 0 1e-10 ${maxiter} ${maxeval}
minimize 0 1e-10 100 ${maxeval}
minimize 0 1e-10 100 1000
Neighbor list info ...
  update every 1 steps, delay 0 steps, check yes
  max neighbors/atom: 2000, page size: 100000
  master list distance cutoff = 5.64464
  ghost atom cutoff = 5.64464
  binsize = 2.82232, bins = 2 2 2
  1 neighbor lists, perpetual/occasional/extra = 1 0 0
  (1) pair eam/alloy, perpetual
      attributes: half, newton on
      pair build: half/bin/newton/tri
      stencil: half/bin/3d/newton/tri
      bin: standard
Per MPI rank memory allocation (min/avg/max) = 4.086 | 4.086 | 4.086 Mbytes
Step Temp PotEng Press Pxx Pyy Pzz Pxy Pxz Pyz Lx Ly Lz Volume 
     100            0   -19.573897   -301442.11   -301441.97   -301441.97    -301442.4 2.6607863e-11 1.5279763e-11 -8.430214e-12     3.481533     3.481533    3.4815365    42.199954 
     101            0   -19.573897   -301442.12   -301441.98   -301441.98   -301442.41 -4.0833849e-12 -3.8594574e-11 -1.8967982e-11     3.481533     3.481533    3.4815365    42.199954 
     102            0   -19.573897   -301442.12   -301441.98   -301441.98   -301442.41 2.3314811e-11 2.7925084e-11 2.581753e-11     3.481533     3.481533    3.4815365    42.199954 
Loop time of 7.79629e-05 on 1 procs for 2 steps with 4 atoms

84.7% CPU use with 1 MPI tasks x no OpenMP threads

Minimization stats:
  Stopping criterion = force tolerance
  Energy initial, next-to-last, final = 
         -19.573897262     -19.5738972919     -19.5738972919
  Force two-norm initial, final = 0.000702188 1.85665e-15
  Force max component initial, final = 0.000202704 1.09635e-15
  Final line search alpha, max atom move = 1 1.09635e-15
  Iterations, force evaluations = 2 4

MPI task timing breakdown:
Section |  min time  |  avg time  |  max time  |%varavg| %total
---------------------------------------------------------------
Pair    | 4.5061e-05 | 4.5061e-05 | 4.5061e-05 |   0.0 | 57.80
Neigh   | 0          | 0          | 0          |   0.0 |  0.00
Comm    | 9.5367e-06 | 9.5367e-06 | 9.5367e-06 |   0.0 | 12.23
Output  | 9.0599e-06 | 9.0599e-06 | 9.0599e-06 |   0.0 | 11.62
Modify  | 0          | 0          | 0          |   0.0 |  0.00
Other   |            | 1.431e-05  |            |       | 18.35

Nlocal:    4 ave 4 max 4 min
Histogram: 1 0 0 0 0 0 0 0 0 0
Nghost:    360 ave 360 max 360 min
Histogram: 1 0 0 0 0 0 0 0 0 0
Neighs:    156 ave 156 max 156 min
Histogram: 1 0 0 0 0 0 0 0 0 0

Total # of neighbors = 156
Ave neighs/atom = 39
Neighbor list builds = 0
Dangerous builds = 0

# Obtain new stress tensor

variable tmp equal pe
variable e1 equal ${tmp}
variable e1 equal -19.573897291872
variable tmp equal press
variable p1 equal ${tmp}
variable p1 equal -301442.124016226
variable tmp equal pxx
variable pxx1 equal ${tmp}
variable pxx1 equal -301441.982686151
variable tmp equal pyy
variable pyy1 equal ${tmp}
variable pyy1 equal -301441.982686151
variable tmp equal pzz
variable pzz1 equal ${tmp}
variable pzz1 equal -301442.406676376
variable tmp equal pxy
variable pxy1 equal ${tmp}
variable pxy1 equal 2.33148106597316e-11
variable tmp equal pxz
variable pxz1 equal ${tmp}
variable pxz1 equal 2.79250839540288e-11
variable tmp equal pyz
variable pyz1 equal ${tmp}
variable pyz1 equal 2.58175304480644e-11

# Compute elastic constant from pressure tensor

variable C1pos equal ${d1}
variable C1pos equal 94.4743333966471
variable C2pos equal ${d2}
variable C2pos equal 94.4743333966471
variable C3pos equal ${d3}
variable C3pos equal 136.873355798889
variable C4pos equal ${d4}
variable C4pos equal -8.6936410882311e-10
variable C5pos equal ${d5}
variable C5pos equal -2.73981950506493e-09
variable C6pos equal ${d6}
variable C6pos equal -3.42477554048559e-09

# Combine positive and negative

variable C1${dir} equal 0.5*(${C1neg}+${C1pos})
variable C13 equal 0.5*(${C1neg}+${C1pos})
variable C13 equal 0.5*(92.5498662050813+${C1pos})
variable C13 equal 0.5*(92.5498662050813+94.4743333966471)
variable C2${dir} equal 0.5*(${C2neg}+${C2pos})
variable C23 equal 0.5*(${C2neg}+${C2pos})
variable C23 equal 0.5*(92.5498662050813+${C2pos})
variable C23 equal 0.5*(92.5498662050813+94.4743333966471)
variable C3${dir} equal 0.5*(${C3neg}+${C3pos})
variable C33 equal 0.5*(${C3neg}+${C3pos})
variable C33 equal 0.5*(134.949019603664+${C3pos})
variable C33 equal 0.5*(134.949019603664+136.873355798889)
variable C4${dir} equal 0.5*(${C4neg}+${C4pos})
variable C43 equal 0.5*(${C4neg}+${C4pos})
variable C43 equal 0.5*(-2.29196730927914e-09+${C4pos})
variable C43 equal 0.5*(-2.29196730927914e-09+-8.6936410882311e-10)
variable C5${dir} equal 0.5*(${C5neg}+${C5pos})
variable C53 equal 0.5*(${C5neg}+${C5pos})
variable C53 equal 0.5*(-9.22055976081175e-11+${C5pos})
variable C53 equal 0.5*(-9.22055976081175e-11+-2.73981950506493e-09)
variable C6${dir} equal 0.5*(${C6neg}+${C6pos})
variable C63 equal 0.5*(${C6neg}+${C6pos})
variable C63 equal 0.5*(2.8583740659133e-09+${C6pos})
variable C63 equal 0.5*(2.8583740659133e-09+-3.42477554048559e-09)

# Delete dir to make sure it is not reused

variable dir delete
# ---- uyz Perturbation
variable dir equal 4
include displace.mod
# NOTE: This script should not need to be
# modified. See in.elastic for more info.
# Find which reference length to use

if "${dir} == 1" then    "variable len0 equal ${lx0}"
if "${dir} == 2" then    "variable len0 equal ${ly0}"
if "${dir} == 3" then    "variable len0 equal ${lz0}"
if "${dir} == 4" then    "variable len0 equal ${lz0}"
variable len0 equal ${lz0}
variable len0 equal 3.48153300000002
if "${dir} == 5" then    "variable len0 equal ${lz0}"
if "${dir} == 6" then    "variable len0 equal ${ly0}"

# Reset box and simulation parameters

clear
read_restart restart.equil remap
  triclinic box = (0.0175835 0.0175835 0.0175835) to (3.49912 3.49912 3.49912) with tilt (0 -0 0)
  1 by 1 by 1 MPI processor grid
  4 atoms
include potential.mod
mass 1 58.6934

group Ni type 1
4 atoms in group Ni

pair_style eam/alloy
pair_coeff * * /ufrc/phillpot/eragasa/pareto_optimization_3.5NN/rank_4/Ni_fcc.lmps_elastic/Ni.eam.alloy Ni

neighbor 1.0 bin
neigh_modify every 1 delay 0 check yes
thermo	1
thermo_style custom step temp pe press pxx pyy pzz pxy pxz pyz lx ly lz vol
thermo_modify norm no

# Negative deformation

variable delta equal -${up}*${len0}
variable delta equal -1e-06*${len0}
variable delta equal -1e-06*3.48153300000002
if "${dir} == 1" then    "change_box all x delta 0 ${delta} remap units box"
if "${dir} == 2" then    "change_box all y delta 0 ${delta} remap units box"
if "${dir} == 3" then    "change_box all z delta 0 ${delta} remap units box"
if "${dir} == 4" then    "change_box all yz delta ${delta} remap units box"
change_box all yz delta ${delta} remap units box
change_box all yz delta -3.48153300000002e-06 remap units box
  triclinic box = (0.0175835 0.0175835 0.0175835) to (3.49912 3.49912 3.49912) with tilt (0 -0 -3.48153e-06)
if "${dir} == 5" then    "change_box all xz delta ${delta} remap units box"
if "${dir} == 6" then    "change_box all xy delta ${delta} remap units box"

# Relax atoms positions

minimize ${etol} ${ftol} ${maxiter} ${maxeval}
minimize 0 ${ftol} ${maxiter} ${maxeval}
minimize 0 1e-10 ${maxiter} ${maxeval}
minimize 0 1e-10 100 ${maxeval}
minimize 0 1e-10 100 1000
Neighbor list info ...
  update every 1 steps, delay 0 steps, check yes
  max neighbors/atom: 2000, page size: 100000
  master list distance cutoff = 5.64464
  ghost atom cutoff = 5.64464
  binsize = 2.82232, bins = 2 2 2
  1 neighbor lists, perpetual/occasional/extra = 1 0 0
  (1) pair eam/alloy, perpetual
      attributes: half, newton on
      pair build: half/bin/newton/tri
      stencil: half/bin/3d/newton/tri
      bin: standard
Per MPI rank memory allocation (min/avg/max) = 4.086 | 4.086 | 4.086 Mbytes
Step Temp PotEng Press Pxx Pyy Pzz Pxy Pxz Pyz Lx Ly Lz Volume 
     100            0   -19.573905   -301441.04   -301441.04   -301441.04   -301441.04 6.0065335e-11 -7.3764446e-12   0.55389587     3.481533     3.481533     3.481533    42.199912 
     101            0   -19.573905   -301441.05   -301441.05   -301441.05   -301441.05 -2.423689e-11 -3.5038112e-11   0.55389587     3.481533     3.481533     3.481533    42.199912 
     102            0   -19.573905   -301441.05   -301441.05   -301441.05   -301441.05 -6.4543891e-12 -4.8737224e-12   0.55389587     3.481533     3.481533     3.481533    42.199912 
     103            0   -19.573905   -301441.05   -301441.05   -301441.05   -301441.05 -1.6201834e-11 -1.7123889e-12   0.55389587     3.481533     3.481533     3.481533    42.199912 
Loop time of 0.00010705 on 1 procs for 3 steps with 4 atoms

85.9% CPU use with 1 MPI tasks x no OpenMP threads

Minimization stats:
  Stopping criterion = force tolerance
  Energy initial, next-to-last, final = 
        -19.5739052017     -19.5739052316     -19.5739052316
  Force two-norm initial, final = 0.000702194 2.41366e-15
  Force max component initial, final = 0.000202707 1.22125e-15
  Final line search alpha, max atom move = 1 1.22125e-15
  Iterations, force evaluations = 3 6

MPI task timing breakdown:
Section |  min time  |  avg time  |  max time  |%varavg| %total
---------------------------------------------------------------
Pair    | 6.4373e-05 | 6.4373e-05 | 6.4373e-05 |   0.0 | 60.13
Neigh   | 0          | 0          | 0          |   0.0 |  0.00
Comm    | 1.2636e-05 | 1.2636e-05 | 1.2636e-05 |   0.0 | 11.80
Output  | 1.5974e-05 | 1.5974e-05 | 1.5974e-05 |   0.0 | 14.92
Modify  | 0          | 0          | 0          |   0.0 |  0.00
Other   |            | 1.407e-05  |            |       | 13.14

Nlocal:    4 ave 4 max 4 min
Histogram: 1 0 0 0 0 0 0 0 0 0
Nghost:    360 ave 360 max 360 min
Histogram: 1 0 0 0 0 0 0 0 0 0
Neighs:    156 ave 156 max 156 min
Histogram: 1 0 0 0 0 0 0 0 0 0

Total # of neighbors = 156
Ave neighs/atom = 39
Neighbor list builds = 0
Dangerous builds = 0

# Obtain new stress tensor

variable tmp equal pxx
variable pxx1 equal ${tmp}
variable pxx1 equal -301441.047570029
variable tmp equal pyy
variable pyy1 equal ${tmp}
variable pyy1 equal -301441.047568108
variable tmp equal pzz
variable pzz1 equal ${tmp}
variable pzz1 equal -301441.047567212
variable tmp equal pxy
variable pxy1 equal ${tmp}
variable pxy1 equal -1.62018337789192e-11
variable tmp equal pxz
variable pxz1 equal ${tmp}
variable pxz1 equal -1.71238893598333e-12
variable tmp equal pyz
variable pyz1 equal ${tmp}
variable pyz1 equal 0.553895870995704

# Compute elastic constant from pressure tensor

variable C1neg equal ${d1}
variable C1neg equal -0.962721195537597
variable C2neg equal ${d2}
variable C2neg equal -0.96252909861505
variable C3neg equal ${d3}
variable C3neg equal -0.962439400609583
variable C4neg equal ${d4}
variable C4neg equal 55.389587097858
variable C5neg equal ${d5}
variable C5neg equal -2.23927783936282e-10
variable C6neg equal ${d6}
variable C6neg equal -5.2688890337949e-10

# Reset box and simulation parameters

clear
read_restart restart.equil remap
  triclinic box = (0.0175835 0.0175835 0.0175835) to (3.49912 3.49912 3.49912) with tilt (0 -0 0)
  1 by 1 by 1 MPI processor grid
  4 atoms
include potential.mod
mass 1 58.6934

group Ni type 1
4 atoms in group Ni

pair_style eam/alloy
pair_coeff * * /ufrc/phillpot/eragasa/pareto_optimization_3.5NN/rank_4/Ni_fcc.lmps_elastic/Ni.eam.alloy Ni

neighbor 1.0 bin
neigh_modify every 1 delay 0 check yes
thermo	1
thermo_style custom step temp pe press pxx pyy pzz pxy pxz pyz lx ly lz vol
thermo_modify norm no

# Positive deformation

variable delta equal ${up}*${len0}
variable delta equal 1e-06*${len0}
variable delta equal 1e-06*3.48153300000002
if "${dir} == 1" then    "change_box all x delta 0 ${delta} remap units box"
if "${dir} == 2" then    "change_box all y delta 0 ${delta} remap units box"
if "${dir} == 3" then    "change_box all z delta 0 ${delta} remap units box"
if "${dir} == 4" then    "change_box all yz delta ${delta} remap units box"
change_box all yz delta ${delta} remap units box
change_box all yz delta 3.48153300000002e-06 remap units box
  triclinic box = (0.0175835 0.0175835 0.0175835) to (3.49912 3.49912 3.49912) with tilt (0 -0 3.48153e-06)
if "${dir} == 5" then    "change_box all xz delta ${delta} remap units box"
if "${dir} == 6" then    "change_box all xy delta ${delta} remap units box"

# Relax atoms positions

minimize ${etol} ${ftol} ${maxiter} ${maxeval}
minimize 0 ${ftol} ${maxiter} ${maxeval}
minimize 0 1e-10 ${maxiter} ${maxeval}
minimize 0 1e-10 100 ${maxeval}
minimize 0 1e-10 100 1000
Neighbor list info ...
  update every 1 steps, delay 0 steps, check yes
  max neighbors/atom: 2000, page size: 100000
  master list distance cutoff = 5.64464
  ghost atom cutoff = 5.64464
  binsize = 2.82232, bins = 2 2 2
  1 neighbor lists, perpetual/occasional/extra = 1 0 0
  (1) pair eam/alloy, perpetual
      attributes: half, newton on
      pair build: half/bin/newton/tri
      stencil: half/bin/3d/newton/tri
      bin: standard
Per MPI rank memory allocation (min/avg/max) = 4.086 | 4.086 | 4.086 Mbytes
Step Temp PotEng Press Pxx Pyy Pzz Pxy Pxz Pyz Lx Ly Lz Volume 
     100            0   -19.573905   -301441.04   -301441.04   -301441.04   -301441.04 5.1371668e-12 3.7409112e-11  -0.55389587     3.481533     3.481533     3.481533    42.199912 
     101            0   -19.573905   -301441.05   -301441.05   -301441.05   -301441.05 5.7957779e-12 4.4785557e-12  -0.55389587     3.481533     3.481533     3.481533    42.199912 
     102            0   -19.573905   -301441.05   -301441.05   -301441.05   -301441.05 -1.3172223e-13 4.439039e-11  -0.55389587     3.481533     3.481533     3.481533    42.199912 
     103            0   -19.573905   -301441.05   -301441.05   -301441.05   -301441.05 -5.1371668e-12 -7.5081669e-12  -0.55389587     3.481533     3.481533     3.481533    42.199912 
Loop time of 0.000106812 on 1 procs for 3 steps with 4 atoms

87.1% CPU use with 1 MPI tasks x no OpenMP threads

Minimization stats:
  Stopping criterion = force tolerance
  Energy initial, next-to-last, final = 
        -19.5739052017     -19.5739052316     -19.5739052316
  Force two-norm initial, final = 0.000702194 1.55225e-15
  Force max component initial, final = 0.000202707 1.02002e-15
  Final line search alpha, max atom move = 1 1.02002e-15
  Iterations, force evaluations = 3 6

MPI task timing breakdown:
Section |  min time  |  avg time  |  max time  |%varavg| %total
---------------------------------------------------------------
Pair    | 6.2466e-05 | 6.2466e-05 | 6.2466e-05 |   0.0 | 58.48
Neigh   | 0          | 0          | 0          |   0.0 |  0.00
Comm    | 1.3828e-05 | 1.3828e-05 | 1.3828e-05 |   0.0 | 12.95
Output  | 1.6689e-05 | 1.6689e-05 | 1.6689e-05 |   0.0 | 15.62
Modify  | 0          | 0          | 0          |   0.0 |  0.00
Other   |            | 1.383e-05  |            |       | 12.95

Nlocal:    4 ave 4 max 4 min
Histogram: 1 0 0 0 0 0 0 0 0 0
Nghost:    360 ave 360 max 360 min
Histogram: 1 0 0 0 0 0 0 0 0 0
Neighs:    156 ave 156 max 156 min
Histogram: 1 0 0 0 0 0 0 0 0 0

Total # of neighbors = 156
Ave neighs/atom = 39
Neighbor list builds = 0
Dangerous builds = 0

# Obtain new stress tensor

variable tmp equal pe
variable e1 equal ${tmp}
variable e1 equal -19.5739052315733
variable tmp equal press
variable p1 equal ${tmp}
variable p1 equal -301441.04756845
variable tmp equal pxx
variable pxx1 equal ${tmp}
variable pxx1 equal -301441.047570029
variable tmp equal pyy
variable pyy1 equal ${tmp}
variable pyy1 equal -301441.047568108
variable tmp equal pzz
variable pzz1 equal ${tmp}
variable pzz1 equal -301441.047567212
variable tmp equal pxy
variable pxy1 equal ${tmp}
variable pxy1 equal -5.13716680794999e-12
variable tmp equal pxz
variable pxz1 equal ${tmp}
variable pxz1 equal -7.50816687315769e-12
variable tmp equal pyz
variable pyz1 equal ${tmp}
variable pyz1 equal -0.55389587095105

# Compute elastic constant from pressure tensor

variable C1pos equal ${d1}
variable C1pos equal 0.962721195537597
variable C2pos equal ${d2}
variable C2pos equal 0.96252909861505
variable C3pos equal ${d3}
variable C3pos equal 0.962439400609583
variable C4pos equal ${d4}
variable C4pos equal 55.3895870968174
variable C5pos equal ${d5}
variable C5pos equal 8.03505577653718e-10
variable C6pos equal ${d6}
variable C6pos equal -5.79577793717431e-10

# Combine positive and negative

variable C1${dir} equal 0.5*(${C1neg}+${C1pos})
variable C14 equal 0.5*(${C1neg}+${C1pos})
variable C14 equal 0.5*(-0.962721195537597+${C1pos})
variable C14 equal 0.5*(-0.962721195537597+0.962721195537597)
variable C2${dir} equal 0.5*(${C2neg}+${C2pos})
variable C24 equal 0.5*(${C2neg}+${C2pos})
variable C24 equal 0.5*(-0.96252909861505+${C2pos})
variable C24 equal 0.5*(-0.96252909861505+0.96252909861505)
variable C3${dir} equal 0.5*(${C3neg}+${C3pos})
variable C34 equal 0.5*(${C3neg}+${C3pos})
variable C34 equal 0.5*(-0.962439400609583+${C3pos})
variable C34 equal 0.5*(-0.962439400609583+0.962439400609583)
variable C4${dir} equal 0.5*(${C4neg}+${C4pos})
variable C44 equal 0.5*(${C4neg}+${C4pos})
variable C44 equal 0.5*(55.389587097858+${C4pos})
variable C44 equal 0.5*(55.389587097858+55.3895870968174)
variable C5${dir} equal 0.5*(${C5neg}+${C5pos})
variable C54 equal 0.5*(${C5neg}+${C5pos})
variable C54 equal 0.5*(-2.23927783936282e-10+${C5pos})
variable C54 equal 0.5*(-2.23927783936282e-10+8.03505577653718e-10)
variable C6${dir} equal 0.5*(${C6neg}+${C6pos})
variable C64 equal 0.5*(${C6neg}+${C6pos})
variable C64 equal 0.5*(-5.2688890337949e-10+${C6pos})
variable C64 equal 0.5*(-5.2688890337949e-10+-5.79577793717431e-10)

# Delete dir to make sure it is not reused

variable dir delete
# ---- uxz Perturbation
variable dir equal 5
include displace.mod
# NOTE: This script should not need to be
# modified. See in.elastic for more info.
# Find which reference length to use

if "${dir} == 1" then    "variable len0 equal ${lx0}"
if "${dir} == 2" then    "variable len0 equal ${ly0}"
if "${dir} == 3" then    "variable len0 equal ${lz0}"
if "${dir} == 4" then    "variable len0 equal ${lz0}"
if "${dir} == 5" then    "variable len0 equal ${lz0}"
variable len0 equal ${lz0}
variable len0 equal 3.48153300000002
if "${dir} == 6" then    "variable len0 equal ${ly0}"

# Reset box and simulation parameters

clear
read_restart restart.equil remap
  triclinic box = (0.0175835 0.0175835 0.0175835) to (3.49912 3.49912 3.49912) with tilt (0 -0 0)
  1 by 1 by 1 MPI processor grid
  4 atoms
include potential.mod
mass 1 58.6934

group Ni type 1
4 atoms in group Ni

pair_style eam/alloy
pair_coeff * * /ufrc/phillpot/eragasa/pareto_optimization_3.5NN/rank_4/Ni_fcc.lmps_elastic/Ni.eam.alloy Ni

neighbor 1.0 bin
neigh_modify every 1 delay 0 check yes
thermo	1
thermo_style custom step temp pe press pxx pyy pzz pxy pxz pyz lx ly lz vol
thermo_modify norm no

# Negative deformation

variable delta equal -${up}*${len0}
variable delta equal -1e-06*${len0}
variable delta equal -1e-06*3.48153300000002
if "${dir} == 1" then    "change_box all x delta 0 ${delta} remap units box"
if "${dir} == 2" then    "change_box all y delta 0 ${delta} remap units box"
if "${dir} == 3" then    "change_box all z delta 0 ${delta} remap units box"
if "${dir} == 4" then    "change_box all yz delta ${delta} remap units box"
if "${dir} == 5" then    "change_box all xz delta ${delta} remap units box"
change_box all xz delta ${delta} remap units box
change_box all xz delta -3.48153300000002e-06 remap units box
  triclinic box = (0.0175835 0.0175835 0.0175835) to (3.49912 3.49912 3.49912) with tilt (0 -3.48153e-06 0)
if "${dir} == 6" then    "change_box all xy delta ${delta} remap units box"

# Relax atoms positions

minimize ${etol} ${ftol} ${maxiter} ${maxeval}
minimize 0 ${ftol} ${maxiter} ${maxeval}
minimize 0 1e-10 ${maxiter} ${maxeval}
minimize 0 1e-10 100 ${maxeval}
minimize 0 1e-10 100 1000
Neighbor list info ...
  update every 1 steps, delay 0 steps, check yes
  max neighbors/atom: 2000, page size: 100000
  master list distance cutoff = 5.64464
  ghost atom cutoff = 5.64464
  binsize = 2.82232, bins = 2 2 2
  1 neighbor lists, perpetual/occasional/extra = 1 0 0
  (1) pair eam/alloy, perpetual
      attributes: half, newton on
      pair build: half/bin/newton/tri
      stencil: half/bin/3d/newton/tri
      bin: standard
Per MPI rank memory allocation (min/avg/max) = 4.086 | 4.086 | 4.086 Mbytes
Step Temp PotEng Press Pxx Pyy Pzz Pxy Pxz Pyz Lx Ly Lz Volume 
     100            0   -19.573905   -301441.04   -301441.04   -301441.04   -301441.04 2.9900945e-11   0.55389587 3.2271945e-11     3.481533     3.481533     3.481533    42.199912 
     101            0   -19.573905   -301441.05   -301441.05   -301441.05   -301441.05 -6.0328779e-11   0.55389587 1.3699111e-11     3.481533     3.481533     3.481533    42.199912 
     102            0   -19.573905   -301441.05   -301441.05   -301441.05   -301441.05 -3.1218168e-11   0.55389587 -1.3172223e-12     3.481533     3.481533     3.481533    42.199912 
     103            0   -19.573905   -301441.05   -301441.05   -301441.05   -301441.05 3.2930556e-12   0.55389587 -1.1723278e-11     3.481533     3.481533     3.481533    42.199912 
Loop time of 0.000108957 on 1 procs for 3 steps with 4 atoms

87.2% CPU use with 1 MPI tasks x no OpenMP threads

Minimization stats:
  Stopping criterion = force tolerance
  Energy initial, next-to-last, final = 
        -19.5739052017     -19.5739052316     -19.5739052316
  Force two-norm initial, final = 0.000702194 2.5486e-15
  Force max component initial, final = 0.000202707 1.66533e-15
  Final line search alpha, max atom move = 1 1.66533e-15
  Iterations, force evaluations = 3 6

MPI task timing breakdown:
Section |  min time  |  avg time  |  max time  |%varavg| %total
---------------------------------------------------------------
Pair    | 6.4373e-05 | 6.4373e-05 | 6.4373e-05 |   0.0 | 59.08
Neigh   | 0          | 0          | 0          |   0.0 |  0.00
Comm    | 1.359e-05  | 1.359e-05  | 1.359e-05  |   0.0 | 12.47
Output  | 1.7166e-05 | 1.7166e-05 | 1.7166e-05 |   0.0 | 15.75
Modify  | 0          | 0          | 0          |   0.0 |  0.00
Other   |            | 1.383e-05  |            |       | 12.69

Nlocal:    4 ave 4 max 4 min
Histogram: 1 0 0 0 0 0 0 0 0 0
Nghost:    360 ave 360 max 360 min
Histogram: 1 0 0 0 0 0 0 0 0 0
Neighs:    156 ave 156 max 156 min
Histogram: 1 0 0 0 0 0 0 0 0 0

Total # of neighbors = 156
Ave neighs/atom = 39
Neighbor list builds = 0
Dangerous builds = 0

# Obtain new stress tensor

variable tmp equal pxx
variable pxx1 equal ${tmp}
variable pxx1 equal -301441.047568108
variable tmp equal pyy
variable pyy1 equal ${tmp}
variable pyy1 equal -301441.047570029
variable tmp equal pzz
variable pzz1 equal ${tmp}
variable pzz1 equal -301441.047567212
variable tmp equal pxy
variable pxy1 equal ${tmp}
variable pxy1 equal 3.29305564612179e-12
variable tmp equal pxz
variable pxz1 equal ${tmp}
variable pxz1 equal 0.55389587102679
variable tmp equal pyz
variable pyz1 equal ${tmp}
variable pyz1 equal -1.17232781001936e-11

# Compute elastic constant from pressure tensor

variable C1neg equal ${d1}
variable C1neg equal -0.96252909861505
variable C2neg equal ${d2}
variable C2neg equal -0.962721195537597
variable C3neg equal ${d3}
variable C3neg equal -0.962439400609583
variable C4neg equal ${d4}
variable C4neg equal -2.88471674600269e-09
variable C5neg equal ${d5}
variable C5neg equal 55.3895871026263
variable C6neg equal ${d6}
variable C6neg equal 1.42260003912461e-09

# Reset box and simulation parameters

clear
read_restart restart.equil remap
  triclinic box = (0.0175835 0.0175835 0.0175835) to (3.49912 3.49912 3.49912) with tilt (0 -0 0)
  1 by 1 by 1 MPI processor grid
  4 atoms
include potential.mod
mass 1 58.6934

group Ni type 1
4 atoms in group Ni

pair_style eam/alloy
pair_coeff * * /ufrc/phillpot/eragasa/pareto_optimization_3.5NN/rank_4/Ni_fcc.lmps_elastic/Ni.eam.alloy Ni

neighbor 1.0 bin
neigh_modify every 1 delay 0 check yes
thermo	1
thermo_style custom step temp pe press pxx pyy pzz pxy pxz pyz lx ly lz vol
thermo_modify norm no

# Positive deformation

variable delta equal ${up}*${len0}
variable delta equal 1e-06*${len0}
variable delta equal 1e-06*3.48153300000002
if "${dir} == 1" then    "change_box all x delta 0 ${delta} remap units box"
if "${dir} == 2" then    "change_box all y delta 0 ${delta} remap units box"
if "${dir} == 3" then    "change_box all z delta 0 ${delta} remap units box"
if "${dir} == 4" then    "change_box all yz delta ${delta} remap units box"
if "${dir} == 5" then    "change_box all xz delta ${delta} remap units box"
change_box all xz delta ${delta} remap units box
[...]

MPI task timing breakdown:
Section |  min time  |  avg time  |  max time  |%varavg| %total
---------------------------------------------------------------
Pair    | 6.2943e-05 | 6.2943e-05 | 6.2943e-05 |   0.0 | 58.28
Neigh   | 0          | 0          | 0          |   0.0 |  0.00
Comm    | 1.2636e-05 | 1.2636e-05 | 1.2636e-05 |   0.0 | 11.70
Output  | 1.502e-05  | 1.502e-05  | 1.502e-05  |   0.0 | 13.91
Modify  | 0          | 0          | 0          |   0.0 |  0.00
Other   |            | 1.74e-05   |            |       | 16.11

Nlocal:    4 ave 4 max 4 min
Histogram: 1 0 0 0 0 0 0 0 0 0
Nghost:    360 ave 360 max 360 min
Histogram: 1 0 0 0 0 0 0 0 0 0
Neighs:    156 ave 156 max 156 min
Histogram: 1 0 0 0 0 0 0 0 0 0

Total # of neighbors = 156
Ave neighs/atom = 39
Neighbor list builds = 0
Dangerous builds = 0

# Obtain new stress tensor

variable tmp equal pe
variable e1 equal ${tmp}
variable e1 equal -19.5739052315733
variable tmp equal press
variable p1 equal ${tmp}
variable p1 equal -301441.04756845
variable tmp equal pxx
variable pxx1 equal ${tmp}
variable pxx1 equal -301441.047568108
variable tmp equal pyy
variable pyy1 equal ${tmp}
variable pyy1 equal -301441.047570029
variable tmp equal pzz
variable pzz1 equal ${tmp}
variable pzz1 equal -301441.047567212
variable tmp equal pxy
variable pxy1 equal ${tmp}
variable pxy1 equal -3.55650009781154e-12
variable tmp equal pxz
variable pxz1 equal ${tmp}
variable pxz1 equal -0.553895871036142
variable tmp equal pyz
variable pyz1 equal ${tmp}
variable pyz1 equal 3.42477787196666e-12

# Compute elastic constant from pressure tensor

variable C1pos equal ${d1}
variable C1pos equal 0.96252909861505
variable C2pos equal ${d2}
variable C2pos equal 0.962721195537597
variable C3pos equal ${d3}
variable C3pos equal 0.962439400609583
variable C4pos equal ${d4}
variable C4pos equal 1.36991114878666e-09
variable C5pos equal ${d5}
variable C5pos equal 55.3895871036669
variable C6pos equal ${d6}
variable C6pos equal -7.37644464731276e-10

# Combine positive and negative

variable C1${dir} equal 0.5*(${C1neg}+${C1pos})
variable C15 equal 0.5*(${C1neg}+${C1pos})
variable C15 equal 0.5*(-0.96252909861505+${C1pos})
variable C15 equal 0.5*(-0.96252909861505+0.96252909861505)
variable C2${dir} equal 0.5*(${C2neg}+${C2pos})
variable C25 equal 0.5*(${C2neg}+${C2pos})
variable C25 equal 0.5*(-0.962721195537597+${C2pos})
variable C25 equal 0.5*(-0.962721195537597+0.962721195537597)
variable C3${dir} equal 0.5*(${C3neg}+${C3pos})
variable C35 equal 0.5*(${C3neg}+${C3pos})
variable C35 equal 0.5*(-0.962439400609583+${C3pos})
variable C35 equal 0.5*(-0.962439400609583+0.962439400609583)
variable C4${dir} equal 0.5*(${C4neg}+${C4pos})
variable C45 equal 0.5*(${C4neg}+${C4pos})
variable C45 equal 0.5*(-2.88471674600269e-09+${C4pos})
variable C45 equal 0.5*(-2.88471674600269e-09+1.36991114878666e-09)
variable C5${dir} equal 0.5*(${C5neg}+${C5pos})
variable C55 equal 0.5*(${C5neg}+${C5pos})
variable C55 equal 0.5*(55.3895871026263+${C5pos})
variable C55 equal 0.5*(55.3895871026263+55.3895871036669)
variable C6${dir} equal 0.5*(${C6neg}+${C6pos})
variable C65 equal 0.5*(${C6neg}+${C6pos})
variable C65 equal 0.5*(1.42260003912461e-09+${C6pos})
variable C65 equal 0.5*(1.42260003912461e-09+-7.37644464731276e-10)

# Delete dir to make sure it is not reused

variable dir delete
# ---- uxy Perturbation
variable dir equal 6
include displace.mod
# NOTE: This script should not need to be
# modified. See in.elastic for more info.
# Find which reference length to use

if "${dir} == 1" then    "variable len0 equal ${lx0}"
if "${dir} == 2" then    "variable len0 equal ${ly0}"
if "${dir} == 3" then    "variable len0 equal ${lz0}"
if "${dir} == 4" then    "variable len0 equal ${lz0}"
if "${dir} == 5" then    "variable len0 equal ${lz0}"
if "${dir} == 6" then    "variable len0 equal ${ly0}"
variable len0 equal ${ly0}
variable len0 equal 3.48153300000002

# Reset box and simulation parameters

clear
read_restart restart.equil remap
  triclinic box = (0.0175835 0.0175835 0.0175835) to (3.49912 3.49912 3.49912) with tilt (0 -0 0)
  1 by 1 by 1 MPI processor grid
  4 atoms
include potential.mod
mass 1 58.6934

group Ni type 1
4 atoms in group Ni

pair_style eam/alloy
pair_coeff * * /ufrc/phillpot/eragasa/pareto_optimization_3.5NN/rank_4/Ni_fcc.lmps_elastic/Ni.eam.alloy Ni

neighbor 1.0 bin
neigh_modify every 1 delay 0 check yes
thermo	1
thermo_style custom step temp pe press pxx pyy pzz pxy pxz pyz lx ly lz vol
thermo_modify norm no

# Negative deformation

variable delta equal -${up}*${len0}
variable delta equal -1e-06*${len0}
variable delta equal -1e-06*3.48153300000002
if "${dir} == 1" then    "change_box all x delta 0 ${delta} remap units box"
if "${dir} == 2" then    "change_box all y delta 0 ${delta} remap units box"
if "${dir} == 3" then    "change_box all z delta 0 ${delta} remap units box"
if "${dir} == 4" then    "change_box all yz delta ${delta} remap units box"
if "${dir} == 5" then    "change_box all xz delta ${delta} remap units box"
if "${dir} == 6" then    "change_box all xy delta ${delta} remap units box"
change_box all xy delta ${delta} remap units box
change_box all xy delta -3.48153300000002e-06 remap units box
  triclinic box = (0.0175835 0.0175835 0.0175835) to (3.49912 3.49912 3.49912) with tilt (-3.48153e-06 -0 0)

# Relax atoms positions

minimize ${etol} ${ftol} ${maxiter} ${maxeval}
minimize 0 ${ftol} ${maxiter} ${maxeval}
minimize 0 1e-10 ${maxiter} ${maxeval}
minimize 0 1e-10 100 ${maxeval}
minimize 0 1e-10 100 1000
Neighbor list info ...
  update every 1 steps, delay 0 steps, check yes
  max neighbors/atom: 2000, page size: 100000
  master list distance cutoff = 5.64464
  ghost atom cutoff = 5.64464
  binsize = 2.82232, bins = 2 2 2
  1 neighbor lists, perpetual/occasional/extra = 1 0 0
  (1) pair eam/alloy, perpetual
      attributes: half, newton on
      pair build: half/bin/newton/tri
      stencil: half/bin/3d/newton/tri
      bin: standard
Per MPI rank memory allocation (min/avg/max) = 4.086 | 4.086 | 4.086 Mbytes
Step Temp PotEng Press Pxx Pyy Pzz Pxy Pxz Pyz Lx Ly Lz Volume 
     100            0   -19.573905   -301441.04   -301441.04   -301441.04   -301441.04   0.55389587 -5.9275002e-12 7.1920335e-11     3.481533     3.481533     3.481533    42.199912 
     101            0   -19.573905   -301441.05   -301441.05   -301441.05   -301441.05   0.55389587 -1.0537778e-11 4.0570446e-11     3.481533     3.481533     3.481533    42.199912 
     102            0   -19.573905   -301441.05   -301441.05   -301441.05   -301441.05   0.55389587 -6.3094946e-11 2.3446556e-11     3.481533     3.481533     3.481533    42.199912 
     103            0   -19.573905   -301441.05   -301441.05   -301441.05   -301441.05   0.55389587 -1.4094278e-11 -3.846289e-11     3.481533     3.481533     3.481533    42.199912 
Loop time of 0.00010705 on 1 procs for 3 steps with 4 atoms

87.8% CPU use with 1 MPI tasks x no OpenMP threads

Minimization stats:
  Stopping criterion = force tolerance
  Energy initial, next-to-last, final = 
        -19.5739052017     -19.5739052316     -19.5739052316
  Force two-norm initial, final = 0.000702194 2.37509e-15
  Force max component initial, final = 0.000202707 1.15966e-15
  Final line search alpha, max atom move = 1 1.15966e-15
  Iterations, force evaluations = 3 6

MPI task timing breakdown:
Section |  min time  |  avg time  |  max time  |%varavg| %total
---------------------------------------------------------------
Pair    | 6.4373e-05 | 6.4373e-05 | 6.4373e-05 |   0.0 | 60.13
Neigh   | 0          | 0          | 0          |   0.0 |  0.00
Comm    | 1.1444e-05 | 1.1444e-05 | 1.1444e-05 |   0.0 | 10.69
Output  | 1.6212e-05 | 1.6212e-05 | 1.6212e-05 |   0.0 | 15.14
Modify  | 0          | 0          | 0          |   0.0 |  0.00
Other   |            | 1.502e-05  |            |       | 14.03

Nlocal:    4 ave 4 max 4 min
Histogram: 1 0 0 0 0 0 0 0 0 0
Nghost:    360 ave 360 max 360 min
Histogram: 1 0 0 0 0 0 0 0 0 0
Neighs:    156 ave 156 max 156 min
Histogram: 1 0 0 0 0 0 0 0 0 0

Total # of neighbors = 156
Ave neighs/atom = 39
Neighbor list builds = 0
Dangerous builds = 0

# Obtain new stress tensor

variable tmp equal pxx
variable pxx1 equal ${tmp}
variable pxx1 equal -301441.047568108
variable tmp equal pyy
variable pyy1 equal ${tmp}
variable pyy1 equal -301441.047567213
variable tmp equal pzz
variable pzz1 equal ${tmp}
variable pzz1 equal -301441.047570029
variable tmp equal pxy
variable pxy1 equal ${tmp}
variable pxy1 equal 0.553895871013618
variable tmp equal pxz
variable pxz1 equal ${tmp}
variable pxz1 equal -1.40942781654013e-11
variable tmp equal pyz
variable pyz1 equal ${tmp}
variable pyz1 equal -3.84628899467025e-11

# Compute elastic constant from pressure tensor

variable C1neg equal ${d1}
variable C1neg equal -0.96252909861505
variable C2neg equal ${d2}
variable C2neg equal -0.96243959851563
variable C3neg equal ${d3}
variable C3neg equal -0.962721096584573
variable C4neg equal ${d4}
variable C4neg equal -5.55867793065358e-09
variable C5neg equal ${d5}
variable C5neg equal -1.46211670687808e-09
variable C6neg equal ${d6}
variable C6neg equal 55.3895871024551

# Reset box and simulation parameters

clear
read_restart restart.equil remap
  triclinic box = (0.0175835 0.0175835 0.0175835) to (3.49912 3.49912 3.49912) with tilt (0 -0 0)
  1 by 1 by 1 MPI processor grid
  4 atoms
include potential.mod
mass 1 58.6934

group Ni type 1
4 atoms in group Ni

pair_style eam/alloy
pair_coeff * * /ufrc/phillpot/eragasa/pareto_optimization_3.5NN/rank_4/Ni_fcc.lmps_elastic/Ni.eam.alloy Ni

neighbor 1.0 bin
neigh_modify every 1 delay 0 check yes
thermo	1
thermo_style custom step temp pe press pxx pyy pzz pxy pxz pyz lx ly lz vol
thermo_modify norm no

# Positive deformation

variable delta equal ${up}*${len0}
variable delta equal 1e-06*${len0}
variable delta equal 1e-06*3.48153300000002
if "${dir} == 1" then    "change_box all x delta 0 ${delta} remap units box"
if "${dir} == 2" then    "change_box all y delta 0 ${delta} remap units box"
if "${dir} == 3" then    "change_box all z delta 0 ${delta} remap units box"
if "${dir} == 4" then    "change_box all yz delta ${delta} remap units box"
if "${dir} == 5" then    "change_box all xz delta ${delta} remap units box"
if "${dir} == 6" then    "change_box all xy delta ${delta} remap units box"
change_box all xy delta ${delta} remap units box
change_box all xy delta 3.48153300000002e-06 remap units box
  triclinic box = (0.0175835 0.0175835 0.0175835) to (3.49912 3.49912 3.49912) with tilt (3.48153e-06 -0 0)

# Relax atoms positions

minimize ${etol} ${ftol} ${maxiter} ${maxeval}
minimize 0 ${ftol} ${maxiter} ${maxeval}
minimize 0 1e-10 ${maxiter} ${maxeval}
minimize 0 1e-10 100 ${maxeval}
minimize 0 1e-10 100 1000
Neighbor list info ...
  update every 1 steps, delay 0 steps, check yes
  max neighbors/atom: 2000, page size: 100000
  master list distance cutoff = 5.64464
  ghost atom cutoff = 5.64464
  binsize = 2.82232, bins = 2 2 2
  1 neighbor lists, perpetual/occasional/extra = 1 0 0
  (1) pair eam/alloy, perpetual
      attributes: half, newton on
      pair build: half/bin/newton/tri
      stencil: half/bin/3d/newton/tri
      bin: standard
Per MPI rank memory allocation (min/avg/max) = 4.086 | 4.086 | 4.086 Mbytes
Step Temp PotEng Press Pxx Pyy Pzz Pxy Pxz Pyz Lx Ly Lz Volume 
     100            0   -19.573905   -301441.04   -301441.04   -301441.04   -301441.04  -0.55389587 1.1459834e-11 2.7661667e-12     3.481533     3.481533     3.481533    42.199912 
     101            0   -19.573905   -301441.05   -301441.05   -301441.05   -301441.05  -0.55389587 2.5027223e-11 1.3172223e-13     3.481533     3.481533     3.481533    42.199912 
     102            0   -19.573905   -301441.05   -301441.05   -301441.05   -301441.05  -0.55389587 -8.0614002e-11 -1.3172223e-12     3.481533     3.481533     3.481533    42.199912 
     103            0   -19.573905   -301441.05   -301441.05   -301441.05   -301441.05  -0.55389587  1.54115e-11 -1.8572834e-11     3.481533     3.481533     3.481533    42.199912 
Loop time of 0.00010705 on 1 procs for 3 steps with 4 atoms

87.8% CPU use with 1 MPI tasks x no OpenMP threads

Minimization stats:
  Stopping criterion = force tolerance
  Energy initial, next-to-last, final = 
        -19.5739052017     -19.5739052316     -19.5739052316
  Force two-norm initial, final = 0.000702194 2.17759e-15
  Force max component initial, final = 0.000202707 1.72085e-15
  Final line search alpha, max atom move = 1 1.72085e-15
  Iterations, force evaluations = 3 6

MPI task timing breakdown:
Section |  min time  |  avg time  |  max time  |%varavg| %total
---------------------------------------------------------------
Pair    | 6.1274e-05 | 6.1274e-05 | 6.1274e-05 |   0.0 | 57.24
Neigh   | 0          | 0          | 0          |   0.0 |  0.00
Comm    | 1.3113e-05 | 1.3113e-05 | 1.3113e-05 |   0.0 | 12.25
Output  | 1.6928e-05 | 1.6928e-05 | 1.6928e-05 |   0.0 | 15.81
Modify  | 0          | 0          | 0          |   0.0 |  0.00
Other   |            | 1.574e-05  |            |       | 14.70

Nlocal:    4 ave 4 max 4 min
Histogram: 1 0 0 0 0 0 0 0 0 0
Nghost:    360 ave 360 max 360 min
Histogram: 1 0 0 0 0 0 0 0 0 0
Neighs:    156 ave 156 max 156 min
Histogram: 1 0 0 0 0 0 0 0 0 0

Total # of neighbors = 156
Ave neighs/atom = 39
Neighbor list builds = 0
Dangerous builds = 0

# Obtain new stress tensor

variable tmp equal pe
variable e1 equal ${tmp}
variable e1 equal -19.5739052315733
variable tmp equal press
variable p1 equal ${tmp}
variable p1 equal -301441.04756845
variable tmp equal pxx
variable pxx1 equal ${tmp}
variable pxx1 equal -301441.047568108
variable tmp equal pyy
variable pyy1 equal ${tmp}
variable pyy1 equal -301441.047567212
variable tmp equal pzz
variable pzz1 equal ${tmp}
variable pzz1 equal -301441.047570029
variable tmp equal pxy
variable pxy1 equal ${tmp}
variable pxy1 equal -0.553895870953948
variable tmp equal pxz
variable pxz1 equal ${tmp}
variable pxz1 equal 1.541150042385e-11
variable tmp equal pyz
variable pyz1 equal ${tmp}
variable pyz1 equal -1.85728338441269e-11

# Compute elastic constant from pressure tensor

variable C1pos equal ${d1}
variable C1pos equal 0.96252909861505
variable C2pos equal ${d2}
variable C2pos equal 0.962439499562606
variable C3pos equal ${d3}
variable C3pos equal 0.962721096584573
variable C4pos equal ${d4}
variable C4pos equal 3.56967232039602e-09
variable C5pos equal ${d5}
variable C5pos equal -1.48846115204705e-09
variable C6pos equal ${d6}
variable C6pos equal 55.3895870943015

# Combine positive and negative

variable C1${dir} equal 0.5*(${C1neg}+${C1pos})
variable C16 equal 0.5*(${C1neg}+${C1pos})
variable C16 equal 0.5*(-0.96252909861505+${C1pos})
variable C16 equal 0.5*(-0.96252909861505+0.96252909861505)
variable C2${dir} equal 0.5*(${C2neg}+${C2pos})
variable C26 equal 0.5*(${C2neg}+${C2pos})
variable C26 equal 0.5*(-0.96243959851563+${C2pos})
variable C26 equal 0.5*(-0.96243959851563+0.962439499562606)
variable C3${dir} equal 0.5*(${C3neg}+${C3pos})
variable C36 equal 0.5*(${C3neg}+${C3pos})
variable C36 equal 0.5*(-0.962721096584573+${C3pos})
variable C36 equal 0.5*(-0.962721096584573+0.962721096584573)
variable C4${dir} equal 0.5*(${C4neg}+${C4pos})
variable C46 equal 0.5*(${C4neg}+${C4pos})
variable C46 equal 0.5*(-5.55867793065358e-09+${C4pos})
variable C46 equal 0.5*(-5.55867793065358e-09+3.56967232039602e-09)
variable C5${dir} equal 0.5*(${C5neg}+${C5pos})
variable C56 equal 0.5*(${C5neg}+${C5pos})
variable C56 equal 0.5*(-1.46211670687808e-09+${C5pos})
variable C56 equal 0.5*(-1.46211670687808e-09+-1.48846115204705e-09)
variable C6${dir} equal 0.5*(${C6neg}+${C6pos})
variable C66 equal 0.5*(${C6neg}+${C6pos})
variable C66 equal 0.5*(55.3895871024551+${C6pos})
variable C66 equal 0.5*(55.3895871024551+55.3895870943015)

# Delete dir to make sure it is not reused

variable dir delete

# ---- Output final values
variable C11all equal ${C11}
variable C11all equal 135.911187701277
variable C22all equal ${C22}
variable C22all equal 135.911187701277
variable C33all equal ${C33}
variable C33all equal 135.911187701277
variable C12all equal 0.5*(${C12}+${C21})
variable C12all equal 0.5*(93.5120998008642+${C21})
variable C12all equal 0.5*(93.5120998008642+93.5120998008642)
variable C13all equal 0.5*(${C13}+${C31})
variable C13all equal 0.5*(93.5120998008642+${C31})
variable C13all equal 0.5*(93.5120998008642+93.5120998008642)
variable C23all equal 0.5*(${C23}+${C32})
variable C23all equal 0.5*(93.5120998008642+${C32})
variable C23all equal 0.5*(93.5120998008642+93.5120998008642)
variable C44all equal ${C44}
variable C44all equal 55.3895870973377
variable C55all equal ${C55}
variable C55all equal 55.3895871031466
variable C66all equal ${C66}
variable C66all equal 55.3895870983783
variable C14all equal 0.5*(${C14}+${C41})
variable C14all equal 0.5*(0+${C41})
variable C14all equal 0.5*(0+-4.59051540168992e-09)
variable C15all equal 0.5*(${C15}+${C51})
variable C15all equal 0.5*(0+${C51})
variable C15all equal 0.5*(0+-2.7727526103512e-09)
variable C16all equal 0.5*(${C16}+${C61})
variable C16all equal 0.5*(0+${C61})
variable C16all equal 0.5*(0+-8.6936559728255e-10)
variable C24all equal 0.5*(${C24}+${C42})
variable C24all equal 0.5*(0+${C42})
variable C24all equal 0.5*(0+-1.86387109613184e-09)
variable C25all equal 0.5*(${C25}+${C52})
variable C25all equal 0.5*(0+${C52})
variable C25all equal 0.5*(0+-3.94508109215509e-09)
variable C26all equal 0.5*(${C26}+${C62})
variable C26all equal 0.5*(-4.94765119984919e-08+${C62})
variable C26all equal 0.5*(-4.94765119984919e-08+-7.7057558101273e-10)
variable C34all equal 0.5*(${C34}+${C43})
variable C34all equal 0.5*(0+${C43})
variable C34all equal 0.5*(0+-1.58066570905112e-09)
variable C35all equal 0.5*(${C35}+${C53})
variable C35all equal 0.5*(0+${C53})
variable C35all equal 0.5*(0+-1.41601255133652e-09)
variable C36all equal 0.5*(${C36}+${C63})
variable C36all equal 0.5*(0+${C63})
variable C36all equal 0.5*(0+-2.83200737286145e-10)
variable C45all equal 0.5*(${C45}+${C54})
variable C45all equal 0.5*(-7.57402798608015e-10+${C54})
variable C45all equal 0.5*(-7.57402798608015e-10+2.89788896858718e-10)
variable C46all equal 0.5*(${C46}+${C64})
variable C46all equal 0.5*(-9.9450280512878e-10+${C64})
variable C46all equal 0.5*(-9.9450280512878e-10+-5.53233348548461e-10)
variable C56all equal 0.5*(${C56}+${C65})
variable C56all equal 0.5*(-1.47528892946257e-09+${C65})
variable C56all equal 0.5*(-1.47528892946257e-09+3.42477787196667e-10)

print "c11 = ${C11all} ${cunits}"
c11 = 135.911187701277 GPa
print "c22 = ${C22all} ${cunits}"
c22 = 135.911187701277 GPa
print "c33 = ${C33all} ${cunits}"
c33 = 135.911187701277 GPa
print "c12 = ${C12all} ${cunits}"
c12 = 93.5120998008642 GPa
print "c13 = ${C13all} ${cunits}"
c13 = 93.5120998008642 GPa
print "c23 = ${C23all} ${cunits}"
c23 = 93.5120998008642 GPa
print "c44 = ${C44all} ${cunits}"
c44 = 55.3895870973377 GPa
print "c55 = ${C55all} ${cunits}"
c55 = 55.3895871031466 GPa
print "c66 = ${C66all} ${cunits}"
c66 = 55.3895870983783 GPa
print "c14 = ${C14all} ${cunits}"
c14 = -2.29525770084496e-09 GPa
print "c15 = ${C15all} ${cunits}"
c15 = -1.3863763051756e-09 GPa
print "c16 = ${C16all} ${cunits}"
c16 = -4.34682798641275e-10 GPa
print "c24 = ${C24all} ${cunits}"
c24 = -9.3193554806592e-10 GPa
print "c25 = ${C25all} ${cunits}"
c25 = -1.97254054607755e-09 GPa
print "c26 = ${C26all} ${cunits}"
c26 = -2.51235437897523e-08 GPa
print "c34 = ${C34all} ${cunits}"
c34 = -7.9033285452556e-10 GPa
print "c35 = ${C35all} ${cunits}"
c35 = -7.0800627566826e-10 GPa
print "c36 = ${C36all} ${cunits}"
c36 = -1.41600368643073e-10 GPa
print "c45 = ${C45all} ${cunits}"
c45 = -2.33806950874649e-10 GPa
print "c46 = ${C46all} ${cunits}"
c46 = -7.73868076838621e-10 GPa
print "c56 = ${C56all} ${cunits}"
c56 = -5.66405571132951e-10 GPa
print "lammps_sim_done"
lammps_sim_done
Total wall time: 0:00:00
