LAMMPS (11 Aug 2017)
# ---- initialize simulations
clear
units metal
dimension 3
boundary p p p
atom_style atomic
atom_modify map array
# ---- create atoms
read_data /home/sullberg/repos/pypospack/examples/Ni__eam__born_exp_rose/01_preconditioning_3.5NN/rank_32/Ni_fcc_110_s.lmps_min_pos/lammps.structure
  triclinic box = (0 0 0) to (3.5182 2.5184 25.1844) with tilt (0 0 0)
  1 by 1 by 1 MPI processor grid
  reading atoms ...
  10 atoms
# ---- define interatomic potential
include potential.mod
mass 1 58.6934

group Ni type 1
10 atoms in group Ni

pair_style eam/alloy
pair_coeff * * /home/sullberg/repos/pypospack/examples/Ni__eam__born_exp_rose/01_preconditioning_3.5NN/rank_32/Ni_fcc_110_s.lmps_min_pos/Ni.eam.alloy Ni

neighbor 1.0 bin
neigh_modify every 1 delay 0 check yes
# ---- define settings
compute eng all pe/atom
compute eatoms all reduce sum c_eng

# ---- run minimization
reset_timestep 0
thermo 1
thermo_style custom step pe lx ly lz xy xz yz press pxx pyy pzz pxy pxz pyz c_eatoms
min_style cg
minimize 1e-20 1e-20 1000 100000
Neighbor list info ...
  update every 1 steps, delay 0 steps, check yes
  max neighbors/atom: 2000, page size: 100000
  master list distance cutoff = 11
  ghost atom cutoff = 11
  binsize = 5.5, bins = 1 1 5
  1 neighbor lists, perpetual/occasional/extra = 1 0 0
  (1) pair eam/alloy, perpetual
      attributes: half, newton on
      pair build: half/bin/newton/tri
      stencil: half/bin/3d/newton/tri
      bin: standard
Per MPI rank memory allocation (min/avg/max) = 4.341 | 4.341 | 4.341 Mbytes
Step PotEng Lx Ly Lz Xy Xz Yz Press Pxx Pyy Pzz Pxy Pxz Pyz c_eatoms 
       0   -43.150534       3.5182       2.5184      25.1844            0            0            0   -58150.868   -60693.905   -65625.795   -48132.904 -2.8365139e-12 -6.1009205e-13 -8.0702636e-12   -43.150534 
       1   -43.392038       3.5182       2.5184      25.1844            0            0            0   -51133.613   -54293.609   -57827.855   -41279.376 -2.2672795e-12 3.0938115e-12 -7.891531e-13   -43.392038 
       2   -43.551884       3.5182       2.5184      25.1844            0            0            0   -41911.429   -45259.826   -48131.998   -32342.464 -2.1331875e-12 -1.0872598e-12 -3.4099568e-13   -43.551884 
       3   -43.627052       3.5182       2.5184      25.1844            0            0            0   -31073.691   -34313.737   -37140.958   -21766.378 3.1198782e-12 -8.9362971e-13 1.4443115e-13   -43.627052 
       4   -43.674733       3.5182       2.5184      25.1844            0            0            0   -21484.677   -24286.871   -27594.021   -12573.139 -2.4066506e-12 3.5429876e-12 2.6324322e-12   -43.674733 
       5   -43.690431       3.5182       2.5184      25.1844            0            0            0   -13855.091   -16538.853   -20622.146   -4404.2738 1.548189e-13 9.6144812e-13 -6.8378672e-12   -43.690431 
       6   -43.692759       3.5182       2.5184      25.1844            0            0            0    -10430.26    -13048.43   -17317.119   -925.23094 -2.003304e-12 -1.629284e-12 6.8098422e-12   -43.692759 
       7   -43.693193       3.5182       2.5184      25.1844            0            0            0   -10123.311   -12766.248   -17026.831   -576.85366 2.5182155e-12 -2.4109048e-12 2.8169912e-11   -43.693193 
       8   -43.693215       3.5182       2.5184      25.1844            0            0            0    -9862.223   -12514.287    -16782.07   -290.31213 -7.5095925e-13 -5.9127489e-13 -3.4192012e-13   -43.693215 
       9   -43.693231       3.5182       2.5184      25.1844            0            0            0   -9739.9101   -12412.632   -16689.496   -117.60155 2.5191157e-12 -1.1635897e-12 4.1504505e-11   -43.693231 
      10   -43.693233       3.5182       2.5184      25.1844            0            0            0   -9663.7479   -12334.594   -16618.602   -38.048109 -9.2633471e-13 2.0425804e-13 -2.2671822e-12   -43.693233 
      11   -43.693233       3.5182       2.5184      25.1844            0            0            0   -9625.4422   -12292.169   -16580.538    -3.619577 1.675591e-12 -9.8402993e-13 8.0693635e-14   -43.693233 
      12   -43.693233       3.5182       2.5184      25.1844            0            0            0   -9621.2277   -12287.772    -16576.28   0.36880069 1.8499204e-12 6.9878024e-13 -2.7519011e-11   -43.693233 
      13   -43.693233       3.5182       2.5184      25.1844            0            0            0   -9621.2261   -12287.743   -16576.222   0.28681873 1.8258607e-12 -2.072944e-12 5.2387758e-11   -43.693233 
      14   -43.693233       3.5182       2.5184      25.1844            0            0            0    -9621.351   -12287.875   -16576.338   0.15985524 6.041197e-13 -5.1598039e-12 -4.274437e-11   -43.693233 
      15   -43.693233       3.5182       2.5184      25.1844            0            0            0   -9621.4861   -12288.014   -16576.468  0.023834419 -1.943167e-12 -7.1935809e-14 -7.574741e-11   -43.693233 
      16   -43.693233       3.5182       2.5184      25.1844            0            0            0   -9621.4958   -12288.022   -16576.476  0.011160582 5.3648982e-13 -4.9598183e-13 4.373921e-11   -43.693233 
      17   -43.693233       3.5182       2.5184      25.1844            0            0            0   -9621.5047    -12288.03   -16576.484 -0.00014840449 3.6600414e-13 5.4225843e-13 -1.984791e-12   -43.693233 
      18   -43.693233       3.5182       2.5184      25.1844            0            0            0   -9621.5036   -12288.029   -16576.482 0.00023036566 7.5472998e-13 -3.6230214e-12 -1.8809353e-11   -43.693233 
      19   -43.693233       3.5182       2.5184      25.1844            0            0            0    -9621.504   -12288.029   -16576.483 -0.00025086978 4.3313045e-12 4.2418834e-12 8.1111821e-11   -43.693233 
      20   -43.693233       3.5182       2.5184      25.1844            0            0            0   -9621.5039   -12288.029   -16576.483 -9.9848225e-05 -2.3742466e-12 -4.6618881e-12 1.510832e-11   -43.693233 
      21   -43.693233       3.5182       2.5184      25.1844            0            0            0   -9621.5038   -12288.029   -16576.482 -2.1439791e-05 1.7382095e-12 1.2307938e-12 -1.9279916e-11   -43.693233 
      22   -43.693233       3.5182       2.5184      25.1844            0            0            0   -9621.5038   -12288.029   -16576.482 -8.4803346e-07 -1.8456875e-12 1.8808587e-12 -2.9271257e-11   -43.693233 
      23   -43.693233       3.5182       2.5184      25.1844            0            0            0   -9621.5038   -12288.029   -16576.482 5.3789251e-07 4.2843041e-12 -2.0097143e-12 -1.7275639e-11   -43.693233 
      24   -43.693233       3.5182       2.5184      25.1844            0            0            0   -9621.5038   -12288.029   -16576.482 -7.569238e-08 6.168672e-13 -1.5182664e-13 -4.9726522e-11   -43.693233 
      25   -43.693233       3.5182       2.5184      25.1844            0            0            0   -9621.5038   -12288.029   -16576.482 2.5472672e-07 1.1624554e-12 1.7133896e-12 -2.1977399e-11   -43.693233 
      26   -43.693233       3.5182       2.5184      25.1844            0            0            0   -9621.5038   -12288.029   -16576.482 1.3238716e-07 5.410147e-13 4.5517888e-13 -7.5048243e-12   -43.693233 
      27   -43.693233       3.5182       2.5184      25.1844            0            0            0   -9621.5038   -12288.029   -16576.482 5.7588173e-08 4.3598647e-12 -7.053699e-13 -6.5165523e-13   -43.693233 
      28   -43.693233       3.5182       2.5184      25.1844            0            0            0   -9621.5038   -12288.029   -16576.482 9.6150499e-09 5.4517223e-12 -8.100025e-12 4.3075026e-11   -43.693233 
      29   -43.693233       3.5182       2.5184      25.1844            0            0            0   -9621.5038   -12288.029   -16576.482 2.8175348e-09 -9.06362e-12 1.5543031e-11 -2.3817127e-11   -43.693233 
      30   -43.693233       3.5182       2.5184      25.1844            0            0            0   -9621.5038   -12288.029   -16576.482 8.7153982e-10 -4.3985451e-12 6.9078538e-12 -3.0195184e-11   -43.693233 
      31   -43.693233       3.5182       2.5184      25.1844            0            0            0   -9621.5038   -12288.029   -16576.482 1.4541168e-09 2.4395654e-12 3.3125586e-11 2.6693099e-11   -43.693233 
      32   -43.693233       3.5182       2.5184      25.1844            0            0            0   -9621.5038   -12288.029   -16576.482 8.0527122e-10 -1.5718011e-11 2.4506617e-12 1.5099222e-12   -43.693233 
      33   -43.693233       3.5182       2.5184      25.1844            0            0            0   -9621.5038   -12288.029   -16576.482 1.4587787e-10 -1.2462703e-11 -1.6668849e-11 -2.7075622e-11   -43.693233 
      34   -43.693233       3.5182       2.5184      25.1844            0            0            0   -9621.5038   -12288.029   -16576.482 6.9468681e-11 3.4195004e-11 2.9582923e-11 1.1339074e-11   -43.693233 
      35   -43.693233       3.5182       2.5184      25.1844            0            0            0   -9621.5038   -12288.029   -16576.482 -3.2828565e-11 8.9509238e-11 -2.4089194e-11 1.8505821e-11   -43.693233 
      36   -43.693233       3.5182       2.5184      25.1844            0            0            0   -9621.5038   -12288.029   -16576.482 -3.0524235e-11 6.9641745e-13 -1.7256952e-11 -1.6435131e-11   -43.693233 
      37   -43.693233       3.5182       2.5184      25.1844            0            0            0   -9621.5038   -12288.029   -16576.482 -1.1633373e-10 1.9636505e-12 2.5116879e-11 -5.9731779e-12   -43.693233 
      38   -43.693233       3.5182       2.5184      25.1844            0            0            0   -9621.5038   -12288.029   -16576.482 -1.5290359e-10  5.54312e-12 1.5619716e-11 1.4038333e-11   -43.693233 
      39   -43.693233       3.5182       2.5184      25.1844            0            0            0   -9621.5038   -12288.029   -16576.482 -5.1548563e-11 3.5371716e-11 -2.2927258e-13 3.3914146e-11   -43.693233 
      40   -43.693233       3.5182       2.5184      25.1844            0            0            0   -9621.5038   -12288.029   -16576.482 1.1148226e-12 -7.1767172e-11 -4.1649575e-12 -1.2790902e-11   -43.693233 
      41   -43.693233       3.5182       2.5184      25.1844            0            0            0   -9621.5038   -12288.029   -16576.482 -6.1007234e-11 -1.2966545e-11 -2.5303245e-11 -1.5809019e-11   -43.693233 
      42   -43.693233       3.5182       2.5184      25.1844            0            0            0   -9621.5038   -12288.029   -16576.482 3.9481642e-11 -1.9947992e-11 -1.1877202e-11 -3.8014098e-11   -43.693233 
      43   -43.693233       3.5182       2.5184      25.1844            0            0            0   -9621.5038   -12288.029   -16576.482 -3.6062003e-11 5.4223155e-11 -2.4013512e-11 2.3799392e-13   -43.693233 
      44   -43.693233       3.5182       2.5184      25.1844            0            0            0   -9621.5038   -12288.029   -16576.482 -1.0041473e-10 4.6448152e-11 1.278108e-11 -3.0523699e-12   -43.693233 
      45   -43.693233       3.5182       2.5184      25.1844            0            0            0   -9621.5038   -12288.029   -16576.482 -5.5160145e-11 1.6864994e-11 2.4672699e-11 -1.7375916e-11   -43.693233 
      46   -43.693233       3.5182       2.5184      25.1844            0            0            0   -9621.5038   -12288.029   -16576.482 1.0734309e-10 3.8388446e-11 -8.419564e-12 -1.0923953e-11   -43.693233 
      47   -43.693233       3.5182       2.5184      25.1844            0            0            0   -9621.5038   -12288.029   -16576.482 6.7277132e-12 8.2315049e-12 1.0525584e-11 -3.1125289e-11   -43.693233 
      48   -43.693233       3.5182       2.5184      25.1844            0            0            0   -9621.5038   -12288.029   -16576.482 7.0529327e-11 -1.2435383e-12 1.4324437e-11 -1.624477e-11   -43.693233 
      49   -43.693233       3.5182       2.5184      25.1844            0            0            0   -9621.5038   -12288.029   -16576.482 1.7987283e-10 2.8867668e-11 1.7939403e-11 -1.5436155e-11   -43.693233 
      50   -43.693233       3.5182       2.5184      25.1844            0            0            0   -9621.5038   -12288.029   -16576.482 1.0071986e-10 4.9454324e-11 -1.5090482e-11 4.8254186e-11   -43.693233 
      51   -43.693233       3.5182       2.5184      25.1844            0            0            0   -9621.5038   -12288.029   -16576.482 -1.2003359e-10 -8.049583e-11 -1.3355283e-11 1.0710262e-11   -43.693233 
      52   -43.693233       3.5182       2.5184      25.1844            0            0            0   -9621.5038   -12288.029   -16576.482 -5.5644623e-11 1.3580055e-11 2.3370316e-11 2.0329493e-11   -43.693233 
      53   -43.693233       3.5182       2.5184      25.1844            0            0            0   -9621.5038   -12288.029   -16576.482 -6.5532087e-11 7.0349183e-12 -2.0602156e-11 -3.7029231e-11   -43.693233 
      54   -43.693233       3.5182       2.5184      25.1844            0            0            0   -9621.5038   -12288.029   -16576.482 -2.55024e-11 3.1890869e-11 2.7915874e-13 -3.6217868e-11   -43.693233 
      55   -43.693233       3.5182       2.5184      25.1844            0            0            0   -9621.5038   -12288.029   -16576.482 1.2087834e-10 2.0835817e-11 1.6996419e-11 -1.2636667e-11   -43.693233 
      56   -43.693233       3.5182       2.5184      25.1844            0            0            0   -9621.5038   -12288.029   -16576.482 1.0290175e-10 8.7362963e-11 -4.9743962e-11 1.262426e-11   -43.693233 
      57   -43.693233       3.5182       2.5184      25.1844            0            0            0   -9621.5038   -12288.029   -16576.482 6.3889411e-11 3.9088975e-11 -4.4051217e-11 -8.3483976e-13   -43.693233 
      58   -43.693233       3.5182       2.5184      25.1844            0            0            0   -9621.5038   -12288.029   -16576.482 -2.2656836e-11 2.0376055e-11 -4.0612745e-12 -5.4053788e-12   -43.693233 
      59   -43.693233       3.5182       2.5184      25.1844            0            0            0   -9621.5038   -12288.029   -16576.482 1.598564e-10 -7.8657441e-13 -1.1903783e-11 -4.1773881e-11   -43.693233 
      60   -43.693233       3.5182       2.5184      25.1844            0            0            0   -9621.5038   -12288.029   -16576.482 -1.2887579e-11 -8.67414e-13 1.8216591e-11 1.9541459e-11   -43.693233 
      61   -43.693233       3.5182       2.5184      25.1844            0            0            0   -9621.5038   -12288.029   -16576.482 5.5685177e-13 8.0263942e-11 2.6777412e-11 -1.9732939e-11   -43.693233 
      62   -43.693233       3.5182       2.5184      25.1844            0            0            0   -9621.5038   -12288.029   -16576.482 2.9263059e-11 8.8173037e-11 3.7681197e-11 -1.5897498e-11   -43.693233 
      63   -43.693233       3.5182       2.5184      25.1844            0            0            0   -9621.5038   -12288.029   -16576.482 -8.9296618e-11 -6.8529988e-14 1.2544847e-11 -2.0423347e-11   -43.693233 
      64   -43.693233       3.5182       2.5184      25.1844            0            0            0   -9621.5038   -12288.029   -16576.482 -1.5179988e-12 1.0566171e-11 2.0644914e-11 -6.2849565e-13   -43.693233 
      65   -43.693233       3.5182       2.5184      25.1844            0            0            0   -9621.5038   -12288.029   -16576.482 -1.5804448e-10 2.0971247e-11 -2.1308964e-11 -6.7680965e-13   -43.693233 
      66   -43.693233       3.5182       2.5184      25.1844            0            0            0   -9621.5038   -12288.029   -16576.482 -5.077228e-12 2.0980151e-11 -1.3550811e-11 -3.5321601e-11   -43.693233 
      67   -43.693233       3.5182       2.5184      25.1844            0            0            0   -9621.5038   -12288.029   -16576.482 1.5552269e-11 -1.0860264e-11 -4.5538566e-13 7.540999e-12   -43.693233 
      68   -43.693233       3.5182       2.5184      25.1844            0            0            0   -9621.5038   -12288.029   -16576.482 -5.6374053e-11 5.1342098e-11 -1.9684001e-11 1.2423463e-12   -43.693233 
      69   -43.693233       3.5182       2.5184      25.1844            0            0            0   -9621.5038   -12288.029   -16576.482 -5.4620103e-11 5.9929219e-11 -5.4292944e-11 -6.5240208e-12   -43.693233 
      70   -43.693233       3.5182       2.5184      25.1844            0            0            0   -9621.5038   -12288.029   -16576.482 -3.9279871e-11 -1.559455e-11 -3.9595195e-11 -8.537299e-12   -43.693233 
      71   -43.693233       3.5182       2.5184      25.1844            0            0            0   -9621.5038   -12288.029   -16576.482 -1.7042729e-11 3.5821454e-12 -1.6094178e-12 -2.070406e-11   -43.693233 
      72   -43.693233       3.5182       2.5184      25.1844            0            0            0   -9621.5038   -12288.029   -16576.482 1.0347744e-10 3.2771858e-11 2.3615691e-11 -3.2420645e-11   -43.693233 
      73   -43.693233       3.5182       2.5184      25.1844            0            0            0   -9621.5038   -12288.029   -16576.482 2.7794924e-10 4.7872466e-11 -1.3166601e-11 2.4207117e-11   -43.693233 
      74   -43.693233       3.5182       2.5184      25.1844            0            0            0   -9621.5038   -12288.029   -16576.482 1.6692037e-10 6.7548893e-11 -2.6507446e-12 -3.4856804e-11   -43.693233 
      75   -43.693233       3.5182       2.5184      25.1844            0            0            0   -9621.5038   -12288.029   -16576.482 -1.4549571e-11 1.1531356e-11 -2.5007577e-11 -2.150742e-11   -43.693233 
      76   -43.693233       3.5182       2.5184      25.1844            0            0            0   -9621.5038   -12288.029   -16576.482 7.0445227e-11 2.3813867e-11 -9.0312951e-13 -2.4613529e-11   -43.693233 
      77   -43.693233       3.5182       2.5184      25.1844            0            0            0   -9621.5038   -12288.029   -16576.482 1.1769715e-11 1.2739547e-11 -1.6863349e-11 -2.615622e-12   -43.693233 
      78   -43.693233       3.5182       2.5184      25.1844            0            0            0   -9621.5038   -12288.029   -16576.482 6.8565968e-11 3.5579179e-11 -1.6795661e-11 -4.0267997e-11   -43.693233 
      79   -43.693233       3.5182       2.5184      25.1844            0            0            0   -9621.5038   -12288.029   -16576.482 -1.1736727e-11 4.7223852e-11 1.7475329e-11 -3.3926115e-12   -43.693233 
      80   -43.693233       3.5182       2.5184      25.1844            0            0            0   -9621.5038   -12288.029   -16576.482 5.7224608e-12 2.8204822e-11 2.030903e-11 4.5066313e-13   -43.693233 
      81   -43.693233       3.5182       2.5184      25.1844            0            0            0   -9621.5038   -12288.029   -16576.482 4.9527987e-11 1.940362e-11 -4.4592174e-12 -1.4901562e-11   -43.693233 
      82   -43.693233       3.5182       2.5184      25.1844            0            0            0   -9621.5038   -12288.029   -16576.482 1.0821464e-10 -1.5827508e-11 2.2654264e-11 -1.89252e-11   -43.693233 
      83   -43.693233       3.5182       2.5184      25.1844            0            0            0   -9621.5038   -12288.029   -16576.482 7.7908671e-11 -1.3913096e-11 3.2685952e-11 -1.8210464e-11   -43.693233 
      84   -43.693233       3.5182       2.5184      25.1844            0            0            0   -9621.5038   -12288.029   -16576.482 -1.550948e-10 5.089523e-11 4.6020064e-12 3.2879311e-12   -43.693233 
      85   -43.693233       3.5182       2.5184      25.1844            0            0            0   -9621.5038   -12288.029   -16576.482 -3.4381351e-11 -4.1622371e-11 3.9641664e-11 -1.6190836e-11   -43.693233 
      86   -43.693233       3.5182       2.5184      25.1844            0            0            0   -9621.5038   -12288.029   -16576.482 -1.3021189e-10 7.1577711e-11 -1.0491264e-10 1.7666359e-11   -43.693233 
      87   -43.693233       3.5182       2.5184      25.1844            0            0            0   -9621.5038   -12288.029   -16576.482 -1.3698159e-10 3.372016e-11 -1.2937529e-10 5.9520861e-12   -43.693233 
      88   -43.693233       3.5182       2.5184      25.1844            0            0            0   -9621.5038   -12288.029   -16576.482 6.0300575e-11 -1.6297998e-11 -1.631188e-11 6.5250669e-13   -43.693233 
      89   -43.693233       3.5182       2.5184      25.1844            0            0            0   -9621.5038   -12288.029   -16576.482 2.2845283e-10 1.2297277e-11 -2.9396187e-11 -3.081497e-11   -43.693233 
      90   -43.693233       3.5182       2.5184      25.1844            0            0            0   -9621.5038   -12288.029   -16576.482 -3.0564117e-10 -2.112339e-12 1.7810465e-11 2.8701682e-11   -43.693233 
      91   -43.693233       3.5182       2.5184      25.1844            0            0            0   -9621.5038   -12288.029   -16576.482 7.9387697e-11 -3.9405765e-11 -1.7101823e-11 -2.755864e-11   -43.693233 
      92   -43.693233       3.5182       2.5184      25.1844            0            0            0   -9621.5038   -12288.029   -16576.482 -1.253845e-10 4.2841314e-11 2.4743647e-11 2.2031041e-11   -43.693233 
      93   -43.693233       3.5182       2.5184      25.1844            0            0            0   -9621.5038   -12288.029   -16576.482 -1.9156406e-11 -4.1680683e-12 -2.0187555e-11 -3.603371e-11   -43.693233 
      94   -43.693233       3.5182       2.5184      25.1844            0            0            0   -9621.5038   -12288.029   -16576.482 -3.740538e-11 -7.9980481e-11 8.1757985e-12 -6.0251896e-12   -43.693233 
      95   -43.693233       3.5182       2.5184      25.1844            0            0            0   -9621.5038   -12288.029   -16576.482 4.4977615e-11 -3.0100064e-11 -1.2093743e-11 -5.93929e-12   -43.693233 
      96   -43.693233       3.5182       2.5184      25.1844            0            0            0   -9621.5038   -12288.029   -16576.482 -6.4763028e-11 6.3287456e-11 3.1610536e-11 3.0195038e-12   -43.693233 
      97   -43.693233       3.5182       2.5184      25.1844            0            0            0   -9621.5038   -12288.029   -16576.482 4.4112026e-11 3.9232092e-11 -3.5272317e-11 -4.8385139e-11   -43.693233 
      98   -43.693233       3.5182       2.5184      25.1844            0            0            0   -9621.5038   -12288.029   -16576.482 5.547241e-11 3.0065884e-11 4.5811035e-11 3.2717535e-12   -43.693233 
      99   -43.693233       3.5182       2.5184      25.1844            0            0            0   -9621.5038   -12288.029   -16576.482 1.3394881e-10 7.7717191e-12 7.8779837e-12 -1.3422122e-11   -43.693233 
     100   -43.693233       3.5182       2.5184      25.1844            0            0            0   -9621.5038   -12288.029   -16576.482 2.6660914e-11 2.8250873e-11 8.8923893e-12 -3.7962743e-13   -43.693233 
     101   -43.693233       3.5182       2.5184      25.1844            0            0            0   -9621.5038   -12288.029   -16576.482 -6.1902795e-11 3.8401023e-11 -5.8721588e-12 1.4895091e-11   -43.693233 
     102   -43.693233       3.5182       2.5184      25.1844            0            0            0   -9621.5038   -12288.029   -16576.482 -5.2579287e-11 -2.3276234e-11 6.3333197e-11 2.6110363e-11   -43.693233 
     103   -43.693233       3.5182       2.5184      25.1844            0            0            0   -9621.5038   -12288.029   -16576.482 -9.0810627e-12 8.2208009e-12 6.4483368e-11 5.3713936e-12   -43.693233 
     104   -43.693233       3.5182       2.5184      25.1844            0            0            0   -9621.5038   -12288.029   -16576.482 -8.9048382e-11 -2.2552764e-11 -4.633118e-12 -4.9303154e-12   -43.693233 
     105   -43.693233       3.5182       2.5184      25.1844            0            0            0   -9621.5038   -12288.029   -16576.482 -3.8819185e-11 -3.4426892e-11 -1.484554e-11 -2.6379521e-11   -43.693233 
     106   -43.693233       3.5182       2.5184      25.1844            0            0            0   -9621.5038   -12288.029   -16576.482 -1.2951299e-10 2.192169e-11 -1.3328295e-11 -3.0768602e-11   -43.693233 
     107   -43.693233       3.5182       2.5184      25.1844            0            0            0   -9621.5038   -12288.029   -16576.482 1.4602626e-10 1.4034148e-11 -2.412768e-11 -2.0829492e-11   -43.693233 
     108   -43.693233       3.5182       2.5184      25.1844            0            0            0   -9621.5038   -12288.029   -16576.482 -4.0235982e-11 2.0987814e-11 2.3993691e-11 -9.4464343e-12   -43.693233 
     109   -43.693233       3.5182       2.5184      25.1844            0            0            0   -9621.5038   -12288.029   -16576.482 7.3294683e-11 1.6116978e-11 -6.2114151e-12 -3.9844459e-12   -43.693233 
     110   -43.693233       3.5182       2.5184      25.1844            0            0            0   -9621.5038   -12288.029   -16576.482 1.0617341e-10 6.9140117e-12 -6.137873e-11 -3.4479342e-11   -43.693233 
     111   -43.693233       3.5182       2.5184      25.1844            0            0            0   -9621.5038   -12288.029   -16576.482 2.5031827e-10 -3.4028727e-11 -2.2882554e-11 -9.4387712e-12   -43.693233 
     112   -43.693233       3.5182       2.5184      25.1844            0            0            0   -9621.5038   -12288.029   -16576.482 -7.9947687e-11 4.8815222e-11 8.5692012e-12 1.9425344e-13   -43.693233 
     113   -43.693233       3.5182       2.5184      25.1844            0            0            0   -9621.5038   -12288.029   -16576.482 -7.9947687e-11 4.8815222e-11 8.5692012e-12 1.9425344e-13   -43.693233 
Loop time of 0.0308411 on 1 procs for 113 steps with 10 atoms

95.9% CPU use with 1 MPI tasks x no OpenMP threads

Minimization stats:
  Stopping criterion = energy tolerance
  Energy initial, next-to-last, final = 
        -43.1505339037     -43.6932334517     -43.6932334517
  Force two-norm initial, final = 1.75224 1.88245e-14
  Force max component initial, final = 1.11812 8.44116e-15
  Final line search alpha, max atom move = 1 8.44116e-15
  Iterations, force evaluations = 113 222

MPI task timing breakdown:
Section |  min time  |  avg time  |  max time  |%varavg| %total
---------------------------------------------------------------
Pair    | 0.027292   | 0.027292   | 0.027292   |   0.0 | 88.49
Neigh   | 8.7976e-05 | 8.7976e-05 | 8.7976e-05 |   0.0 |  0.29
Comm    | 0.0015004  | 0.0015004  | 0.0015004  |   0.0 |  4.86
Output  | 0.0015399  | 0.0015399  | 0.0015399  |   0.0 |  4.99
Modify  | 0          | 0          | 0          |   0.0 |  0.00
Other   |            | 0.0004208  |            |       |  1.36

Nlocal:    10 ave 10 max 10 min
Histogram: 1 0 0 0 0 0 0 0 0 0
Nghost:    1420 ave 1420 max 1420 min
Histogram: 1 0 0 0 0 0 0 0 0 0
Neighs:    1782 ave 1782 max 1782 min
Histogram: 1 0 0 0 0 0 0 0 0 0

Total # of neighbors = 1782
Ave neighs/atom = 178.2
Neighbor list builds = 1
Dangerous builds = 0

# ---- define output variables ----
variable natoms equal "count(all)"
variable tot_energy equal "c_eatoms"
variable a11 equal "xhi-xlo"
variable a22 equal "yhi-ylo"
variable a33 equal "zhi-zlo"
variable tilt_xy equal "xy"
variable tilt_xz equal "xz"
variable tilt_yz equal "yz"
variable tot_press equal "press"
variable press_xx equal "pxx"
variable press_yy equal "pyy"
variable press_zz equal "pzz"
variable press_xy equal "pxy"
variable press_xz equal "pxz"
variable press_yz equal "pyz"

# ---- output ----
print "pypospack:output_section:begin"
pypospack:output_section:begin
print "tot_energy = ${tot_energy}"
tot_energy = -43.6932334516518
print "num_atoms = ${natoms}"
num_atoms = 10
print "a11 = ${a11}"
a11 = 3.5182
print "a22 = ${a22}"
a22 = 2.5184
print "a33 = ${a33}"
a33 = 25.1844
print "a12 = ${tilt_xy}"
a12 = 0
print "a13 = ${tilt_xz}"
a13 = 0
print "a23 = ${tilt_yz}"
a23 = 0
print "tot_press = ${tot_press}"
tot_press = -9621.50376743994
print "pxx = ${press_xx}"
pxx = -12288.0288223239
print "pyy = ${press_yy}"
pyy = -16576.4824799958
print "pzz = ${press_zz}"
pzz = -7.99476873104364e-11
print "pxy = ${press_xy}"
pxy = 4.8815221689128e-11
print "pxz = ${press_xz}"
pxz = 8.56920122456545e-12
print "pyz = ${press_yz}"
pyz = 1.94253444845685e-13
print "pypospack:output_section:done"
pypospack:output_section:done
print "pypospack:lammps_sim:done"
pypospack:lammps_sim:done
Total wall time: 0:00:00
