LAMMPS (10 Feb 2015)
Reading data file ...
  triclinic box = (0 0 0) to (4.2565 4.2565 4.2565) with tilt (0 0 0)
  1 by 1 by 1 MPI processor grid
  reading atoms ...
  8 atoms
4 atoms in group Mg
4 atoms in group O
Setting atom values ...
  4 settings made for charge
Setting atom values ...
  4 settings made for charge
PPPM initialization ...
  G vector (1/distance) = 0.35267
  grid = 8 8 8
  stencil order = 5
  estimated absolute RMS force accuracy = 3.88211e-05
  estimated relative force accuracy = 2.69597e-06
  using double precision FFTs
  3d grid and FFT values/proc = 3375 512
Neighbor list info ...
  1 neighbor list requests
  update every 1 steps, delay 0 steps, check yes
  master list distance cutoff = 11
Setting up minimization ...
Memory usage per processor = 4.06549 Mbytes
Step PotEng Lx Ly Lz Xy Xz Yz Press Pxx Pyy Pzz Pxy Pxz Pyz eatoms 
       0   -108.70031       4.2565       4.2565       4.2565            0            0            0    82041.316    82041.316    82041.316    82041.316 -4.6499549e-11 -1.1702618e-10 1.7098221e-10   -108.70031 
      10   -108.77917     4.299065     4.299065     4.299065            0            0            0    28384.418    28384.418    28384.418    28384.418 -2.893711e-10 1.1285336e-10 8.1895601e-11   -108.77917 
      19   -108.79132    4.3240425    4.3240425    4.3240425            0            0            0 -0.024351241 -0.024351241 -0.024351241 -0.024351241 1.5580285e-11 -3.1606067e-12 1.2588801e-10   -108.79132 
Loop time of 0.00832796 on 1 procs for 19 steps with 8 atoms

Minimization stats:
  Stopping criterion = linesearch alpha is zero
  Energy initial, next-to-last, final = 
        -108.700309346      -108.79131697      -108.79131697
  Force two-norm initial, final = 11.8468 7.13952e-05
  Force max component initial, final = 11.8468 1.5084e-05
  Final line search alpha, max atom move = 0.5 7.54202e-06
  Iterations, force evaluations = 19 24

Pair  time (%) = 0.002213 (26.5731)
Kspce time (%) = 0.0013504 (16.2153)
Neigh time (%) = 0 (0)
Comm  time (%) = 0.000253439 (3.04323)
Outpt time (%) = 1.21593e-05 (0.146006)
Other time (%) = 0.00449896 (54.0223)

Nlocal:    8 ave 8 max 8 min
Histogram: 1 0 0 0 0 0 0 0 0 0
Nghost:    2189 ave 2189 max 2189 min
Histogram: 1 0 0 0 0 0 0 0 0 0
Neighs:    2344 ave 2344 max 2344 min
Histogram: 1 0 0 0 0 0 0 0 0 0

Total # of neighbors = 2344
Ave neighs/atom = 293
Neighbor list builds = 0
Dangerous builds = 0
pypospack:output_section:begin
tot_energy = -108.791316969709
num_atoms = 8
xx = 4.32404254484564
yy = 4.32404254484564
zz = 4.32404254484564
xy = 0
xz = 0
yz = 0
tot_press = -0.0243512411551094
pxx = -0.0243512413415371
pyy = -0.0243512409516822
pzz = -0.024351241172109
pxy = 1.55802849425254e-11
pxz = -3.16060668162342e-12
pyz = 1.25888006757422e-10
pypospack:output_section:done
pypospack:lammps_sim:done
PPPM initialization ...
  G vector (1/distance) = 0.351996
  grid = 8 8 8
  stencil order = 5
  estimated absolute RMS force accuracy = 4.00454e-05
  estimated relative force accuracy = 2.781e-06
  using double precision FFTs
  3d grid and FFT values/proc = 3375 512
Setting up run ...
Memory usage per processor = 3.06549 Mbytes
Step Temp PotEng KinEng TotEng Press Lx Ly Lz Press Pxx Pyy Pzz Pxy Pxz Pyz Volume 
       0          900   -108.79133   0.81433891   -107.97699    10756.767    4.3240425    4.3240425    4.3240425    10756.767    11597.224    5688.7769    14984.302    5936.6206     5498.747    4669.3951    80.848111 
     100    187.33746   -108.04226   0.16950687   -107.87275    938.64457    4.3544417    4.3544417    4.3544417    938.64457   -13452.867   -13049.546    29318.346   -8749.0508   -2784.9062    227.35377    82.565277 
     200    708.08903   -108.28112   0.64069384   -107.64043    -21464.98    4.3687177    4.3687177    4.3687177    -21464.98   -31282.522   -29753.126   -3359.2918   -1780.3993    4312.5005    1496.4662    83.380008 
     300    1039.9708   -108.39609    0.9409874    -107.4551    5554.9404    4.3519183    4.3519183    4.3519183    5554.9404   -7144.0817    -3328.818    27137.721    2530.2885   -6185.2281   -7375.5515    82.421823 
     400    250.47518   -107.53838   0.22663521   -107.31174    10721.386    4.3617327    4.3617327    4.3617327    10721.386   -19469.926     -8507.72    60141.805   -11416.103   -6921.0443    6392.6673    82.980709 
     500    1072.4785   -108.18022   0.97040111   -107.20982   -5267.3905    4.3731998    4.3731998    4.3731998   -5267.3905   -17646.481   -13577.189    15421.499    5805.7827   -5910.7691   -332.05996    83.636905 
     600    1000.2126     -108.067   0.90501334   -107.16199   -14203.229    4.3752284    4.3752284    4.3752284   -14203.229   -34170.981   -14289.535    5850.8278   -7240.8552    6158.5277   -1691.4814    83.753352 
     700     451.6008   -107.55744    0.4086179   -107.14882     9099.127    4.3636725    4.3636725    4.3636725     9099.127   -21216.343   -4447.3215    52961.045     13.69393    358.07547    4010.4806    83.091472 
     800    917.03881   -107.98405   0.82975598   -107.15429    18783.124    4.3649539    4.3649539    4.3649539    18783.124   -15938.845   -11801.969    84090.186    313.03459    5640.6529   -9396.8545    83.164692 
     900      925.094   -108.00625   0.83704449   -107.16921   -23753.638    4.3800721    4.3800721    4.3800721   -23753.638   -37085.988   -25918.407   -8256.5187   -10579.713   -8693.6006     4891.282    84.031824 
    1000    832.27891   -107.91998   0.75306345   -107.16691    -3726.123    4.3607875    4.3607875    4.3607875    -3726.123   -22098.954   -10199.295     21119.88    2737.5746   -6525.1747   -2824.1268    82.926775 
    1100     931.0855   -108.00366   0.84246572    -107.1612    27105.263    4.3625378    4.3625378    4.3625378    27105.263    21751.452    433.42158    59130.914   -8229.8688    3654.2198    2746.5314    83.026667 
    1200    603.22801   -107.70486   0.54581338   -107.15905   -13811.641    4.3815516    4.3815516    4.3815516   -13811.641   -35908.713   -23065.976    17539.767   -3794.1583   -12431.278   -9766.1727    84.117005 
    1300    934.40111   -107.99419   0.84546576   -107.14872     3212.003    4.3631802    4.3631802    4.3631802     3212.003    6275.2692   -13520.234    16880.973   -596.56438    10126.251    4785.1189    83.063352 
    1400     1182.812   -108.22649    1.0702331   -107.15625    -1408.197    4.3678295    4.3678295    4.3678295    -1408.197   -2917.9234    -12423.41    11116.743   -6390.5672   -5460.5269    2270.0776    83.329166 
    1500    320.14819   -107.45433   0.28967681   -107.16465    9656.3324    4.3775079    4.3775079    4.3775079    9656.3324   -32642.602    -23162.45    84774.049    8236.9904    1378.4005     2101.938    83.884323 
    1600    1300.0658   -108.32769    1.1763268   -107.15136   -7513.8271    4.3691352    4.3691352    4.3691352   -7513.8271   -17101.188   -5510.6118    70.318307    -8190.662   -1042.4679    7943.7198    83.403917 
    1700    917.46273    -107.9944   0.83013956   -107.16427   -1122.0502    4.3640936    4.3640936    4.3640936   -1122.0502   -24193.925   -109.89076    20937.665    10994.687   -2225.1947   -1727.2725     83.11553 
    1800     835.6626   -107.93049   0.75612508   -107.17436   -12836.605    4.3714044    4.3714044    4.3714044   -12836.605    -45643.14   -11393.116    18526.441    2241.7009   -2772.3199   -16345.953    83.533936 
    1900    869.07512   -107.94653   0.78635743   -107.16018    10644.445    4.3785803    4.3785803    4.3785803    10644.445   -9783.7198   -10843.749    52560.803    1154.1355    11159.451   -9527.1684    83.945988 
    2000    855.21296   -107.92524   0.77381466   -107.15142   -22105.992    4.3739014    4.3739014    4.3739014   -22105.992   -23915.009   -15718.039   -26684.929    17945.451   -9999.6063   -1537.8995    83.677166 
    2100    768.56852   -107.84058   0.69541695   -107.14516    12213.888    4.3586123    4.3586123    4.3586123    12213.888    5245.2893   -17596.504    48992.878   -4655.8684   -14753.217     7640.778    82.802744 
    2200    698.85917    -107.7871   0.63234247   -107.15476    13403.911    4.3746775    4.3746775    4.3746775    13403.911    11462.027   -34940.268    63689.974     15299.81   -16992.344    7979.3222    83.721716 
    2300    977.90631   -108.03643   0.88483018    -107.1516   -12761.914    4.3764791    4.3764791    4.3764791   -12761.914    7943.5509   -25398.647   -20830.646    3319.1388   -11602.154    4385.7746    83.825197 
    2400    900.63242   -107.96372   0.81491114   -107.14881    7951.6375    4.3615869    4.3615869    4.3615869    7951.6375    17261.387   -25221.286    31814.811     2744.503    17077.313     132.5467    82.972391 
    2500    846.87212   -107.91966   0.76626769    -107.1534    7796.8818    4.3643591    4.3643591    4.3643591    7796.8818   -4194.1332   -29215.516    56800.295     9134.679   -4980.1326    1813.2869      83.1307 
    2600    1076.5194   -108.12808   0.97405741   -107.15402   -19942.971    4.3723495    4.3723495    4.3723495   -19942.971   -39364.916    -9923.825   -10540.173   -9362.0847   -3034.2195   -9654.7504    83.588127 
    2700    1117.3534   -108.16003    1.0110048   -107.14903    700.89053    4.3657944    4.3657944    4.3657944    700.89053    1116.8043   -23062.234    24048.101    8199.2437   -3749.9795    3515.5542    83.212742 
    2800    634.88469   -107.73647   0.57445701   -107.16201    4186.6906    4.3562356    4.3562356    4.3562356    4186.6906   -11208.213   -20961.186    44729.471   -7423.8225     -11898.4   -3043.6388    82.667364 
    2900    726.70685   -107.82863   0.65753963   -107.17109    9967.3048    4.3627879    4.3627879    4.3627879    9967.3048    14673.777    2923.5192    12304.618   -927.35669    1381.5853    2521.6341    83.040951 
    3000    1059.4674    -108.1156   0.95862838   -107.15697    -6623.161    4.3758689    4.3758689    4.3758689    -6623.161    -11205.23   -28242.586    19578.332    2195.8998    8023.9941    712.65153    83.790138 
    3100     529.1013   -107.62689   0.47874197   -107.14815    15752.127    4.3533923    4.3533923    4.3533923    15752.127    21184.852    2561.0837    23510.444   -15194.154   -10222.683   -1689.2186    82.505598 
    3200    1309.5389   -108.33179    1.1848983   -107.14689       -12076    4.3569532    4.3569532    4.3569532       -12076   -7710.1495   -23379.016   -5138.8343    6106.3719     3685.973    7210.5959    82.708222 
    3300    867.01749   -107.93971   0.78449564   -107.15521   -5330.0628    4.3719368    4.3719368    4.3719368   -5330.0628   -10925.205    -18978.69    13913.707   -11253.442   -9817.3913   -1176.4474    83.564465 
    3400    802.46786   -107.87883   0.72608978   -107.15274    5808.2449    4.3587019    4.3587019    4.3587019    5808.2449    535.42022   -8192.1048    25081.419    562.45147   -2982.5857    2416.8459    82.807849 
    3500    1038.7186   -108.08518   0.93985439   -107.14533    5257.9883    4.3541421    4.3541421    4.3541421    5257.9883    22141.655   -31275.034    24907.344    2194.5502    5830.1474   -363.28731    82.548236 
    3600    647.77489   -107.74036   0.58612034   -107.15424   -5446.5109     4.367886     4.367886     4.367886   -5446.5109   -1808.8682   -35606.512    21075.848   -11264.274   -20393.892    1493.2404      83.3324 
    3700     975.1218   -108.02813    0.8823107   -107.14582    -4545.238    4.3687494    4.3687494    4.3687494    -4545.238   -11108.298   -16290.617    13763.201    7185.1312   -7320.0088    3063.2861    83.381826 
    3800     1059.103   -108.10171   0.95829866   -107.14341   -2641.9306    4.3577316    4.3577316    4.3577316   -2641.9306   -5125.1498   -32853.513    30052.871    -7585.998   -2867.0764    2928.5829    82.752559 
    3900     820.8709   -107.89287   0.74274124   -107.15013     -2256.03    4.3615383    4.3615383    4.3615383     -2256.03    1080.8796   -21662.111    13813.142   -3657.9105   -5004.6746   -6651.3091    82.969612 
    4000    974.07099   -108.03381    0.8813599   -107.15245   -9935.7539     4.373255     4.373255     4.373255   -9935.7539   -21631.223   -29277.322    21101.284   -331.16367    9052.6911    8998.8087    83.640072 
    4100    902.12243   -107.96593   0.81625934   -107.14967     7780.679    4.3596454    4.3596454    4.3596454     7780.679    25557.491   -15178.327    12962.872   -9846.9911   -14543.207    3095.5726    82.861635 
    4200    823.32796   -107.89703   0.74496444   -107.15207    6418.3912    4.3558603    4.3558603    4.3558603    6418.3912    3507.3992    -10511.01    26258.784    630.91837    -4279.194    2047.1313    82.645999 
    4300    870.53491   -107.94006   0.78767828   -107.15238   -6228.2382    4.3695253    4.3695253    4.3695253   -6228.2382     2016.705   -29711.672    9010.2524   -6235.0585    9571.9677    6343.4912     83.42626 
    4400    892.61397   -107.95544   0.80765588   -107.14779    6026.2226    4.3605744    4.3605744    4.3605744    6026.2226   -2073.8609   -5527.9424    25680.471   -5822.8632   -14579.653   -2844.7854    82.914616 
    4500    1055.8695   -108.10566    0.9553729   -107.15029   -17291.928     4.362948     4.362948     4.362948   -17291.928   -35762.181   -9651.2304   -6462.3715   -56.882569   -6376.9062    8577.0083    83.050092 
    4600    907.71843   -107.96922   0.82132271   -107.14789    1321.3869    4.3652621    4.3652621    4.3652621    1321.3869     7903.239   -20417.947    16478.869   -6318.5158    14150.491    8054.9542     83.18231 
    4700    845.20972   -107.91104   0.76476352   -107.14627    1032.7871    4.3597414    4.3597414    4.3597414    1032.7871    18892.611    -21919.07    6124.8198     2710.211   -16678.844   -854.85732    82.867109 
    4800      819.338   -107.88853   0.74135424   -107.14717    744.71834    4.3647943    4.3647943    4.3647943    744.71834    28892.192   -20812.113    -5845.924   -9185.3419    12917.783    10462.558    83.155569 
    4900    1072.3055   -108.11208   0.97024456   -107.14184   -283.06908    4.3600102    4.3600102    4.3600102   -283.06908    5039.3394   -11471.005    5582.4582    2274.2653   -12057.984   -1486.1832    82.882438 
    5000    852.96731   -107.92071   0.77178275   -107.14892   -21589.865    4.3607143    4.3607143    4.3607143   -21589.865   -27484.488     -27941.9   -9343.2071   -3182.8005   -10964.756   -2233.3208    82.922597 
    5100    928.40747   -107.99545   0.84004259   -107.15541   -6576.0639    4.3643187    4.3643187    4.3643187   -6576.0639    32372.621   -31877.668   -20223.144   -8277.3364    20253.978     1347.736    83.128392 
    5200    908.42364   -107.97928    0.8219608   -107.15732    6858.0904    4.3667753    4.3667753    4.3667753    6858.0904    27529.267   -9344.4917    2389.4958    4956.5234   -13287.236    -7039.238    83.268843 
    5300    645.74531   -107.74397   0.58428393   -107.15968   -6296.2253    4.3637279    4.3637279    4.3637279   -6296.2253    17965.788   -27376.729   -9477.7343   -3459.4561    5930.3412    5836.6815    83.094636 
    5400    1151.8231   -108.19395    1.0421937   -107.15175    3147.3292    4.3523634    4.3523634    4.3523634    3147.3292    6493.6206    5658.3366   -2709.9697    -5950.995    659.24352    3824.2338    82.447113 
    5500    844.24675   -107.92253    0.7638922   -107.15864   -3425.6167    4.3687827    4.3687827    4.3687827   -3425.6167   -3368.5525   -13620.973    6712.6757    3191.6132    83.253575    -2855.361    83.383733 
    5600    826.71415   -107.90307   0.74802834   -107.15504   -4979.1176    4.3610081    4.3610081    4.3610081   -4979.1176    16249.805   -7136.0377    -24051.12   -11205.004    1351.5719    11843.952     82.93936 
    5700     889.3113   -107.95337   0.80466755    -107.1487    22523.989    4.3547784    4.3547784    4.3547784    22523.989    27379.895    15253.201    24938.872    9000.9237    4540.9902    34.853214    82.584432 
    5800    880.29181   -107.94834   0.79650653   -107.15184   -1755.3718    4.3673754    4.3673754    4.3673754   -1755.3718    36325.072    -24923.52   -16667.668   -2901.6475   -14163.568    2660.1109     83.30318 
    5900    865.49413   -107.92965   0.78311728   -107.14654   -1437.1021    4.3723177    4.3723177    4.3723177   -1437.1021   -562.81915   -12922.117    9173.6301    3904.7946    7758.7247    501.15886    83.586305 
    6000    1327.0352   -108.34083    1.2007293    -107.1401   -1248.9748    4.3581591    4.3581591    4.3581591   -1248.9748    13257.539   -8200.0745   -8804.3886    5618.7586   -1223.9319    -4303.834    82.776916 
    6100    559.66521   -107.66243   0.50639684   -107.15603    5871.9431    4.3575543    4.3575543    4.3575543    5871.9431    34896.225   -22824.812    5544.4154   -813.74296    10043.308    4972.8967     82.74246 
    6200    749.81241   -107.83558   0.67844603   -107.15714    1673.2595    4.3724633    4.3724633    4.3724633    1673.2595    18138.072   -23204.378    10086.084    4677.0163   -2736.8108   -5999.8849    83.594655 
    6300    1188.9009   -108.22568    1.0757426   -107.14994   -10132.084    4.3638049    4.3638049    4.3638049   -10132.084    33245.125   -29745.084   -33896.294    1018.3368   -2493.0868    9473.0103    83.099033 
    6400    717.07218   -107.80319   0.64882198   -107.15437    1647.9597    4.3530128    4.3530128    4.3530128    1647.9597   -5742.6616   -24372.572    35059.113   -11749.826    1416.2759    2544.1136    82.484022 
    6500    944.64501   -108.01559   0.85473465   -107.16086    -2090.086    4.3676259    4.3676259    4.3676259    -2090.086     4257.732    -22542.72     12014.73    2433.1996    13136.493    1470.4887    83.317511 
    6600    887.56944   -107.96322   0.80309148   -107.16013    -19836.86    4.3739794    4.3739794    4.3739794    -19836.86    27976.331   -43285.192   -44201.718   -2384.2069    3581.8103    11487.196    83.681645 
    6700    613.22764   -107.71384   0.55486126   -107.15898     12913.66    4.3528004    4.3528004    4.3528004     12913.66    48937.647   -11430.565    1233.8992    4096.0319    7413.1203   -13554.067    82.471949 
    6800    1031.8159   -108.09368   0.93360875   -107.16007    7370.7115    4.3609249    4.3609249    4.3609249    7370.7115    28046.935   -12490.664    6555.8635    4287.7443    2960.6581    7948.2188    82.934614 
    6900    961.60583   -108.02422   0.87008116   -107.15414   -40580.792    4.3842468    4.3842468    4.3842468   -40580.792   -38846.219   -38480.675   -44415.483    2765.4029    1982.0898   -5467.3235    84.272323 
    7000    927.19542   -107.98192    0.8389459   -107.14298    23689.405    4.3505703    4.3505703    4.3505703    23689.405    7389.0463    15245.762    48433.408    739.42748    8447.9029    1437.8105    82.345255 
    7100    1062.4115   -108.10847   0.96129226   -107.14717    3814.0233    4.3606318    4.3606318    4.3606318    3814.0233    61132.562    -21478.27   -28212.222   -8746.9426    4089.0847    8676.7572    82.917894 
    7200     488.4026   -107.59243   0.44191694   -107.15051    9631.0288    4.3739945    4.3739945    4.3739945    9631.0288    53066.765   -31199.713    7026.0338   -12482.381    5831.2077   -7311.0042    83.682509 
    7300    1134.8711   -108.16793    1.0268552   -107.14108   -2908.9075    4.3654412    4.3654412    4.3654412   -2908.9075   -2260.7185    1063.2044   -7529.2082   -12743.314    10905.443    11982.403    83.192549 
    7400    972.22644   -108.02123   0.87969091   -107.14153    2741.1338    4.3627245    4.3627245    4.3627245    2741.1338    8539.2862   -8440.7531    8124.8682    984.42649   -3562.3896   -5116.3209    83.037329 
    7500    825.25864   -107.89281   0.74671136    -107.1461    -115.7468    4.3718992    4.3718992    4.3718992    -115.7468     28175.05   -31785.988    3263.6972   -2866.7677    6340.4695    6305.8056    83.562304 
    7600    727.07329   -107.79862   0.65787119   -107.14075     14390.31    4.3718495    4.3718495    4.3718495     14390.31    52839.138   -15536.966    5868.7575    7031.5582   -10678.726    1998.5527    83.559457 
    7700    900.20821   -107.94904    0.8145273   -107.13451    14846.262    4.3593715    4.3593715    4.3593715    14846.262    31435.581   -4986.8023    18090.007    7731.5763   -5666.9861    -4571.841    82.846018 
    7800    928.77709   -107.98423   0.84037703   -107.14386   -17125.272    4.3649009    4.3649009    4.3649009   -17125.272   -14126.026   -14662.144   -22587.646     206.7381    20899.814    7454.7588    83.161664 
    7900    971.05863   -108.02775   0.87863426   -107.14912    1996.5691    4.3650318    4.3650318    4.3650318    1996.5691    5769.2533   -13202.808    13423.261   -1696.2612   -1904.3791    -12162.75    83.169143 
    8000    936.29156   -107.99764   0.84717628   -107.15047   -7799.8816    4.3746009    4.3746009    4.3746009   -7799.8816    17112.878   -18827.928   -21684.594   -5719.9974    13678.723   -6731.2019     83.71732 
    8100    678.90031   -107.76414   0.61428327   -107.14985     4101.828    4.3580311    4.3580311    4.3580311     4101.828    43696.018   -22284.456   -9106.0781   -8376.9136    1185.7754   -2357.9252    82.769624 
    8200    900.88945   -107.96176    0.8151437   -107.14662    20730.186    4.3585494    4.3585494    4.3585494    20730.186    48147.666   -13845.622    27888.514   -4486.0621   -9881.5282   -4388.3926    82.799158 
    8300    1027.7451   -108.07277   0.92992532   -107.14284   -44227.846    4.3853989    4.3853989    4.3853989   -44227.846     -36358.4   -45658.786   -50666.351   -6517.9291    19258.792   -6320.0909     84.33878 
    8400    849.69936   -107.91222   0.76882584   -107.14339    19067.116    4.3508643    4.3508643    4.3508643    19067.116    54730.761   -7163.5647    9634.1504     5404.407    5069.7133   -5654.9621    82.361946 
    8500    1113.3133   -108.15353    1.0073492   -107.14618    13124.572    4.3493833    4.3493833    4.3493833    13124.572    39413.953   -4449.6235    4409.3872    8713.1546    691.10853    4931.1639    82.277872 
    8600    501.61048   -107.60475   0.45386771   -107.15089   -28176.065      4.38385      4.38385      4.38385   -28176.065   -1134.6845   -35413.045   -47980.466   -4976.4541    2781.1136   -3009.9808    84.249446 
    8700    1132.4735   -108.15925    1.0246858   -107.13456    10124.527    4.3608267    4.3608267    4.3608267    10124.527   -8027.8606    6508.7284    31892.713   -351.43476    -4726.953    6103.3058    82.929009 
    8800    1003.5467   -108.04741   0.90803015   -107.13938    4527.1626    4.3510356    4.3510356    4.3510356    4527.1626    18594.396   -5489.1175      476.209    2561.6045    11011.303    2689.3117    82.371679 
    8900    591.53379    -107.6816    0.5352322   -107.14637   -10207.782    4.3784096    4.3784096    4.3784096   -10207.782   -3554.8107   -12444.539   -14623.996   -10056.299    16432.635   -7534.5615    83.936171 
    9000    1088.2079   -108.11952   0.98463334   -107.13489    361.77758    4.3662227    4.3662227    4.3662227    361.77758    12101.179    357.10475   -11372.951    6338.9407   -6814.7406   -2477.3743    83.237237 
    9100    676.31945   -107.75228   0.61194805   -107.14033    2996.2082    4.3522817    4.3522817    4.3522817    2996.2082    32906.611   -5437.0102   -18480.976    3659.5611    10728.911   -9408.5271    82.442467 
    9200    1043.3438   -108.08879   0.94403942   -107.14476    1215.8244    4.3658158    4.3658158    4.3658158    1215.8244   -21459.841    8061.6668    17045.647    6251.2249   -10035.463   -2397.4954    83.213969 
    9300    688.85819   -107.76762   0.62329337   -107.14432   -11351.603    4.3753056    4.3753056    4.3753056   -11351.603   -38523.057   -5204.2574     9672.505    43.648607   -3012.2103    2997.7454    83.757784 
    9400    1125.2035   -108.15501    1.0181077    -107.1369   -12637.971    4.3592374    4.3592374    4.3592374   -12637.971   -11459.051   -14224.149   -12230.713   -1530.0652     26222.57   -8738.6157    82.838372 
    9500    1017.6525   -108.06199   0.92079332    -107.1412     1107.185    4.3646359    4.3646359    4.3646359     1107.185   -18793.196     5686.014    16428.738   -7771.8341   -17016.224    537.11154     83.14652 
    9600     771.7471   -107.84393     0.698293   -107.14564   -10090.225    4.3687541    4.3687541    4.3687541   -10090.225    6263.1131   -33003.337   -3530.4506   -7400.9281    8576.8495    -6568.194    83.382094 
    9700    769.65609   -107.84164     0.696401   -107.14523     7600.744    4.3666389    4.3666389    4.3666389     7600.744   -14091.054   -17273.857    54167.143   -2137.3627   -9796.0104   -7340.8695    83.261039 
    9800    898.68744   -107.95762   0.81315128   -107.14447    10865.856    4.3601225    4.3601225    4.3601225    10865.856    38632.823    7617.5132   -13652.767   -6679.5186   -16291.918   -36.956808    82.888842 
    9900    1075.5409   -108.12158   0.97317201   -107.14841   -18824.422    4.3717103    4.3717103    4.3717103   -18824.422   -8993.7786   -19140.835   -28338.653   -4851.2743     22943.51   -5183.2132    83.551474 
   10000    1005.3129   -108.05168    0.9096282   -107.14205   -21397.868    4.3694649    4.3694649    4.3694649   -21397.868   -22845.711   -11673.891   -29674.004   -2910.4349   -11694.864       2309.5    83.422798 
   10100    845.18176   -107.90389   0.76473822   -107.13916    16707.261    4.3484765    4.3484765    4.3484765    16707.261    19171.542    2873.0961    28077.143   -3041.7034   -2379.2054    321.18514    82.226418 
   10200    713.83794   -107.79786   0.64589557   -107.15197    9326.8097    4.3699729    4.3699729    4.3699729    9326.8097    41914.702   -17238.576    3304.3035    2717.6726   -6984.3223   -593.88134    83.451899 
   10300    756.27201   -107.83384    0.6842908   -107.14955    14921.915    4.3630155    4.3630155    4.3630155    14921.915    51116.174   -23394.482    17044.053   -7502.6033   -24498.784    4066.8718    83.053948 
   10400    872.15267   -107.93353   0.78914206   -107.14439    4914.2848    4.3606272    4.3606272    4.3606272    4914.2848    7427.9752    7364.4425   -49.563187   -2238.2438    16262.703   -4845.7186     82.91763 
   10500    1107.5136   -108.14463    1.0021016   -107.14252   -11012.285    4.3591655    4.3591655    4.3591655   -11012.285   -2887.6518   -14676.735   -15472.467   -2325.8531    3373.5991    4216.8176    82.834277 
   10600    758.57294   -107.83808   0.68637274   -107.15171    4878.1108    4.3594025    4.3594025    4.3594025    4878.1108    64121.583   -12160.981    -37326.27   -8034.7373   -11967.679   -5631.0628    82.847787 
   10700    1259.5016   -108.28541    1.1396235   -107.14579   -9451.3097    4.3698372    4.3698372    4.3698372   -9451.3097    6751.8555   -21979.232   -13126.552    4594.7328    3343.5892     2443.615    83.444127 
   10800    749.36552   -107.82868   0.67804167   -107.15064    -152.9586    4.3584719    4.3584719    4.3584719    -152.9586    20692.818   -30454.424    9302.7303   -606.31986     -19941.9    1311.6121    82.794742 
   10900    650.48299   -107.74599   0.58857068   -107.15742    14617.233    4.3553331    4.3553331    4.3553331    14617.233    45807.995   -29212.015    27255.718   -12095.896     10250.54   -4514.0309    82.615993 
   11000    1006.4938   -108.06573    0.9106967   -107.15503    4.9544676    4.3663258    4.3663258    4.3663258    4.9544676    26729.423   -28553.587    1839.0273   -2645.4948    7381.2129    6484.9857    83.243131 
   11100    802.89805   -107.88098   0.72647902    -107.1545    -30965.37    4.3658622    4.3658622    4.3658622    -30965.37   -13573.215   -40396.352   -38926.542    -11477.02   -18845.914   -6414.6028    83.216622 
   11200    1253.6261   -108.27714    1.1343073   -107.14284    2032.4251    4.3465114    4.3465114    4.3465114    2032.4251    7702.7628   -3442.1955    1836.7081     594.1123   -5429.8094    4577.5264    82.114996 
   11300    765.83069   -107.85018    0.6929397   -107.15724   -7884.6763    4.3655218    4.3655218    4.3655218   -7884.6763    38262.418   -26834.077    -35082.37    6960.7049   -4112.2849    3276.8054    83.197158 
   11400    727.57957   -107.81454   0.65832929   -107.15621   -11404.453    4.3689064    4.3689064    4.3689064   -11404.453    9349.0249   -21484.655   -22077.728   -1206.8945   -7615.2262   -4748.3956    83.390818 
   11500    932.78432     -107.988   0.84400285     -107.144    32995.437    4.3528599    4.3528599    4.3528599    32995.437    60432.556   -5657.7822    44211.538    7722.5219    10297.557    5014.1016    82.475333 
   11600    898.25215   -107.96161   0.81275743   -107.14885   -9979.9869    4.3628374    4.3628374    4.3628374   -9979.9869   -21187.274   -6526.1609   -2226.5254    795.94895   -16691.488   -6376.4253    83.043778 
   11700    890.49405   -107.95153   0.80573773    -107.1458   -2334.7741    4.3657021    4.3657021    4.3657021   -2334.7741     8620.344   -12785.645   -2839.0209   -5401.5842    -11606.27   -1347.3243    83.207468 
   11800    1048.6764   -108.09118   0.94886444   -107.14231   -347.09579    4.3619765    4.3619765    4.3619765   -347.09579    17411.646    10037.709   -28490.643   -2660.9934   -1992.8982    806.10913    82.994627 
   11900    982.62597    -108.0379   0.88910062    -107.1488   -8344.0015    4.3607952    4.3607952    4.3607952   -8344.0015    15646.352   -10461.309   -30217.047   -12540.011   -9551.4351   -209.79816    82.927215 
   12000    770.94894   -107.84779    0.6975708   -107.15022    19336.043     4.358485     4.358485     4.358485    19336.043    19609.364    12942.312    25456.454   -1919.3394    13006.038    7782.2687    82.795488 
   12100    808.10077   -107.88046   0.73118656   -107.14927    11163.097    4.3592578    4.3592578    4.3592578    11163.097    8110.5701   -1570.5223    26949.244   -2465.7866   -4412.6606   -3171.7041    82.839537 
   12200    915.12779   -107.97122   0.82802686   -107.14319   -23853.903     4.373449     4.373449     4.373449   -23853.903   -43747.482   -18242.388   -9571.8381   -5336.1964   -12995.081    6454.6903    83.651202 
   12300     1018.794   -108.05802   0.92182621    -107.1362    7331.5946    4.3498767    4.3498767    4.3498767    7331.5946    19464.013    9391.3164   -6860.5455    5691.6509    1949.8695    -5219.968    82.305877 
   12400    973.73743   -108.03017   0.88105809   -107.14911   -2732.9903    4.3569019    4.3569019    4.3569019   -2732.9903    5266.3867   -5482.8471   -7982.5104   -4572.2124   -9373.2301   -5737.7343    82.705299 
   12500    847.12068   -107.91242   0.76649259   -107.14593   -21199.611    4.3761317    4.3761317    4.3761317   -21199.611   -37108.516   -20014.627   -6475.6912    4612.2163    7930.9995   -1919.4338    83.805235 
   12600    675.25333   -107.75235    0.6109834   -107.14137    16691.359    4.3522461    4.3522461    4.3522461    16691.359    33534.601   -5869.9802    22409.456   -4249.9203     17556.55   -175.45477    82.440446 
   12700     1037.002   -108.08155   0.93830123   -107.14325    843.04765    4.3610449    4.3610449    4.3610449    843.04765   -18727.882    4844.3967    16412.629   -1128.1845   -8172.6913    6713.7396    82.941458 
   12800    882.65176   -107.94148   0.79864186   -107.14284   -14466.064    4.3706476    4.3706476    4.3706476   -14466.064   -4645.1716    -13019.23   -25733.792   -6988.2795    15178.957    2194.5031    83.490561 
   12900    905.31674   -107.96042   0.81914961   -107.14127    4027.2128    4.3481696    4.3481696    4.3481696    4027.2128   -4415.5142    21810.758    -5313.605    1882.5688   -6540.6616    -9358.206    82.209011 
   13000    870.37828   -107.93983   0.78753656    -107.1523    8133.3744    4.3576125    4.3576125    4.3576125    8133.3744    -17601.77    7093.5979    34908.295   -4007.9665    9434.9206   -6782.5517    82.745773 
   13100    717.47155   -107.80131   0.64918333   -107.15213   -10882.301    4.3714059    4.3714059    4.3714059   -10882.301    -20830.45   -6229.1263   -5587.3253     2668.723    13239.786   -9924.6776    83.534022 
   13200    995.94495   -108.04251   0.90115192   -107.14135   -10654.742     4.362064     4.362064     4.362064   -10654.742   -7796.5531   -18376.357   -5791.3163    48.037815   -3161.8039   -5205.1041    82.999618 
   13300    938.45096   -107.98916   0.84913015   -107.14003   -929.18088    4.3579899    4.3579899    4.3579899   -929.18088   -17325.957    4108.7686    10429.646   -6801.7195    8976.9997    3806.5194    82.767278 
   13400    655.19456   -107.74247   0.59283381   -107.14963    13596.009    4.3597211    4.3597211    4.3597211    13596.009    9724.9011   -26344.118    57407.243    4817.1141   -10937.595    -7967.115    82.865953 
   13500     856.8015   -107.92822     0.775252   -107.15296   -7484.4335    4.3704569    4.3704569    4.3704569   -7484.4335   -16867.571   -16089.352    10503.622   -15784.382    -7771.193   -6257.6311     83.47963 
   13600    1015.8997   -108.06555   0.91920738   -107.14634   -866.82652    4.3573385    4.3573385    4.3573385   -866.82652   -4324.0143   -5477.2447    7200.7795   -1385.4407    9238.5784   -4448.1534    82.730166 
   13700    948.97204   -108.00775   0.85864984    -107.1491   -6202.9601    4.3606986    4.3606986    4.3606986   -6202.9601   -10044.629   -15278.009    6713.7575    -12212.12    2634.7401   -6211.1541    82.921703 
   13800    743.94912    -107.8201    0.6731408   -107.14696    8119.3524    4.3704349    4.3704349    4.3704349    8119.3524   -30472.384   -1622.2949    56452.736   -14406.653    8815.3198    17286.826    83.478374 
   13900    759.24788   -107.83088   0.68698343    -107.1439   -8405.2091    4.3662224    4.3662224    4.3662224   -8405.2091   -12242.393    5265.1966   -18238.431    1958.2387    9106.6034    1501.8322    83.237218 
   14000    872.53684   -107.92862   0.78948967   -107.13913    5267.4155    4.3497073    4.3497073    4.3497073    5267.4155   -31109.713    17355.596    29556.363   -13158.177   -10188.513    832.07615    82.296263 
   14100     1094.186   -108.13937   0.99004251   -107.14932   -8450.3858    4.3652361    4.3652361    4.3652361   -8450.3858    -27505.52    7838.7701   -5684.4075    2131.2708    8121.9617   -9088.1353    83.180824 
   14200    824.23639   -107.89438   0.74578641    -107.1486   -17616.397    4.3714236    4.3714236    4.3714236   -17616.397   -17944.779   -44274.349    9369.9359   -1466.1937   -3623.8636   -10752.448    83.535037 
   14300    917.83511   -107.97354    0.8304765   -107.14307   -3694.6102    4.3512078    4.3512078    4.3512078   -3694.6102   -28768.717    11959.552    5725.3343    2524.1954    9215.3842    531.10895    82.381458 
   14400    968.95968   -108.02422   0.87673508   -107.14749   -3251.1499    4.3575732    4.3575732    4.3575732   -3251.1499   -31720.652    11402.169    10565.033   -10.689623    14410.105    2997.3241    82.743535 
   14500    943.07848   -108.00555   0.85331722   -107.15224   -5796.4903    4.3658708    4.3658708    4.3658708   -5796.4903   -20435.793   -24168.097     27214.42   -3335.8353   -7124.4765   -7932.7557     83.21711 
   14600    831.59369   -107.90678   0.75244345   -107.15434    2992.8456    4.3582397    4.3582397    4.3582397    2992.8456    -30933.99    7117.3299    32795.197    7705.9592    11768.833   -3726.1005    82.781509 
   14700     877.8342   -107.94633   0.79428284   -107.15205    9797.2084    4.3537451    4.3537451    4.3537451    9797.2084   -11674.403    12528.311    28537.718   -9320.5629   -3651.3432   -3345.8913     82.52566 
   14800    795.86817   -107.87485   0.72011824   -107.15473   -10309.609    4.3675791    4.3675791    4.3675791   -10309.609   -2923.5264   -14127.041   -13878.258    2210.7399    1948.8298   -3221.9161    83.314837 
   14900    1034.2122    -108.0798   0.93577697   -107.14403    5453.2997    4.3659426    4.3659426    4.3659426    5453.2997   -15571.668   -4030.3254    35961.893     2893.133     23080.58    12027.156    83.221217 
   15000    982.90285   -108.03098   0.88935116   -107.14163    7130.2368    4.3568884    4.3568884    4.3568884    7130.2368    1188.7263   -14272.557    34474.541   -5001.8902    10107.324   -5003.9042    82.704534 
   15100    544.02535   -107.64159   0.49224557   -107.14935    13746.853    4.3544993    4.3544993    4.3544993    13746.853   -4950.7306     12875.91    33315.379    6129.6146    9878.7775    283.77786    82.568555 
   15200    1077.6902   -108.12059   0.97511671   -107.14547   -20249.288    4.3700219    4.3700219    4.3700219   -20249.288   -12323.326   -19007.591   -29416.946    -2371.376    2986.2569   -2034.1841    83.454705 
   15300    937.08412   -107.99633   0.84789341   -107.14843    4234.0043    4.3563274    4.3563274    4.3563274    4234.0043   -8873.3002   -5298.1825    26873.496    5139.3519   -16115.357    1385.6158    82.672586 
   15400    887.42256   -107.95528   0.80295858   -107.15232   -442.62911    4.3519741    4.3519741    4.3519741   -442.62911   -24006.835    175.32322    22503.624   -2152.8443    16026.672    5912.5261    82.424991 
   15500    1018.2509   -108.07025    0.9213348   -107.14892   -8107.8265    4.3634685    4.3634685    4.3634685   -8107.8265   -34902.369   -15246.213    25825.102   -6717.3509   -123.44602   -3654.6024    83.079817 
   15600    901.83392   -107.96499   0.81599828   -107.14899   -19359.594     4.362267     4.362267     4.362267   -19359.594   -23439.525   -16603.614   -18035.643    8963.7009    8272.4081    1847.7889    83.011209 
   15700    737.35762   -107.81918   0.66717667     -107.152    4656.3133    4.3539858    4.3539858    4.3539858    4656.3133   -25810.976   -5421.8708    45201.787   -15224.407    12439.241    1111.9884    82.539347 
   15800    998.61861   -108.05591    0.9035711   -107.15234    10621.771    4.3589727    4.3589727    4.3589727    10621.771    29324.921   -28489.253    31029.644    1324.5325   -16106.073   -3104.1524    82.823284 
   15900    805.60775   -107.88228   0.72893082   -107.15335   -16055.694    4.3673001    4.3673001    4.3673001   -16055.694   -5418.2554   -22248.095   -20500.731    3547.9954    11205.965     3165.833     83.29887 
   16000    753.47258   -107.82858   0.68175783   -107.14682    148.48538    4.3559914    4.3559914    4.3559914    148.48538    34824.872   -10658.892   -23720.525   -4569.4718    9866.7664    4241.9847    82.653462 
   16100    1265.8817   -108.28987    1.1453964   -107.14447   -11155.296    4.3573391    4.3573391    4.3573391   -11155.296   -11531.285   -30938.342    9003.7377    11682.608     6229.929   -464.08656    82.730202 
   16200    737.80078   -107.81871   0.66757765   -107.15113    4907.1982    4.3597315    4.3597315    4.3597315    4907.1982     43996.29    -18910.43   -10364.265   -4297.0326    4843.9211   -2096.6654    82.866547 
   16300    895.03924   -107.96065   0.80985032    -107.1508   -8945.4003    4.3642015    4.3642015    4.3642015   -8945.4003   -1488.2293   -29787.947    4439.9757   -3712.0367   -4363.7184   -2827.6415    83.121692 
   16400    716.90826   -107.79562   0.64867366   -107.14695    22759.821    4.3485377    4.3485377    4.3485377    22759.821    69482.134   -9142.6701    7940.0009   -348.98801   -12048.084   -750.38506    82.229892 
   16500    879.19321   -107.95594    0.7955125   -107.16042   -11250.562    4.3614253    4.3614253    4.3614253   -11250.562   -4429.8459   -23718.855   -5602.9848   -7858.2842    20737.456   -3942.1399    82.963168 
   16600    1137.7318   -108.17136    1.0294436   -107.14192   -17018.867    4.3733246    4.3733246    4.3733246   -17018.867   -4172.9677   -32085.625   -14798.008   -2964.5956    3776.5719   -6023.3316    83.644065 
   16700    796.28234    -107.8573   0.72049299    -107.1368    10878.873    4.3448801    4.3448801    4.3448801    10878.873    31939.297    9706.1896   -9008.8691    4600.8114    9408.6711    7557.2869    82.022572 
   16800    697.19785   -107.78398   0.63083927   -107.15315   -15361.919    4.3574403    4.3574403    4.3574403   -15361.919   -23134.782   -7308.8344   -15642.139   -6749.5431    6174.5567    1694.0571    82.735963 
   16900    1141.2096   -108.17793    1.0325904   -107.14534    5122.1188    4.3636973    4.3636973    4.3636973    5122.1188    2055.7197   -17582.917    30893.554    7691.2766    -9947.276    1733.4865    83.092887 
   17000    616.40994    -107.7124   0.55774067   -107.15466    12473.564    4.3556962    4.3556962    4.3556962    12473.564    2965.2239    11120.377    23335.092   -2973.4255    25688.788    9570.9394    82.636659 
   17100    873.15345   -107.93935   0.79004759    -107.1493   -4802.6846    4.3644321    4.3644321    4.3644321   -4802.6846    3035.7917   -2893.9138   -14549.932   -5610.7813   -5155.4568    4519.9175    83.134871 
   17200    1126.1156   -108.16014     1.018933   -107.14121   -12002.151    4.3633974    4.3633974    4.3633974   -12002.151   -4387.0172   -9565.8179   -22053.619   -552.70808    3341.2008     810.2517    83.075754 
   17300    630.91602   -107.72071   0.57086608   -107.14984   -7656.9139    4.3608771    4.3608771    4.3608771   -7656.9139    -25359.16     9454.389   -7065.9707   -3150.2563   -2245.5822   -3015.6188    82.931888 
   17400    1296.1921   -108.31155    1.1728218   -107.13872    7000.2434    4.3516186    4.3516186    4.3516186    7000.2434   -6324.1746   -2708.3424    30033.247   -320.14192     1528.151    -8546.017     82.40479 
   17500    460.16194   -107.56999    0.4163642   -107.15362   -698.06691    4.3627003    4.3627003    4.3627003   -698.06691   -9225.9726   -11552.165    18683.937   -4037.7682    13923.447    -1738.476    83.035948 
   17600    918.32092   -107.97539   0.83091607   -107.14447   -15086.912    4.3619529    4.3619529    4.3619529   -15086.912    -16491.07   -6237.9687   -22531.696    1810.9847    14992.377   -4686.7371    82.993276 
   17700    1191.6738   -108.21777    1.0782515   -107.13952    4287.5849     4.354196     4.354196     4.354196    4287.5849    2992.0697   -11331.078    21201.763   -3535.4799    -5541.711    4834.0848      82.5513 
   17800    827.89706   -107.89491   0.74909865   -107.14581   -26573.388    4.3681786    4.3681786    4.3681786   -26573.388   -44570.649   -19586.681   -15562.834   -4880.1076    20110.535    8522.6018    83.349148 
   17900    892.45805    -107.9449    0.8075148   -107.13738    15997.545    4.3523148    4.3523148    4.3523148    15997.545   -6906.7904    5788.7608    49110.665    2337.7172   -11958.558   -1140.2088     82.44435 
   18000    735.57072   -107.81253   0.66555985   -107.14697   -25308.758    4.3642806    4.3642806    4.3642806   -25308.758   -34231.314   -16612.789   -25082.172   -11897.987      25593.4     2390.474    83.126211 
   18100    938.27035   -107.99418   0.84896673   -107.14522    4216.8251    4.3547702    4.3547702    4.3547702    4216.8251   -5441.3396    19515.082   -1423.2665    8165.6869    22797.487   -5215.7633    82.583965 
   18200    1104.1024   -108.14304   0.99901505   -107.14403   -1966.3557     4.353777     4.353777     4.353777   -1966.3557    5728.3922    1830.7541   -13458.213   -1140.9283    -11289.26   -2004.7622     82.52747 
   18300    523.14343    -107.6207   0.47335117   -107.14735   -24080.676    4.3719982    4.3719982    4.3719982   -24080.676   -34746.628   -10029.013   -27466.387   -225.72558    25745.527    3814.2097    83.567983 
   18400    1121.0632   -108.14593    1.0143615   -107.13157    10328.075    4.3536102    4.3536102    4.3536102    10328.075    2876.2147    20480.597    7627.4116    1816.1741   -7989.7309    7679.3482    82.517988 
   18500    785.44041   -107.85597   0.71068299   -107.14529   -3296.5857    4.3590405    4.3590405    4.3590405   -3296.5857    10045.891   -6568.4032   -13367.245   -17948.591    20836.014   -2157.7478    82.827149 
   18600    695.29606   -107.77256   0.62911849   -107.14344   -1206.2121    4.3658813    4.3658813    4.3658813   -1206.2121    14971.237   -13177.662   -5412.2112   -6726.2799    26867.081    2328.3602    83.217711 
   18700    770.36697   -107.83326   0.69704422   -107.13622     11573.37    4.3601075    4.3601075    4.3601075     11573.37    20732.854    6649.6828    7337.5743   -10039.701    548.62288    2782.2027    82.887989 
   18800    718.10109   -107.79044   0.64975295   -107.14069    -17534.81    4.3647813    4.3647813    4.3647813    -17534.81   -26135.797   -3773.9558   -22694.676   -9609.7113    26997.098    265.20024    83.154824 
   18900    1390.1529   -108.38886    1.2578395   -107.13102    11666.031     4.348385     4.348385     4.348385    11666.031   -238.75371    14114.495    21122.352   -847.23355   -5727.1899   -291.75558     82.22123 
   19000    629.40142   -107.71999   0.56949563   -107.15049   -8113.4135    4.3640576    4.3640576    4.3640576   -8113.4135    -10815.19    12169.166   -25694.217   -3043.0805    11845.713    650.05316    83.113471 
   19100    908.45201   -107.96822   0.82198647   -107.14623   -29589.593    4.3648207    4.3648207    4.3648207   -29589.593   -37117.342   -17402.989   -34248.447    4135.5041    13531.241     430.4448    83.157076 
   19200    1177.7456   -108.20495    1.0656489    -107.1393    22447.955     4.344144     4.344144     4.344144    22447.955    23429.749    24860.134    19053.982    -342.4968    1886.2946    -5843.682     81.98089 
   19300    716.10607   -107.79946   0.64794782   -107.15151    -16271.96    4.3644127    4.3644127    4.3644127    -16271.96   -29406.719   -2326.8469   -17082.315   -4062.9038    25226.534    7099.4263     83.13376 
   19400    922.80709   -107.97594   0.83497525   -107.14096    -416.8494     4.361794     4.361794     4.361794    -416.8494   -17997.497    20987.562   -4240.6139     3633.464   -4686.2393    4282.5836    82.984206 
   19500    724.36224     -107.796   0.65541818   -107.14058    8386.1809    4.3541436    4.3541436    4.3541436    8386.1809    65.147377    15373.123    9720.2727   -2200.7066    13091.832    8091.2645     82.54832 
   19600     935.5391   -107.99298   0.84649543   -107.14649     1835.776    4.3529671    4.3529671    4.3529671     1835.776   -19468.652    38279.277   -13303.297    4043.1637    11412.669     2432.146    82.481425 
   19700    1123.9976   -108.16094    1.0170166   -107.14393   -1035.7947    4.3649029    4.3649029    4.3649029   -1035.7947    -2143.791   -8751.9547    7788.3616   -8331.4004   -7762.6983    1111.6095    83.161776 
   19800    670.14389   -107.75267   0.60636027   -107.14631   -10944.875    4.3583177    4.3583177    4.3583177   -10944.875   -958.73087   -23501.469    -8374.425    1321.0831    24126.431   -5112.0064    82.785956 
   19900    929.96241   -107.98492   0.84144953   -107.14347    12352.862    4.3444433    4.3444433    4.3444433    12352.862   -1520.3813    15008.687    23570.281   -3586.1743   -2046.9586    13082.242     81.99784 
   20000    1029.5984   -108.08159    0.9316023   -107.14999   -315.06983    4.3665867    4.3665867    4.3665867   -315.06983    3190.9166   -18380.327    14244.201   -7704.9305    9213.9249   -132.81847    83.258056 
   20100    1000.0442   -108.05357   0.90486097   -107.14871   -13761.069     4.356504     4.356504     4.356504   -13761.069   -20777.361   -10565.164   -9940.6812   -80.886496    12602.459     3540.212    82.682641 
   20200    616.44939   -107.70434   0.55777636   -107.14656    23360.467      4.35071      4.35071      4.35071    23360.467    29562.009    5969.3421     34550.05   -4854.9374   -8409.7712    12652.748    82.353188 
   20300    1020.7361   -108.06536   0.92358348   -107.14178   -8058.2856    4.3661254    4.3661254    4.3661254   -8058.2856   -15565.145    719.67596   -9329.3876   -2447.2914    12965.732   -11639.987    83.231671 
   20400    960.41387   -108.01047   0.86900265   -107.14147    10672.545    4.3491724    4.3491724    4.3491724    10672.545   -712.98408   -3103.8574    35834.476    2193.9852   -4229.2775    2604.0156    82.265906 
   20500    821.21544   -107.89261   0.74305299   -107.14955    3874.6654    4.3555291    4.3555291    4.3555291    3874.6654     30371.19   -4666.5559   -14080.638   -10099.597   -13594.531    2893.9903    82.627146 
   20600    887.62594   -107.94982    0.8031426   -107.14667   -1359.2059      4.35786      4.35786      4.35786   -1359.2059   -15603.223   -18209.529    29735.134   -2642.8705    12339.214    1030.4828    82.759874 
   20700    873.41488   -107.94008   0.79028414    -107.1498    -4179.827    4.3580561    4.3580561    4.3580561    -4179.827    13500.765   -23727.253   -2312.9935    4479.8147   -13599.718     13014.95    82.771046 
   20800    997.73393   -108.04783   0.90277063   -107.14506   -1323.3854     4.356183     4.356183     4.356183   -1323.3854   -12124.081   -7720.6048    15874.529   -9975.6683   -5363.4437   -3197.3233    82.664366 
   20900    872.93693   -107.93498   0.78985168   -107.14513   -5515.4655    4.3498145    4.3498145    4.3498145   -5515.4655    877.79601   -11842.572   -5581.6205    5803.2988    11846.945    12372.254    82.302345 
   21000    757.21867    -107.8358   0.68514737   -107.15065   -14970.788    4.3589399    4.3589399    4.3589399   -14970.788    4659.1077   -18119.225   -31452.247   -55.877612   -19221.318    5630.7359    82.821414 
   21100    1081.2484   -108.12515   0.97833628   -107.14682   -393.69474    4.3572179    4.3572179    4.3572179   -393.69474   -16629.476   -3027.1633    18475.556   -10626.911    13587.341   -182.45687    82.723299 
   21200    756.93136   -107.83407    0.6848874   -107.14918    9342.1844    4.3532824    4.3532824    4.3532824    9342.1844    16886.126   -4935.3132    16075.741    6661.6485    2580.2815    22007.237    82.499349 
   21300    897.20731   -107.96045   0.81181203   -107.14864   -9995.8345    4.3589626    4.3589626    4.3589626   -9995.8345   -13660.242   -24007.097    7679.8358    -13200.96   -13083.697    548.02823    82.822708 
   21400    847.81121   -107.91252    0.7671174    -107.1454   -11722.077    4.3597798    4.3597798    4.3597798   -11722.077   -11897.438   -10517.155   -12751.637   -6993.1373    8839.7449    3191.9037    82.869296 
   21500    946.25396   -108.00077   0.85619047   -107.14457   -2964.9867    4.3495906    4.3495906    4.3495906   -2964.9867   -1684.0808   -1272.7266   -5938.1525   -127.58509   -14559.648    12232.765    82.289638 
   21600    1068.0144   -108.11396    0.9663619    -107.1476    2803.5046    4.3598639    4.3598639    4.3598639    2803.5046    -5656.738   -11045.622    25112.874   -12632.767   -9541.6231    240.89942    82.874097 
   21700    744.11904   -107.82341   0.67329454   -107.15011    -4909.513    4.3606419    4.3606419    4.3606419    -4909.513   -6836.8498    -4908.718   -2982.9711   -556.36156    1587.6841    18422.529    82.918468 
   21800    819.48098   -107.88785   0.74148361   -107.14637    9021.9806    4.3446428    4.3446428    4.3446428    9021.9806    15699.528    -3753.218    15119.631   -7513.0854   -11158.189    2755.8585    82.009137 
   21900    956.27588   -108.01465   0.86525851    -107.1494   -7012.4207    4.3614083    4.3614083    4.3614083   -7012.4207   -7849.8699   -3228.1211    -9959.271    -8666.997   -5123.2644     53.24429    82.962196 
   22000    1022.9012   -108.07069   0.92554253   -107.14515   -6170.9363    4.3600545    4.3600545    4.3600545   -6170.9363    3326.7092   -13334.376    -8505.142    4749.8971   -4852.0823    11597.388    82.884967 
   22100    891.58716   -107.95104    0.8067268   -107.14431    10489.738    4.3484281    4.3484281    4.3484281    10489.738    165.02232    10284.645    21019.546    908.45553   -13732.911    -6229.245    82.223674 
   22200    596.48415   -107.69205   0.53971139   -107.15234   -4411.0384     4.361578     4.361578     4.361578   -4411.0384    4019.1779   -12107.795   -5144.4983   -6697.9747    6040.7931    17815.929     82.97188 
   22300      1095.16    -108.1372   0.99092377   -107.14627   -4019.8454    4.3544842    4.3544842    4.3544842   -4019.8454   -15248.496   -3214.3131    6403.2727    5435.9417   -8784.6868     4893.834    82.567692 
   22400    818.84358   -107.89115   0.74090688   -107.15024    12879.781    4.3499195    4.3499195    4.3499195    12879.781    20327.126    12922.517    5389.6996   -7186.3073    2168.6207   -8747.0175    82.308308 
   22500    1113.3606   -108.15577    1.0073921   -107.14837   -17021.093     4.358433     4.358433     4.358433   -17021.093   -6359.8692   -27166.086   -17537.323   -5826.9018    -1165.433    16462.932    82.792523 
   22600      827.279   -107.89488   0.74853942   -107.14634    1248.1727    4.3574116    4.3574116    4.3574116    1248.1727    6060.4856    13567.326   -15883.293   -683.81655   -3675.8013   -1076.1114     82.73433 
   22700    739.78822   -107.81869   0.66937593   -107.14931   -4737.1554    4.3529441    4.3529441    4.3529441   -4737.1554   -4375.4475    -7561.761   -2274.2576   -14830.469    931.18234    6063.1239    82.480115 
   22800    1070.5238   -108.11615   0.96863246   -107.14752    8763.8284    4.3513787    4.3513787    4.3513787    8763.8284   -3803.8279     10289.07    19806.243    377.86609   -11273.603    14001.307    82.391167 
   22900    789.14177   -107.86361   0.71403205   -107.14958    6913.3436    4.3620974    4.3620974    4.3620974    6913.3436    504.44353    5458.0332    14777.554   -9156.7934   -3581.0592    -12487.15    83.001527 
   23000    970.34039   -108.02537   0.87798438   -107.14738   -3658.1077    4.3521048    4.3521048    4.3521048   -3658.1077   -7900.2047   -2856.5749   -217.54357   -10622.581   -1316.8826    5204.0941    82.432415 
   23100    730.72928   -107.81396   0.66117921   -107.15278    18069.211    4.3527099    4.3527099    4.3527099    18069.211    20537.037    38452.375   -4781.7778     15386.95    6521.2714    8124.1403    82.466803 
   23200    1179.3837   -108.21654    1.0671312   -107.14941   -13538.264    4.3614009    4.3614009    4.3614009   -13538.264   -21323.409   -2113.4361   -17177.947   -8493.3829   -2208.5885   -5071.7075    82.961776 
   23300    825.29415   -107.89519   0.74674349   -107.14845    9287.5721    4.3494007    4.3494007    4.3494007    9287.5721    14828.941    23589.031   -10555.256    4537.2788    8614.7451   -1172.5759     82.27886 
   23400    909.94917   -107.97118   0.82334114   -107.14784     2348.809    4.3536489    4.3536489    4.3536489     2348.809    1573.0812    14807.198   -9333.8525     16238.78   -4855.2837    5691.4655    82.520188 
   23500    900.70583   -107.96273   0.81497756   -107.14775    1769.8327    4.3593352    4.3593352    4.3593352    1769.8327   -17935.151    33427.766   -10183.117   -8791.7817    1971.1889   -513.73737    82.843951 
   23600    660.34845   -107.74817   0.59749716   -107.15067    5703.5676    4.3588059    4.3588059    4.3588059    5703.5676   -496.78826    19060.679   -1453.1885     20233.42     4418.505    2896.9552    82.813775 
   23700    1246.5302   -108.27008    1.1278868    -107.1422     1195.969    4.3526359    4.3526359    4.3526359     1195.969   -3273.8002   -6758.4421    13620.149    470.93141    -5969.318    1112.5162    82.462598 
   23800     734.1816   -107.81693   0.66430294   -107.15262   -1027.2396    4.3539283    4.3539283    4.3539283   -1027.2396    2187.6103    1144.7692   -6414.0984   -704.03961     8694.903   -5441.9425    82.536075 
   23900    750.86491   -107.83424   0.67939835   -107.15484   -10550.741    4.3611835    4.3611835    4.3611835   -10550.741    329.65165   -1489.7955   -30492.078    18178.905    7123.3883   -1363.7424    82.949366 
   24000    1274.9688   -108.29832    1.1536186    -107.1447   -16.187164    4.3598525    4.3598525    4.3598525   -16.187164   -8447.7155    21426.956   -13027.802   -7532.6289   -2407.5308    5797.2255    82.873442 
   24100    616.55042   -107.71205   0.55786778   -107.15418   -2213.3519    4.3531775    4.3531775    4.3531775   -2213.3519    11753.619   -1851.7405   -16541.934    16216.284    8967.5072   -2831.3262    82.493388 
   24200    977.04031   -108.03824    0.8840466   -107.15419   -11652.796    4.3552889    4.3552889    4.3552889   -11652.796   -4767.1634    -21818.24   -8372.9836    12999.097   -3644.0505    7224.9073    82.613481 
   24300    1065.7853   -108.11478   0.96434496   -107.15044    4088.4051    4.3568119    4.3568119    4.3568119    4088.4051    2727.6814     25539.47   -16001.936   -1248.3081    4263.9593   -4849.3195    82.700173 
   24400    641.85888   -107.73803    0.5807674   -107.15726   -11319.987    4.3569298    4.3569298    4.3569298   -11319.987   -2158.0502   -29648.952    -2152.959    24862.496    4217.5433   -709.99064     82.70689 
   24500    970.79963   -108.02783    0.8783999   -107.14943    4400.2875    4.3588893    4.3588893    4.3588893    4400.2875    28097.517   -344.53423    -14552.12    8961.4721    4304.4489   -2376.9266    82.818531 
   24600     830.3304   -107.90154   0.75130039   -107.15024    2247.5628    4.3567616    4.3567616    4.3567616    2247.5628   -11068.792    3843.5839    13967.897    6067.2577    4958.3835   -5615.7323     82.69731 
   24700    695.03422   -107.78116   0.62888157   -107.15228   -12723.458    4.3593715    4.3593715    4.3593715   -12723.458   -3272.7076   -27278.221   -7619.4443    21637.264   -4811.9354    530.71498    82.846016 
   24800    1168.3245   -108.19951    1.0571246   -107.14239   -6549.1852    4.3567891    4.3567891    4.3567891   -6549.1852   -28989.852     18550.49   -9208.1933   -21835.918    7028.7999   -5317.6247    82.698878 
   24900    759.00249   -107.83351    0.6867614   -107.14675   -6105.5358     4.357718     4.357718     4.357718   -6105.5358   -1480.1304   -25627.187    8790.7096        19114   -5865.1233    2282.8069    82.751786 
   25000    1003.5605    -108.0535   0.90804261   -107.14546   -14107.902    4.3605857    4.3605857    4.3605857   -14107.902   -17721.969    -11280.24   -13321.496   -4552.2916    1907.5717   -3823.6636    82.915263 
   25100    786.44048   -107.85936   0.71158787   -107.14777    12251.385    4.3552853    4.3552853    4.3552853    12251.385    1718.1167    16795.145    18240.892   -2865.7017    5603.9419   -488.16651    82.613275 
   25200    802.22598   -107.87808   0.72587092   -107.15221   -17176.769    4.3626581    4.3626581    4.3626581   -17176.769   -14191.219   -38056.854    717.76486    20430.275    7845.0678    2167.3768    83.033536 
   25300    718.43485   -107.79757   0.65005495   -107.14752   -4899.9359    4.3616209    4.3616209    4.3616209   -4899.9359    -19173.22    -17173.01    21646.422   -27520.234   -1074.7644   -1370.5255    82.974326 
   25400    1220.6712   -108.24428    1.1044889   -107.13979   -5366.7794    4.3529184    4.3529184    4.3529184   -5366.7794   -12411.971    -7487.828    3799.4606     13807.74    3193.8355   -350.30487    82.478655 
   25500    755.08779   -107.83132    0.6832193    -107.1481   -20701.859    4.3647956    4.3647956    4.3647956   -20701.859   -41309.736   -26804.191    6008.3515   -9189.1193    -6325.573    5565.2644    83.155642 
   25600    813.49429   -107.88236   0.73606673   -107.14629   -8506.7855    4.3581364    4.3581364    4.3581364   -8506.7855   -15885.394    -566.8218   -9068.1409    -17114.78   -1904.6158   -5778.1629    82.775624 
   25700    1057.1114   -108.10016   0.95649665   -107.14366    7831.0834    4.3533381    4.3533381    4.3533381    7831.0834    -6.098307    2612.9555    20886.393    13316.851    9576.8007   -3087.7687    82.502516 
   25800    669.87348   -107.75824    0.6061156   -107.15212   -13098.325    4.3644534    4.3644534    4.3644534   -13098.325    -20059.28   -38135.889    18900.194   -18697.825     3009.551   -5026.4727    83.136089 
   25900    1028.7611   -108.07248   0.93084464   -107.14163    12560.633    4.3525528    4.3525528    4.3525528    12560.633   -5210.7227    14260.859    28631.764   -1439.9583    15935.204   -3714.3528    82.457875 
   26000    851.98996   -107.91628   0.77089842   -107.14538   -14139.116      4.36663      4.36663      4.36663   -14139.116   -18733.576   -39433.884    15750.111   -13588.041    -7804.544    10010.345    83.260532 
   26100    995.25938   -108.04711    0.9005316   -107.14658   -14286.932    4.3567453    4.3567453    4.3567453   -14286.932   -20126.364   -27608.152    4873.7197   -13730.844   -2803.4325   -5354.4456    82.696383 
   26200    952.20154   -108.00624   0.86157196   -107.14466    30137.379    4.3498556    4.3498556    4.3498556    30137.379   -9384.0835    38438.568    61357.653   -401.45167   -489.72475   -2674.0284    82.304681 
   26300    872.02355   -107.93846   0.78902524   -107.14944    -16562.76    4.3668375    4.3668375    4.3668375    -16562.76    -33217.27   -13727.304   -2743.7056   -14127.773    918.03596   -5852.6594    83.272403 
   26400    731.42834   -107.80497   0.66181174   -107.14316    21640.876    4.3597796    4.3597796    4.3597796    21640.876   -18631.493    39122.424    44431.698      9682.44    14829.215   -261.55728     82.86929 
   26500    1253.9753   -108.27311    1.1346232   -107.13849   -10802.562    4.3634199    4.3634199    4.3634199   -10802.562   -4812.2935   -15043.314    -12552.08   -2463.3084    5023.0344    662.05558    83.077042 
   26600    794.77772    -107.8618   0.71913159   -107.14267    15699.064    4.3535851    4.3535851    4.3535851    15699.064   -7154.7933    11220.463    43031.523   -4846.5113    718.69274   -3280.7898     82.51656 
   26700    906.70865   -107.96729   0.82040904   -107.14688    823.40407    4.3628911    4.3628911    4.3628911    823.40407   -6426.4889    9701.0414   -804.34033    9829.4571    4313.8447   -3774.4841    83.046842 
   26800    823.09045   -107.88865   0.74474954    -107.1439    4002.4288    4.3627147    4.3627147    4.3627147    4002.4288    -2836.974   -12113.738    26957.998   -11089.287   -3883.1466   -11529.324     83.03677 
   26900    916.24875   -107.97965   0.82904113   -107.15061    3029.2253    4.3460114    4.3460114    4.3460114    3029.2253   -2819.9698    19150.619   -7242.9737    4627.3601     12778.23      97.3221     82.08666 
   27000    1049.6895   -108.10823   0.94978108   -107.15845   -5209.9799    4.3634228    4.3634228    4.3634228   -5209.9799   -29633.368    4474.6277    9528.8003    8098.8403    13551.992     5185.661    83.077208 
   27100    856.96441   -107.92555   0.77539941   -107.15015    3069.0758    4.3673754    4.3673754    4.3673754    3069.0758   -11089.375    5020.6969    15275.905   -8542.7242    3387.4802    5737.0478    83.303178 
   27200    563.22056   -107.65573    0.5096138   -107.14611   -6838.4836    4.3634167    4.3634167    4.3634167   -6838.4836   -24936.488   -7625.0779    12046.115    14376.943    7674.2948   -5403.8705    83.076857 
   27300     1447.669    -108.4462    1.3098813   -107.13632    8365.7163    4.3486427    4.3486427    4.3486427    8365.7163   -7316.4627    14394.961     18018.65     3558.175    668.29892    1106.0794    82.235846 
   27400    674.94468   -107.77041   0.61070413    -107.1597   -9530.7224    4.3666851    4.3666851    4.3666851   -9530.7224   -26471.593   -13803.176    11682.602    6464.0612    484.01895   -2276.9434    83.263683 
   27500    833.89241   -107.90432   0.75452337    -107.1498   -8470.4904     4.364184     4.364184     4.364184   -8470.4904       -30955   -8893.1861    14436.715    10946.451    4809.3412    1696.2122    83.120691 
   27600      1166.48   -108.19727    1.0554556   -107.14181    2557.8225    4.3503685    4.3503685    4.3503685    2557.8225    -11046.72    620.46636    18099.721   -6966.5718    3265.2696   -1390.3651    82.333796 
   27700    657.20979   -107.75271   0.59465723   -107.15806   -23098.261    4.3672423    4.3672423    4.3672423   -23098.261   -28317.247   -38053.288   -2924.2473    13601.361     13524.53   -22749.775    83.295561 
   27800    1143.0675   -108.18167    1.0342715    -107.1474    12428.446    4.3583341    4.3583341    4.3583341    12428.446   -10645.997    20440.042    27491.292    13.922711   -6188.7021     8303.911    82.786889 
   27900    846.95078   -107.91589   0.76633887   -107.14955    323.22917    4.3555104    4.3555104    4.3555104    323.22917   -11901.258   -9031.8151    21902.761    3408.1311    -1290.893    -4587.352    82.626083 
   28000    612.13323   -107.70939   0.55387101   -107.15552   -9549.5968       4.3663       4.3663       4.3663   -9549.5968   -9271.1261    1561.9604   -20939.625    18205.151    3322.4299   -1560.0355    83.241659 
   28100    1249.8996   -108.28011    1.1309354   -107.14917    1699.2142    4.3611868    4.3611868    4.3611868    1699.2142    -887.0115   -13166.004    19150.659   -6721.6622   -3988.1318   -184.80617    82.949558 
   28200    752.29763    -107.8361    0.6806947   -107.15541   -15072.757    4.3596227    4.3596227    4.3596227   -15072.757   -10564.423   -27575.686   -7078.1635    9891.2788    16861.158   -19840.306    82.860339 
   28300     566.5816   -107.66271   0.51265494   -107.15006    13509.431    4.3601955    4.3601955    4.3601955    13509.431    4515.8155   -25015.961    61028.438   -4958.9315     6678.006    16559.231    82.893003 
   28400    1019.2652   -108.06873   0.92225259   -107.14647   -7648.4163    4.3680754    4.3680754    4.3680754   -7648.4163   -16660.801   -8869.3169     2584.869   -4155.0783    8157.2115   -589.33938    83.343241 
   28500     760.7216   -107.83504   0.68831689   -107.14672   -6084.0586    4.3669864    4.3669864    4.3669864   -6084.0586       -16191   -2701.2097    640.03403    2624.2172    8970.0695    1141.2122     83.28092 
   28600    999.92609   -108.04105   0.90475414   -107.13629    18955.597    4.3521755    4.3521755    4.3521755    18955.597    3191.0666    28894.594     24781.13   -18315.141   -9796.9596     6008.193    82.436432 
   28700    758.95381   -107.83457   0.68671735   -107.14785   -8564.7028    4.3619966    4.3619966    4.3619966   -8564.7028   -19562.392   -15646.107    9514.3908    11837.561    6215.9798   -12597.209    82.995774 
   28800    789.80181   -107.86505   0.71462928   -107.15042   -2300.6075    4.3668342    4.3668342    4.3668342   -2300.6075    -21334.01    3958.2147    10473.972   -1077.4972   -4357.8527     15989.21    83.272216 
   28900    1306.9126    -108.3293     1.182522   -107.14677   -3058.1624    4.3566168    4.3566168    4.3566168   -3058.1624    -17317.71    16887.843   -8744.6203   -4903.7724    3738.0863   -4242.8083    82.689068 
   29000    626.74691   -107.72005   0.56709378   -107.15296    9210.2903    4.3589122    4.3589122    4.3589122    9210.2903   -20685.148    24744.947    23571.071    11915.012    11229.874    163.36304    82.819834 
   29100    1068.5292   -108.11467   0.96682763   -107.14785   -17009.652    4.3702477    4.3702477    4.3702477   -17009.652   -30437.295   -5150.9411   -15440.719   -18131.174    -2780.652   -2671.0653    83.467646 
   29200    981.02454   -108.03852   0.88765162   -107.15087    11901.444    4.3539149    4.3539149    4.3539149    11901.444   -23181.528    34418.531    24467.328    6478.0756    2681.3688    -1103.162    82.535313 
   29300    928.48934   -107.99544   0.84011666   -107.15533    5316.2698    4.3518309    4.3518309    4.3518309    5316.2698   -17043.805    19275.235     13717.38    4406.0808    10430.248     2087.747    82.416856 
   29400    829.60101   -107.90224   0.75064042    -107.1516   -16441.372    4.3717346    4.3717346    4.3717346   -16441.372   -41735.342    -12977.87     5389.095   -9958.6723   -10668.178    3504.0853    83.552871 
   29500     993.7357   -108.04174   0.89915294   -107.14258    12314.212    4.3534757    4.3534757    4.3534757    12314.212   -5641.6795    21392.641    21191.674    16069.442    7641.9653    3931.4479    82.510342 
   29600     831.1469   -107.90525   0.75203918   -107.15321    -13178.87    4.3609968    4.3609968    4.3609968    -13178.87   -29473.955   -14823.355    4760.7017   -14063.611   -2034.5156   -6709.9584    82.938713 
   29700     990.6719   -108.04538   0.89638076     -107.149    2773.9086    4.3610883    4.3610883    4.3610883    2773.9086   -27673.057    8186.3097    27808.473   -5503.0062   -6502.6961    13098.505    82.943935 
   29800    872.40151   -107.93609   0.78936722   -107.14672   -682.92263    4.3602883    4.3602883    4.3602883   -682.92263   -13436.627   -5112.2166    16500.075   -3602.8121     8856.876   -10668.689    82.898298 
   29900    376.98625   -107.49559   0.34110509   -107.15449   -3117.0519    4.3611849    4.3611849    4.3611849   -3117.0519   -37575.041   -6719.6071    34943.492   -29621.586   -1105.3333    6054.6429    82.949449 
   30000    1338.2707   -108.35966    1.2108954   -107.14877    1388.4225    4.3544333    4.3544333    4.3544333    1388.4225   -3269.2698    6659.0319     775.5053    6206.6554    3884.5702   -4463.3184    82.564798 
   30100    711.63569   -107.79963   0.64390292   -107.15573   -12149.456    4.3633311    4.3633311    4.3633311   -12149.456   -15283.901   -13641.479   -7522.9898   -16426.358     11195.77    56.395491    83.071968 
   30200    774.54643   -107.85147   0.70082589   -107.15064   -9431.2182    4.3574493    4.3574493    4.3574493   -9431.2182   -7521.0687   -20538.223   -234.36302   -8133.1568   -15220.785   -1865.4966     82.73648 
   30300    1242.7435   -108.26864    1.1244604   -107.14418   -5109.8633    4.3631844    4.3631844    4.3631844   -5109.8633   -18801.307     5525.106   -2053.3893    7685.7131    9555.6835    7360.7127    83.063589 
   30400    728.70061   -107.80907   0.65934363   -107.14972     1440.449    4.3595819    4.3595819    4.3595819     1440.449    41.051155   -9378.8568    13659.153   -26921.607   -142.57531   -2348.8559    82.858012 
   30500    846.34402    -107.9164   0.76578985   -107.15061   -98.539708    4.3569355    4.3569355    4.3569355   -98.539708    26277.622    -11829.66   -14743.581   -1000.1425   -843.43102    16833.477    82.707213 
   30600     732.9256   -107.81338   0.66316649   -107.15022    5744.4773    4.3649309    4.3649309    4.3649309    5744.4773    28159.072   -8906.4465   -2019.1934   -17469.366    14083.666    2303.8877    83.163375 
   30700    839.91889   -107.90752   0.75997627   -107.14755   -5063.0182     4.363181     4.363181     4.363181   -5063.0182   -1643.1275   -8208.2564   -5337.6706   -15562.701   -1121.3229    8714.2711    83.063399 
   30800    1011.2537   -108.05662   0.91500357   -107.14161   -6093.4005     4.359577     4.359577     4.359577   -6093.4005   -21280.476   -8274.2217    11274.496    12450.422    -1221.615    5215.7047    82.857736 
   30900    916.03957   -107.96948   0.82885185   -107.14063   -14367.798    4.3595211    4.3595211    4.3595211   -14367.798   -21632.987   -23652.722    2182.3166   -21850.167    1315.4898   -8330.7162    82.854549 
   31000    865.46331   -107.92867   0.78308939   -107.14558   -918.29748    4.3607231    4.3607231    4.3607231   -918.29748    9363.3832    -19735.24    7616.9642    10632.259   -5507.9328    3266.9711    82.923099 
   31100    1019.9812   -108.06888   0.92290041   -107.14598   -571.93014    4.3588409    4.3588409    4.3588409   -571.93014   -10266.491   -20071.111    28621.812   -10989.301    7239.2605   -10985.358    82.815769 
   31200    826.25264   -107.89463   0.74761075   -107.14701   -1234.1025    4.3618951    4.3618951    4.3618951   -1234.1025    14708.097   -27431.254    9020.8494   -16325.394    2683.5104    632.11023    82.989979 
   31300    595.08758   -107.68044   0.53844775   -107.14199    7864.5506    4.3666198    4.3666198    4.3666198    7864.5506   -13158.322   -2250.8537    39002.827     531.7553     6857.855    6729.6882    83.259947 
   31400    922.89318   -107.97295   0.83505314    -107.1379   -3069.5175    4.3589283    4.3589283    4.3589283   -3069.5175   -18917.692    20328.698   -10619.558   -26814.927    3503.2183   -6408.0343    82.820754 
   31500    999.98614    -108.0424   0.90480847   -107.13759    13329.947    4.3608085    4.3608085    4.3608085    13329.947   -8095.1592    22994.003    25090.998    4183.9472    -3173.368   -1877.6866    82.927972 
   31600    752.46409   -107.82208   0.68084532   -107.14124   -19805.201    4.3715189    4.3715189    4.3715189   -19805.201   -44772.744   -18960.262    4317.4031   -9495.2691    9303.3425    5428.9226    83.540501 
   31700    1022.3059   -108.06136   0.92500384   -107.13636   -4563.4959    4.3496815    4.3496815    4.3496815   -4563.4959   -6870.6921   -25219.764    18399.968   -6796.5301   -50.078776   -6695.7725    82.294793 
   31800    1018.0466   -108.06612   0.92114999   -107.14497    2001.7942    4.3592291    4.3592291    4.3592291    2001.7942    5829.2016   -13045.508    13221.689    9607.6145    10440.137    7565.7435    82.837898 
   31900    926.93768   -107.98464   0.83871269   -107.14592   -33738.999    4.3735199    4.3735199    4.3735199   -33738.999   -46870.769   -34534.958   -19811.269   -18961.175    6282.7831    6351.7553    83.655273 
   32000    978.30165   -108.02213    0.8851879   -107.13694    17336.094    4.3472679    4.3472679    4.3472679    17336.094    29969.823    3816.3622    18222.096    -6241.455    7311.3932   -4810.6141     82.15788 
   32100    653.93638   -107.74108   0.59169538   -107.14939    3639.6661    4.3603501    4.3603501    4.3603501    3639.6661    14005.681    10429.537    -13516.22   -7732.2396    278.65797    2432.3402    82.901821 
   32200    802.09019   -107.87144   0.72574806   -107.14569   -16572.835    4.3730904    4.3730904    4.3730904   -16572.835   -35000.506   -541.60945    -14176.39   -16371.224    3630.5082   -12053.792     83.63063 
   32300    1094.6165   -108.12561   0.99043201   -107.13518    10295.731    4.3582787    4.3582787    4.3582787    10295.731    21026.924    18043.577   -8183.3096    3980.3544   -3493.7961   -9362.0532    82.783734 
   32400     751.0379   -107.82259   0.67955487   -107.14304    -2793.898    4.3525334    4.3525334    4.3525334    -2793.898   -7895.9016   -15080.093      14594.3    -9808.957    6512.1962    5020.3742    82.456775 
   32500    884.97614   -107.95049   0.80074501   -107.14975   -12837.475     4.362819     4.362819     4.362819   -12837.475   -5416.4332   -17065.353   -16030.639   -1723.8432    520.74191    -11749.94    83.042723 
   32600    992.27609   -108.04111   0.89783226   -107.14328   -2070.9275     4.367668     4.367668     4.367668   -2070.9275    25237.352   -14517.183   -16932.951   -6166.2667    760.72842    10046.297    83.319921 
   32700    963.22311   -108.01712   0.87154451   -107.14557   -8426.6885    4.3532842    4.3532842    4.3532842   -8426.6885   -22115.354    5178.8376   -8343.5492   -18100.255    3100.7995    -5537.886    82.499452 
   32800     819.2159   -107.89404   0.74124376    -107.1528    15367.061     4.355319     4.355319     4.355319    15367.061    36550.059    10296.524   -745.40047     7641.254    2024.1661   -7872.3993    82.615194 
   32900    911.28747    -107.9761   0.82455206   -107.15155     -9325.51     4.370292     4.370292     4.370292     -9325.51    16902.055   -23456.765   -21421.821   -5193.4632    4964.1785    2088.1178    83.470184 
   33000    794.26383   -107.86499   0.71866661   -107.14632    14456.976    4.3551769    4.3551769    4.3551769    14456.976    26988.381    1962.1329    14420.415     2121.234    8368.1279   -12356.566    82.607106 
   33100    904.62003   -107.96282   0.81851922    -107.1443    9878.4216    4.3586924    4.3586924    4.3586924    9878.4216    40146.613   -17720.393    7209.0451    4337.4334    -1108.072    3262.2137    82.807306 
   33200    1077.9231   -108.11652    0.9753275    -107.1412   -6784.7253    4.3638631    4.3638631    4.3638631   -6784.7253   -4623.4991   -15577.413   -153.26376   -17297.107    1044.3304    5228.0322    83.102361 
   33300    567.84285   -107.65738   0.51379615   -107.14359    15829.558    4.3584322    4.3584322    4.3584322    15829.558    51478.201   -17029.084    13039.557    9738.5208    -1097.428   -1596.9373    82.792478 
   33400     1281.404    -108.3029    1.1594413   -107.14346   -15336.146    4.3604899    4.3604899    4.3604899   -15336.146   -4431.7986   -20473.539   -21103.101   -1788.7296   -4272.3281    5836.2634    82.909799 
   33500    1073.6479   -108.11754    0.9714592   -107.14608    12744.278    4.3561412    4.3561412    4.3561412    12744.278     25013.01    9417.7413    3802.0818   -3211.4306    8710.7078    3040.4843    82.661987 
   33600    492.18128   -107.60014   0.44533597   -107.15481   -3482.4061    4.3658408    4.3658408    4.3658408   -3482.4061    8230.6861   -32046.368    13368.464    19829.927   -5807.2668    1190.9018    83.215396 
   33700    1113.5159   -108.14951    1.0075326   -107.14197   -2809.8069    4.3602686    4.3602686    4.3602686   -2809.8069    15802.777   -28978.463    4746.2653   -4424.3542   -15467.737    3214.6706    82.897173 
   33800    670.68281   -107.75157    0.6068479   -107.14472    24886.075    4.3563115    4.3563115    4.3563115    24886.075    16559.678    24817.173    33281.376    5205.2257   -404.27315   -13526.572    82.671681 
   33900    829.00626   -107.90041   0.75010229   -107.15031   -24148.878    4.3645372    4.3645372    4.3645372   -24148.878   -34544.399   -27498.085   -10404.149    14004.677   -8927.5507    9818.5998    83.140877 
   34000    1121.2667   -108.15679    1.0145457   -107.14225    4343.2302    4.3541384    4.3541384    4.3541384    4343.2302    25191.448   -18597.663    6435.9056   -6926.4339      4952.83    2583.0533    82.548028 
   34100    711.80501   -107.79573   0.64405613   -107.15168   -14696.444    4.3650561    4.3650561    4.3650561   -14696.444   -43237.543   -2433.7147    1581.9259    18490.753    3814.1507    -2214.416    83.170536 
   34200    958.25867   -108.01476   0.86705258   -107.14771   -10548.535    4.3627684    4.3627684    4.3627684   -10548.535   -14237.252   -16372.932     -1035.42    4290.7415   -7423.5897    11613.312    83.039836 
   34300    987.42294   -108.03605   0.89344102   -107.14261    22494.303     4.351723     4.351723     4.351723    22494.303     24838.91    10943.588    31700.411   -5614.4919   -4209.4562   -11213.267    82.410722 
   34400    634.42399   -107.72693   0.57404016   -107.15289       -22430    4.3699175    4.3699175    4.3699175       -22430   -23625.689   -13765.256   -29899.054    10700.124   -5722.1616    3902.1264    83.448729 
   34500    1051.1707   -108.09268   0.95112132   -107.14155    5566.1992    4.3607235    4.3607235    4.3607235    5566.1992     24707.38    5223.5832   -13232.366    -6858.753    2627.0639   -1317.6373    82.923122 
   34600     913.6375   -107.96954   0.82667841   -107.14286   -205.63159    4.3600804    4.3600804    4.3600804   -205.63159   -11185.104    13137.908   -2569.6985    23538.985   -3314.1863     1746.759    82.886443 
   34700    1033.0229   -108.07848   0.93470087   -107.14378   -21514.503    4.3606978    4.3606978    4.3606978   -21514.503     -27046.1   -14578.181   -22919.228    1776.4408     6133.074    3738.8776    82.921657 
   34800    817.07446    -107.8823   0.73930615     -107.143    18860.337    4.3604099    4.3604099    4.3604099    18860.337    23135.261    38972.673   -5526.9213     4525.976   -2661.3284   -10533.045    82.905233 
   34900    814.28554   -107.88143   0.73678267   -107.14465   -21886.187    4.3718689    4.3718689    4.3718689   -21886.187   -38101.474   -2805.6869   -24751.401    10029.211   -5772.4555    -1730.312    83.560569 
   35000    923.82549   -107.97494   0.83589671   -107.13904    21569.643    4.3518362    4.3518362    4.3518362    21569.643    32092.674    38997.345   -6381.0912    -9865.372   -3049.8117   -10455.127    82.417154 
[...]
   91200    1005.9766   -108.05755   0.91022876   -107.14733   -5257.3494    4.3554014    4.3554014    4.3554014   -5257.3494    17493.345   -34867.617    1602.2233    22856.401   -3964.0244   -1409.3276    82.619881 
   91300    908.91189   -107.96678   0.82240258   -107.14438    7501.8473    4.3416899    4.3416899    4.3416899    7501.8473    23910.215    12489.604   -13894.278   -4074.2501    14197.661    2964.4512    81.842032 
   91400    839.61992   -107.91441   0.75970575   -107.15471   -22756.905    4.3536651    4.3536651    4.3536651   -22756.905   -17152.449   -23353.128   -27765.137    9253.8069    4056.2453    18159.672    82.521108 
   91500    996.30483   -108.05047   0.90147755   -107.14899    9633.1456    4.3530385    4.3530385    4.3530385    9633.1456    30374.737   -3798.1773    2322.8774    12705.531   -4291.2364   -4123.5883    82.485485 
   91600    857.82219   -107.93125   0.77617554   -107.15508   -13768.027    4.3520877    4.3520877    4.3520877   -13768.027    4131.1789     -2541.47    -42893.79   -5384.6702    20289.798    10986.849    82.431447 
   91700    825.64347    -107.8968   0.74705956   -107.14974    15864.538    4.3471074    4.3471074    4.3471074    15864.538    54692.835   -8146.2493     1047.029    4487.0032     -1414.08    7753.9426    82.148781 
   91800    1084.9317   -108.13083   0.98166902   -107.14916    -17520.87    4.3545837    4.3545837    4.3545837    -17520.87   -20299.762   -17029.231   -15233.616    590.84086    9100.0295   -1887.5656    82.573357 
   91900    724.37394    -107.8081   0.65542877   -107.15267   -6236.8657     4.350318     4.350318     4.350318   -6236.8657   -2032.4606    6206.3745   -22884.511   -7220.4294    17308.048    13710.627    82.330931 
   92000    976.68382   -108.03364   0.88372404   -107.14992    12450.463    4.3422275    4.3422275    4.3422275    12450.463    25245.381    2321.9306    9784.0757    4176.4081   -8624.1123   -633.09237    81.872438 
   92100    803.91108   -107.88354   0.72739564   -107.15615   -6540.5795    4.3598867    4.3598867    4.3598867   -6540.5795    12917.229   -4211.1162   -28327.852    11183.407    7712.0624   -2704.8841    82.875397 
   92200    954.41582   -108.01289   0.86357549   -107.14931    1730.2143    4.3545769    4.3545769    4.3545769    1730.2143    17365.691   -16.184201   -12158.864   -10232.938   -2596.6154    4161.1254    82.572968 
   92300    782.48797   -107.85995   0.70801156   -107.15194   -7670.6926    4.3445103    4.3445103    4.3445103   -7670.6926   -15783.028   -10537.769    3308.7185    7599.9857   -7988.1839   -14355.239    82.001629 
   92400    1188.6893   -108.22564    1.0755511   -107.15009    8074.9276    4.3487357    4.3487357    4.3487357    8074.9276    21341.225     17648.31   -14764.752   -8754.8947    4721.9656    1016.8467    82.241124 
   92500    669.99138   -107.76271   0.60622228   -107.15649   -12637.074    4.3587766    4.3587766    4.3587766   -12637.074    6907.1174   -25865.282   -18953.056     1619.005   -10504.767    -3899.531    82.812104 
   92600     756.0656   -107.83927   0.68410404   -107.15517    20134.262    4.3416982    4.3416982    4.3416982    20134.262    44250.157    10689.278    5463.3512    3433.1679   -8105.2183   -13994.255    81.842501 
   92700     1380.984   -108.39988    1.2495433   -107.15034   -4345.7862    4.3525938    4.3525938    4.3525938   -4345.7862   -6111.9442    -1072.881   -5852.5334   -1643.9747    8289.5895    10845.976    82.460204 
   92800    411.62753   -107.53232   0.37244923   -107.15987   -15468.932    4.3544059    4.3544059    4.3544059   -15468.932   -10366.276   -18609.942   -17430.577    -9216.717   -9253.4947   -13143.852    82.563242 
   92900    1215.5255   -108.24578     1.099833   -107.14594    15559.292     4.345312     4.345312     4.345312    15559.292    34436.596    4652.1411    7589.1389    12488.514    1854.6156   -714.69291    82.047036 
   93000     714.0614   -107.79775   0.64609776   -107.15166   -3341.8464    4.3566906    4.3566906    4.3566906   -3341.8464    1290.5061    63.518895   -11379.564   -21634.864    6177.6308    7488.8768    82.693266 
   93100    979.39173   -108.03773   0.88617422   -107.15156   -15307.879    4.3472295    4.3472295    4.3472295   -15307.879   -13157.952   -21439.425    -11326.26    6393.5296   -7442.2894   -17058.814    82.155702 
   93200     1073.666   -108.12039    0.9714756   -107.14891    11871.332    4.3454261    4.3454261    4.3454261    11871.332    12897.241    15218.147    7498.6087   -9078.1323   -924.23013     11369.99    82.053501 
   93300    606.03774    -107.7058   0.54835568   -107.15745   -19974.694     4.356866     4.356866     4.356866   -19974.694   -6163.6571   -36337.281   -17423.144   -21611.893   -10775.019   -9964.9049    82.703256 
   93400    948.61395   -108.00627   0.85832584   -107.14794   -1363.8927    4.3523279    4.3523279    4.3523279   -1363.8927    15442.494   -15937.342   -3596.8309    12859.736   -12369.886   -1319.2612    82.445095 
   93500    974.47659   -108.02629    0.8817269   -107.14456   -2217.7273    4.3493497    4.3493497    4.3493497   -2217.7273    10038.947    -15309.92   -1382.2087   -18978.247    982.72132    10195.227    82.275966 
   93600    740.97084   -107.82053   0.67044599   -107.15008   -14764.395    4.3465858    4.3465858    4.3465858   -14764.395    -3851.119   -22376.628   -18065.437    8779.3985   -12466.871   -16650.754    82.119214 
   93700    922.41436   -107.98607    0.8346199   -107.15145   -5476.6238    4.3505525    4.3505525    4.3505525   -5476.6238    3600.9263   -8748.6371   -11282.161     6158.025    5367.6255    23594.485    82.344246 
   93800     1016.365   -108.06664   0.91962844   -107.14701   -9171.8568    4.3591326    4.3591326    4.3591326   -9171.8568    11390.172   -17327.162   -21578.581   -8693.0815   -4858.5987   -5470.1528    82.832398 
   93900    677.18228   -107.76325   0.61272875   -107.15052     -6147.13    4.3471397    4.3471397    4.3471397     -6147.13    13691.647    -11921.58   -20211.457    6815.1475   -4683.5371    910.81049    82.150609 
   94000    1003.8706   -108.05705   0.90832326   -107.14873    1898.6851    4.3435708    4.3435708    4.3435708    1898.6851    16558.832   -6217.1649   -4645.6121     3324.682   -1294.4514    26601.063    81.948443 
   94100     991.9271   -108.04841   0.89751648   -107.15089   -10966.034     4.357872     4.357872     4.357872   -10966.034    422.32741   -14005.302   -19315.128   -5450.3997   -2982.8129   -23492.523    82.760557 
   94200    723.63974   -107.81035   0.65476444   -107.15558   -3878.9819    4.3450519    4.3450519    4.3450519   -3878.9819    9356.8655   -18281.822   -2711.9887    10015.043    616.41464    29315.662      82.0323 
   94300    1025.0597   -108.07934   0.92749557   -107.15184    15690.252    4.3514269    4.3514269    4.3514269    15690.252    39284.178    11247.274    -3460.697   -5201.1216    3670.6691    492.05368    82.393906 
   94400    868.57271   -107.94101   0.78590284    -107.1551   -11416.603    4.3563556    4.3563556    4.3563556   -11416.603    11606.327   -13560.236   -32295.898   -5548.0625     766.1762    3415.9238    82.674192 
   94500    586.27707   -107.68635   0.53047581   -107.15587    8193.8128    4.3442493    4.3442493    4.3442493    8193.8128    20324.453    8030.7203   -3773.7349    7298.1343   -10294.686     27783.14    81.986852 
   94600    1375.8423   -108.39172     1.244891   -107.14683    2993.9935      4.35144      4.35144      4.35144    2993.9935    2066.1053    10027.891   -3112.0156    5418.7061    2389.4608   -13673.568    82.394645 
   94700    720.53969   -107.80836   0.65195945    -107.1564   -3741.0696    4.3523352    4.3523352    4.3523352   -3741.0696    18115.428   -2012.3877   -27326.249    3703.1321    -8826.105    27326.664     82.44551 
   94800    771.30071   -107.85475    0.6978891   -107.15686   -1985.6556    4.3531076    4.3531076    4.3531076   -1985.6556   -1579.7876   -17137.069    12759.889    14074.195   -857.66992    4063.5666    82.489414 
   94900    1203.3144    -108.2391    1.0887842   -107.15032    14276.124    4.3436435    4.3436435    4.3436435    14276.124    33122.803    21791.127   -12085.559    2008.3051   -670.97128    8041.3574    81.952559 
   95000    675.26231   -107.77238   0.61099153   -107.16139   -3308.3856    4.3506996    4.3506996    4.3506996   -3308.3856    3124.7594   -13968.438    918.52182    9171.9289   -13227.037    25313.027    82.352594 
   95100    978.83691   -108.03435    0.8856722   -107.14868   -15883.832    4.3613719    4.3613719    4.3613719   -15883.832   -28311.531   -11408.247    -7931.718    13879.265    1021.6228    -7272.266    82.960116 
   95200    1071.9699   -108.11218   0.96994085   -107.14224    7417.6595    4.3418068    4.3418068    4.3418068    7417.6595    39659.931    6479.5489   -23886.501    -3796.481   -4172.0786    17285.997    81.848644 
   95300    621.14225   -107.71499   0.56202256   -107.15296   -949.98313    4.3482249    4.3482249    4.3482249   -949.98313    858.97106    -16877.04    13168.119    18062.659   -5921.8714    6275.2118    82.212147 
   95400    1023.9137   -108.07377   0.92645866   -107.14731   -10386.131    4.3609587    4.3609587    4.3609587   -10386.131   -11470.173    -1676.512    -18011.71    -12093.95    7800.9809   -4728.1886    82.936541 
   95500    942.86564   -107.99824   0.85312465   -107.14511   -8913.8054    4.3526073    4.3526073    4.3526073   -8913.8054    11239.678   -7405.7799   -30575.314    7554.3718    -7942.522    10836.421    82.460973 
   95600    654.26088   -107.73967     0.591989   -107.14768    9402.4943    4.3363532    4.3363532    4.3363532    9402.4943    -14417.93    11171.311    31454.102    16815.889    8941.6983   -2856.4472    81.540606 
   95700    1164.8854   -108.20519    1.0540128   -107.15118   -4791.6235    4.3572819    4.3572819    4.3572819   -4791.6235    20605.388   -17222.301   -17757.958    -11629.17   -898.55907    1674.5843    82.726943 
   95800    804.15629   -107.88135   0.72761751   -107.15373   -16269.157    4.3590456    4.3590456    4.3590456   -16269.157   -14215.987   -21825.811   -12765.674     23069.78   -2737.3763    6383.6272    82.827439 
   95900    749.54646   -107.82737   0.67820539   -107.14916    12183.283    4.3315809    4.3315809    4.3315809    12183.283    14910.574   -1129.8333    22769.109   -1197.2423   -1706.8172   -12853.346     81.27169 
   96000    1230.9175   -108.26438      1.11376   -107.15062   -8508.6886    4.3549892    4.3549892    4.3549892   -8508.6886    3934.8166   -81.838179   -29379.044   -4824.9841    364.37369    2422.5705    82.596424 
   96100    579.07904   -107.68225   0.52396288   -107.15829   -94.373281    4.3521145    4.3521145    4.3521145   -94.373281    15274.213   -19314.864    3757.5308    26760.818   -4758.6845   -2251.3262    82.432967 
   96200    989.70965   -108.04381   0.89551009    -107.1483    15796.748    4.3464416    4.3464416    4.3464416    15796.748     26826.34    8888.6008    11675.302   -10061.877    4014.8959   -8733.5401    82.111038 
   96300    1122.0981   -108.16139     1.015298    -107.1461   -339.91688    4.3483583    4.3483583    4.3483583   -339.91688     8219.805   -2643.9419   -6595.6137    7519.0812   -2075.7991    4180.8639    82.219713 
   96400    631.08804    -107.7253   0.57102172   -107.15428    822.50146    4.3501606    4.3501606    4.3501606    822.50146    3275.4376    -4839.633    4031.6998    14956.284   -5741.7604   -10421.477    82.321991 
   96500    1269.0238   -108.28979    1.1482394   -107.14155    6781.2278    4.3580299    4.3580299    4.3580299    6781.2278    20068.116     9166.495   -8890.9277   -10718.325    1341.6311     2690.994    82.769555 
   96600    799.09322   -107.87681   0.72303634   -107.15377   -9747.8808    4.3452897    4.3452897    4.3452897   -9747.8808   -11939.007   -15044.919   -2259.7164    30786.129   -4114.9382   -3392.1667    82.045775 
   96700    869.04431   -107.94038   0.78632956   -107.15405    23189.123    4.3425206    4.3425206    4.3425206    23189.123     26222.78    32025.833    11318.757   -1878.5902    795.05543   -10645.297     81.88902 
   96800    1176.6948    -108.2144    1.0646982    -107.1497   -17223.457    4.3622775    4.3622775    4.3622775   -17223.457   -14559.871   -11455.856   -25654.643    4298.9461    7536.8804    7063.7416    83.011806 
   96900    552.63767   -107.65625   0.50003818   -107.15621   -1576.0994     4.347012     4.347012     4.347012   -1576.0994   -20654.136    16635.115   -709.27732    20834.981   -8733.6055   -11205.802    82.143367 
   97000    1201.4929   -108.23006     1.087136   -107.14292     21437.81    4.3398967    4.3398967    4.3398967     21437.81    17122.019    27066.966    20124.444   -11353.172     1678.508    3863.9305    81.740668 
   97100    741.40845   -107.82435   0.67084194   -107.15351   -25463.514    4.3588246    4.3588246    4.3588246   -25463.514   -28832.145   -18118.786   -29439.612    12016.464    6117.7307    8790.2947    82.814842 
   97200    756.88127   -107.83525   0.68484208   -107.15041    18856.803    4.3448297    4.3448297    4.3448297    18856.803    -1351.042    47651.353    10270.097    9581.3093   -8328.0617   -6840.4823    82.019721 
   97300     1178.095   -108.21193    1.0659651   -107.14597   -15563.804    4.3554937    4.3554937    4.3554937   -15563.804   -4149.3282   -16230.415    -26311.67   -5939.2144    12107.069    10833.904    82.625131 
   97400    592.65126   -107.68523   0.53624332   -107.14898    32.537999    4.3470322    4.3470322    4.3470322    32.537999   -9255.1747    14487.505   -5134.7164    16400.785    1407.0775    3103.4213    82.144517 
   97500    1189.8689   -108.21851    1.0766184   -107.14189    4070.2397    4.3505195    4.3505195    4.3505195    4070.2397    11384.966    9846.0431   -9020.2899   -987.22913   -8892.0729   -3621.1612    82.342369 
   97600    872.11699   -107.93308   0.78910978   -107.14397   -25068.157     4.361125     4.361125     4.361125   -25068.157    -7404.829   -26370.692    -41428.95    5728.7137    12577.889    8191.0291     82.94603 
   97700    861.04785   -107.92193   0.77909419   -107.14283     27906.16     4.335672     4.335672     4.335672     27906.16    21582.375    46622.375    15513.732    23686.215   -17441.081   -4610.5576    81.502185 
   97800    1085.5514   -108.12819    0.9822297   -107.14596   -10554.808    4.3573622    4.3573622    4.3573622   -10554.808   -992.84671   -20651.537    -10020.04   -16907.717    10332.741    8572.7595    82.731517 
   97900      741.863   -107.82216   0.67125323   -107.15091    10573.247    4.3460292    4.3460292    4.3460292    10573.247    21319.956    5577.2719    4822.5132    16975.868    2092.3951    1691.5337    82.087669 
   98000    1001.0236   -108.05172   0.90574722   -107.14598    15014.604    4.3500283    4.3500283    4.3500283    15014.604    15487.976    10916.552    18639.283    4105.7369   -4617.4467   -1623.8656    82.314483 
   98100     868.5436   -107.93311    0.7858765   -107.14723   -11343.221    4.3530084    4.3530084    4.3530084   -11343.221   -11738.356   -29111.093    6819.7852   -16246.805    4165.4068    11227.063     82.48377 
   98200    845.22422   -107.90787   0.76477664    -107.1431    30427.393    4.3358827    4.3358827    4.3358827    30427.393    26863.245    35262.628    29156.305    31077.806   -6219.9058   -8151.5421     81.51407 
   98300    961.04354   -108.01365   0.86957239   -107.14407   -18662.903    4.3642582    4.3642582    4.3642582   -18662.903   -30909.172   -21282.874   -3796.6642     -27826.5   -8244.1111    4796.1005    83.124936 
   98400     768.3065   -107.84028   0.69517987    -107.1451    10249.393    4.3413292    4.3413292    4.3413292    10249.393     7178.514    14055.511    9514.1544    10737.972    2789.0115    1762.2591    81.821634 
   98500    1124.2351   -108.16048    1.0172315   -107.14325    2989.1773    4.3467626    4.3467626    4.3467626    2989.1773   -3576.6374    14761.348    -2217.179    3320.3782   -5692.2709    3922.4353    82.129232 
   98600    875.69129   -107.93434   0.79234388     -107.142   -20289.581    4.3592266    4.3592266    4.3592266   -20289.581   -25703.985    -24125.54   -11039.216   -23292.058   -1870.9028    2412.4728    82.837758 
   98700     983.9748   -108.02849   0.89032108   -107.13817    17760.947    4.3421477    4.3421477    4.3421477    17760.947    13352.181    28204.199     11726.46    27694.966    6235.3907    12175.474    81.867927 
   98800    996.22575   -108.04483     0.901406   -107.14342   -8352.7327    4.3537451    4.3537451    4.3537451   -8352.7327    -15728.05   -13563.239    4233.0906   -24984.909   -4342.6117   -13043.781    82.525659 
   98900    810.65827    -107.8838   0.73350064    -107.1503     3814.076    4.3448209    4.3448209    4.3448209     3814.076    4227.8062   -1658.1442    8872.5659    3579.8951    2048.0591    6634.6417    82.019222 
   99000    969.06333   -108.02845   0.87682887   -107.15162   -8581.2811     4.352473     4.352473     4.352473   -8581.2811   -19128.334   -5190.1976   -1425.3121    15442.939    1236.8547   -5980.9733    82.453341 
   99100    735.51741   -107.81918   0.66551161   -107.15366   -7244.5537    4.3465168    4.3465168    4.3465168   -7244.5537   -7745.0156   -13606.183   -382.46283   -24798.922    3287.1267   -16200.807    82.115303 
   99200    1009.5564   -108.06266   0.91346785   -107.14919   -3189.7939    4.3474023    4.3474023    4.3474023   -3189.7939   -10079.198   -8505.1011    9014.9169    20404.831   -2432.2379    18790.857    82.165498 
   99300    756.71325   -107.83186   0.68469005   -107.14717   -21680.642    4.3586015    4.3586015    4.3586015   -21680.642   -14693.503   -21698.882   -28649.542   -7435.6172    12072.769   -30459.063    82.802125 
   99400    916.64205    -107.9755   0.82939699   -107.14611   -3422.8201    4.3393364    4.3393364    4.3393364   -3422.8201    8908.5258    -18710.89   -466.09578   -18397.609   -5991.6813    10680.621    81.709014 
   99500    1047.8487   -108.09748   0.94811549   -107.14937   -5657.9735    4.3477306    4.3477306    4.3477306   -5657.9735    1008.5859   -5497.5427   -12484.964    16574.303     11258.83   -8252.5681    82.184115 
   99600    775.08439   -107.85505   0.70131264   -107.15374   -18541.706    4.3561587    4.3561587    4.3561587   -18541.706   -1006.3079   -30008.729   -24610.082   -20707.098    400.26587   -23798.656    82.662983 
   99700    881.06785   -107.94331   0.79720871    -107.1461   -1929.6248    4.3507183    4.3507183    4.3507183   -1929.6248   -1054.0713   -2554.5468   -2180.2562    11064.691   -2289.9837    22432.766    82.353661 
   99800    909.01223   -107.96832   0.82249337   -107.14583   -4380.2475    4.3413529    4.3413529    4.3413529   -4380.2475    8149.8144   -10839.581   -10450.976    205.55571    11406.375   -31987.263    81.822978 
   99900     814.1478   -107.89015   0.73665804   -107.15349   -3723.9255    4.3518783    4.3518783    4.3518783   -3723.9255   -9176.3414     1351.267   -3346.7019   -5387.9556   -2446.6408    1160.4454    82.419547 
  100000    1104.1208   -108.14847   0.99903172   -107.14944    -6682.528    4.3521226    4.3521226    4.3521226    -6682.528    8514.8642   -9685.6166   -18876.832    8316.9808    5970.5483    5436.4948    82.433431 
Loop time of 22.4899 on 1 procs for 100000 steps with 8 atoms

Pair  time (%) = 6.90742 (30.7134)
Kspce time (%) = 5.5555 (24.7022)
Neigh time (%) = 0 (0)
Comm  time (%) = 1.14704 (5.10024)
Outpt time (%) = 0.029418 (0.130805)
Other time (%) = 8.85052 (39.3533)

Nlocal:    8 ave 8 max 8 min
Histogram: 1 0 0 0 0 0 0 0 0 0
Nghost:    2189 ave 2189 max 2189 min
Histogram: 1 0 0 0 0 0 0 0 0 0
Neighs:    2056 ave 2056 max 2056 min
Histogram: 1 0 0 0 0 0 0 0 0 0

Total # of neighbors = 2056
Ave neighs/atom = 257
Neighbor list builds = 0
Dangerous builds = 0
seeds:5478568
