    2    2    1    1
  0.9639684E+01  0.3009788E-09  0.3009788E-09  0.3009788E-09  0.5000000E-15
  1.000000000000000E-004
  CAR 
 automatically generated by pyflamestk   
      8     10     16
 
  0.1250000E+00  0.1250000E+00  0.1250000E+00  0.3125000E-01
    1      -13.596875   1.000000
    2        2.410252   1.000000
    3        3.255516   1.000000
    4        3.255516   1.000000
    5        8.698872   0.000000
    6       17.308344   0.000000
    7       19.317602   0.000000
    8       19.317605   0.000000
    9       23.529648   0.000000
   10       23.529649   0.000000
   11       24.862179   0.000000
   12       27.257850   0.000000
   13       28.679917   0.000000
   14       28.679918   0.000000
   15       38.891747   0.000000
   16       40.798599   0.000000
 
  0.3750000E+00  0.1250000E+00  0.1250000E+00  0.9375000E-01
    1      -12.947768   1.000000
    2        0.254514   1.000000
    3        2.401913   1.000000
    4        2.961803   1.000000
    5       11.117332   0.000000
    6       15.239319   0.000000
    7       18.616764   0.000000
    8       20.290650   0.000000
    9       22.114029   0.000000
   10       24.329275   0.000000
   11       26.407692   0.000000
   12       31.059602   0.000000
   13       32.313784   0.000000
   14       33.206441   0.000000
   15       35.573681   0.000000
   16       38.845288   0.000000
 
 -0.3750000E+00  0.1250000E+00  0.1250000E+00  0.9375000E-01
    1      -12.514140   1.000000
    2       -0.866790   1.000000
    3        2.253098   1.000000
    4        2.624997   1.000000
    5       11.722768   0.000000
    6       15.416812   0.000000
    7       17.909994   0.000000
    8       19.720944   0.000000
    9       23.697391   0.000000
   10       25.946505   0.000000
   11       26.023466   0.000000
   12       32.285334   0.000000
   13       32.870165   0.000000
   14       33.239064   0.000000
   15       35.793385   0.000000
   16       37.501840   0.000000
 
 -0.1250000E+00  0.1250000E+00  0.1250000E+00  0.9375000E-01
    1      -13.235284   1.000000
    2        1.135544   1.000000
    3        2.888641   1.000000
    4        2.892023   1.000000
    5       10.285832   0.000000
    6       15.495642   0.000000
    7       19.417749   0.000000
    8       19.904836   0.000000
    9       21.069808   0.000000
   10       24.910655   0.000000
   11       26.868916   0.000000
   12       29.950488   0.000000
   13       30.257853   0.000000
   14       30.981495   0.000000
   15       37.177405   0.000000
   16       38.948892   0.000000
 
  0.3750000E+00  0.3750000E+00  0.1250000E+00  0.9375000E-01
    1      -12.713208   1.000000
    2        0.071350   1.000000
    3        2.202735   1.000000
    4        2.433574   1.000000
    5       12.213404   0.000000
    6       13.906692   0.000000
    7       17.159928   0.000000
    8       20.779085   0.000000
    9       21.234692   0.000000
   10       27.083067   0.000000
   11       30.145138   0.000000
   12       30.398654   0.000000
   13       32.327587   0.000000
   14       34.817835   0.000000
   15       36.464695   0.000000
   16       37.868259   0.000000
 
 -0.3750000E+00  0.3750000E+00  0.1250000E+00  0.1875000E+00
    1      -12.303896   1.000000
    2       -0.042081   1.000000
    3        0.951576   1.000000
    4        2.025517   1.000000
    5       13.757313   0.000000
    6       14.765911   0.000000
    7       15.560481   0.000000
    8       19.546142   0.000000
    9       22.990412   0.000000
   10       26.443838   0.000000
   11       29.974356   0.000000
   12       31.398832   0.000000
   13       32.667306   0.000000
   14       36.333055   0.000000
   15       38.880384   0.000000
   16       41.085267   0.000000
 
 -0.1250000E+00  0.3750000E+00  0.1250000E+00  0.1875000E+00
    1      -12.558799   1.000000
    2       -0.246753   1.000000
    3        1.689240   1.000000
    4        2.523754   1.000000
    5       12.582593   0.000000
    6       14.788225   0.000000
    7       16.931177   0.000000
    8       20.116978   0.000000
    9       22.695703   0.000000
   10       25.354284   0.000000
   11       28.862432   0.000000
   12       31.629588   0.000000
   13       32.232576   0.000000
   14       34.881212   0.000000
   15       35.523345   0.000000
   16       41.005874   0.000000
 
 -0.3750000E+00 -0.3750000E+00  0.1250000E+00  0.9375000E-01
    1      -12.339718   1.000000
    2       -0.404248   1.000000
    3        1.687643   1.000000
    4        2.141030   1.000000
    5       12.852640   0.000000
    6       13.485448   0.000000
    7       16.007274   0.000000
    8       21.472078   0.000000
    9       21.484208   0.000000
   10       28.914289   0.000000
   11       29.390854   0.000000
   12       31.962911   0.000000
   13       32.659336   0.000000
   14       37.793110   0.000000
   15       38.168549   0.000000
   16       41.096214   0.000000
 
  0.3750000E+00  0.3750000E+00  0.3750000E+00  0.3125000E-01
    1      -12.749525   1.000000
    2       -0.600255   1.000000
    3        2.818806   1.000000
    4        2.818806   1.000000
    5       10.929008   0.000000
    6       15.429915   0.000000
    7       19.524180   0.000000
    8       19.524182   0.000000
    9       24.069682   0.000000
   10       24.441102   0.000000
   11       24.441105   0.000000
   12       31.898386   0.000000
   13       33.209800   0.000000
   14       33.209803   0.000000
   15       36.838930   0.000000
   16       36.838934   0.000000
 
 -0.3750000E+00  0.3750000E+00  0.3750000E+00  0.9375000E-01
    1      -12.387152   1.000000
    2       -0.283475   1.000000
    3        1.057014   1.000000
    4        2.493744   1.000000
    5       13.072741   0.000000
    6       15.230489   0.000000
    7       16.121128   0.000000
    8       20.426190   0.000000
    9       22.509988   0.000000
   10       25.548506   0.000000
   11       29.074752   0.000000
   12       31.613348   0.000000
   13       32.035895   0.000000
   14       35.363425   0.000000
   15       37.237314   0.000000
   16       40.109802   0.000000
