LAMMPS (11 Aug 2017)
Reading data file ...
  triclinic box = (0 0 0) to (3.6 6.2354 5.8788) with tilt (0 0 0)
  1 by 1 by 1 MPI processor grid
  reading atoms ...
  4 atoms
4 atoms in group Ni
Neighbor list info ...
  update every 1 steps, delay 0 steps, check yes
  max neighbors/atom: 2000, page size: 100000
  master list distance cutoff = 11
  ghost atom cutoff = 11
  binsize = 5.5, bins = 1 2 2
  1 neighbor lists, perpetual/occasional/extra = 1 0 0
  (1) pair eam/alloy, perpetual
      attributes: half, newton on
      pair build: half/bin/newton/tri
      stencil: half/bin/3d/newton/tri
      bin: standard
Setting up cg style minimization ...
  Unit style    : metal
  Current step  : 0
WARNING: Energy due to 3 extra global DOFs will be included in minimizer energies
Per MPI rank memory allocation (min/avg/max) = 4.231 | 4.231 | 4.231 Mbytes
Step PotEng Xhi Xlo Yhi Ylo Zhi Xy Xz Yz Press Pxx Pyy Pzz Pxy Pxz Pyz c_eatoms 
       0   -6.1011981          3.6            0       6.2354            0       5.8788            0            0            0   -123898.62   -123854.47   -123853.71   -123987.69 -6.2565369e-12 -3.1690156e-12 8.6567689e-12   -6.1011981 
      10   -6.4134671    3.5820195   0.01798046     6.204257  0.031142969     5.849406            0            0            0   -131664.48   -131616.96   -131616.19   -131760.29 -5.2626851e-12 2.4410219e-13 2.3773679e-11   -6.4134671 
      20   -6.7385265    3.5640395  0.035960494    6.1731148  0.062285206     5.820012            0            0            0   -139792.23   -139741.23   -139740.46   -139895.01 1.6040092e-11 -2.3386878e-11 -1.5231673e-11   -6.7385265 
      30   -7.0765098    3.5460599  0.053940132    6.1419732  0.093426763     5.790618            0            0            0   -148273.17    -148218.6   -148217.82   -148383.08 1.3414771e-11 5.1337622e-12 1.3686758e-11   -7.0765098 
      40   -7.4274996    3.5280806  0.071919402    6.1108323   0.12456769     5.761224            0            0            0   -157102.39   -157044.02   -157043.24    -157219.9 1.1719166e-11 8.7024054e-12 -7.037433e-12   -7.4274996 
      50   -7.7915131    3.5101019  0.089898145    6.0796923   0.15570772      5.73183            0            0            0   -166268.61    -166205.6   -166204.83   -166395.39 1.1148368e-11 2.4147282e-11 -1.5347318e-11   -7.7915131 
      60   -8.1684967    3.4921237   0.10787627    6.0485533   0.18684667     5.702436            0            0            0   -175747.27   -175679.43   -175678.68   -175883.69 7.3920858e-12 2.7876666e-11 3.4481004e-11   -8.1684967 
      70   -8.5583125    3.4741462   0.12585377    6.0174154   0.21798457     5.673042            0            0            0   -185506.56   -185433.73      -185433   -185652.97 6.3990368e-12 2.5122949e-11 2.6041837e-11   -8.5583125 
      80    -8.960726    3.4561693    0.1438307    5.9862785   0.24912148     5.643648            0            0            0   -195515.74    -195438.2   -195437.51   -195671.52 1.707138e-11 -3.9337629e-11 -4.0659288e-11    -8.960726 
      90   -9.3754004    3.4381928   0.16180725    5.9551423   0.28025773     5.614254            0            0            0   -205733.26   -205651.39   -205650.74   -205897.66 -2.4038936e-11 2.9617307e-11 8.2668129e-11   -9.3754004 
     100   -9.8018694    3.4202165   0.17978346    5.9240066   0.31139343      5.58486            0            0            0   -216088.42   -216002.34   -216001.75   -216261.16 -2.7331883e-12 -1.4593213e-11 -2.1418498e-11   -9.8018694 
     110   -10.239524    3.4022406    0.1977594    5.8928713   0.34252866     5.555466            0            0            0   -226508.19   -226418.24   -226417.72    -226688.6 1.5410445e-11 6.5436111e-11 3.0899699e-11   -10.239524 
     120   -10.687599    3.3842648   0.21573518    5.8617364   0.37366363     5.526072            0            0            0   -236887.23   -236794.03    -236793.6   -237074.07 2.6423791e-11 -1.2816457e-11 -2.0159871e-11   -10.687599 
     130    -11.14515     3.366289   0.23371096    5.8306014    0.4047986     5.496678            0            0            0   -247141.05   -247045.84   -247045.52   -247331.79 -8.5364642e-12 4.2590527e-11 3.8051909e-11    -11.14515 
     140   -11.611029    3.3483131   0.25168694     5.799466   0.43593395     5.467284            0            0            0   -257119.18   -257022.71   -257022.52   -257312.32 -1.1362239e-11 2.4534704e-11 1.0474153e-10   -11.611029 
     150   -12.083852    3.3303368   0.26966315    5.7683303   0.46706971      5.43789            0            0            0   -266656.25   -266559.01   -266558.98   -266850.76 6.1831981e-12 7.6888128e-11 1.6970854e-10   -12.083852 
     160    -12.56198    3.3123604   0.28763965     5.737194   0.49820599     5.408496            0            0            0   -275546.92   -275449.71   -275449.85   -275741.21 9.2108432e-12 -3.4371591e-11 -1.7724632e-10    -12.56198 
     170   -13.043482    3.2943834   0.30561658     5.706057   0.52934304     5.379102            0            0            0    -283569.4    -283474.3   -283474.65   -283759.24 -1.1841277e-11 2.9475201e-11 4.3895846e-11   -13.043482 
     180   -13.526113    3.2764057   0.32359427    5.6749186   0.56048142     5.349708            0            0            0    -290450.9   -290359.88   -290360.47   -290632.36 1.195038e-12 3.6118625e-11 -1.0091381e-10   -13.526113 
     190   -14.007258    3.2584271   0.34157292    5.6437785   0.59162149     5.320314            0            0            0    -295842.8   -295757.25   -295758.11   -296013.04 -9.905258e-12 -3.3566084e-11 -7.046272e-11   -14.007258 
     200   -14.483904    3.2404475   0.35955254    5.6126367   0.62276328      5.29092            0            0            0    -299375.2   -299296.16   -299297.33   -299532.09 3.5096779e-11 1.6668258e-11 6.5909712e-11   -14.483904 
     210   -14.952588    3.2224666   0.37753342    5.5814927   0.65390727     5.261526            0            0            0   -300581.25    -300511.8   -300513.32   -300718.63 2.6998328e-11 -8.19288e-11 -8.7285024e-11   -14.952588 
     220   -15.409346    3.2044841   0.39551591    5.5503459    0.6850541     5.232132            0            0            0   -298942.52   -298884.96   -298886.86   -299055.74 -8.3232383e-12 -6.5859099e-11 -1.4736399e-10   -15.409346 
     230    -15.84966    3.1864996   0.41350043    5.5191955   0.71620449     5.202738            0            0            0   -293822.29   -293779.83   -293782.16   -293904.89 3.5570033e-11 8.4188918e-11 9.6950546e-11    -15.84966 
     240   -16.268399    3.1685122   0.43148785      5.48804   0.74735996     5.173344            0            0            0   -284482.22   -284461.55   -284464.34   -284520.78 1.3588791e-11 -3.284091e-11 6.219954e-11   -16.268399 
     250   -16.659746    3.1505205   0.44947945    5.4568773   0.77852274      5.14395            0            0            0    -270091.2   -270096.69   -270099.99   -270076.92 -6.7346135e-11 -1.5726943e-10 -6.2637109e-11   -16.659746 
     260   -17.017117    3.1325235   0.46747646     5.425705   0.80969497     5.114556            0            0            0   -249625.86   -249660.25   -249664.08   -249553.24 6.8267348e-12 -1.1961773e-11 3.1517214e-11   -17.017117 
     270      -17.333    3.1145239   0.48547615     5.394528   0.84087197    5.0851698            0            0            0   -221967.56   -222035.14   -222039.53   -221827.99 -8.8213145e-12 4.0213107e-11 1.9531567e-11      -17.333 
     280   -17.598978    3.0965243   0.50347574     5.363351   0.87204897    5.0558016            0            0            0   -185748.15   -185851.72   -185856.65   -185536.09 2.5940358e-11 6.2804896e-11 9.5155903e-11   -17.598978 
     290   -17.805688    3.0785248   0.52147516     5.332174   0.90322597    5.0264631            0            0            0   -139352.93    -139494.2   -139499.59   -139064.98 6.3119823e-11 -3.4679914e-11 1.0301681e-10   -17.805688 
     300   -17.942658    3.0605257   0.53947425     5.300997   0.93440297    4.9971863            0            0            0   -81365.647   -81539.228   -81544.843   -81012.869 1.8806843e-11 8.1654319e-11 1.6932246e-10   -17.942658 
     310   -17.998299    3.0425282   0.55747183      5.26982   0.96557997    4.9681785            0            0            0   -9752.0054   -9907.0355   -9911.6142   -9437.3665 -3.5699636e-11 2.3574288e-12 1.514758e-10   -17.998299 
     320   -17.998949    3.0402541   0.55974586    5.2658725   0.96952748    4.9651829            0            0            0    -67.61045   -78.289355    -78.87574   -45.666256 9.8655807e-11 -9.5438354e-11 2.9733024e-11   -17.998949 
     330   -17.998949    3.0402368    0.5597632    5.2658416   0.96955843     4.965203            0            0            0   -8.9772463   -9.6199096   -9.6114457   -7.7003837 -1.2666477e-10 4.6306425e-12 -1.4758413e-11   -17.998949 
     340   -17.998949    3.0402362   0.55976385    5.2658407   0.96955929    4.9652049            0            0            0   -9.1208302   -9.1865554   -9.0990715   -9.0768638 -4.5080369e-11 -1.6610568e-11 5.1542549e-11   -17.998949 
     350   -17.998949     3.040236   0.55976399    5.2658409   0.96955913     4.965205            0            0            0   -9.1177605   -9.1616539   -9.0693763   -9.1222512 -7.8712872e-12 6.4997964e-11 2.7539246e-10   -17.998949 
     360   -17.998949    3.0402359   0.55976411    5.2658411   0.96955892     4.965205            0            0            0   -9.1153828   -9.1569683   -9.0674026   -9.1217776 -1.4946997e-11 -8.0508202e-11 -4.4135583e-10   -17.998949 
     370   -17.998949    3.0402358   0.55976423    5.2658413   0.96955872     4.965205            0            0            0   -9.1131599   -9.1530278    -9.066824    -9.119628 -2.460255e-11 -1.7229127e-11 1.1913695e-10   -17.998949 
     380   -17.998949    3.0402357   0.55976434    5.2658415   0.96955852     4.965205            0            0            0   -9.1110836   -9.1492956   -9.0664021   -9.1175532 -1.8835671e-10 2.4989778e-11 5.336604e-11   -17.998949 
     390   -17.998949    3.0402355   0.55976445    5.2658417   0.96955834     4.965205            0            0            0   -9.1091456   -9.1457626   -9.0660602   -9.1156139 1.0270089e-11 -3.162093e-11 -4.8898335e-11   -17.998949 
     400   -17.998949    3.0402354   0.55976456    5.2658418   0.96955816     4.965205            0            0            0   -9.1073377   -9.1424208   -9.0657876   -9.1138047 -1.7050097e-11 6.2157622e-13 1.4565301e-10   -17.998949 
     410   -17.998949    3.0402353   0.55976465     5.265842   0.96955799     4.965205            0            0            0   -9.1056523   -9.1392604   -9.0655784   -9.1121182 1.3656975e-10 -7.9096078e-11 -1.6117984e-10   -17.998949 
     420   -17.998949    3.0402352   0.55976475    5.2658422   0.96955782     4.965205            0            0            0    -9.104082   -9.1362717   -9.0654275   -9.1105467 -1.0426589e-10 1.6844716e-10 3.1538104e-10   -17.998949 
     430   -17.998949    3.0402352   0.55976484    5.2658423   0.96955766     4.965205            0            0            0   -9.1026195   -9.1334455   -9.0653299   -9.1090832 1.9575628e-11 -2.8393361e-11 -2.1191927e-12   -17.998949 
     440   -17.998949    3.0402351   0.55976493    5.2658425   0.96955751     4.965205            0            0            0   -9.1012583    -9.130773   -9.0652809   -9.1077211 8.0257761e-11 -1.2357901e-10 -3.9939793e-12   -17.998949 
     450   -17.998949     3.040235   0.55976502    5.2658426   0.96955736     4.965205            0            0            0   -9.0999919   -9.1282457   -9.0652763   -9.1064537 -1.8100742e-10 -4.4052455e-11 4.2723811e-11   -17.998949 
     460   -17.998949    3.0402349    0.5597651    5.2658428   0.96955722     4.965205            0            0            0   -9.0988142   -9.1258556   -9.0653118   -9.1052752 5.187647e-11 -1.0320378e-11 1.0149897e-11   -17.998949 
     470   -17.998949    3.0402348   0.55976518    5.2658429   0.96955708     4.965205            0            0            0   -9.0977194   -9.1235951   -9.0653835   -9.1041796 -2.6358151e-10 1.2268889e-10 8.2682713e-11   -17.998949 
     480   -17.998949    3.0402347   0.55976525     5.265843   0.96955695     4.965205            0            0            0   -9.0967022    -9.121457   -9.0654879   -9.1031617 7.7606508e-12 4.3119085e-11 1.662299e-10   -17.998949 
     490   -17.998949    3.0402347   0.55976533    5.2658432   0.96955683     4.965205            0            0            0   -9.0957572   -9.1194343   -9.0656213   -9.1022161 1.3654561e-11 -3.2546254e-11 -1.1612361e-10   -17.998949 
     500   -17.998949    3.0402346    0.5597654    5.2658433   0.96955671     4.965205            0            0            0   -9.0948798   -9.1175206   -9.0657808    -9.101338 1.0563779e-10 -1.9069717e-11 -1.8978291e-10   -17.998949 
     510   -17.998949    3.0402345   0.55976546    5.2658434   0.96955659     4.965205            0            0            0   -9.0940653   -9.1157097   -9.0659633   -9.1005229 -8.8831088e-12 -5.8878758e-12 -1.0633429e-10   -17.998949 
     520   -17.998949    3.0402345   0.55976553    5.2658435   0.96955648     4.965205            0            0            0   -9.0933095   -9.1139958    -9.066166   -9.0997666 -1.6924374e-11 -3.2205293e-12 -1.5211519e-11   -17.998949 
     530   -17.998949    3.0402344   0.55976559    5.2658436   0.96955637     4.965205            0            0            0   -9.0926082   -9.1123734   -9.0663864   -9.0990648 2.0145909e-12 1.7588193e-11 6.1511405e-11   -17.998949 
     540   -17.998949    3.0402343   0.55976565    5.2658437   0.96955627     4.965205            0            0            0   -9.0919578   -9.1108373   -9.0666222    -9.098414 1.8137353e-11 -2.0497934e-11 1.3343773e-11   -17.998949 
     550   -17.998949    3.0402343   0.55976571    5.2658438   0.96955617     4.965205            0            0            0   -9.0913547   -9.1093826   -9.0668711   -9.0978104 3.0511548e-11 8.1421457e-11 3.6292609e-10   -17.998949 
     560   -17.998949    3.0402342   0.55976576    5.2658439   0.96955607     4.965205            0            0            0   -9.0907956   -9.1080047   -9.0671312   -9.0972509 8.1192138e-11 -7.7636681e-11 -2.7289309e-10   -17.998949 
     570   -17.998949    3.0402342   0.55976582     5.265844   0.96955598     4.965205            0            0            0   -9.0902774   -9.1066992   -9.0674006   -9.0967323 1.8090986e-10 3.290532e-11 6.4811894e-11   -17.998949 
     580   -17.998949    3.0402341   0.55976587    5.2658441   0.96955589     4.965205            0            0            0   -9.0897971   -9.1054619   -9.0676777   -9.0962517 8.9497925e-11 1.0512483e-10 4.3131557e-10   -17.998949 
     590   -17.998949    3.0402341   0.55976592    5.2658442   0.96955581     4.965205            0            0            0   -9.0893521   -9.1042891   -9.0679608   -9.0958064 -3.7369002e-11 -8.2514747e-12 9.6162771e-11   -17.998949 
     600   -17.998949     3.040234   0.55976597    5.2658443   0.96955572     4.965205            0            0            0   -9.0889399   -9.1031771   -9.0682487   -9.0953939 -5.6644905e-11 1.1901978e-10 3.2680527e-10   -17.998949 
     610   -17.998949     3.040234   0.55976601    5.2658444   0.96955565     4.965205            0            0            0   -9.0885581   -9.1021224     -9.06854   -9.0950118 -3.5556574e-11 1.0755884e-11 1.5970989e-10   -17.998949 
     620   -17.998949    3.0402339   0.55976605    5.2658444   0.96955557     4.965205            0            0            0   -9.0882045   -9.1011219   -9.0688336    -9.094658 -7.6364361e-11 -3.6936514e-11 -4.5833703e-12   -17.998949 
     630   -17.998949    3.0402339    0.5597661    5.2658445    0.9695555     4.965205            0            0            0   -9.0878771   -9.1001725   -9.0691284   -9.0943303 1.106808e-10 -3.6366233e-11 3.995488e-12   -17.998949 
     640   -17.998949    3.0402339   0.55976614    5.2658446   0.96955543     4.965205            0            0            0   -9.0875739   -9.0992712   -9.0694235   -9.0940269 1.4758915e-11 -9.9074021e-11 6.8751058e-11   -17.998949 
     650   -17.998949    3.0402338   0.55976618    5.2658446   0.96955536     4.965205            0            0            0   -9.0872933   -9.0984155   -9.0697181   -9.0937461 -2.0592478e-11 5.3283566e-11 -5.9587335e-11   -17.998949 
     660   -17.998949    3.0402338   0.55976621    5.2658447    0.9695553     4.965205            0            0            0   -9.0870335   -9.0976029   -9.0700114   -9.0934861 -2.6842438e-11 4.4988843e-11 3.1023493e-11   -17.998949 
     670   -17.998949    3.0402338   0.55976625    5.2658448   0.96955523     4.965205            0            0            0    -9.086793   -9.0968308   -9.0703027   -9.0932455 -5.1780921e-11 6.0356259e-11 -1.5801413e-11   -17.998949 
     680   -17.998949    3.0402337   0.55976628    5.2658448   0.96955517     4.965205            0            0            0   -9.0865705   -9.0960972   -9.0705914   -9.0930228 2.8019208e-11 -1.0925862e-10 -1.4457079e-10   -17.998949 
     690   -17.998949    3.0402337   0.55976632    5.2658449   0.96955512     4.965205            0            0            0   -9.0863646   -9.0953998   -9.0708771   -9.0928167 1.0114393e-10 2.1229544e-10 7.418281e-11   -17.998949 
     700   -17.998949    3.0402337   0.55976635    5.2658449   0.96955506     4.965205            0            0            0    -9.086174   -9.0947368   -9.0711592    -9.092626 1.4932112e-10 5.2487989e-11 1.3463562e-10   -17.998949 
     710   -17.998949    3.0402336   0.55976638     5.265845   0.96955501     4.965205            0            0            0   -9.0859977   -9.0941062   -9.0714373   -9.0924496 -6.5456604e-12 -5.9817157e-11 -3.0029977e-10   -17.998949 
     720   -17.998949    3.0402336   0.55976641     5.265845   0.96955496     4.965205            0            0            0   -9.0858346   -9.0935063    -9.071711   -9.0922864 9.9643296e-12 -8.5620617e-11 -1.5845869e-10   -17.998949 
     730   -17.998949    3.0402336   0.55976644    5.2658451   0.96955491     4.965205            0            0            0   -9.0856836   -9.0929354   -9.0719802   -9.0921354 -2.3500208e-11 -3.5363463e-11 7.602692e-11   -17.998949 
     740   -17.998949    3.0402335   0.55976647    5.2658451   0.96955486     4.965205            0            0            0    -9.085544    -9.092392   -9.0722445   -9.0919956 -2.2763972e-11 1.1603762e-11 -8.0670637e-11   -17.998949 
     750   -17.998949    3.0402335   0.55976649    5.2658452   0.96955482     4.965205            0            0            0   -9.0854149   -9.0918746   -9.0725037   -9.0918664 -4.3369526e-12 4.8061521e-11 1.755465e-10   -17.998949 
     760   -17.998949    3.0402335   0.55976652    5.2658452   0.96955477     4.965205            0            0            0   -9.0852954   -9.0913819   -9.0727576   -9.0917469 1.5110237e-10 5.8838527e-13 -1.7517285e-11   -17.998949 
     770   -17.998949    3.0402335   0.55976654    5.2658453   0.96955473     4.965205            0            0            0    -9.085185   -9.0909125    -9.073006   -9.0916363 4.2340606e-11 1.9244724e-11 1.2065418e-10   -17.998949 
     780   -17.998949    3.0402334   0.55976656    5.2658453   0.96955469     4.965205            0            0            0   -9.0850828   -9.0904652    -9.073249    -9.091534 -1.4618709e-10 -2.8679004e-11 -9.6326211e-11   -17.998949 
     790   -17.998949    3.0402334   0.55976659    5.2658453   0.96955465     4.965205            0            0            0   -9.0849882    -9.090039   -9.0734863   -9.0914395 -7.6912515e-12 -4.8991874e-12 9.2669674e-11   -17.998949 
     800   -17.998949    3.0402334   0.55976661    5.2658454   0.96955461     4.965205            0            0            0   -9.0849008   -9.0896326    -9.073718    -9.091352 -1.7022639e-10 -1.4680464e-11 -6.9807134e-11   -17.998949 
     810   -17.998949    3.0402334   0.55976663    5.2658454   0.96955458     4.965205            0            0            0     -9.08482    -9.089245   -9.0739439   -9.0912711 5.9948915e-11 8.6057128e-11 7.284461e-11   -17.998949 
     820   -17.998949    3.0402334   0.55976665    5.2658455   0.96955454     4.965205            0            0            0   -9.0847452   -9.0888754   -9.0741641   -9.0911963 -1.3525217e-10 -2.9497715e-11 -1.6409512e-10   -17.998949 
     830   -17.998949    3.0402333   0.55976667    5.2658455   0.96955451     4.965205            0            0            0   -9.0846761   -9.0885227   -9.0743785   -9.0911271 -5.8607196e-12 -5.0441213e-11 -6.3255942e-11   -17.998949 
     840   -17.998949    3.0402333   0.55976669    5.2658455   0.96955448     4.965205            0            0            0   -9.0846122   -9.0881862   -9.0745872   -9.0910631 -3.3309647e-11 1.0513992e-10 1.2737284e-10   -17.998949 
     850   -17.998949    3.0402333    0.5597667    5.2658456   0.96955445     4.965205            0            0            0   -9.0845531    -9.087865   -9.0747902    -9.091004 -5.4731899e-11 5.721921e-11 6.3405804e-11   -17.998949 
     860   -17.998949    3.0402333   0.55976672    5.2658456   0.96955442     4.965205            0            0            0   -9.0844984   -9.0875583   -9.0749876   -9.0909493 9.7337027e-11 1.4280161e-11 -1.1467679e-10   -17.998949 
     870   -17.998949    3.0402333   0.55976674    5.2658456   0.96955439     4.965205            0            0            0   -9.0844479   -9.0872655   -9.0751794   -9.0908987 1.3392353e-10 -3.4749933e-11 2.3295078e-10   -17.998949 
     880   -17.998949    3.0402332   0.55976675    5.2658456   0.96955436     4.965205            0            0            0   -9.0844011   -9.0869858   -9.0753657   -9.0908519 -4.5798501e-11 -2.9339806e-11 -9.4849716e-11   -17.998949 
     890   -17.998949    3.0402332   0.55976677    5.2658457   0.96955434     4.965205            0            0            0   -9.0843579   -9.0867186   -9.0755464   -9.0908087 -9.7548242e-11 -1.9472032e-11 -2.447914e-10   -17.998949 
     900   -17.998949    3.0402332   0.55976678    5.2658457   0.96955431     4.965205            0            0            0    -9.084318   -9.0864633   -9.0757219   -9.0907687 1.9477061e-11 1.4012621e-10 1.2446963e-10   -17.998949 
     910   -17.998949    3.0402332    0.5597668    5.2658457   0.96955429     4.965205            0            0            0    -9.084281   -9.0862193    -9.075892   -9.0907317 1.3902991e-11 1.190238e-10 1.9442965e-10   -17.998949 
     920   -17.998949    3.0402332   0.55976681    5.2658457   0.96955426     4.965205            0            0            0   -9.0842469   -9.0859861   -9.0760569   -9.0906976 9.9363687e-11 -3.7096434e-11 -9.448361e-12   -17.998949 
     930   -17.998949    3.0402332   0.55976682    5.2658458   0.96955424     4.965205            0            0            0   -9.0842153   -9.0857631   -9.0762168    -9.090666 -1.2173741e-10 -2.850098e-11 -5.1648157e-11   -17.998949 
     940   -17.998949    3.0402332   0.55976684    5.2658458   0.96955422     4.965205            0            0            0   -9.0841861   -9.0855499   -9.0763716   -9.0906368 4.5686859e-11 4.4883235e-11 2.9020469e-10   -17.998949 
     950   -17.998949    3.0402332   0.55976685    5.2658458    0.9695542     4.965205            0            0            0   -9.0841591    -9.085346   -9.0765216   -9.0906097 2.416101e-11 7.2381446e-11 2.4076675e-10   -17.998949 
     960   -17.998949    3.0402331   0.55976686    5.2658458   0.96955418     4.965205            0            0            0   -9.0841341   -9.0851509   -9.0766668   -9.0905848 1.3646012e-10 6.6456356e-11 1.7609315e-10   -17.998949 
     970   -17.998949    3.0402331   0.55976687    5.2658458   0.96955416     4.965205            0            0            0   -9.0841111   -9.0849643   -9.0768073   -9.0905617 -2.8447673e-11 6.9227298e-11 -6.4248654e-11   -17.998949 
     980   -17.998949    3.0402331   0.55976688    5.2658459   0.96955414     4.965205            0            0            0   -9.0840897   -9.0847857   -9.0769432   -9.0905403 5.5982092e-12 -6.0418618e-11 -9.4206013e-11   -17.998949 
     990   -17.998949    3.0402331   0.55976689    5.2658459   0.96955412     4.965205            0            0            0     -9.08407   -9.0846147   -9.0770747   -9.0905206 9.8467531e-11 -8.2380978e-11 -1.3078447e-10   -17.998949 
    1000   -17.998949    3.0402331    0.5597669    5.2658459   0.96955411     4.965205            0            0            0   -9.0840518   -9.0844511   -9.0772019   -9.0905024 -2.4128825e-11 -1.2100621e-11 -1.6267646e-10   -17.998949 
    1010   -17.998949    3.0402331   0.55976691    5.2658459   0.96955409     4.965205            0            0            0   -9.0840349   -9.0842945   -9.0773248   -9.0904855 -1.9964868e-12 -8.1523042e-11 1.4380538e-10   -17.998949 
    1020   -17.998949    3.0402331   0.55976692    5.2658459   0.96955408     4.965205            0            0            0   -9.0840194   -9.0841446   -9.0774436   -9.0904699 8.8183362e-11 1.2885134e-11 -1.3165749e-10   -17.998949 
    1030   -17.998949    3.0402331   0.55976693    5.2658459   0.96955406     4.965205            0            0            0    -9.084005   -9.0840009   -9.0775584   -9.0904555 -1.0602904e-10 -7.9369652e-11 -7.7041759e-11   -17.998949 
    1040   -17.998949    3.0402331   0.55976694     5.265846   0.96955405     4.965205            0            0            0   -9.0839916   -9.0838634   -9.0776694   -9.0904422 3.2944546e-11 -1.4833947e-10 -1.0126462e-10   -17.998949 
    1050   -17.998949    3.0402331   0.55976694     5.265846   0.96955403     4.965205            0            0            0   -9.0839793   -9.0837316   -9.0777765   -9.0904298 2.1524843e-11 7.3616552e-11 -1.6211774e-11   -17.998949 
    1060   -17.998949     3.040233   0.55976695     5.265846   0.96955402     4.965205            0            0            0   -9.0839679   -9.0836054     -9.07788   -9.0904184 1.7665639e-11 1.0364029e-10 2.1276916e-10   -17.998949 
    1070   -17.998949     3.040233   0.55976696     5.265846   0.96955401     4.965205            0            0            0   -9.0839574   -9.0834845   -9.0779799   -9.0904079 -2.9851752e-11 2.0313876e-11 1.0936171e-10   -17.998949 
    1080   -17.998949     3.040233   0.55976697     5.265846   0.96955399     4.965205            0            0            0   -9.0839477   -9.0833686   -9.0780763   -9.0903982 3.4974224e-11 3.0865585e-11 -2.2533144e-10   -17.998949 
    1090   -17.998949     3.040233   0.55976697     5.265846   0.96955398     4.965205            0            0            0   -9.0839387   -9.0832575   -9.0781694   -9.0903892 -1.6623644e-11 -4.4631788e-11 -8.7982204e-11   -17.998949 
    1100   -17.998949     3.040233   0.55976698     5.265846   0.96955397     4.965205            0            0            0   -9.0839304   -9.0831511   -9.0782592   -9.0903809 -6.330422e-12 2.4417486e-11 9.1537661e-11   -17.998949 
    1110   -17.998949     3.040233   0.55976699     5.265846   0.96955396     4.965205            0            0            0   -9.0839227    -9.083049   -9.0783459   -9.0903732 9.0538914e-11 1.1770723e-11 -2.910244e-12   -17.998949 
    1120   -17.998949     3.040233   0.55976699    5.2658461   0.96955395     4.965205            0            0            0   -9.0839156   -9.0829512   -9.0784295   -9.0903661 9.9924916e-11 4.1676787e-11 1.7981205e-10   -17.998949 
    1130   -17.998949     3.040233     0.559767    5.2658461   0.96955394     4.965205            0            0            0    -9.083909   -9.0828574   -9.0785102   -9.0903595 4.4789697e-11 -1.2379928e-10 2.0640706e-10   -17.998949 
    1140   -17.998949     3.040233     0.559767    5.2658461   0.96955393     4.965205            0            0            0    -9.083903   -9.0827675    -9.078588   -9.0903534 3.5932738e-11 -1.0583995e-10 -2.7855164e-10   -17.998949 
    1150   -17.998949     3.040233   0.55976701    5.2658461   0.96955392     4.965205            0            0            0   -9.0838973   -9.0826812    -9.078663   -9.0903478 1.3305654e-10 -1.4238823e-10 -1.7741073e-11   -17.998949 
    1160   -17.998949     3.040233   0.55976702    5.2658461   0.96955391     4.965205            0            0            0   -9.0838922   -9.0825985   -9.0787353   -9.0903426 -1.1581132e-10 -1.0662346e-11 -2.2510514e-11   -17.998949 
    1170   -17.998949     3.040233   0.55976702    5.2658461    0.9695539     4.965205            0            0            0   -9.0838874   -9.0825192   -9.0788051   -9.0903378 -2.6921895e-11 -2.0756422e-11 9.1134843e-11   -17.998949 
    1180   -17.998949     3.040233   0.55976702    5.2658461   0.96955389     4.965205            0            0            0   -9.0838829   -9.0824431   -9.0788723   -9.0903334 -8.7802168e-11 9.8366953e-11 2.4282459e-10   -17.998949 
    1190   -17.998949     3.040233   0.55976703    5.2658461   0.96955388     4.965205            0            0            0   -9.0838788   -9.0823701   -9.0789371   -9.0903293 1.020079e-10 1.5407648e-11 -2.7590039e-10   -17.998949 
    1200   -17.998949     3.040233   0.55976703    5.2658461   0.96955388     4.965205            0            0            0    -9.083875   -9.0823001   -9.0789996   -9.0903255 1.2152922e-11 9.7312888e-11 1.9736554e-11   -17.998949 
    1210   -17.998949     3.040233   0.55976704    5.2658461   0.96955387     4.965205            0            0            0   -9.0838715   -9.0822329   -9.0790598    -9.090322 -6.7890608e-13 -2.3233675e-13 3.1787388e-11   -17.998949 
    1220   -17.998949     3.040233   0.55976704    5.2658461   0.96955386     4.965205            0            0            0   -9.0838683   -9.0821684   -9.0791178   -9.0903187 8.2923097e-11 3.0875643e-11 2.0333187e-10   -17.998949 
    1230   -17.998949     3.040233   0.55976705    5.2658461   0.96955385     4.965205            0            0            0   -9.0838653   -9.0821065   -9.0791737   -9.0903157 9.9071003e-11 8.8552485e-11 2.5892824e-10   -17.998949 
    1240   -17.998949    3.0402329   0.55976705    5.2658462   0.96955385     4.965205            0            0            0   -9.0838625   -9.0820471   -9.0792275    -9.090313 1.1402605e-11 3.9129129e-11 -1.7749119e-11   -17.998949 
    1250   -17.998949    3.0402329   0.55976705    5.2658462   0.96955384     4.965205            0            0            0     -9.08386   -9.0819901   -9.0792794   -9.0903104 -1.104555e-11 8.7147401e-11 5.2080142e-11   -17.998949 
    1260   -17.998949    3.0402329   0.55976706    5.2658462   0.96955384     4.965205            0            0            0   -9.0838576   -9.0819355   -9.0793293    -9.090308 1.519945e-11 -3.8021758e-11 4.061367e-11   -17.998949 
    1270   -17.998949    3.0402329   0.55976706    5.2658462   0.96955383     4.965205            0            0            0   -9.0838554    -9.081883   -9.0793775   -9.0903058 6.7678387e-11 7.2576568e-11 1.2147239e-10   -17.998949 
    1280   -17.998949    3.0402329   0.55976706    5.2658462   0.96955382     4.965205            0            0            0   -9.0838534   -9.0818326   -9.0794238   -9.0903038 6.9056314e-11 -6.7874515e-11  6.20842e-11   -17.998949 
    1290   -17.998949    3.0402329   0.55976707    5.2658462   0.96955382     4.965205            0            0            0   -9.0838515   -9.0817842   -9.0794685    -9.090302 -1.8918849e-12 -5.4320532e-11 -1.1670144e-11   -17.998949 
    1300   -17.998949    3.0402329   0.55976707    5.2658462   0.96955381     4.965205            0            0            0   -9.0838498   -9.0817377   -9.0795115   -9.0903002 1.6470764e-11 4.2420063e-11 1.5395377e-10   -17.998949 
    1310   -17.998949    3.0402329   0.55976707    5.2658462   0.96955381     4.965205            0            0            0   -9.0838482   -9.0816931   -9.0795529   -9.0902986 -1.3669447e-10 -7.380564e-11 -1.4206235e-11   -17.998949 
    1320   -17.998949    3.0402329   0.55976708    5.2658462    0.9695538     4.965205            0            0            0   -9.0838467   -9.0816503   -9.0795927   -9.0902972 6.437136e-11 4.6814346e-11 2.9131407e-10   -17.998949 
    1330   -17.998949    3.0402329   0.55976708    5.2658462    0.9695538     4.965205            0            0            0   -9.0838454   -9.0816092   -9.0796311   -9.0902958 -3.7757236e-12 7.8761151e-11 1.6096612e-11   -17.998949 
    1340   -17.998949    3.0402329   0.55976708    5.2658462   0.96955379     4.965205            0            0            0   -9.0838441   -9.0815697   -9.0796681   -9.0902945 1.1557496e-11 3.9125106e-13 1.478054e-11   -17.998949 
    1350   -17.998949    3.0402329   0.55976708    5.2658462   0.96955379     4.965205            0            0            0   -9.0838429   -9.0815318   -9.0797037   -9.0902934 3.2004135e-12 6.0466895e-11 -3.2012684e-11   -17.998949 
    1360   -17.998949    3.0402329   0.55976709    5.2658462   0.96955379     4.965205            0            0            0   -9.0838419   -9.0814954   -9.0797379   -9.0902923  2.75485e-12 3.6096682e-11 9.278383e-11   -17.998949 
    1370   -17.998949    3.0402329   0.55976709    5.2658462   0.96955378     4.965205            0            0            0   -9.0838409   -9.0814605   -9.0797709   -9.0902913 6.8335165e-11 -4.4516123e-11 1.5897516e-10   -17.998949 
    1380   -17.998949    3.0402329   0.55976709    5.2658462   0.96955378     4.965205            0            0            0     -9.08384   -9.0814269   -9.0798026   -9.0902904 -8.0260779e-11 9.6615878e-12 8.9872078e-12   -17.998949 
    1390   -17.998949    3.0402329   0.55976709    5.2658462   0.96955377     4.965205            0            0            0   -9.0838391   -9.0813946   -9.0798332   -9.0902895 -1.0061086e-10 8.0722435e-11 7.5091035e-11   -17.998949 
    1400   -17.998949    3.0402329   0.55976709    5.2658462   0.96955377     4.965205            0            0            0   -9.0838383   -9.0813637   -9.0798626   -9.0902887 1.4550516e-10 1.6667496e-10 2.5085831e-11   -17.998949 
    1410   -17.998949    3.0402329    0.5597671    5.2658462   0.96955377     4.965205            0            0            0   -9.0838376   -9.0813339   -9.0798909    -9.090288 9.4479587e-11 7.4128497e-11 2.6245453e-10   -17.998949 
    1420   -17.998949    3.0402329    0.5597671    5.2658462   0.96955376     4.965205            0            0            0   -9.0838369   -9.0813053   -9.0799181   -9.0902873 1.6184115e-10 -4.8658959e-11 -6.4657003e-12   -17.998949 
    1430   -17.998949    3.0402329    0.5597671    5.2658462   0.96955376     4.965205            0            0            0   -9.0838363   -9.0812779   -9.0799443   -9.0902867 1.4463314e-10 5.8241089e-11 4.7895064e-11   -17.998949 
    1440   -17.998949    3.0402329    0.5597671    5.2658462   0.96955376     4.965205            0            0            0   -9.0838357   -9.0812515   -9.0799695   -9.0902861 7.6676155e-11 3.1599809e-11 2.1050564e-10   -17.998949 
    1450   -17.998949    3.0402329    0.5597671    5.2658462   0.96955376     4.965205            0            0            0   -9.0838352   -9.0812262   -9.0799938   -9.0902856 -7.2036461e-11 3.9012458e-11 1.0045849e-10   -17.998949 
    1460   -17.998949    3.0402329   0.55976711    5.2658462   0.96955375     4.965205            0            0            0   -9.0838347   -9.0812018   -9.0800172   -9.0902851 1.0204713e-10 -6.5137769e-11 -6.9591393e-11   -17.998949 
    1470   -17.998949    3.0402329   0.55976711    5.2658463   0.96955375     4.965205            0            0            0   -9.0838342   -9.0811784   -9.0800396   -9.0902846 -2.8138897e-11 3.5998115e-11 1.805689e-11   -17.998949 
    1480   -17.998949    3.0402329   0.55976711    5.2658463   0.96955375     4.965205            0            0            0   -9.0838338    -9.081156   -9.0800613   -9.0902842 -4.3050691e-11 -2.1883909e-11 2.209965e-11   -17.998949 
    1490   -17.998949    3.0402329   0.55976711    5.2658463   0.96955374     4.965205            0            0            0   -9.0838334   -9.0811344   -9.0800821   -9.0902838 7.5236874e-11 -5.9896614e-11 1.9323829e-10   -17.998949 
    1500   -17.998949    3.0402329   0.55976711    5.2658463   0.96955374     4.965205            0            0            0   -9.0838331   -9.0811137   -9.0801021   -9.0902835 1.0537226e-10 -1.0100614e-10 -2.7260543e-10   -17.998949 
    1510   -17.998949    3.0402329   0.55976711    5.2658463   0.96955374     4.965205            0            0            0   -9.0838327   -9.0810937   -9.0801213   -9.0902832 2.8602564e-11 -7.2476995e-12 -1.1376454e-10   -17.998949 
    1520   -17.998949    3.0402329   0.55976711    5.2658463   0.96955374     4.965205            0            0            0   -9.0838324   -9.0810746   -9.0801399   -9.0902828 1.6876096e-11 -3.3794436e-11 -3.2703911e-10   -17.998949 
    1530   -17.998949    3.0402329   0.55976712    5.2658463   0.96955374     4.965205            0            0            0   -9.0838322   -9.0810562   -9.0801577   -9.0902826 -3.6293816e-11 -6.1192068e-11 1.8928907e-10   -17.998949 
    1540   -17.998949    3.0402329   0.55976712    5.2658463   0.96955373     4.965205            0            0            0   -9.0838319   -9.0810385   -9.0801749   -9.0902823 4.4258641e-11 -6.0880274e-12 -4.6709945e-10   -17.998949 
    1550   -17.998949    3.0402329   0.55976712    5.2658463   0.96955373     4.965205            0            0            0   -9.0838316   -9.0810215   -9.0801914   -9.0902821 1.1519075e-10 -1.3852701e-10 -2.9732566e-11   -17.998949 
    1560   -17.998949    3.0402329   0.55976712    5.2658463   0.96955373     4.965205            0            0            0   -9.0838314   -9.0810052   -9.0802072   -9.0902818 1.7299533e-13 1.8435066e-11 2.3469884e-10   -17.998949 
    1570   -17.998949    3.0402329   0.55976712    5.2658463   0.96955373     4.965205            0            0            0   -9.0838312   -9.0809895   -9.0802225   -9.0902816 -8.2535869e-11 -1.6797042e-10 -1.8354603e-11   -17.998949 
    1580   -17.998949    3.0402329   0.55976712    5.2658463   0.96955373     4.965205            0            0            0    -9.083831   -9.0809745   -9.0802372   -9.0902814 -8.9633706e-11 1.0190833e-10 1.2102783e-10   -17.998949 
    1590   -17.998949    3.0402329   0.55976712    5.2658463   0.96955372     4.965205            0            0            0   -9.0838308     -9.08096   -9.0802513   -9.0902813 5.5261949e-11 -4.7061769e-11 -2.5246153e-10   -17.998949 
    1600   -17.998949    3.0402329   0.55976712    5.2658463   0.96955372     4.965205            0            0            0   -9.0838307   -9.0809461   -9.0802649   -9.0902811 -1.5522307e-11 -1.8214799e-12 -1.8853473e-12   -17.998949 
    1610   -17.998949    3.0402329   0.55976712    5.2658463   0.96955372     4.965205            0            0            0   -9.0838305   -9.0809327    -9.080278   -9.0902809 -3.3593278e-12 -4.8540276e-11 4.5737651e-11   -17.998949 
    1620   -17.998949    3.0402329   0.55976712    5.2658463   0.96955372     4.965205            0            0            0   -9.0838304   -9.0809198   -9.0802906   -9.0902808 -1.1527926e-10 -9.9782095e-11 -2.2891707e-10   -17.998949 
    1630   -17.998949    3.0402329   0.55976713    5.2658463   0.96955372     4.965205            0            0            0   -9.0838303   -9.0809075   -9.0803027   -9.0902807 1.562007e-10 -1.2436554e-11 4.7923728e-11   -17.998949 
    1640   -17.998949    3.0402329   0.55976713    5.2658463   0.96955372     4.965205            0            0            0   -9.0838301   -9.0808956   -9.0803143   -9.0902806 9.2804952e-11 2.992618e-11 2.8946644e-10   -17.998949 
    1650   -17.998949    3.0402329   0.55976713    5.2658463   0.96955372     4.965205            0            0            0     -9.08383   -9.0808842   -9.0803255   -9.0902804 -1.7698528e-10 -5.7566206e-11 -9.6042579e-11   -17.998949 
    1660   -17.998949    3.0402329   0.55976713    5.2658463   0.96955371     4.965205            0            0            0   -9.0838299   -9.0808732   -9.0803363   -9.0902803 1.4055166e-10 1.3801406e-11 -2.1261327e-11   -17.998949 
    1670   -17.998949    3.0402329   0.55976713    5.2658463   0.96955371     4.965205            0            0            0   -9.0838298   -9.0808627   -9.0803466   -9.0902802 7.3158919e-11 1.5561935e-10 1.9906532e-10   -17.998949 
    1680   -17.998949    3.0402329   0.55976713    5.2658463   0.96955371     4.965205            0            0            0   -9.0838298   -9.0808525   -9.0803566   -9.0902802 1.2417343e-10 1.4333769e-10 -2.2667769e-10   -17.998949 
    1690   -17.998949    3.0402329   0.55976713    5.2658463   0.96955371     4.965205            0            0            0   -9.0838297   -9.0808428   -9.0803661   -9.0902801 1.7413186e-11 5.654131e-11 -7.5263528e-11   -17.998949 
    1700   -17.998949    3.0402329   0.55976713    5.2658463   0.96955371     4.965205            0            0            0   -9.0838296   -9.0808334   -9.0803754     -9.09028 -1.0241927e-11 1.1791844e-11 -1.0272704e-10   -17.998949 
    1710   -17.998949    3.0402329   0.55976713    5.2658463   0.96955371     4.965205            0            0            0   -9.0838295   -9.0808244   -9.0803842   -9.0902799 8.6350818e-11 9.8949303e-12 -1.9220736e-10   -17.998949 
    1720   -17.998949    3.0402329   0.55976713    5.2658463   0.96955371     4.965205            0            0            0   -9.0838295   -9.0808158   -9.0803927   -9.0902799 -1.1861243e-11 1.0391688e-10 9.9515058e-11   -17.998949 
    1730   -17.998949    3.0402329   0.55976713    5.2658463   0.96955371     4.965205            0            0            0   -9.0838294   -9.0808075   -9.0804009   -9.0902798 -1.2656821e-10 -1.717401e-10 -1.9027977e-10   -17.998949 
    1740   -17.998949    3.0402329   0.55976713    5.2658463   0.96955371     4.965205            0            0            0   -9.0838293   -9.0807995   -9.0804088   -9.0902798 -1.0020955e-10 -1.6090577e-11 -5.4447764e-11   -17.998949 
    1750   -17.998949    3.0402329   0.55976713    5.2658463   0.96955371     4.965205            0            0            0   -9.0838293   -9.0807918   -9.0804164   -9.0902797 1.0450426e-10 1.2356091e-11 5.3784448e-11   -17.998949 
    1760   -17.998949    3.0402329   0.55976713    5.2658463    0.9695537     4.965205            0            0            0   -9.0838293   -9.0807844   -9.0804237   -9.0902797 -1.6212277e-11 -2.0989764e-11 1.3219508e-10   -17.998949 
    1770   -17.998949    3.0402329   0.55976713    5.2658463    0.9695537     4.965205            0            0            0   -9.0838292   -9.0807773   -9.0804307   -9.0902796 1.9225614e-10 -4.5282532e-11 -1.9359384e-11   -17.998949 
    1780   -17.998949    3.0402329   0.55976713    5.2658463    0.9695537     4.965205            0            0            0   -9.0838292   -9.0807705   -9.0804374   -9.0902796 6.1274542e-11 1.1973892e-11 6.8241124e-11   -17.998949 
    1790   -17.998949    3.0402329   0.55976713    5.2658463    0.9695537     4.965205            0            0            0   -9.0838291   -9.0807639   -9.0804439   -9.0902795 -8.3824282e-11 -1.563395e-11 2.8793211e-10   -17.998949 
    1800   -17.998949    3.0402329   0.55976714    5.2658463    0.9695537     4.965205            0            0            0   -9.0838291   -9.0807576   -9.0804501   -9.0902795 3.8082105e-11 -4.3412775e-11 -1.6850952e-10   -17.998949 
    1810   -17.998949    3.0402329   0.55976714    5.2658463    0.9695537     4.965205            0            0            0   -9.0838291   -9.0807516   -9.0804561   -9.0902795 -1.7734938e-10 1.6754396e-11 -1.2799643e-11   -17.998949 
    1820   -17.998949    3.0402329   0.55976714    5.2658463    0.9695537     4.965205            0            0            0    -9.083829   -9.0807458   -9.0804619   -9.0902794 -4.4682078e-11 4.0110777e-11 1.2582493e-10   -17.998949 
    1830   -17.998949    3.0402329   0.55976714    5.2658463    0.9695537     4.965205            0            0            0    -9.083829   -9.0807402   -9.0804675   -9.0902794 -4.5182959e-11 6.565072e-11 3.5779356e-11   -17.998949 
    1840   -17.998949    3.0402329   0.55976714    5.2658463    0.9695537     4.965205            0            0            0    -9.083829   -9.0807348   -9.0804728   -9.0902794 6.3016565e-11 -1.4997085e-10 -1.8143337e-10   -17.998949 
    1850   -17.998949    3.0402329   0.55976714    5.2658463    0.9695537     4.965205            0            0            0    -9.083829   -9.0807296   -9.0804779   -9.0902794 -2.4694077e-11 -9.0214045e-11 3.7769808e-11   -17.998949 
    1860   -17.998949    3.0402329   0.55976714    5.2658463    0.9695537     4.965205            0            0            0   -9.0838289   -9.0807246   -9.0804828   -9.0902794 3.4491446e-11 -5.2435688e-11 -1.4921903e-10   -17.998949 
    1870   -17.998949    3.0402329   0.55976714    5.2658463    0.9695537     4.965205            0            0            0   -9.0838289   -9.0807199   -9.0804876   -9.0902793 -3.1512306e-11 -1.1716511e-10 -1.7970694e-10   -17.998949 
    1880   -17.998949    3.0402329   0.55976714    5.2658463    0.9695537     4.965205            0            0            0   -9.0838289   -9.0807153   -9.0804921   -9.0902793 6.001932e-11 1.2460793e-10 -3.3964011e-10   -17.998949 
    1890   -17.998949    3.0402329   0.55976714    5.2658463    0.9695537     4.965205            0            0            0   -9.0838289   -9.0807108   -9.0804965   -9.0902793 -2.9750167e-11 3.3064235e-11 -2.1229644e-10   -17.998949 
    1900   -17.998949    3.0402329   0.55976714    5.2658463    0.9695537     4.965205            0            0            0   -9.0838289   -9.0807066   -9.0805007   -9.0902793 -5.2150044e-11 6.6754069e-11 1.0018391e-10   -17.998949 
    1910   -17.998949    3.0402329   0.55976714    5.2658463   0.96955369     4.965205            0            0            0   -9.0838289   -9.0807025   -9.0805048   -9.0902793 3.8854549e-11 2.9505761e-11 -4.4994073e-10   -17.998949 
    1920   -17.998949    3.0402329   0.55976714    5.2658463   0.96955369     4.965205            0            0            0   -9.0838288   -9.0806986   -9.0805087   -9.0902793 7.0316565e-11 -9.537876e-12 -7.0857679e-11   -17.998949 
    1930   -17.998949    3.0402329   0.55976714    5.2658463   0.96955369     4.965205            0            0            0   -9.0838288   -9.0806948   -9.0805125   -9.0902792 -2.9878908e-11 1.5375664e-10 3.5302211e-10   -17.998949 
    1940   -17.998949    3.0402329   0.55976714    5.2658463   0.96955369     4.965205            0            0            0   -9.0838288   -9.0806912   -9.0805161   -9.0902792 -1.4145084e-10 -1.7409163e-11 1.5815042e-10   -17.998949 
    1950   -17.998949    3.0402329   0.55976714    5.2658463   0.96955369     4.965205            0            0            0   -9.0838288   -9.0806877   -9.0805195   -9.0902792 -6.6146573e-11 2.7288001e-11 3.5127103e-12   -17.998949 
    1960   -17.998949    3.0402329   0.55976714    5.2658463   0.96955369     4.965205            0            0            0   -9.0838288   -9.0806843   -9.0805229   -9.0902792 2.0101755e-10 3.6342094e-11 -6.6004254e-11   -17.998949 
    1970   -17.998949    3.0402329   0.55976714    5.2658463   0.96955369     4.965205            0            0            0   -9.0838288   -9.0806811   -9.0805261   -9.0902792 -1.4260146e-10 7.4357817e-12 1.0961668e-10   -17.998949 
    1980   -17.998949    3.0402329   0.55976714    5.2658463   0.96955369     4.965205            0            0            0   -9.0838288    -9.080678   -9.0805291   -9.0902792 1.0548692e-11 -2.3687284e-11 9.6925157e-11   -17.998949 
    1990   -17.998949    3.0402329   0.55976714    5.2658463   0.96955369     4.965205            0            0            0   -9.0838288    -9.080675   -9.0805321   -9.0902792 -2.7245758e-11 6.0224501e-11 8.1982183e-11   -17.998949 
    2000   -17.998949    3.0402329   0.55976714    5.2658463   0.96955369     4.965205            0            0            0   -9.0838288   -9.0806722    -9.080535   -9.0902792 -6.5371112e-11 8.6375963e-11 2.4384798e-11   -17.998949 
    2010   -17.998949    3.0402329   0.55976714    5.2658463   0.96955369     4.965205            0            0            0   -9.0838288   -9.0806694   -9.0805377   -9.0902792 8.7927892e-11 3.5701407e-11 -1.4232688e-10   -17.998949 
    2020   -17.998949    3.0402329   0.55976714    5.2658463   0.96955369     4.965205            0            0            0   -9.0838288   -9.0806668   -9.0805403   -9.0902792 5.3120629e-11 -1.4381745e-11 2.8306863e-11   -17.998949 
    2030   -17.998949    3.0402329   0.55976714    5.2658463   0.96955369     4.965205            0            0            0   -9.0838288   -9.0806642   -9.0805429   -9.0902792 -1.7659604e-11 3.324427e-11 1.251762e-10   -17.998949 
    2040   -17.998949    3.0402329   0.55976714    5.2658463   0.96955369     4.965205            0            0            0   -9.0838287   -9.0806618   -9.0805453   -9.0902792 5.2367294e-11 3.7416274e-11 -7.5574819e-12   -17.998949 
    2050   -17.998949    3.0402329   0.55976714    5.2658463   0.96955369     4.965205            0            0            0   -9.0838287   -9.0806594   -9.0805476   -9.0902792 2.4594504e-11  -1.3557e-11 -2.7140653e-11   -17.998949 
    2060   -17.998949    3.0402329   0.55976714    5.2658463   0.96955369     4.965205            0            0            0   -9.0838287   -9.0806572   -9.0805499   -9.0902791 -6.9834793e-11 5.2592591e-12 1.757029e-10   -17.998949 
    2070   -17.998949    3.0402329   0.55976714    5.2658463   0.96955369     4.965205            0            0            0   -9.0838287    -9.080655   -9.0805521   -9.0902791 6.9120685e-11 1.0266971e-10 4.823854e-11   -17.998949 
    2080   -17.998949    3.0402329   0.55976714    5.2658463   0.96955369     4.965205            0            0            0   -9.0838287   -9.0806529   -9.0805541   -9.0902791 -1.0023269e-10 3.9368506e-11 1.7702803e-10   -17.998949 
    2090   -17.998949    3.0402329   0.55976714    5.2658463   0.96955369     4.965205            0            0            0   -9.0838287   -9.0806509   -9.0805561   -9.0902791 -5.8870712e-11 -1.0959053e-11 -1.6755754e-10   -17.998949 
    2100   -17.998949    3.0402329   0.55976714    5.2658463   0.96955369     4.965205            0            0            0   -9.0838287    -9.080649   -9.0805581   -9.0902791 -3.604941e-11 9.1788101e-11 4.2813426e-10   -17.998949 
    2110   -17.998949    3.0402329   0.55976714    5.2658463   0.96955369     4.965205            0            0            0   -9.0838287   -9.0806471   -9.0805599   -9.0902791 2.3043581e-11 -4.4258641e-11 -5.0022805e-12   -17.998949 
    2120   -17.998949    3.0402329   0.55976714    5.2658463   0.96955369     4.965205            0            0            0   -9.0838287   -9.0806453   -9.0805617   -9.0902791 4.5680824e-11 1.9250759e-12 8.2280399e-11   -17.998949 
    2130   -17.998949    3.0402329   0.55976714    5.2658463   0.96955369     4.965205            0            0            0   -9.0838287   -9.0806436   -9.0805634   -9.0902791 -5.6897358e-12 -3.0173603e-12 8.2928629e-11   -17.998949 
    2140   -17.998949    3.0402329   0.55976714    5.2658463   0.96955369     4.965205            0            0            0   -9.0838287    -9.080642   -9.0805651   -9.0902791 -8.2426238e-11 -1.0626137e-11 1.3569623e-10   -17.998949 
    2150   -17.998949    3.0402329   0.55976714    5.2658463   0.96955369     4.965205            0            0            0   -9.0838287   -9.0806404   -9.0805666   -9.0902791 -5.4460337e-11 -7.971866e-12 3.4729817e-11   -17.998949 
    2160   -17.998949    3.0402329   0.55976714    5.2658463   0.96955369     4.965205            0            0            0   -9.0838287   -9.0806389   -9.0805682   -9.0902791 1.2282366e-10 1.0361012e-10 1.5626959e-10   -17.998949 
    2170   -17.998949    3.0402329   0.55976714    5.2658463   0.96955369     4.965205            0            0            0   -9.0838287   -9.0806374   -9.0805696   -9.0902791 3.7346875e-11 1.1418898e-10 2.1137514e-10   -17.998949 
    2180   -17.998949    3.0402329   0.55976714    5.2658463   0.96955369     4.965205            0            0            0   -9.0838287    -9.080636    -9.080571   -9.0902791 3.6711217e-11 -1.5811773e-10 -2.7219356e-10   -17.998949 
    2190   -17.998949    3.0402329   0.55976714    5.2658463   0.96955369     4.965205            0            0            0   -9.0838287   -9.0806346   -9.0805724   -9.0902791 -9.0522822e-11 -8.7036765e-11 -8.7026707e-11   -17.998949 
    2200   -17.998949    3.0402329   0.55976714    5.2658463   0.96955369     4.965205            0            0            0   -9.0838287   -9.0806333   -9.0805737   -9.0902791 6.3147317e-11 -1.2502533e-10 1.9009873e-11   -17.998949 
    2210   -17.998949    3.0402329   0.55976714    5.2658463   0.96955369     4.965205            0            0            0   -9.0838287   -9.0806321   -9.0805749   -9.0902791 -1.5237971e-10 -2.9088359e-11 -4.5462065e-11   -17.998949 
    2220   -17.998949    3.0402329   0.55976714    5.2658463   0.96955369     4.965205            0            0            0   -9.0838287   -9.0806309   -9.0805761   -9.0902791  4.30869e-11 -4.1098459e-11 -1.3971284e-10   -17.998949 
    2230   -17.998949    3.0402329   0.55976714    5.2658463   0.96955369     4.965205            0            0            0   -9.0838287   -9.0806297   -9.0805773   -9.0902791  1.04632e-11 -1.461901e-10 -8.8401114e-11   -17.998949 
    2240   -17.998949    3.0402329   0.55976714    5.2658463   0.96955369     4.965205            0            0            0   -9.0838287   -9.0806286   -9.0805784   -9.0902791 2.2513531e-11 1.5247728e-11 -9.9526122e-11   -17.998949 
    2250   -17.998949    3.0402329   0.55976714    5.2658463   0.96955369     4.965205            0            0            0   -9.0838287   -9.0806275   -9.0805795   -9.0902791 -1.6947407e-10 4.3247826e-11 -1.3241183e-11   -17.998949 
    2260   -17.998949    3.0402329   0.55976714    5.2658463   0.96955369     4.965205            0            0            0   -9.0838287   -9.0806265   -9.0805805   -9.0902791 -1.9326294e-10 -4.2980286e-11 5.6631327e-11   -17.998949 
    2270   -17.998949    3.0402329   0.55976714    5.2658463   0.96955369     4.965205            0            0            0   -9.0838287   -9.0806255   -9.0805815   -9.0902791 -5.7822682e-12 -6.2373867e-11 -3.0968326e-10   -17.998949 
    2280   -17.998949    3.0402329   0.55976714    5.2658463   0.96955369     4.965205            0            0            0   -9.0838287   -9.0806246   -9.0805824   -9.0902791 1.4473272e-12 -5.0485467e-11 1.195277e-11   -17.998949 
    2290   -17.998949    3.0402329   0.55976714    5.2658463   0.96955369     4.965205            0            0            0   -9.0838287   -9.0806236   -9.0805833   -9.0902791 1.6697368e-10 8.5709126e-11 1.8624808e-10   -17.998949 
    2300   -17.998949    3.0402329   0.55976714    5.2658463   0.96955369     4.965205            0            0            0   -9.0838287   -9.0806228   -9.0805842   -9.0902791 -8.7000556e-12 -3.7960405e-11 -1.630662e-10   -17.998949 
    2310   -17.998949    3.0402329   0.55976714    5.2658463   0.96955369     4.965205            0            0            0   -9.0838287   -9.0806219   -9.0805851   -9.0902791 1.2196271e-10 -9.8801453e-11 -2.7618653e-10   -17.998949 
    2320   -17.998949    3.0402329   0.55976714    5.2658463   0.96955369     4.965205            0            0            0   -9.0838287   -9.0806211   -9.0805859   -9.0902791 -1.4847626e-10 -1.2428004e-10 -1.4839529e-10   -17.998949 
    2330   -17.998949    3.0402329   0.55976714    5.2658463   0.96955369     4.965205            0            0            0   -9.0838287   -9.0806203   -9.0805867   -9.0902791 5.4164635e-11 -5.5192549e-11 -9.5922388e-11   -17.998949 
    2340   -17.998949    3.0402329   0.55976714    5.2658463   0.96955369     4.965205            0            0            0   -9.0838287   -9.0806196   -9.0805874   -9.0902791 -4.4083635e-12 1.0474565e-10 4.989155e-10   -17.998949 
    2350   -17.998949    3.0402329   0.55976714    5.2658463   0.96955369     4.965205            0            0            0   -9.0838287   -9.0806188   -9.0805881   -9.0902791 -1.4753484e-10 -9.5499455e-11 -2.5681659e-10   -17.998949 
    2360   -17.998949    3.0402329   0.55976714    5.2658463   0.96955369     4.965205            0            0            0   -9.0838287   -9.0806182   -9.0805888   -9.0902791 7.3659801e-11 -2.2117251e-12 3.8578461e-11   -17.998949 
    2370   -17.998949    3.0402329   0.55976714    5.2658463   0.96955369     4.965205            0            0            0   -9.0838287   -9.0806175   -9.0805895   -9.0902791 5.3512886e-11 -4.9419333e-11 2.4783894e-10   -17.998949 
    2380   -17.998949    3.0402329   0.55976714    5.2658463   0.96955368     4.965205            0            0            0   -9.0838287   -9.0806168   -9.0805901   -9.0902791 -4.6427118e-12 4.5496765e-11 4.1102684e-10   -17.998949 
    2390   -17.998949    3.0402329   0.55976714    5.2658463   0.96955368     4.965205            0            0            0   -9.0838287   -9.0806162   -9.0805907   -9.0902791 1.0771272e-10 -1.5398596e-12 1.0238859e-10   -17.998949 
    2400   -17.998949    3.0402329   0.55976714    5.2658463   0.96955368     4.965205            0            0            0   -9.0838287   -9.0806156   -9.0805913   -9.0902791 3.2031292e-11 5.8736942e-11 3.448516e-10   -17.998949 
    2410   -17.998949    3.0402329   0.55976714    5.2658463   0.96955368     4.965205            0            0            0   -9.0838287   -9.0806151   -9.0805919   -9.0902791 1.4543677e-12 1.7704865e-10 2.5467426e-10   -17.998949 
    2420   -17.998949    3.0402329   0.55976714    5.2658463   0.96955368     4.965205            0            0            0   -9.0838287   -9.0806145   -9.0805925   -9.0902791 4.3755748e-11 -9.5127314e-12 -2.4360659e-11   -17.998949 
    2430   -17.998949    3.0402329   0.55976714    5.2658463   0.96955368     4.965205            0            0            0   -9.0838287    -9.080614    -9.080593   -9.0902791 2.1617275e-10 -1.2167204e-10 -6.6815924e-11   -17.998949 
    2440   -17.998949    3.0402329   0.55976714    5.2658463   0.96955368     4.965205            0            0            0   -9.0838287   -9.0806135   -9.0805935   -9.0902791 1.0279443e-10 3.7253336e-11 3.150778e-11   -17.998949 
    2450   -17.998949    3.0402329   0.55976714    5.2658463   0.96955368     4.965205            0            0            0   -9.0838287    -9.080613    -9.080594   -9.0902791 -6.1891089e-11 3.2228426e-11 3.4393633e-10   -17.998949 
    2460   -17.998949    3.0402329   0.55976714    5.2658463   0.96955368     4.965205            0            0            0   -9.0838287   -9.0806125   -9.0805944   -9.0902791 -1.4706011e-10 1.755802e-11 -1.1867982e-10   -17.998949 
    2470   -17.998949    3.0402329   0.55976714    5.2658463   0.96955368     4.965205            0            0            0   -9.0838287   -9.0806121   -9.0805949   -9.0902791 1.0839968e-10 -3.9551559e-11 -4.5358469e-11   -17.998949 
    2480   -17.998949    3.0402329   0.55976714    5.2658463   0.96955368     4.965205            0            0            0   -9.0838287   -9.0806116   -9.0805953   -9.0902791 3.0824347e-11 -8.9203229e-12 -1.002704e-10   -17.998949 
    2490   -17.998949    3.0402329   0.55976714    5.2658463   0.96955368     4.965205            0            0            0   -9.0838287   -9.0806112   -9.0805957   -9.0902791 -9.9854511e-11 3.3653626e-12 -2.579134e-10   -17.998949 
    2500   -17.998949    3.0402329   0.55976715    5.2658463   0.96955368     4.965205            0            0            0   -9.0838287   -9.0806108   -9.0805961   -9.0902791 5.6892329e-11 6.0542329e-11 2.5057568e-10   -17.998949 
    2510   -17.998949    3.0402329   0.55976715    5.2658463   0.96955368     4.965205            0            0            0   -9.0838287   -9.0806104   -9.0805965   -9.0902791 -9.7894233e-11 2.2468271e-11 -4.084299e-11   -17.998949 
    2520   -17.998949    3.0402329   0.55976715    5.2658463   0.96955368     4.965205            0            0            0   -9.0838287   -9.0806101   -9.0805969   -9.0902791 7.5675397e-12 2.4855003e-11 3.0896764e-11   -17.998949 
    2530   -17.998949    3.0402329   0.55976715    5.2658463   0.96955368     4.965205            0            0            0   -9.0838287   -9.0806097   -9.0805973   -9.0902791 5.0210888e-11 5.6287851e-11 3.5745159e-11   -17.998949 
    2540   -17.998949    3.0402329   0.55976715    5.2658463   0.96955368     4.965205            0            0            0   -9.0838287   -9.0806094   -9.0805976   -9.0902791 8.6498669e-11 -6.570805e-11 -1.5846271e-10   -17.998949 
    2550   -17.998949    3.0402329   0.55976715    5.2658463   0.96955368     4.965205            0            0            0   -9.0838287    -9.080609   -9.0805979   -9.0902791 3.7189972e-11 4.9042163e-12 -1.4872066e-11   -17.998949 
    2560   -17.998949    3.0402329   0.55976715    5.2658463   0.96955368     4.965205            0            0            0   -9.0838287   -9.0806087   -9.0805982   -9.0902791 6.4056548e-11 1.7889929e-11 8.8051101e-11   -17.998949 
    2570   -17.998949    3.0402329   0.55976715    5.2658463   0.96955368     4.965205            0            0            0   -9.0838287   -9.0806084   -9.0805985   -9.0902791 -1.112883e-10 8.3329435e-12 9.7121286e-11   -17.998949 
    2580   -17.998949    3.0402329   0.55976715    5.2658463   0.96955368     4.965205            0            0            0   -9.0838287   -9.0806081   -9.0805988   -9.0902791 -1.0640419e-10 -3.1843209e-12 2.046404e-10   -17.998949 
    2590   -17.998949    3.0402329   0.55976715    5.2658463   0.96955368     4.965205            0            0            0   -9.0838287   -9.0806078   -9.0805991   -9.0902791 2.5681558e-10 -1.0865313e-10 -1.2908117e-10   -17.998949 
    2600   -17.998949    3.0402329   0.55976715    5.2658463   0.96955368     4.965205            0            0            0   -9.0838287   -9.0806076   -9.0805994   -9.0902791 -8.7795128e-12 -2.876349e-11 5.2784193e-11   -17.998949 
    2610   -17.998949    3.0402329   0.55976715    5.2658463   0.96955368     4.965205            0            0            0   -9.0838287   -9.0806073   -9.0805997   -9.0902791 2.4311878e-11 -7.9689492e-11 -2.7006632e-10   -17.998949 
    2620   -17.998949    3.0402329   0.55976715    5.2658463   0.96955368     4.965205            0            0            0   -9.0838287   -9.0806071   -9.0805999   -9.0902791 2.664128e-10 -1.8226767e-10 1.0729482e-10   -17.998949 
    2630   -17.998949    3.0402329   0.55976715    5.2658463   0.96955368     4.965205            0            0            0   -9.0838287   -9.0806068   -9.0806001   -9.0902791 5.9593872e-11 4.0764538e-11 -5.581664e-11   -17.998949 
    2640   -17.998949    3.0402329   0.55976715    5.2658463   0.96955368     4.965205            0            0            0   -9.0838287   -9.0806066   -9.0806004   -9.0902791 -6.9701024e-12 -4.7167377e-11 -3.5734096e-11   -17.998949 
    2650   -17.998949    3.0402329   0.55976715    5.2658463   0.96955368     4.965205            0            0            0   -9.0838287   -9.0806064   -9.0806006   -9.0902791 -9.9517573e-11 4.2097206e-11 -1.2233485e-10   -17.998949 
    2660   -17.998949    3.0402329   0.55976715    5.2658463   0.96955368     4.965205            0            0            0   -9.0838287   -9.0806062   -9.0806008   -9.0902791 -2.2072594e-10 1.2115607e-10 4.4042699e-10   -17.998949 
    2670   -17.998949    3.0402329   0.55976715    5.2658463   0.96955368     4.965205            0            0            0   -9.0838287    -9.080606    -9.080601   -9.0902791 9.9794164e-11 -3.9909619e-12 -1.9615608e-10   -17.998949 
    2680   -17.998949    3.0402329   0.55976715    5.2658463   0.96955368     4.965205            0            0            0   -9.0838287   -9.0806058   -9.0806012   -9.0902791 -8.4502182e-11 9.4177851e-11 2.8415488e-10   -17.998949 
    2690   -17.998949    3.0402329   0.55976715    5.2658463   0.96955368     4.965205            0            0            0   -9.0838287   -9.0806056   -9.0806014   -9.0902791 -3.7186955e-11 3.070667e-12 1.3670654e-11   -17.998949 
    2700   -17.998949    3.0402329   0.55976715    5.2658463   0.96955368     4.965205            0            0            0   -9.0838287   -9.0806054   -9.0806016   -9.0902791 2.0500952e-11 -1.2904244e-12 -7.0397531e-11   -17.998949 
    2710   -17.998949    3.0402329   0.55976715    5.2658463   0.96955368     4.965205            0            0            0   -9.0838287   -9.0806052   -9.0806018   -9.0902791 -1.7936196e-11 -1.155991e-10 -1.3777468e-10   -17.998949 
    2720   -17.998949    3.0402329   0.55976715    5.2658463   0.96955368     4.965205            0            0            0   -9.0838287    -9.080605   -9.0806019   -9.0902791 3.959682e-11 -3.1552537e-11 -7.4491083e-11   -17.998949 
    2730   -17.998949    3.0402329   0.55976715    5.2658463   0.96955368     4.965205            0            0            0   -9.0838287   -9.0806049   -9.0806021   -9.0902791 -1.6299781e-11 -5.8848584e-11 1.1709018e-10   -17.998949 
    2740   -17.998949    3.0402329   0.55976715    5.2658463   0.96955368     4.965205            0            0            0   -9.0838287   -9.0806047   -9.0806022   -9.0902791 -7.9864499e-11 4.7077862e-11 2.8041335e-11   -17.998949 
    2750   -17.998949    3.0402329   0.55976715    5.2658463   0.96955368     4.965205            0            0            0   -9.0838287   -9.0806046   -9.0806024   -9.0902791 -1.2859889e-10 1.019727e-10 2.5641277e-10   -17.998949 
    2760   -17.998949    3.0402329   0.55976715    5.2658463   0.96955368     4.965205            0            0            0   -9.0838287   -9.0806044   -9.0806025   -9.0902791 -1.1287844e-10 2.5031016e-11 6.6346222e-11   -17.998949 
    2770   -17.998949    3.0402329   0.55976715    5.2658463   0.96955368     4.965205            0            0            0   -9.0838287   -9.0806043   -9.0806027   -9.0902791 -5.0163616e-11 -3.1307125e-11 -2.5247159e-10   -17.998949 
    2780   -17.998949    3.0402329   0.55976715    5.2658463   0.96955368     4.965205            0            0            0   -9.0838287   -9.0806042   -9.0806028   -9.0902791 1.4876089e-10 8.1478787e-12 -3.1783315e-10   -17.998949 
    2790   -17.998949    3.0402329   0.55976715    5.2658463   0.96955368     4.965205            0            0            0   -9.0838287    -9.080604   -9.0806029   -9.0902791 -5.7440483e-11 -8.4894439e-11 -1.5388035e-11   -17.998949 
    2800   -17.998949    3.0402329   0.55976715    5.2658463   0.96955368     4.965205            0            0            0   -9.0838287   -9.0806039   -9.0806031   -9.0902791 1.3238266e-10 4.3333318e-11 2.0392126e-10   -17.998949 
    2810   -17.998949    3.0402329   0.55976715    5.2658463   0.96955368     4.965205            0            0            0   -9.0838287   -9.0806038   -9.0806032   -9.0902791 -8.1582383e-11 1.2615785e-10 2.1483103e-10   -17.998949 
    2820   -17.998949    3.0402329   0.55976715    5.2658463   0.96955368     4.965205            0            0            0   -9.0838287   -9.0806037   -9.0806033   -9.0902791 -3.1405692e-11 -9.4785346e-12 -2.3301666e-10   -17.998949 
    2830   -17.998949    3.0402329   0.55976715    5.2658463   0.96955368     4.965205            0            0            0   -9.0838287   -9.0806036   -9.0806034   -9.0902791 2.3882407e-11 -5.4099259e-11 -1.5392259e-10   -17.998949 
    2840   -17.998949    3.0402329   0.55976715    5.2658463   0.96955368     4.965205            0            0            0   -9.0838287   -9.0806035   -9.0806035   -9.0902791 1.9534391e-11 2.4438607e-11 1.5812829e-10   -17.998949 
    2850   -17.998949    3.0402329   0.55976715    5.2658463   0.96955368     4.965205            0            0            0   -9.0838287   -9.0806034   -9.0806036   -9.0902791 -1.1235644e-11 3.4334543e-11 1.0095987e-10   -17.998949 
    2860   -17.998949    3.0402329   0.55976715    5.2658463   0.96955368     4.965205            0            0            0   -9.0838287   -9.0806033   -9.0806037   -9.0902791 -3.3883951e-11 -8.6605282e-11 -1.2731098e-10   -17.998949 
    2870   -17.998949    3.0402329   0.55976715    5.2658463   0.96955368     4.965205            0            0            0   -9.0838287   -9.0806032   -9.0806038   -9.0902791 -1.9822046e-11 7.3543129e-12 6.3983126e-12   -17.998949 
    2880   -17.998949    3.0402329   0.55976715    5.2658463   0.96955368     4.965205            0            0            0   -9.0838287   -9.0806031   -9.0806039   -9.0902791 -1.7003831e-11 -7.9784036e-11 -5.1164725e-10   -17.998949 
    2890   -17.998949    3.0402329   0.55976715    5.2658463   0.96955368     4.965205            0            0            0   -9.0838287    -9.080603    -9.080604   -9.0902791 -1.1371425e-11 -1.7230938e-10 -2.7321142e-10   -17.998949 
    2900   -17.998949    3.0402329   0.55976715    5.2658463   0.96955368     4.965205            0            0            0   -9.0838287   -9.0806029   -9.0806041   -9.0902791 -1.7951282e-11 -1.1027446e-11 -1.1132903e-10   -17.998949 
    2910   -17.998949    3.0402329   0.55976715    5.2658463   0.96955368     4.965205            0            0            0   -9.0838287   -9.0806028   -9.0806041   -9.0902791 -1.0833732e-10 -1.1169765e-10 1.4308675e-10   -17.998949 
    2920   -17.998949    3.0402329   0.55976715    5.2658463   0.96955368     4.965205            0            0            0   -9.0838287   -9.0806027   -9.0806042   -9.0902791 -2.2163517e-11 7.2446822e-11 4.5424348e-11   -17.998949 
    2930   -17.998949    3.0402329   0.55976715    5.2658463   0.96955368     4.965205            0            0            0   -9.0838287   -9.0806027   -9.0806043   -9.0902791 -1.6201917e-10 6.3375631e-11 1.809335e-10   -17.998949 
    2940   -17.998949    3.0402329   0.55976715    5.2658463   0.96955368     4.965205            0            0            0   -9.0838287   -9.0806026   -9.0806044   -9.0902791 -1.4586624e-10 5.6089711e-11 1.6338956e-10   -17.998949 
    2950   -17.998949    3.0402329   0.55976715    5.2658463   0.96955368     4.965205            0            0            0   -9.0838287   -9.0806025   -9.0806044   -9.0902791 -8.1445596e-11 6.4993942e-12 3.7674258e-11   -17.998949 
    2960   -17.998949    3.0402329   0.55976715    5.2658463   0.96955368     4.965205            0            0            0   -9.0838287   -9.0806025   -9.0806045   -9.0902791 3.8973232e-11 -1.8770697e-10 -1.5607447e-10   -17.998949 
    2970   -17.998949    3.0402329   0.55976715    5.2658463   0.96955368     4.965205            0            0            0   -9.0838287   -9.0806024   -9.0806046   -9.0902791 1.6057386e-11 5.1087934e-11 1.8525084e-11   -17.998949 
    2980   -17.998949    3.0402329   0.55976715    5.2658463   0.96955368     4.965205            0            0            0   -9.0838287   -9.0806023   -9.0806046   -9.0902791 2.3158241e-11 6.2761095e-13 -1.8751738e-10   -17.998949 
    2990   -17.998949    3.0402329   0.55976715    5.2658463   0.96955368     4.965205            0            0            0   -9.0838287   -9.0806023   -9.0806047   -9.0902791 -1.5880367e-11 -7.7209222e-11 -2.33771e-10   -17.998949 
    3000   -17.998949    3.0402329   0.55976715    5.2658463   0.96955368     4.965205            0            0            0   -9.0838287   -9.0806022   -9.0806047   -9.0902791 -6.7558698e-11 3.2289779e-11 8.0333196e-11   -17.998949 
    3010   -17.998949    3.0402329   0.55976715    5.2658463   0.96955368     4.965205            0            0            0   -9.0838287   -9.0806022   -9.0806048   -9.0902791 -1.6459097e-10 8.7713659e-11 2.947604e-10   -17.998949 
    3020   -17.998949    3.0402329   0.55976715    5.2658463   0.96955368     4.965205            0            0            0   -9.0838287   -9.0806021   -9.0806048   -9.0902791 1.1984251e-10 -3.6362209e-11 1.2811712e-11   -17.998949 
    3030   -17.998949    3.0402329   0.55976715    5.2658463   0.96955368     4.965205            0            0            0   -9.0838287   -9.0806021   -9.0806049   -9.0902791 9.2032508e-11 1.2214073e-10 -4.1969974e-11   -17.998949 
    3040   -17.998949    3.0402329   0.55976715    5.2658463   0.96955368     4.965205            0            0            0   -9.0838287    -9.080602   -9.0806049   -9.0902791 1.6956559e-11 -8.1952513e-11 -2.05007e-10   -17.998949 
    3050   -17.998949    3.0402329   0.55976715    5.2658463   0.96955368     4.965205            0            0            0   -9.0838287    -9.080602    -9.080605   -9.0902791 2.9358916e-11 6.7115146e-11 -6.4779709e-11   -17.998949 
    3060   -17.998949    3.0402329   0.55976715    5.2658463   0.96955368     4.965205            0            0            0   -9.0838287   -9.0806019    -9.080605   -9.0902791 1.7543939e-11 -2.0010128e-11 -3.264985e-11   -17.998949 
    3070   -17.998949    3.0402329   0.55976715    5.2658463   0.96955368     4.965205            0            0            0   -9.0838287   -9.0806019   -9.0806051   -9.0902791 -1.1588675e-11 -1.3350713e-10 7.2851651e-11   -17.998949 
    3080   -17.998949    3.0402329   0.55976715    5.2658463   0.96955368     4.965205            0            0            0   -9.0838287   -9.0806019   -9.0806051   -9.0902791 6.255692e-11 3.1303102e-11 1.2655714e-10   -17.998949 
    3090   -17.998949    3.0402329   0.55976715    5.2658463   0.96955368     4.965205            0            0            0   -9.0838287   -9.0806018   -9.0806051   -9.0902791 -4.2427104e-11 6.8344217e-11 -2.0776638e-10   -17.998949 
    3100   -17.998949    3.0402329   0.55976715    5.2658463   0.96955368     4.965205            0            0            0   -9.0838287   -9.0806018   -9.0806052   -9.0902791 1.0328626e-10 -1.972549e-11 -7.665101e-11   -17.998949 
    3110   -17.998949    3.0402329   0.55976715    5.2658463   0.96955368     4.965205            0            0            0   -9.0838287   -9.0806017   -9.0806052   -9.0902791 -6.5262487e-11 2.0397356e-11 9.4601287e-11   -17.998949 
    3120   -17.998949    3.0402329   0.55976715    5.2658463   0.96955368     4.965205            0            0            0   -9.0838287   -9.0806017   -9.0806053   -9.0902791 6.275506e-11 -1.2149703e-10 -2.4452286e-10   -17.998949 
    3130   -17.998949    3.0402329   0.55976715    5.2658463   0.96955368     4.965205            0            0            0   -9.0838287   -9.0806017   -9.0806053   -9.0902791 1.2479299e-10 6.9000996e-11 1.6165055e-10   -17.998949 
    3140   -17.998949    3.0402329   0.55976715    5.2658463   0.96955368     4.965205            0            0            0   -9.0838287   -9.0806016   -9.0806053   -9.0902791 3.4895772e-11 6.0459855e-11 1.3382094e-10   -17.998949 
    3150   -17.998949    3.0402329   0.55976715    5.2658463   0.96955368     4.965205            0            0            0   -9.0838287   -9.0806016   -9.0806054   -9.0902791 -2.7768767e-11 -2.9107469e-12 -2.2821302e-12   -17.998949 
    3160   -17.998949    3.0402329   0.55976715    5.2658463   0.96955368     4.965205            0            0            0   -9.0838287   -9.0806016   -9.0806054   -9.0902791 -3.6994849e-11 -1.2728936e-10 -2.0772213e-10   -17.998949 
    3170   -17.998949    3.0402329   0.55976715    5.2658463   0.96955368     4.965205            0            0            0   -9.0838287   -9.0806016   -9.0806054   -9.0902791 -1.0973536e-10 7.9499399e-11 1.035895e-10   -17.998949 
    3180   -17.998949    3.0402329   0.55976715    5.2658463   0.96955368     4.965205            0            0            0   -9.0838287   -9.0806015   -9.0806054   -9.0902791 -1.3069897e-10 -2.6908819e-11 3.9262898e-11   -17.998949 
    3190   -17.998949    3.0402329   0.55976715    5.2658463   0.96955368     4.965205            0            0            0   -9.0838287   -9.0806015   -9.0806055   -9.0902791 8.4938693e-12 4.0999892e-11 2.1886423e-10   -17.998949 
    3200   -17.998949    3.0402329   0.55976715    5.2658463   0.96955368     4.965205            0            0            0   -9.0838287   -9.0806015   -9.0806055   -9.0902791 1.3326373e-10 2.591641e-10 1.371868e-10   -17.998949 
    3210   -17.998949    3.0402329   0.55976715    5.2658463   0.96955368     4.965205            0            0            0   -9.0838287   -9.0806014   -9.0806055   -9.0902791 -5.2613712e-11 -1.778231e-12 -7.4915525e-11   -17.998949 
    3220   -17.998949    3.0402329   0.55976715    5.2658463   0.96955368     4.965205            0            0            0   -9.0838287   -9.0806014   -9.0806055   -9.0902791 7.4787288e-11 9.0011882e-11 -1.2806683e-11   -17.998949 
    3230   -17.998949    3.0402329   0.55976715    5.2658463   0.96955368     4.965205            0            0            0   -9.0838287   -9.0806014   -9.0806056   -9.0902791 -1.4020668e-11 -2.4056408e-11 -2.0602536e-11   -17.998949 
    3240   -17.998949    3.0402329   0.55976715    5.2658463   0.96955368     4.965205            0            0            0   -9.0838287   -9.0806014   -9.0806056   -9.0902791 -4.2525671e-11 -6.6250169e-11 -6.4402539e-11   -17.998949 
    3250   -17.998949    3.0402329   0.55976715    5.2658463   0.96955368     4.965205            0            0            0   -9.0838287   -9.0806014   -9.0806056   -9.0902791 -6.7769913e-11 -2.4757442e-11 1.2197729e-10   -17.998949 
    3260   -17.998949    3.0402329   0.55976715    5.2658463   0.96955368     4.965205            0            0            0   -9.0838287   -9.0806013   -9.0806056   -9.0902791 5.2721331e-11 1.7224099e-11 6.5430453e-11   -17.998949 
    3270   -17.998949    3.0402329   0.55976715    5.2658463   0.96955368     4.965205            0            0            0   -9.0838287   -9.0806013   -9.0806056   -9.0902791 1.0240921e-11 8.8780799e-11 1.7912107e-10   -17.998949 
    3280   -17.998949    3.0402329   0.55976715    5.2658463   0.96955368     4.965205            0            0            0   -9.0838287   -9.0806013   -9.0806057   -9.0902791 1.2052142e-10 9.6374489e-12 -4.7087417e-11   -17.998949 
    3290   -17.998949    3.0402329   0.55976715    5.2658463   0.96955368     4.965205            0            0            0   -9.0838287   -9.0806013   -9.0806057   -9.0902791 1.3126926e-10 -3.4248046e-11 7.8518254e-11   -17.998949 
    3300   -17.998949    3.0402329   0.55976715    5.2658463   0.96955368     4.965205            0            0            0   -9.0838287   -9.0806013   -9.0806057   -9.0902791 -4.6697674e-11 7.5353545e-11 1.3724262e-10   -17.998949 
    3310   -17.998949    3.0402329   0.55976715    5.2658463   0.96955368     4.965205            0            0            0   -9.0838287   -9.0806012   -9.0806057   -9.0902791 1.9078769e-11 3.509693e-11 -7.0232079e-11   -17.998949 
    3320   -17.998949    3.0402329   0.55976715    5.2658463   0.96955368     4.965205            0            0            0   -9.0838287   -9.0806012   -9.0806057   -9.0902791 -3.9819099e-11 5.9485247e-11 -8.9300791e-11   -17.998949 
    3330   -17.998949    3.0402329   0.55976715    5.2658463   0.96955368     4.965205            0            0            0   -9.0838287   -9.0806012   -9.0806058   -9.0902791 -4.6113312e-11 2.2797163e-11 -1.3033991e-11   -17.998949 
    3340   -17.998949    3.0402329   0.55976715    5.2658463   0.96955368     4.965205            0            0            0   -9.0838287   -9.0806012   -9.0806058   -9.0902791 6.8959759e-11 -1.076735e-10 -4.4846323e-10   -17.998949 
    3350   -17.998949    3.0402329   0.55976715    5.2658463   0.96955368     4.965205            0            0            0   -9.0838287   -9.0806012   -9.0806058   -9.0902791 6.132986e-11 6.0173206e-11 2.2954166e-10   -17.998949 
[...]
    4240   -17.998949    3.0402329   0.55976715    5.2658463   0.96955368     4.965205            0            0            0   -9.0838287   -9.0806008   -9.0806061   -9.0902791 -2.2025725e-11 7.7738266e-11 8.3035745e-11   -17.998949 
    4250   -17.998949    3.0402329   0.55976715    5.2658463   0.96955368     4.965205            0            0            0   -9.0838287   -9.0806008   -9.0806061   -9.0902791 -1.929099e-12 -1.2453652e-11 8.5417951e-11   -17.998949 
    4260   -17.998949    3.0402329   0.55976715    5.2658463   0.96955368     4.965205            0            0            0   -9.0838287   -9.0806008   -9.0806061   -9.0902791 -6.1008009e-11 1.3980436e-10 1.3669196e-10   -17.998949 
    4270   -17.998949    3.0402329   0.55976715    5.2658463   0.96955368     4.965205            0            0            0   -9.0838287   -9.0806008   -9.0806061   -9.0902791 -5.3386156e-11 7.0784256e-11 2.1902566e-10   -17.998949 
    4280   -17.998949    3.0402329   0.55976715    5.2658463   0.96955368     4.965205            0            0            0   -9.0838287   -9.0806008   -9.0806061   -9.0902791 -1.0736874e-10 1.2249377e-10 1.1196368e-10   -17.998949 
    4290   -17.998949    3.0402329   0.55976715    5.2658463   0.96955368     4.965205            0            0            0   -9.0838287   -9.0806008   -9.0806061   -9.0902791 2.2429045e-12 4.1339848e-11 -8.5743826e-11   -17.998949 
    4300   -17.998949    3.0402329   0.55976715    5.2658463   0.96955368     4.965205            0            0            0   -9.0838287   -9.0806008   -9.0806061   -9.0902791 -5.0752001e-12 8.2685731e-12 2.7782848e-11   -17.998949 
    4310   -17.998949    3.0402329   0.55976715    5.2658463   0.96955368     4.965205            0            0            0   -9.0838287   -9.0806008   -9.0806061   -9.0902791 -1.3129943e-10  5.63311e-11 1.5152731e-10   -17.998949 
    4320   -17.998949    3.0402329   0.55976715    5.2658463   0.96955368     4.965205            0            0            0   -9.0838287   -9.0806008   -9.0806061   -9.0902791 3.805696e-11 -1.4503445e-11 2.2549237e-11   -17.998949 
    4330   -17.998949    3.0402329   0.55976715    5.2658463   0.96955368     4.965205            0            0            0   -9.0838287   -9.0806008   -9.0806061   -9.0902791 -1.502213e-10 3.9145221e-11 2.6772234e-10   -17.998949 
    4340   -17.998949    3.0402329   0.55976715    5.2658463   0.96955368     4.965205            0            0            0   -9.0838287   -9.0806008   -9.0806061   -9.0902791 -1.1915858e-10 7.290546e-11 2.3991786e-10   -17.998949 
    4350   -17.998949    3.0402329   0.55976715    5.2658463   0.96955368     4.965205            0            0            0   -9.0838287   -9.0806008   -9.0806061   -9.0902791 -5.0292356e-11 -1.6921357e-11 -7.2672118e-11   -17.998949 
    4360   -17.998949    3.0402329   0.55976715    5.2658463   0.96955368     4.965205            0            0            0   -9.0838287   -9.0806008   -9.0806061   -9.0902791 -1.1096846e-11 -3.9850278e-11 8.3096092e-11   -17.998949 
    4370   -17.998949    3.0402329   0.55976715    5.2658463   0.96955368     4.965205            0            0            0   -9.0838287   -9.0806008   -9.0806061   -9.0902791 -9.9180634e-12 9.8749152e-11 2.9761935e-10   -17.998949 
    4380   -17.998949    3.0402329   0.55976715    5.2658463   0.96955368     4.965205            0            0            0   -9.0838287   -9.0806008   -9.0806061   -9.0902791 6.3767888e-11 1.4575862e-11 1.6274736e-10   -17.998949 
    4390   -17.998949    3.0402329   0.55976715    5.2658463   0.96955368     4.965205            0            0            0   -9.0838287   -9.0806008   -9.0806061   -9.0902791 6.6363823e-11 6.5639657e-11 6.3263988e-13   -17.998949 
    4400   -17.998949    3.0402329   0.55976715    5.2658463   0.96955368     4.965205            0            0            0   -9.0838287   -9.0806008   -9.0806061   -9.0902791 -8.5491876e-14 -4.8299893e-11 -2.4488494e-10   -17.998949 
    4410   -17.998949    3.0402329   0.55976715    5.2658463   0.96955368     4.965205            0            0            0   -9.0838287   -9.0806008   -9.0806061   -9.0902791 5.4961219e-11 -7.7808671e-11 -1.9560038e-10   -17.998949 
    4420   -17.998949    3.0402329   0.55976715    5.2658463   0.96955368     4.965205            0            0            0   -9.0838287   -9.0806008   -9.0806061   -9.0902791 -1.3531855e-11 1.1526316e-11 -3.1348966e-10   -17.998949 
    4430   -17.998949    3.0402329   0.55976715    5.2658463   0.96955368     4.965205            0            0            0   -9.0838287   -9.0806008   -9.0806061   -9.0902791 -1.820977e-11 -1.6730257e-11 -1.2264162e-10   -17.998949 
    4440   -17.998949    3.0402329   0.55976715    5.2658463   0.96955368     4.965205            0            0            0   -9.0838287   -9.0806008   -9.0806061   -9.0902791 -4.1991598e-12 -4.104817e-11 -1.7366015e-10   -17.998949 
    4450   -17.998949    3.0402329   0.55976715    5.2658463   0.96955368     4.965205            0            0            0   -9.0838287   -9.0806008   -9.0806061   -9.0902791 4.1889008e-11 -5.6749507e-11 -3.60911e-10   -17.998949 
    4460   -17.998949    3.0402329   0.55976715    5.2658463   0.96955368     4.965205            0            0            0   -9.0838287   -9.0806008   -9.0806061   -9.0902791 -4.027472e-11 -8.8087812e-11 -2.1503168e-10   -17.998949 
    4470   -17.998949    3.0402329   0.55976715    5.2658463   0.96955368     4.965205            0            0            0   -9.0838287   -9.0806008   -9.0806061   -9.0902791 -8.4508217e-11 -3.3306629e-11 -2.5438409e-10   -17.998949 
    4480   -17.998949    3.0402329   0.55976715    5.2658463   0.96955368     4.965205            0            0            0   -9.0838287   -9.0806008   -9.0806061   -9.0902791 -1.8357218e-10 -1.8415051e-10 -2.2614764e-10   -17.998949 
    4490   -17.998949    3.0402329   0.55976715    5.2658463   0.96955368     4.965205            0            0            0   -9.0838287   -9.0806008   -9.0806061   -9.0902791 1.4473272e-12 -3.2512058e-11 -3.7883462e-11   -17.998949 
    4500   -17.998949    3.0402329   0.55976715    5.2658463   0.96955368     4.965205            0            0            0   -9.0838287   -9.0806008   -9.0806061   -9.0902791 -5.5535523e-11 -2.6848472e-11 7.9504427e-11   -17.998949 
    4510   -17.998949    3.0402329   0.55976715    5.2658463   0.96955368     4.965205            0            0            0   -9.0838287   -9.0806008   -9.0806061   -9.0902791 -9.9794164e-11 -1.4527886e-10 -1.7237576e-10   -17.998949 
    4520   -17.998949    3.0402329   0.55976715    5.2658463   0.96955368     4.965205            0            0            0   -9.0838287   -9.0806008   -9.0806061   -9.0902791 -3.2892245e-11 1.1196418e-11 6.9003008e-11   -17.998949 
    4530   -17.998949    3.0402329   0.55976715    5.2658463   0.96955368     4.965205            0            0            0   -9.0838287   -9.0806008   -9.0806061   -9.0902791 -8.5633692e-11 4.9683855e-11 -1.0128725e-10   -17.998949 
    4540   -17.998949    3.0402329   0.55976715    5.2658463   0.96955368     4.965205            0            0            0   -9.0838287   -9.0806008   -9.0806061   -9.0902791 6.352851e-11 -7.2336185e-11 -8.0519266e-11   -17.998949 
    4550   -17.998949    3.0402329   0.55976715    5.2658463   0.96955368     4.965205            0            0            0   -9.0838287   -9.0806008   -9.0806061   -9.0902791 -5.8480466e-11 -4.3090923e-11 -4.1095995e-10   -17.998949 
    4560   -17.998949    3.0402329   0.55976715    5.2658463   0.96955368     4.965205            0            0            0   -9.0838287   -9.0806008   -9.0806061   -9.0902791 -1.8090383e-10 -7.159492e-11 -1.1595364e-10   -17.998949 
    4570   -17.998949    3.0402329   0.55976715    5.2658463   0.96955368     4.965205            0            0            0   -9.0838287   -9.0806008   -9.0806061   -9.0902791 -1.0965892e-10 -9.0218068e-11 -1.0927924e-10   -17.998949 
    4580   -17.998949    3.0402329   0.55976715    5.2658463   0.96955368     4.965205            0            0            0   -9.0838287   -9.0806008   -9.0806061   -9.0902791 -9.3261579e-11 6.2026871e-12 -1.2287848e-10   -17.998949 
    4590   -17.998949    3.0402329   0.55976715    5.2658463   0.96955368     4.965205            0            0            0   -9.0838287   -9.0806008   -9.0806061   -9.0902791 -4.5256382e-11 -1.1419301e-10 -1.9042209e-10   -17.998949 
    4600   -17.998949    3.0402329   0.55976715    5.2658463   0.96955368     4.965205            0            0            0   -9.0838287   -9.0806008   -9.0806061   -9.0902791 -6.1122668e-11 1.6842905e-11 -1.1373336e-10   -17.998949 
    4610   -17.998949    3.0402329   0.55976715    5.2658463   0.96955368     4.965205            0            0            0   -9.0838287   -9.0806008   -9.0806061   -9.0902791 5.7060296e-11 2.0246488e-12 -2.4915602e-10   -17.998949 
    4620   -17.998949    3.0402329   0.55976715    5.2658463   0.96955368     4.965205            0            0            0   -9.0838287   -9.0806008   -9.0806061   -9.0902791 5.9084944e-11 6.5506893e-11 -5.4065565e-11   -17.998949 
    4630   -17.998949    3.0402329   0.55976715    5.2658463   0.96955368     4.965205            0            0            0   -9.0838287   -9.0806008   -9.0806061   -9.0902791 -8.4546437e-12 2.5930189e-11 1.8186134e-11   -17.998949 
    4640   -17.998949    3.0402329   0.55976715    5.2658463   0.96955368     4.965205            0            0            0   -9.0838287   -9.0806008   -9.0806061   -9.0902791 7.6654028e-11 2.9686803e-11 -8.1767951e-11   -17.998949 
    4650   -17.998949    3.0402329   0.55976715    5.2658463   0.96955368     4.965205            0            0            0   -9.0838287   -9.0806008   -9.0806061   -9.0902791 -1.6804786e-10 -2.1862787e-11 -1.3693184e-10   -17.998949 
    4660   -17.998949    3.0402329   0.55976715    5.2658463   0.96955368     4.965205            0            0            0   -9.0838287   -9.0806008   -9.0806061   -9.0902791 2.2960101e-11 -5.8944134e-11 -2.0053679e-10   -17.998949 
    4670   -17.998949    3.0402329   0.55976715    5.2658463   0.96955368     4.965205            0            0            0   -9.0838287   -9.0806008   -9.0806061   -9.0902791 5.7587328e-11 -1.2884129e-10 -1.6200459e-10   -17.998949 
    4680   -17.998949    3.0402329   0.55976715    5.2658463   0.96955368     4.965205            0            0            0   -9.0838287   -9.0806008   -9.0806061   -9.0902791 -6.2836529e-11 -9.6192442e-11 -1.7323269e-10   -17.998949 
    4690   -17.998949    3.0402329   0.55976715    5.2658463   0.96955368     4.965205            0            0            0   -9.0838287   -9.0806008   -9.0806061   -9.0902791 -7.1430977e-11 -6.9966551e-11 -2.1892709e-10   -17.998949 
    4700   -17.998949    3.0402329   0.55976715    5.2658463   0.96955368     4.965205            0            0            0   -9.0838287   -9.0806008   -9.0806061   -9.0902791 3.9542507e-11 -1.4151822e-10 -1.0316405e-10   -17.998949 
    4710   -17.998949    3.0402329   0.55976715    5.2658463   0.96955368     4.965205            0            0            0   -9.0838287   -9.0806008   -9.0806061   -9.0902791 -2.3421757e-11 -5.7995677e-11 -1.5184866e-10   -17.998949 
    4720   -17.998949    3.0402329   0.55976715    5.2658463   0.96955368     4.965205            0            0            0   -9.0838287   -9.0806008   -9.0806061   -9.0902791 -2.5118519e-11 -6.7257968e-11 -8.0462942e-11   -17.998949 
    4730   -17.998949    3.0402329   0.55976715    5.2658463   0.96955368     4.965205            0            0            0   -9.0838287   -9.0806008   -9.0806061   -9.0902791 -7.2014333e-12 8.1292716e-11 -7.3051802e-11   -17.998949 
    4740   -17.998949    3.0402329   0.55976715    5.2658463   0.96955368     4.965205            0            0            0   -9.0838287   -9.0806008   -9.0806061   -9.0902791 8.7558768e-11 -5.6187273e-11 5.5878999e-11   -17.998949 
    4750   -17.998949    3.0402329   0.55976715    5.2658463   0.96955368     4.965205            0            0            0   -9.0838287   -9.0806008   -9.0806061   -9.0902791 1.0581983e-10 -9.0228126e-11 -1.0566846e-10   -17.998949 
    4760   -17.998949    3.0402329   0.55976715    5.2658463   0.96955368     4.965205            0            0            0   -9.0838287   -9.0806008   -9.0806061   -9.0902791 -2.4792644e-12 -7.842723e-11 -1.6929906e-10   -17.998949 
    4770   -17.998949    3.0402329   0.55976715    5.2658463   0.96955368     4.965205            0            0            0   -9.0838287   -9.0806008   -9.0806061   -9.0902791 4.9000926e-11 6.1986639e-12 -4.3584261e-11   -17.998949 
    4780   -17.998949    3.0402329   0.55976715    5.2658463   0.96955368     4.965205            0            0            0   -9.0838287   -9.0806008   -9.0806061   -9.0902791 -4.8517143e-11 1.4119235e-11 -6.6115394e-12   -17.998949 
    4790   -17.998949    3.0402329   0.55976715    5.2658463   0.96955368     4.965205            0            0            0   -9.0838287   -9.0806008   -9.0806061   -9.0902791 -4.7355459e-11 1.0505443e-11 4.2102235e-12   -17.998949 
    4800   -17.998949    3.0402329   0.55976715    5.2658463   0.96955368     4.965205            0            0            0   -9.0838287   -9.0806008   -9.0806061   -9.0902791 -9.6384547e-12 -4.1756244e-11 -2.3204054e-10   -17.998949 
    4810   -17.998949    3.0402329   0.55976715    5.2658463   0.96955368     4.965205            0            0            0   -9.0838287   -9.0806008   -9.0806061   -9.0902791 -2.3214565e-11 -1.480669e-10 -2.7294388e-10   -17.998949 
    4820   -17.998949    3.0402329   0.55976715    5.2658463   0.96955368     4.965205            0            0            0   -9.0838287   -9.0806008   -9.0806061   -9.0902791 -1.8937959e-11 -8.1947484e-11 1.2496398e-11   -17.998949 
    4830   -17.998949    3.0402329   0.55976715    5.2658463   0.96955368     4.965205            0            0            0   -9.0838287   -9.0806008   -9.0806061   -9.0902791 1.1218948e-10 -5.9851354e-11 -8.709158e-11   -17.998949 
    4840   -17.998949    3.0402329   0.55976715    5.2658463   0.96955368     4.965205            0            0            0   -9.0838287   -9.0806008   -9.0806061   -9.0902791 -5.4942109e-11 1.3688758e-12 -1.5358867e-11   -17.998949 
    4850   -17.998949    3.0402329   0.55976715    5.2658463   0.96955368     4.965205            0            0            0   -9.0838287   -9.0806008   -9.0806061   -9.0902791 -2.1701057e-10 -1.7182861e-11 -1.1033984e-11   -17.998949 
    4860   -17.998949    3.0402329   0.55976715    5.2658463   0.96955368     4.965205            0            0            0   -9.0838287   -9.0806008   -9.0806061   -9.0902791 7.6008313e-11 -6.9426444e-11 -1.0170013e-11   -17.998949 
    4870   -17.998949    3.0402329   0.55976715    5.2658463   0.96955368     4.965205            0            0            0   -9.0838287   -9.0806008   -9.0806061   -9.0902791 -7.3553187e-12 1.3728688e-10 -5.3306699e-13   -17.998949 
    4880   -17.998949    3.0402329   0.55976715    5.2658463   0.96955368     4.965205            0            0            0   -9.0838287   -9.0806008   -9.0806061   -9.0902791 -2.0619635e-11 2.5460487e-11 -3.2855031e-11   -17.998949 
    4890   -17.998949    3.0402329   0.55976715    5.2658463   0.96955368     4.965205            0            0            0   -9.0838287   -9.0806008   -9.0806061   -9.0902791 6.8337177e-11 2.4323947e-11 -7.1501382e-11   -17.998949 
    4900   -17.998949    3.0402329   0.55976715    5.2658463   0.96955368     4.965205            0            0            0   -9.0838287   -9.0806008   -9.0806061   -9.0902791 4.9770353e-11 -6.0607705e-11 3.656387e-11   -17.998949 
    4910   -17.998949    3.0402329   0.55976715    5.2658463   0.96955368     4.965205            0            0            0   -9.0838287   -9.0806008   -9.0806061   -9.0902791 3.9951862e-11 2.6005623e-11 7.6107383e-11   -17.998949 
    4920   -17.998949    3.0402329   0.55976715    5.2658463   0.96955368     4.965205            0            0            0   -9.0838287   -9.0806008   -9.0806061   -9.0902791 1.8918849e-11 6.0323068e-11 7.1237363e-11   -17.998949 
    4930   -17.998949    3.0402329   0.55976715    5.2658463   0.96955368     4.965205            0            0            0   -9.0838287   -9.0806008   -9.0806061   -9.0902791 -2.9865833e-11 5.6183249e-11 -1.7894455e-11   -17.998949 
    4940   -17.998949    3.0402329   0.55976715    5.2658463   0.96955368     4.965205            0            0            0   -9.0838287   -9.0806008   -9.0806061   -9.0902791 4.7837231e-11 -8.3408892e-11 -5.6408043e-11   -17.998949 
    4950   -17.998949    3.0402329   0.55976715    5.2658463   0.96955368     4.965205            0            0            0   -9.0838287   -9.0806008   -9.0806061   -9.0902791 1.5162236e-10 8.9615602e-13 -9.6558548e-11   -17.998949 
    4960   -17.998949    3.0402329   0.55976715    5.2658463   0.96955368     4.965205            0            0            0   -9.0838287   -9.0806008   -9.0806061   -9.0902791 -1.5561432e-10 -9.0892951e-12 -2.2223161e-10   -17.998949 
    4970   -17.998949    3.0402329   0.55976715    5.2658463   0.96955368     4.965205            0            0            0   -9.0838287   -9.0806008   -9.0806061   -9.0902791 1.1084173e-10 -3.8858572e-11 2.143231e-11   -17.998949 
    4980   -17.998949    3.0402329   0.55976715    5.2658463   0.96955368     4.965205            0            0            0   -9.0838287   -9.0806008   -9.0806061   -9.0902791 -1.6246776e-10 -1.5570987e-10 4.0921441e-11   -17.998949 
    4990   -17.998949    3.0402329   0.55976715    5.2658463   0.96955368     4.965205            0            0            0   -9.0838287   -9.0806008   -9.0806061   -9.0902791 -1.1038912e-10 6.7980123e-11 -3.1945297e-11   -17.998949 
    5000   -17.998949    3.0402329   0.55976715    5.2658463   0.96955368     4.965205            0            0            0   -9.0838287   -9.0806008   -9.0806061   -9.0902791 4.1066274e-11 -8.5840884e-11 8.5519535e-11   -17.998949 
Loop time of 4.88317 on 1 procs for 5000 steps with 4 atoms

18.5% CPU use with 1 MPI tasks x no OpenMP threads

Minimization stats:
  Stopping criterion = max iterations
  Energy initial, next-to-last, final = 
        -6.10119806844     -17.9989486996     -17.9989486994
  Force two-norm initial, final = 17.6755 0.000615329
  Force max component initial, final = 10.2123 0.000355453
  Final line search alpha, max atom move = 1 0.000355453
  Iterations, force evaluations = 5000 9689

MPI task timing breakdown:
Section |  min time  |  avg time  |  max time  |%varavg| %total
---------------------------------------------------------------
Pair    | 3.6468     | 3.6468     | 3.6468     |   0.0 | 74.68
Neigh   | 0.00025201 | 0.00025201 | 0.00025201 |   0.0 |  0.01
Comm    | 0.39354    | 0.39354    | 0.39354    |   0.0 |  8.06
Output  | 0.0077732  | 0.0077732  | 0.0077732  |   0.0 |  0.16
Modify  | 0          | 0          | 0          |   0.0 |  0.00
Other   |            | 0.8348     |            |       | 17.10

Nlocal:    4 ave 4 max 4 min
Histogram: 1 0 0 0 0 0 0 0 0 0
Nghost:    1424 ave 1424 max 1424 min
Histogram: 1 0 0 0 0 0 0 0 0 0
Neighs:    848 ave 848 max 848 min
Histogram: 1 0 0 0 0 0 0 0 0 0

Total # of neighbors = 848
Ave neighs/atom = 212
Neighbor list builds = 5
Dangerous builds = 0
pypospack:output_section:begin
tot_energy = -17.9989486993781
num_atoms = 4
a11 = 2.48046570863215
a22 = 4.29629263380734
a33 = 4.05161000135835
a12 = 0
a13 = 0
a23 = 0
tot_press = -9.08382868601251
pxx = -9.08060083068618
pyy = -9.08060613286478
pzz = -9.09027909448658
pxy = 4.10662741739665e-11
pxz = -8.5840884200968e-11
pyz = 8.55195353251761e-11
pypospack:output_section:done
pypospack:lammps_sim:done
Total wall time: 0:00:04
