# ['Ni']

107 atoms
1 atom types

    0.0000    51.9992 xlo xhi
    0.0000    51.9992 ylo yhi
    0.0000    51.9992 zlo zhi

    0.0000    -0.0000    -0.0000 xy xz yz

Atoms

1 1     8.6665     8.6665     0.0000
2 1     8.6665     0.0000     8.6665
3 1     0.0000     8.6665     8.6665
4 1     0.0000     0.0000    17.3330
5 1     8.6665     8.6665    17.3330
6 1     8.6665     0.0000    25.9996
7 1     0.0000     8.6665    25.9996
8 1     0.0000     0.0000    34.6661
9 1     8.6665     8.6665    34.6661
10 1     8.6665     0.0000    43.3326
11 1     0.0000     8.6665    43.3326
12 1     0.0000    17.3330     0.0000
13 1     8.6665    25.9996     0.0000
14 1     8.6665    17.3330     8.6665
15 1     0.0000    25.9996     8.6665
16 1     0.0000    17.3330    17.3330
17 1     8.6665    25.9996    17.3330
18 1     8.6665    17.3330    25.9996
19 1     0.0000    25.9996    25.9996
20 1     0.0000    17.3330    34.6661
21 1     8.6665    25.9996    34.6661
22 1     8.6665    17.3330    43.3326
23 1     0.0000    25.9996    43.3326
24 1     0.0000    34.6661     0.0000
25 1     8.6665    43.3326     0.0000
26 1     8.6665    34.6661     8.6665
27 1     0.0000    43.3326     8.6665
28 1     0.0000    34.6661    17.3330
29 1     8.6665    43.3326    17.3330
30 1     8.6665    34.6661    25.9996
31 1     0.0000    43.3326    25.9996
32 1     0.0000    34.6661    34.6661
33 1     8.6665    43.3326    34.6661
34 1     8.6665    34.6661    43.3326
35 1     0.0000    43.3326    43.3326
36 1    17.3330     0.0000     0.0000
37 1    25.9996     8.6665     0.0000
38 1    25.9996     0.0000     8.6665
39 1    17.3330     8.6665     8.6665
40 1    17.3330     0.0000    17.3330
41 1    25.9996     8.6665    17.3330
42 1    25.9996     0.0000    25.9996
43 1    17.3330     8.6665    25.9996
44 1    17.3330     0.0000    34.6661
45 1    25.9996     8.6665    34.6661
46 1    25.9996     0.0000    43.3326
47 1    17.3330     8.6665    43.3326
48 1    17.3330    17.3330     0.0000
49 1    25.9996    25.9996     0.0000
50 1    25.9996    17.3330     8.6665
51 1    17.3330    25.9996     8.6665
52 1    17.3330    17.3330    17.3330
53 1    25.9996    25.9996    17.3330
54 1    25.9996    17.3330    25.9996
55 1    17.3330    25.9996    25.9996
56 1    17.3330    17.3330    34.6661
57 1    25.9996    25.9996    34.6661
58 1    25.9996    17.3330    43.3326
59 1    17.3330    25.9996    43.3326
60 1    17.3330    34.6661     0.0000
61 1    25.9996    43.3326     0.0000
62 1    25.9996    34.6661     8.6665
63 1    17.3330    43.3326     8.6665
64 1    17.3330    34.6661    17.3330
65 1    25.9996    43.3326    17.3330
66 1    25.9996    34.6661    25.9996
67 1    17.3330    43.3326    25.9996
68 1    17.3330    34.6661    34.6661
69 1    25.9996    43.3326    34.6661
70 1    25.9996    34.6661    43.3326
71 1    17.3330    43.3326    43.3326
72 1    34.6661     0.0000     0.0000
73 1    43.3326     8.6665     0.0000
74 1    43.3326     0.0000     8.6665
75 1    34.6661     8.6665     8.6665
76 1    34.6661     0.0000    17.3330
77 1    43.3326     8.6665    17.3330
78 1    43.3326     0.0000    25.9996
79 1    34.6661     8.6665    25.9996
80 1    34.6661     0.0000    34.6661
81 1    43.3326     8.6665    34.6661
82 1    43.3326     0.0000    43.3326
83 1    34.6661     8.6665    43.3326
84 1    34.6661    17.3330     0.0000
85 1    43.3326    25.9996     0.0000
86 1    43.3326    17.3330     8.6665
87 1    34.6661    25.9996     8.6665
88 1    34.6661    17.3330    17.3330
89 1    43.3326    25.9996    17.3330
90 1    43.3326    17.3330    25.9996
91 1    34.6661    25.9996    25.9996
92 1    34.6661    17.3330    34.6661
93 1    43.3326    25.9996    34.6661
94 1    43.3326    17.3330    43.3326
95 1    34.6661    25.9996    43.3326
96 1    34.6661    34.6661     0.0000
97 1    43.3326    43.3326     0.0000
98 1    43.3326    34.6661     8.6665
99 1    34.6661    43.3326     8.6665
100 1    34.6661    34.6661    17.3330
101 1    43.3326    43.3326    17.3330
102 1    43.3326    34.6661    25.9996
103 1    34.6661    43.3326    25.9996
104 1    34.6661    34.6661    34.6661
105 1    43.3326    43.3326    34.6661
106 1    43.3326    34.6661    43.3326
107 1    34.6661    43.3326    43.3326
