LAMMPS (11 Aug 2017)
Reading data file ...
  triclinic box = (0 0 0) to (2.5663 4.445 37.7106) with tilt (0 0 -0.0004)
  1 by 1 by 1 MPI processor grid
  reading atoms ...
  18 atoms
18 atoms in group Ni
Neighbor list info ...
  update every 1 steps, delay 0 steps, check yes
  max neighbors/atom: 2000, page size: 100000
  master list distance cutoff = 5.64464
  ghost atom cutoff = 5.64464
  binsize = 2.82232, bins = 1 2 14
  1 neighbor lists, perpetual/occasional/extra = 1 0 0
  (1) pair eam/alloy, perpetual
      attributes: half, newton on
      pair build: half/bin/newton/tri
      stencil: half/bin/3d/newton/tri
      bin: standard
Setting up cg style minimization ...
  Unit style    : metal
  Current step  : 0
Per MPI rank memory allocation (min/avg/max) = 4.217 | 4.217 | 4.217 Mbytes
Step PotEng Lx Ly Lz Xy Xz Yz Press Pxx Pyy Pzz Pxy Pxz Pyz c_eatoms 
       0   -35.714848       2.5663        4.445      37.7106            0            0      -0.0004   -5127.8409    -5878.431   -5881.5456    -3623.546 0.00065244242 0.00018469403   0.65191196   -35.714848 
       1   -35.723362       2.5663        4.445      37.7106            0            0      -0.0004   -4278.1034   -5210.1754   -5213.2975   -2410.8372 5.5630689e-05 -3.9332554e-05   0.65911211   -35.723362 
       2   -35.724946       2.5663        4.445      37.7106            0            0      -0.0004   -3635.3418   -4721.1343    -4724.247   -1460.6441 -7.6922278e-07 -3.9820093e-06   0.65192778   -35.724946 
       3   -35.725278       2.5663        4.445      37.7106            0            0      -0.0004   -3490.2395   -4620.9021   -4623.9737   -1225.8427 8.5125567e-07 -7.0520506e-07   0.61611887   -35.725278 
       4   -35.725348       2.5663        4.445      37.7106            0            0      -0.0004   -3303.8267   -4482.1319   -4485.1682   -944.17988 -2.0877769e-07 -5.7459712e-07   0.58574441   -35.725348 
       5   -35.725469       2.5663        4.445      37.7106            0            0      -0.0004   -2906.8912   -4197.4268    -4200.301   -322.94576 1.1503267e-06 -3.2859404e-06   0.44408057   -35.725469 
       6   -35.725552       2.5663        4.445      37.7106            0            0      -0.0004   -2718.8436   -4066.2925   -4069.0617   -21.176532 1.1671142e-06 5.4251531e-08   0.35153236   -35.725552 
       7   -35.725559       2.5663        4.445      37.7106            0            0      -0.0004   -2704.4811   -4056.7981   -4059.5661     2.920928 3.5473297e-07 4.9665609e-08   0.35067948   -35.725559 
       8   -35.725559       2.5663        4.445      37.7106            0            0      -0.0004   -2701.2847   -4054.2737   -4057.0476    7.4671842 1.3190773e-07 -6.2741535e-08   0.35590603   -35.725559 
       9   -35.725559       2.5663        4.445      37.7106            0            0      -0.0004   -2702.9097   -4055.4852   -4058.2687    5.0246273 -5.5240887e-08 -1.226772e-07   0.36443737   -35.725559 
      10   -35.725559       2.5663        4.445      37.7106            0            0      -0.0004   -2703.5148   -4055.9127   -4058.7049    4.0732985 -8.768804e-08 -1.6622103e-07   0.37231724   -35.725559 
      11   -35.725559       2.5663        4.445      37.7106            0            0      -0.0004   -2704.4603   -4056.5625   -4059.3664    2.5481417 -4.4756161e-08 -2.0702139e-07   0.38274266   -35.725559 
      12   -35.725559       2.5663        4.445      37.7106            0            0      -0.0004   -2705.7801   -4057.5207   -4060.3254   0.50571818 -4.7366665e-08 -2.2020955e-07   0.38360807   -35.725559 
      13   -35.725559       2.5663        4.445      37.7106            0            0      -0.0004   -2705.8714   -4057.5881   -4060.3665   0.34040325 -4.8968393e-08 -9.7089596e-08    0.3601341   -35.725559 
      14   -35.725559       2.5663        4.445      37.7106            0            0      -0.0004    -2706.057   -4057.7357   -4060.4872  0.051756238 -2.8663309e-08 -5.6846413e-08   0.33620717   -35.725559 
      15   -35.725559       2.5663        4.445      37.7106            0            0      -0.0004   -2706.1444   -4057.8075   -4060.5465 -0.079209218 -5.2269356e-08 -9.3783775e-08   0.32501309   -35.725559 
      16   -35.725559       2.5663        4.445      37.7106            0            0      -0.0004   -2706.1525   -4057.8184   -4060.5452 -0.093986994 -7.9443772e-08 -1.431376e-07   0.31420737   -35.725559 
      17   -35.725559       2.5663        4.445      37.7106            0            0      -0.0004    -2706.163   -4057.8451   -4060.5358  -0.10808347 -1.4536611e-07 -2.6785145e-07   0.28204839   -35.725559 
      18   -35.725559       2.5663        4.445      37.7106            0            0      -0.0004   -2706.1102    -4057.841    -4060.464 -0.025734583 -2.1925683e-07 -3.8679555e-07    0.2217616   -35.725559 
      19   -35.725559       2.5663        4.445      37.7106            0            0      -0.0004   -2705.9951   -4057.8119   -4060.3236   0.15004338 -2.2691394e-07 -4.2541194e-07   0.12279327   -35.725559 
      20   -35.725559       2.5663        4.445      37.7106            0            0      -0.0004   -2706.0095   -4057.8468   -4060.3133   0.13156319 -1.373113e-07 -2.7068911e-07   0.08267608   -35.725559 
      21   -35.725559       2.5663        4.445      37.7106            0            0      -0.0004   -2706.0371   -4057.8852   -4060.3174  0.091256749 2.1856544e-08 3.3719306e-08  0.052202402   -35.725559 
      22   -35.725559       2.5663        4.445      37.7106            0            0      -0.0004   -2706.0202   -4057.8764    -4060.299   0.11486389 7.3531632e-08 1.2585675e-07  0.043664303   -35.725559 
      23   -35.725559       2.5663        4.445      37.7106            0            0      -0.0004   -2706.0235   -4057.8808   -4060.2992   0.10958704 6.4485171e-08 1.1420415e-07  0.040045637   -35.725559 
      24   -35.725559       2.5663        4.445      37.7106            0            0      -0.0004   -2706.0336   -4057.8897   -4060.3048  0.093665622 4.1008757e-08 7.2573044e-08   0.03708492   -35.725559 
      25   -35.725559       2.5663        4.445      37.7106            0            0      -0.0004    -2706.056   -4057.9079   -4060.3178  0.057624859 -5.8398029e-09 -9.8918801e-09  0.032411178   -35.725559 
      26   -35.725559       2.5663        4.445      37.7106            0            0      -0.0004   -2706.0833   -4057.9299   -4060.3357  0.015636586 -3.0168613e-08 -5.5801699e-08  0.028788894   -35.725559 
      27   -35.725559       2.5663        4.445      37.7106            0            0      -0.0004   -2706.0922   -4057.9374   -4060.3409 0.0017777142 -3.0471322e-08 -5.538675e-08  0.026801517   -35.725559 
      28   -35.725559       2.5663        4.445      37.7106            0            0      -0.0004   -2706.0933   -4057.9391   -4060.3405 -0.00046595685 -2.1316562e-08 -3.8140421e-08   0.02489327   -35.725559 
      29   -35.725559       2.5663        4.445      37.7106            0            0      -0.0004   -2706.0951    -4057.941   -4060.3411 -0.0032047909 -1.5075662e-08 -2.692386e-08  0.023715318   -35.725559 
      30   -35.725559       2.5663        4.445      37.7106            0            0      -0.0004    -2706.097   -4057.9433   -4060.3416 -0.0062124138 -9.9752655e-09 -1.7785588e-08  0.022136759   -35.725559 
      31   -35.725559       2.5663        4.445      37.7106            0            0      -0.0004   -2706.1007   -4057.9478   -4060.3426 -0.011850201 -4.3413997e-09 -7.6318315e-09  0.018966617   -35.725559 
      32   -35.725559       2.5663        4.445      37.7106            0            0      -0.0004   -2706.0999   -4057.9485   -4060.3405 -0.010572874 -1.9830538e-09 -3.7125789e-09  0.016532533   -35.725559 
      33   -35.725559       2.5663        4.445      37.7106            0            0      -0.0004   -2706.0959   -4057.9479   -4060.3352 -0.0045442905 9.1549415e-10 1.4950177e-09  0.012297032   -35.725559 
      34   -35.725559       2.5663        4.445      37.7106            0            0      -0.0004   -2706.0952   -4057.9498   -4060.3325 -0.0033477593 4.9973694e-09 8.7469697e-09   0.00823293   -35.725559 
      35   -35.725559       2.5663        4.445      37.7106            0            0      -0.0004   -2706.0944   -4057.9513   -4060.3299 -0.0020808972  1.04154e-08 1.8423234e-08 0.0046090918   -35.725559 
      36   -35.725559       2.5663        4.445      37.7106            0            0      -0.0004   -2706.0938   -4057.9518   -4060.3285 -0.0011519855 1.2171674e-08 2.1651266e-08 0.0028578073   -35.725559 
      37   -35.725559       2.5663        4.445      37.7106            0            0      -0.0004   -2706.0939   -4057.9524   -4060.3282 -0.0011449233 1.0515015e-08  1.86871e-08 0.0020377331   -35.725559 
      38   -35.725559       2.5663        4.445      37.7106            0            0      -0.0004   -2706.0924   -4057.9514   -4060.3268 0.0011757771 7.067039e-09 1.2613656e-08 0.0016952749   -35.725559 
      39   -35.725559       2.5663        4.445      37.7106            0            0      -0.0004   -2706.0918   -4057.9511   -4060.3263 0.0020745772 3.577648e-09 6.3757665e-09 0.0015740808   -35.725559 
      40   -35.725559       2.5663        4.445      37.7106            0            0      -0.0004   -2706.0927   -4057.9518    -4060.327 0.00070952376 1.680887e-10 2.6960352e-10 0.0015605872   -35.725559 
      41   -35.725559       2.5663        4.445      37.7106            0            0      -0.0004   -2706.0927   -4057.9518    -4060.327 0.00064248506 -1.5685565e-09 -2.8008063e-09 0.0015638436   -35.725559 
      42   -35.725559       2.5663        4.445      37.7106            0            0      -0.0004   -2706.0927   -4057.9517   -4060.3269 0.00071642702 -1.5730662e-09 -2.8269086e-09 0.0015515295   -35.725559 
      43   -35.725559       2.5663        4.445      37.7106            0            0      -0.0004   -2706.0927   -4057.9518    -4060.327 0.00063826982 -9.3390792e-10 -1.6588163e-09  0.001501848   -35.725559 
      44   -35.725559       2.5663        4.445      37.7106            0            0      -0.0004   -2706.0927   -4057.9518   -4060.3269 0.00062192712 -6.1915512e-10 -1.0899404e-09  0.001450738   -35.725559 
      45   -35.725559       2.5663        4.445      37.7106            0            0      -0.0004   -2706.0931   -4057.9523   -4060.3271 -6.2622349e-05 1.9311851e-10 3.403641e-10 0.0011627098   -35.725559 
      46   -35.725559       2.5663        4.445      37.7106            0            0      -0.0004   -2706.0935   -4057.9527   -4060.3272 -0.00061184662 2.6845346e-10 4.8085152e-10 0.00097344503   -35.725559 
      47   -35.725559       2.5663        4.445      37.7106            0            0      -0.0004   -2706.0937    -4057.953   -4060.3272 -0.00093273711 -6.4299612e-11 -1.0663191e-10 0.00072130415   -35.725559 
      48   -35.725559       2.5663        4.445      37.7106            0            0      -0.0004   -2706.0937    -4057.953   -4060.3271 -0.00085636706 -2.8408902e-10 -5.1302717e-10 0.00055451403   -35.725559 
      49   -35.725559       2.5663        4.445      37.7106            0            0      -0.0004   -2706.0936    -4057.953    -4060.327 -0.0007940303 -2.2011246e-10 -3.9830611e-10 0.00047176373   -35.725559 
      50   -35.725559       2.5663        4.445      37.7106            0            0      -0.0004   -2706.0936   -4057.9531   -4060.3269 -0.00076760527 1.414178e-10 2.4985878e-10 0.00035073774   -35.725559 
      51   -35.725559       2.5663        4.445      37.7106            0            0      -0.0004   -2706.0935   -4057.9531   -4060.3268 -0.00058642927 3.7928501e-10 6.6814223e-10 0.00027474623   -35.725559 
      52   -35.725559       2.5663        4.445      37.7106            0            0      -0.0004   -2706.0933   -4057.9529   -4060.3266 -0.00027085529 4.4061257e-10 7.9793027e-10 0.00020269723   -35.725559 
      53   -35.725559       2.5663        4.445      37.7106            0            0      -0.0004   -2706.0932   -4057.9529   -4060.3265 -7.7041714e-05 2.9095057e-10 5.1248444e-10 0.00013636671   -35.725559 
      54   -35.725559       2.5663        4.445      37.7106            0            0      -0.0004   -2706.0932   -4057.9529   -4060.3265 -8.0663439e-05 2.1400038e-10 3.9021698e-10 0.00013347687   -35.725559 
      55   -35.725559       2.5663        4.445      37.7106            0            0      -0.0004   -2706.0932   -4057.9529   -4060.3265 -6.1200944e-05 5.0007937e-11 7.8177783e-11 0.00012479912   -35.725559 
      56   -35.725559       2.5663        4.445      37.7106            0            0      -0.0004   -2706.0932   -4057.9529   -4060.3265 -6.2047749e-05 -1.0691619e-10 -1.991789e-10 0.00011574465   -35.725559 
      57   -35.725559       2.5663        4.445      37.7106            0            0      -0.0004   -2706.0931   -4057.9529   -4060.3265 -3.2634594e-05 -1.9680126e-10 -3.5002972e-10 0.0001061787   -35.725559 
      58   -35.725559       2.5663        4.445      37.7106            0            0      -0.0004   -2706.0931   -4057.9529   -4060.3264 2.8507897e-05 -1.5362904e-10 -2.6616628e-10 9.6595605e-05   -35.725559 
      59   -35.725559       2.5663        4.445      37.7106            0            0      -0.0004   -2706.0931   -4057.9529   -4060.3264  4.82861e-05 -3.7434882e-11 -7.6110272e-11 8.7650269e-05   -35.725559 
      60   -35.725559       2.5663        4.445      37.7106            0            0      -0.0004   -2706.0931   -4057.9529   -4060.3264 5.0472026e-05 -9.0582853e-12 -1.8064883e-11 8.3003225e-05   -35.725559 
Loop time of 0.00850105 on 1 procs for 60 steps with 18 atoms

52.4% CPU use with 1 MPI tasks x no OpenMP threads

Minimization stats:
  Stopping criterion = energy tolerance
  Energy initial, next-to-last, final = 
        -35.7148479606     -35.7255591674     -35.7255591674
  Force two-norm initial, final = 0.334731 3.08677e-09
  Force max component initial, final = 0.118637 1.11914e-09
  Final line search alpha, max atom move = 1 1.11914e-09
  Iterations, force evaluations = 60 117

MPI task timing breakdown:
Section |  min time  |  avg time  |  max time  |%varavg| %total
---------------------------------------------------------------
Pair    | 0.0036108  | 0.0036108  | 0.0036108  |   0.0 | 42.48
Neigh   | 0          | 0          | 0          |   0.0 |  0.00
Comm    | 0.00027871 | 0.00027871 | 0.00027871 |   0.0 |  3.28
Output  | 0.0044537  | 0.0044537  | 0.0044537  |   0.0 | 52.39
Modify  | 0          | 0          | 0          |   0.0 |  0.00
Other   |            | 0.0001578  |            |       |  1.86

Nlocal:    18 ave 18 max 18 min
Histogram: 1 0 0 0 0 0 0 0 0 0
Nghost:    442 ave 442 max 442 min
Histogram: 1 0 0 0 0 0 0 0 0 0
Neighs:    438 ave 438 max 438 min
Histogram: 1 0 0 0 0 0 0 0 0 0

Total # of neighbors = 438
Ave neighs/atom = 24.3333
Neighbor list builds = 0
Dangerous builds = 0
pypospack:output_section:begin
tot_energy = -35.7255591673719
num_atoms = 18
a11 = 2.5663
a22 = 4.445
a33 = 37.7106
a12 = 0
a13 = 0
a23 = -0.0004
tot_press = -2706.09308319802
pxx = -4057.952875013
pyy = -4060.32642505307
pzz = 5.04720257443381e-05
pxy = -9.05828530271865e-12
pxz = -1.80648828148369e-11
pyz = 8.30032252120005e-05
pypospack:output_section:done
pypospack:lammps_sim:done
Total wall time: 0:00:00
