# ['Ni']

20 atoms
1 atom types

    0.0000     3.5127 xlo xhi
    0.0000     3.5127 ylo yhi
    0.0000    35.1269 zlo zhi

    0.0000    -0.0000     0.0000 xy xz yz

Atoms

1 1     0.0000     0.0000     0.0000
2 1     1.7563     1.7563     0.0000
3 1     1.7563     0.0000     1.7563
4 1     0.0000     1.7563     1.7563
5 1     0.0000     0.0000     3.5127
6 1     1.7563     1.7563     3.5127
7 1     1.7563     0.0000     5.2690
8 1     0.0000     1.7563     5.2690
9 1     0.0000     0.0000     7.0254
10 1     1.7563     1.7563     7.0254
11 1     1.7563     0.0000     8.7817
12 1     0.0000     1.7563     8.7817
13 1     0.0000     0.0000    10.5381
14 1     1.7563     1.7563    10.5381
15 1     1.7563     0.0000    12.2944
16 1     0.0000     1.7563    12.2944
17 1     0.0000     0.0000    14.0508
18 1     1.7563     1.7563    14.0508
19 1     1.7563     0.0000    15.8071
20 1     0.0000     1.7563    15.8071
