LAMMPS (11 Aug 2017)
Reading data file ...
  triclinic box = (0 0 0) to (2.8005 2.8005 2.8005) with tilt (0 0 0)
  1 by 1 by 1 MPI processor grid
  reading atoms ...
  2 atoms
2 atoms in group Ni
Neighbor list info ...
  update every 1 steps, delay 0 steps, check yes
  max neighbors/atom: 2000, page size: 100000
  master list distance cutoff = 5.64464
  ghost atom cutoff = 5.64464
  binsize = 2.82232, bins = 1 1 1
  1 neighbor lists, perpetual/occasional/extra = 1 0 0
  (1) pair eam/alloy, perpetual
      attributes: half, newton on
      pair build: half/bin/newton/tri
      stencil: half/bin/3d/newton/tri
      bin: standard
Setting up cg style minimization ...
  Unit style    : metal
  Current step  : 0
WARNING: Energy due to 3 extra global DOFs will be included in minimizer energies
Per MPI rank memory allocation (min/avg/max) = 4.24 | 4.24 | 4.24 Mbytes
Step PotEng Xhi Xlo Yhi Ylo Zhi Xy Xz Yz Press Pxx Pyy Pzz Pxy Pxz Pyz c_eatoms 
       0    -7.093921       2.8005            0       2.8005            0       2.8005            0            0            0    55767.729    55767.729    55767.729    55767.729  0.031291143  0.031291143  0.031291143    -7.093921 
      10   -7.1085734    2.8145025   -0.0140025    2.8145025   -0.0140025    2.8145025            0            0            0    15899.531    15899.531    15899.531    15899.531 0.0018319714 0.0018319714 0.0018319714   -7.1085734 
      20   -7.1100434    2.8207255  -0.02022554    2.8207255  -0.02022554    2.8207255            0            0            0 -8.0162225e-10 -7.6412701e-10 -8.1843045e-10 -8.2230927e-10 -6.7394451e-11 -6.4485338e-11 6.7879303e-11   -7.1100434 
      22   -7.1100434    2.8207255  -0.02022554    2.8207255  -0.02022554    2.8207255            0            0            0 2.7895161e-10 2.8703248e-10 2.7248692e-10 2.7733544e-10 -2.4242608e-12 -1.4545565e-12 -1.6484974e-11   -7.1100434 
Loop time of 0.000455141 on 1 procs for 22 steps with 2 atoms

100.0% CPU use with 1 MPI tasks x no OpenMP threads

Minimization stats:
  Stopping criterion = energy tolerance
  Energy initial, next-to-last, final = 
        -7.09392100003     -7.11004337941     -7.11004337941
  Force two-norm initial, final = 1.32416 7.4259e-15
  Force max component initial, final = 0.764503 4.04934e-15
  Final line search alpha, max atom move = 1 4.04934e-15
  Iterations, force evaluations = 22 30

MPI task timing breakdown:
Section |  min time  |  avg time  |  max time  |%varavg| %total
---------------------------------------------------------------
Pair    | 0.00017142 | 0.00017142 | 0.00017142 |   0.0 | 37.66
Neigh   | 0          | 0          | 0          |   0.0 |  0.00
Comm    | 5.7936e-05 | 5.7936e-05 | 5.7936e-05 |   0.0 | 12.73
Output  | 2.3127e-05 | 2.3127e-05 | 2.3127e-05 |   0.0 |  5.08
Modify  | 0          | 0          | 0          |   0.0 |  0.00
Other   |            | 0.0002027  |            |       | 44.53

Nlocal:    2 ave 2 max 2 min
Histogram: 1 0 0 0 0 0 0 0 0 0
Nghost:    339 ave 339 max 339 min
Histogram: 1 0 0 0 0 0 0 0 0 0
Neighs:    64 ave 64 max 64 min
Histogram: 1 0 0 0 0 0 0 0 0 0

Total # of neighbors = 64
Ave neighs/atom = 32
Neighbor list builds = 0
Dangerous builds = 0
pypospack:output_section:begin
tot_energy = -7.11004337941319
num_atoms = 2
a11 = 2.84095107905329
a22 = 2.84095107905329
a33 = 2.84095107905329
a12 = 0
a13 = 0
a23 = 0
tot_press = 2.78951611976879e-10
pxx = 2.87032481385247e-10
pyy = 2.72486916450184e-10
pzz = 2.77335438095205e-10
pxy = -2.42426082251053e-12
pxz = -1.45455649350632e-12
pyz = -1.64849735930716e-11
pypospack:output_section:done
pypospack:lammps_sim:done
Total wall time: 0:00:00
