# ['Ni']

28 atoms
1 atom types

    0.0000     2.4846 xlo xhi
    0.0000     4.3034 ylo yhi
    0.0000    28.4010 zlo zhi

    0.0000     0.0000     0.0000 xy xz yz

Atoms

1 1     0.0000     0.0000     0.0000
2 1     1.2423     2.1517     0.0000
3 1     1.2423     0.7172     2.0287
4 1     0.0000     2.8689     2.0287
5 1     0.0000     1.4345     4.0573
6 1     1.2423     3.5862     4.0573
7 1     0.0000     0.0000     6.0859
8 1     1.2423     2.1517     6.0859
9 1     1.2423     0.7172     8.1146
10 1     0.0000     2.8689     8.1146
11 1     0.0000     1.4345    10.1432
12 1     1.2423     3.5862    10.1432
13 1     0.0000     0.0000    12.1719
14 1     1.2423     2.1517    12.1719
15 1     0.0000     1.4345    14.2005
16 1     1.2423     3.5862    14.2005
17 1     0.0000     0.0000    16.2292
18 1     1.2423     2.1517    16.2292
19 1     1.2423     0.7172    18.2578
20 1     0.0000     2.8689    18.2578
21 1     0.0000     1.4345    20.2865
22 1     1.2423     3.5862    20.2865
23 1     0.0000     0.0000    22.3151
24 1     1.2423     2.1517    22.3151
25 1     1.2423     0.7172    24.3437
26 1     0.0000     2.8689    24.3437
27 1     0.0000     1.4345    26.3724
28 1     1.2423     3.5862    26.3724
