# ['Ni']

107 atoms
1 atom types

    0.0000    10.0690 xlo xhi
    0.0000    10.0690 ylo yhi
    0.0000    10.0690 zlo zhi

    0.0000    -0.0000    -0.0000 xy xz yz

Atoms

1 1     1.6782     1.6782     0.0000
2 1     1.6782     0.0000     1.6782
3 1     0.0000     1.6782     1.6782
4 1     0.0000     0.0000     3.3563
5 1     1.6782     1.6782     3.3563
6 1     1.6782     0.0000     5.0345
7 1     0.0000     1.6782     5.0345
8 1     0.0000     0.0000     6.7127
9 1     1.6782     1.6782     6.7127
10 1     1.6782     0.0000     8.3908
11 1     0.0000     1.6782     8.3908
12 1     0.0000     3.3563     0.0000
13 1     1.6782     5.0345     0.0000
14 1     1.6782     3.3563     1.6782
15 1     0.0000     5.0345     1.6782
16 1     0.0000     3.3563     3.3563
17 1     1.6782     5.0345     3.3563
18 1     1.6782     3.3563     5.0345
19 1     0.0000     5.0345     5.0345
20 1     0.0000     3.3563     6.7127
21 1     1.6782     5.0345     6.7127
22 1     1.6782     3.3563     8.3908
23 1     0.0000     5.0345     8.3908
24 1     0.0000     6.7127     0.0000
25 1     1.6782     8.3908     0.0000
26 1     1.6782     6.7127     1.6782
27 1     0.0000     8.3908     1.6782
28 1     0.0000     6.7127     3.3563
29 1     1.6782     8.3908     3.3563
30 1     1.6782     6.7127     5.0345
31 1     0.0000     8.3908     5.0345
32 1     0.0000     6.7127     6.7127
33 1     1.6782     8.3908     6.7127
34 1     1.6782     6.7127     8.3908
35 1     0.0000     8.3908     8.3908
36 1     3.3563     0.0000     0.0000
37 1     5.0345     1.6782     0.0000
38 1     5.0345     0.0000     1.6782
39 1     3.3563     1.6782     1.6782
40 1     3.3563     0.0000     3.3563
41 1     5.0345     1.6782     3.3563
42 1     5.0345     0.0000     5.0345
43 1     3.3563     1.6782     5.0345
44 1     3.3563     0.0000     6.7127
45 1     5.0345     1.6782     6.7127
46 1     5.0345     0.0000     8.3908
47 1     3.3563     1.6782     8.3908
48 1     3.3563     3.3563     0.0000
49 1     5.0345     5.0345     0.0000
50 1     5.0345     3.3563     1.6782
51 1     3.3563     5.0345     1.6782
52 1     3.3563     3.3563     3.3563
53 1     5.0345     5.0345     3.3563
54 1     5.0345     3.3563     5.0345
55 1     3.3563     5.0345     5.0345
56 1     3.3563     3.3563     6.7127
57 1     5.0345     5.0345     6.7127
58 1     5.0345     3.3563     8.3908
59 1     3.3563     5.0345     8.3908
60 1     3.3563     6.7127     0.0000
61 1     5.0345     8.3908     0.0000
62 1     5.0345     6.7127     1.6782
63 1     3.3563     8.3908     1.6782
64 1     3.3563     6.7127     3.3563
65 1     5.0345     8.3908     3.3563
66 1     5.0345     6.7127     5.0345
67 1     3.3563     8.3908     5.0345
68 1     3.3563     6.7127     6.7127
69 1     5.0345     8.3908     6.7127
70 1     5.0345     6.7127     8.3908
71 1     3.3563     8.3908     8.3908
72 1     6.7127     0.0000     0.0000
73 1     8.3908     1.6782     0.0000
74 1     8.3908     0.0000     1.6782
75 1     6.7127     1.6782     1.6782
76 1     6.7127     0.0000     3.3563
77 1     8.3908     1.6782     3.3563
78 1     8.3908     0.0000     5.0345
79 1     6.7127     1.6782     5.0345
80 1     6.7127     0.0000     6.7127
81 1     8.3908     1.6782     6.7127
82 1     8.3908     0.0000     8.3908
83 1     6.7127     1.6782     8.3908
84 1     6.7127     3.3563     0.0000
85 1     8.3908     5.0345     0.0000
86 1     8.3908     3.3563     1.6782
87 1     6.7127     5.0345     1.6782
88 1     6.7127     3.3563     3.3563
89 1     8.3908     5.0345     3.3563
90 1     8.3908     3.3563     5.0345
91 1     6.7127     5.0345     5.0345
92 1     6.7127     3.3563     6.7127
93 1     8.3908     5.0345     6.7127
94 1     8.3908     3.3563     8.3908
95 1     6.7127     5.0345     8.3908
96 1     6.7127     6.7127     0.0000
97 1     8.3908     8.3908     0.0000
98 1     8.3908     6.7127     1.6782
99 1     6.7127     8.3908     1.6782
100 1     6.7127     6.7127     3.3563
101 1     8.3908     8.3908     3.3563
102 1     8.3908     6.7127     5.0345
103 1     6.7127     8.3908     5.0345
104 1     6.7127     6.7127     6.7127
105 1     8.3908     8.3908     6.7127
106 1     8.3908     6.7127     8.3908
107 1     6.7127     8.3908     8.3908
