# ['Al']

18 atoms
1 atom types

    0.0000     2.6910 xlo xhi
    0.0000     4.6610 ylo yhi
    0.0000    39.5437 zlo zhi

    0.0000     0.0000    -0.0004 xy xz yz

Atoms

1 1     0.0000     0.0000     0.0000
2 1     1.3455     0.7768     2.1969
3 1     0.0000     1.5537     4.3937
4 1     1.3455     2.3305     0.0000
5 1     0.0000     3.1074     2.1969
6 1     1.3455     3.8842     4.3937
7 1     0.0000     0.0000     6.5906
8 1     1.3455     0.7768     8.7875
9 1     0.0000     1.5537    10.9844
10 1     1.3455     2.3305     6.5906
11 1     0.0000     3.1074     8.7875
12 1     1.3455     3.8842    10.9844
13 1     0.0000     0.0000    13.1812
14 1     1.3455     0.7768    15.3781
15 1     0.0000     1.5537    17.5749
16 1     1.3455     2.3305    13.1812
17 1     0.0000     3.1074    15.3781
18 1     1.3455     3.8842    17.5749
