LAMMPS (11 Aug 2017)
Reading data file ...
  triclinic box = (0 0 0) to (2.691 4.661 39.5437) with tilt (0 0 -0.0004)
  1 by 1 by 1 MPI processor grid
  reading atoms ...
  18 atoms
18 atoms in group Al
Neighbor list info ...
  update every 1 steps, delay 0 steps, check yes
  max neighbors/atom: 2000, page size: 100000
  master list distance cutoff = 6.34397
  ghost atom cutoff = 6.34397
  binsize = 3.17199, bins = 1 2 13
  1 neighbor lists, perpetual/occasional/extra = 1 0 0
  (1) pair eam/alloy, perpetual
      attributes: half, newton on
      pair build: half/bin/newton/tri
      stencil: half/bin/3d/newton/tri
      bin: standard
Setting up cg style minimization ...
  Unit style    : metal
  Current step  : 0
Per MPI rank memory allocation (min/avg/max) = 4.217 | 4.217 | 4.217 Mbytes
Step PotEng Lx Ly Lz Xy Xz Yz Press Pxx Pyy Pzz Pxy Pxz Pyz c_eatoms 
       0   -34.496739        2.691        4.661      39.5437            0            0      -0.0004   -2926.8229   -3362.1379   -3365.2244   -2053.1065 6.7243724e-14 5.3794979e-13   0.42967047   -34.496739 
       1   -34.500593        2.691        4.661      39.5437            0            0      -0.0004    -2458.314   -3038.5144    -3041.592   -1294.8356 4.4829149e-14 5.3794979e-13   0.42803741   -34.500593 
       2   -34.501262        2.691        4.661      39.5437            0            0      -0.0004   -2148.2881   -2828.5262   -2831.5903    -784.7477 -9.4141213e-13 9.4141213e-13   0.42220443   -34.501262 
       3   -34.501391        2.691        4.661      39.5437            0            0      -0.0004   -2046.3672   -2760.8028   -2763.8763   -614.42267 -4.4829149e-13 5.6036437e-13   0.43107867   -34.501391 
       4   -34.501414        2.691        4.661      39.5437            0            0      -0.0004   -2020.5518   -2744.9518   -2748.0298   -568.67374 -6.5002266e-13 2.2414575e-13   0.43523526   -34.501414 
       5   -34.501508        2.691        4.661      39.5437            0            0      -0.0004    -1783.328   -2589.0679   -2592.1602   -168.75603 -6.7243724e-13 6.9485181e-13   0.45025854   -34.501508 
       6   -34.501512        2.691        4.661      39.5437            0            0      -0.0004   -1782.5951   -2588.6791   -2591.7572   -167.34906 -7.6209554e-13 5.8277894e-13    0.4380512   -34.501512 
       7   -34.501515        2.691        4.661      39.5437            0            0      -0.0004   -1782.0035    -2588.865   -2591.9126   -165.23295 -6.7243724e-14 8.0692469e-13   0.41187447   -34.501515 
       8    -34.50152        2.691        4.661      39.5437            0            0      -0.0004   -1720.6855   -2548.2793     -2551.25    -62.52734 -1.1207287e-13 3.8104777e-13   0.34668447    -34.50152 
       9   -34.501523        2.691        4.661      39.5437            0            0      -0.0004   -1684.2084   -2524.5978    -2527.513  -0.51431032 -2.4880178e-12 6.5002266e-13   0.29943915   -34.501523 
      10   -34.501523        2.691        4.661      39.5437            0            0      -0.0004   -1684.0754    -2524.524   -2527.4398  -0.26237925 -8.9658298e-14 6.9485181e-13   0.29994904   -34.501523 
      11   -34.501523        2.691        4.661      39.5437            0            0      -0.0004   -1684.0997   -2524.5399   -2527.4594  -0.29977224 -7.3968096e-13 1.3000453e-12   0.30305311   -34.501523 
      12   -34.501523        2.691        4.661      39.5437            0            0      -0.0004   -1684.0538   -2524.5074   -2527.4297  -0.22426884 -6.7243724e-14 1.6810931e-12   0.30544067   -34.501523 
      13   -34.501523        2.691        4.661      39.5437            0            0      -0.0004   -1684.0396   -2524.4983   -2527.4207  -0.19977248 2.2414575e-13 8.5175384e-13   0.30549114   -34.501523 
      14   -34.501523        2.691        4.661      39.5437            0            0      -0.0004   -1684.0243   -2524.4898   -2527.4092  -0.17368243 5.1553522e-13 1.0310704e-12   0.30289352   -34.501523 
      15   -34.501523        2.691        4.661      39.5437            0            0      -0.0004   -1683.9407   -2524.4452    -2527.344 -0.032781493 -4.2587692e-13 2.689749e-13    0.2850134   -34.501523 
      16   -34.501523        2.691        4.661      39.5437            0            0      -0.0004   -1683.8726   -2524.4166   -2527.2826   0.08142386 -1.8604097e-12 2.0621409e-12   0.25677546   -34.501523 
      17   -34.501523        2.691        4.661      39.5437            0            0      -0.0004   -1683.8065   -2524.4127   -2527.2007   0.19403539 -9.6382671e-13 2.7569927e-12   0.18974788   -34.501523 
      18   -34.501523        2.691        4.661      39.5437            0            0      -0.0004   -1683.7993   -2524.4289   -2527.1772    0.2081679 1.793166e-12 1.9276534e-12   0.15556701   -34.501523 
      19   -34.501523        2.691        4.661      39.5437            0            0      -0.0004   -1683.7528   -2524.4254   -2527.1178   0.28462714 9.1899756e-13 1.210387e-12   0.10752681   -34.501523 
      20   -34.501523        2.691        4.661      39.5437            0            0      -0.0004   -1683.7881   -2524.4689   -2527.1202   0.22475147 -2.0173117e-13 1.9948971e-12  0.072274108   -34.501523 
      21   -34.501523        2.691        4.661      39.5437            0            0      -0.0004   -1683.8411   -2524.5177   -2527.1415   0.13595955 3.6759902e-12 3.743234e-12  0.048510147   -34.501523 
      22   -34.501523        2.691        4.661      39.5437            0            0      -0.0004   -1683.9116   -2524.5807   -2527.1713  0.017327535 -4.1466963e-12 1.3448745e-13  0.019964916   -34.501523 
      23   -34.501523        2.691        4.661      39.5437            0            0      -0.0004   -1683.9074   -2524.5786   -2527.1674  0.023818647 1.3448745e-12 -2.9138947e-13  0.018370791   -34.501523 
      24   -34.501523        2.691        4.661      39.5437            0            0      -0.0004   -1683.9045   -2524.5772   -2527.1647  0.028355137 6.0519351e-13 2.4656032e-13  0.017185465   -34.501523 
      25   -34.501523        2.691        4.661      39.5437            0            0      -0.0004    -1683.909   -2524.5805   -2527.1675  0.020926841 -8.9658298e-14 1.4345328e-12  0.016802609   -34.501523 
      26   -34.501523        2.691        4.661      39.5437            0            0      -0.0004   -1683.9111    -2524.582   -2527.1687  0.017349399 3.4070153e-12 -2.2414575e-14  0.016616599   -34.501523 
      27   -34.501523        2.691        4.661      39.5437            0            0      -0.0004   -1683.9142   -2524.5841   -2527.1706  0.012272678 3.8553068e-12 1.9052388e-12  0.016355089   -34.501523 
      28   -34.501523        2.691        4.661      39.5437            0            0      -0.0004   -1683.9175   -2524.5867   -2527.1725 0.0066574739 3.6311611e-12 2.689749e-13  0.015839124   -34.501523 
      29   -34.501523        2.691        4.661      39.5437            0            0      -0.0004   -1683.9226    -2524.591   -2527.1749 -0.001974194 3.7208194e-12 -2.6000907e-12  0.014176685   -34.501523 
      30   -34.501523        2.691        4.661      39.5437            0            0      -0.0004   -1683.9253   -2524.5937   -2527.1757 -0.0066770539 1.6362639e-12 1.7707514e-12  0.012550927   -34.501523 
      31   -34.501523        2.691        4.661      39.5437            0            0      -0.0004   -1683.9267   -2524.5954   -2527.1757 -0.0090006996 9.4141213e-13 -1.3224599e-12   0.01102586   -34.501523 
      32   -34.501523        2.691        4.661      39.5437            0            0      -0.0004   -1683.9293   -2524.5984   -2527.1761 -0.013305434 8.2933926e-13 -3.4742591e-12 0.0088208972   -34.501523 
      33   -34.501523        2.691        4.661      39.5437            0            0      -0.0004   -1683.9289    -2524.599    -2527.175 -0.012674632 4.057038e-12 -1.0983142e-12 0.0073737068   -34.501523 
      34   -34.501523        2.691        4.661      39.5437            0            0      -0.0004   -1683.9264   -2524.5988    -2527.172 -0.0085290255 -7.5985408e-12 -8.0692469e-13 0.0048840855   -34.501523 
      35   -34.501523        2.691        4.661      39.5437            0            0      -0.0004   -1683.9221   -2524.5984   -2527.1667 -0.0012301871 -2.3759449e-12 -1.4345328e-12 0.00071771992   -34.501523 
      36   -34.501523        2.691        4.661      39.5437            0            0      -0.0004   -1683.9219   -2524.5985   -2527.1664 -0.00080787419 7.217493e-12 -1.4793619e-12 0.00040286114   -34.501523 
      37   -34.501523        2.691        4.661      39.5437            0            0      -0.0004   -1683.9219   -2524.5986   -2527.1663 -0.00089261322            0 1.5690202e-12 0.00025102145   -34.501523 
      38   -34.501523        2.691        4.661      39.5437            0            0      -0.0004   -1683.9219   -2524.5986   -2527.1663 -0.00080767283 -2.3087012e-12 -2.2414575e-14 0.00023254595   -34.501523 
      39   -34.501523        2.691        4.661      39.5437            0            0      -0.0004   -1683.9217   -2524.5985   -2527.1662 -0.00055740773 -3.8104777e-13 2.1293846e-12 0.0002303067   -34.501523 
      40   -34.501523        2.691        4.661      39.5437            0            0      -0.0004   -1683.9216   -2524.5984   -2527.1661 -0.0003843528 1.5690202e-12 2.2190429e-12 0.00023061255   -34.501523 
      41   -34.501523        2.691        4.661      39.5437            0            0      -0.0004   -1683.9216   -2524.5984   -2527.1661 -0.00032353818 5.7829603e-12 5.9174477e-12 0.00022966232   -34.501523 
      42   -34.501523        2.691        4.661      39.5437            0            0      -0.0004   -1683.9216   -2524.5984   -2527.1661 -0.00032353818 5.7829603e-12 5.9174477e-12 0.00022966232   -34.501523 
Loop time of 0.00313497 on 1 procs for 42 steps with 18 atoms

100.0% CPU use with 1 MPI tasks x no OpenMP threads

Minimization stats:
  Stopping criterion = linesearch alpha is zero
  Energy initial, next-to-last, final = 
        -34.4967394012     -34.5015227785     -34.5015227785
  Force two-norm initial, final = 0.203189 7.85625e-09
  Force max component initial, final = 0.0726816 2.96749e-09
  Final line search alpha, max atom move = 0.5 1.48375e-09
  Iterations, force evaluations = 42 82

MPI task timing breakdown:
Section |  min time  |  avg time  |  max time  |%varavg| %total
---------------------------------------------------------------
Pair    | 0.0024092  | 0.0024092  | 0.0024092  |   0.0 | 76.85
Neigh   | 0          | 0          | 0          |   0.0 |  0.00
Comm    | 0.00019598 | 0.00019598 | 0.00019598 |   0.0 |  6.25
Output  | 0.00042701 | 0.00042701 | 0.00042701 |   0.0 | 13.62
Modify  | 0          | 0          | 0          |   0.0 |  0.00
Other   |            | 0.0001028  |            |       |  3.28

Nlocal:    18 ave 18 max 18 min
Histogram: 1 0 0 0 0 0 0 0 0 0
Nghost:    490 ave 490 max 490 min
Histogram: 1 0 0 0 0 0 0 0 0 0
Neighs:    618 ave 618 max 618 min
Histogram: 1 0 0 0 0 0 0 0 0 0

Total # of neighbors = 618
Ave neighs/atom = 34.3333
Neighbor list builds = 0
Dangerous builds = 0
pypospack:output_section:begin
tot_energy = -34.5015227784981
num_atoms = 18
a11 = 2.691
a22 = 4.661
a33 = 39.5437
a12 = 0
a13 = 0
a23 = -0.0004
tot_press = -1683.9215990799
pxx = -2524.59837653932
pyy = -2527.16609716219
pzz = -0.00032353818401662
pxy = 5.78296025042621e-12
pxz = 5.91744769811054e-12
pyz = 0.000229662317958202
pypospack:output_section:done
pypospack:lammps_sim:done
Total wall time: 0:00:00
