# ['Ni']

28 atoms
1 atom types

    0.0000     2.1518 xlo xhi
    0.0000     3.7270 ylo yhi
    0.0000    24.5969 zlo zhi

    0.0000     0.0000     0.0000 xy xz yz

Atoms

1 1     0.0000     0.0000     0.0000
2 1     1.0759     1.8635     0.0000
3 1     1.0759     0.6212     1.7569
4 1     0.0000     2.4847     1.7569
5 1     0.0000     1.2423     3.5138
6 1     1.0759     3.1058     3.5138
7 1     0.0000     0.0000     5.2708
8 1     1.0759     1.8635     5.2708
9 1     1.0759     0.6212     7.0277
10 1     0.0000     2.4847     7.0277
11 1     0.0000     1.2423     8.7846
12 1     1.0759     3.1058     8.7846
13 1     0.0000     0.0000    10.5415
14 1     1.0759     1.8635    10.5415
15 1     0.0000     1.2423    12.2984
16 1     1.0759     3.1058    12.2984
17 1     0.0000     0.0000    14.0554
18 1     1.0759     1.8635    14.0554
19 1     1.0759     0.6212    15.8123
20 1     0.0000     2.4847    15.8123
21 1     0.0000     1.2423    17.5692
22 1     1.0759     3.1058    17.5692
23 1     0.0000     0.0000    19.3261
24 1     1.0759     1.8635    19.3261
25 1     1.0759     0.6212    21.0831
26 1     0.0000     2.4847    21.0831
27 1     0.0000     1.2423    22.8400
28 1     1.0759     3.1058    22.8400
