# ['Ni']

10 atoms
1 atom types

    0.0000     3.3542 xlo xhi
    0.0000     2.4011 ylo yhi
    0.0000    24.0111 zlo zhi

    0.0000     0.0000     0.0000 xy xz yz

Atoms

1 1     0.0000     0.0000     0.0000
2 1     1.6771     1.2006     1.2006
3 1     0.0000     0.0000     2.4011
4 1     1.6771     1.2006     3.6017
5 1     0.0000     0.0000     4.8022
6 1     1.6771     1.2006     6.0028
7 1     0.0000     0.0000     7.2033
8 1     1.6771     1.2006     8.4039
9 1     0.0000     0.0000     9.6044
10 1     1.6771     1.2006    10.8050
