    1    1   40    2
  0.4316967E+02  0.3508000E-09  0.3508000E-09  0.3508000E-09  0.5000000E-15
  1.000000000000000E-004
  CAR 
 automatically generated by pyflamestk   
     10      4     16
