# ['Ni']

20 atoms
1 atom types

    0.0000     3.5179 xlo xhi
    0.0000     3.5179 ylo yhi
    0.0000    35.1792 zlo zhi

    0.0000    -0.0000     0.0000 xy xz yz

Atoms

1 1     0.0000     0.0000     0.0000
2 1     1.7590     1.7590     0.0000
3 1     1.7590     0.0000     1.7590
4 1     0.0000     1.7590     1.7590
5 1     0.0000     0.0000     3.5179
6 1     1.7590     1.7590     3.5179
7 1     1.7590     0.0000     5.2769
8 1     0.0000     1.7590     5.2769
9 1     0.0000     0.0000     7.0358
10 1     1.7590     1.7590     7.0358
11 1     1.7590     0.0000     8.7948
12 1     0.0000     1.7590     8.7948
13 1     0.0000     0.0000    10.5538
14 1     1.7590     1.7590    10.5538
15 1     1.7590     0.0000    12.3127
16 1     0.0000     1.7590    12.3127
17 1     0.0000     0.0000    14.0717
18 1     1.7590     1.7590    14.0717
19 1     1.7590     0.0000    15.8306
20 1     0.0000     1.7590    15.8306
