LAMMPS (11 Aug 2017)
Reading data file ...
  triclinic box = (0 0 0) to (3.5167 3.5167 3.5167) with tilt (0 -0 0)
  1 by 1 by 1 MPI processor grid
  reading atoms ...
  4 atoms
4 atoms in group Ni
Neighbor list info ...
  update every 1 steps, delay 0 steps, check yes
  max neighbors/atom: 2000, page size: 100000
  master list distance cutoff = 11
  ghost atom cutoff = 11
  binsize = 5.5, bins = 1 1 1
  1 neighbor lists, perpetual/occasional/extra = 1 0 0
  (1) pair eam/alloy, perpetual
      attributes: half, newton on
      pair build: half/bin/newton/tri
      stencil: half/bin/3d/newton/tri
      bin: standard
Setting up cg style minimization ...
  Unit style    : metal
  Current step  : 0
WARNING: Energy due to 3 extra global DOFs will be included in minimizer energies
Per MPI rank memory allocation (min/avg/max) = 4.307 | 4.307 | 4.307 Mbytes
Step PotEng Xhi Xlo Yhi Ylo Zhi Xy Xz Yz Press Pxx Pyy Pzz Pxy Pxz Pyz c_eatoms 
       0   -18.141314       3.5167            0       3.5167            0       3.5167            0           -0            0    6593.4557    6593.4557    6593.4557    6593.4557 -8.2036994e-12 2.0743217e-12 -1.9146529e-12   -18.141314 
      10    -18.14163    3.5187737 -0.0020736643    3.5187737 -0.0020736643    3.5187737            0           -0            0 2.0992489e-11 -1.4088868e-10 1.0791235e-10 9.5953802e-11 -7.817114e-12 -9.4758756e-11 -2.9981964e-11    -18.14163 
      18    -18.14163    3.5187737 -0.0020736643    3.5187737 -0.0020736643    3.5187737            0           -0            0 -1.8666376e-10 -2.746241e-10 -7.1335825e-11 -2.1403135e-10 5.9830755e-11 -5.0687536e-11 -5.1499821e-11    -18.14163 
Loop time of 0.00972915 on 1 procs for 18 steps with 4 atoms

37.0% CPU use with 1 MPI tasks x no OpenMP threads

Minimization stats:
  Stopping criterion = energy tolerance
  Energy initial, next-to-last, final = 
        -18.1413137116     -18.1416295889     -18.1416295889
  Force two-norm initial, final = 0.310006 1.04901e-14
  Force max component initial, final = 0.178982 7.47236e-15
  Final line search alpha, max atom move = 1 7.47236e-15
  Iterations, force evaluations = 18 35

MPI task timing breakdown:
Section |  min time  |  avg time  |  max time  |%varavg| %total
---------------------------------------------------------------
Pair    | 0.0085969  | 0.0085969  | 0.0085969  |   0.0 | 88.36
Neigh   | 0          | 0          | 0          |   0.0 |  0.00
Comm    | 0.00027299 | 0.00027299 | 0.00027299 |   0.0 |  2.81
Output  | 1.9073e-05 | 1.9073e-05 | 1.9073e-05 |   0.0 |  0.20
Modify  | 0          | 0          | 0          |   0.0 |  0.00
Other   |            | 0.0008402  |            |       |  8.64

Nlocal:    4 ave 4 max 4 min
Histogram: 1 0 0 0 0 0 0 0 0 0
Nghost:    1684 ave 1684 max 1684 min
Histogram: 1 0 0 0 0 0 0 0 0 0
Neighs:    1060 ave 1060 max 1060 min
Histogram: 1 0 0 0 0 0 0 0 0 0

Total # of neighbors = 1060
Ave neighs/atom = 265
Neighbor list builds = 0
Dangerous builds = 0
pypospack:output_section:begin
tot_energy = -18.141629588898
num_atoms = 4
a11 = 3.52084732857334
a22 = 3.52084732857334
a33 = 3.52084732857334
a12 = 0
a13 = -0
a23 = 0
tot_press = -1.86663758925379e-10
pxx = -2.74624102901321e-10
pyy = -7.13358254673352e-11
pzz = -2.14031348407481e-10
pxy = 5.98307547931671e-11
pxz = -5.0687535721646e-11
pyz = -5.14998213237912e-11
pypospack:output_section:done
pypospack:lammps_sim:done
Total wall time: 0:00:00
