LAMMPS (11 Aug 2017)
Reading data file ...
  triclinic box = (0 0 0) to (10.5538 10.5538 10.5538) with tilt (0 -0 -0)
  1 by 1 by 1 MPI processor grid
  reading atoms ...
  107 atoms
107 atoms in group Ni
Neighbor list info ...
  update every 1 steps, delay 0 steps, check yes
  max neighbors/atom: 2000, page size: 100000
  master list distance cutoff = 11
  ghost atom cutoff = 11
  binsize = 5.5, bins = 2 2 2
  1 neighbor lists, perpetual/occasional/extra = 1 0 0
  (1) pair eam/alloy, perpetual
      attributes: half, newton on
      pair build: half/bin/newton/tri
      stencil: half/bin/3d/newton/tri
      bin: standard
Setting up cg style minimization ...
  Unit style    : metal
  Current step  : 0
Per MPI rank memory allocation (min/avg/max) = 4.384 | 4.384 | 4.384 Mbytes
Step PotEng Lx Ly Lz Xy Xz Yz Press Pxx Pyy Pzz Pxy Pxz Pyz c_eatoms 
       0   -476.95794      10.5538      10.5538      10.5538            0           -0           -0   -6505.8585   -6505.8585   -6505.8585   -6505.8585 -0.00011446883 -0.00011446884 -0.00011446885   -476.95794 
       1   -477.03829      10.5538      10.5538      10.5538            0           -0           -0   -8158.6957   -8158.6957   -8158.6957   -8158.6957 -3.2092106e-05 -3.2092127e-05 -3.2092121e-05   -477.03829 
       2   -477.04959      10.5538      10.5538      10.5538            0           -0           -0   -8266.4903   -8266.4903   -8266.4903   -8266.4903 -9.6881416e-05 -9.6881434e-05 -9.6881423e-05   -477.04959 
       3    -477.0516      10.5538      10.5538      10.5538            0           -0           -0   -8419.8075   -8419.8075   -8419.8075   -8419.8075 -1.1233897e-05 -1.123389e-05 -1.1233902e-05    -477.0516 
       4   -477.05164      10.5538      10.5538      10.5538            0           -0           -0   -8428.8583   -8428.8583   -8428.8583   -8428.8583 -3.7408008e-05 -3.7408037e-05 -3.7408029e-05   -477.05164 
       5   -477.05165      10.5538      10.5538      10.5538            0           -0           -0   -8437.3814   -8437.3814   -8437.3814   -8437.3814 -5.8911131e-06 -5.8910911e-06 -5.8910995e-06   -477.05165 
       6   -477.05165      10.5538      10.5538      10.5538            0           -0           -0   -8435.8346   -8435.8346   -8435.8346   -8435.8346 -5.1167041e-06 -5.1167071e-06 -5.1167043e-06   -477.05165 
       7   -477.05165      10.5538      10.5538      10.5538            0           -0           -0   -8435.5823   -8435.5823   -8435.5823   -8435.5823 -5.530122e-06 -5.530139e-06 -5.5301379e-06   -477.05165 
       8   -477.05165      10.5538      10.5538      10.5538            0           -0           -0   -8435.5442   -8435.5442   -8435.5442   -8435.5442 -4.3613376e-06 -4.3613545e-06 -4.3613236e-06   -477.05165 
       9   -477.05165      10.5538      10.5538      10.5538            0           -0           -0   -8435.4872   -8435.4872   -8435.4872   -8435.4872 -2.2932195e-06 -2.2932104e-06 -2.2932237e-06   -477.05165 
      10   -477.05165      10.5538      10.5538      10.5538            0           -0           -0   -8435.4827   -8435.4827   -8435.4827   -8435.4827 -1.9158241e-06 -1.915834e-06 -1.9158239e-06   -477.05165 
      11   -477.05165      10.5538      10.5538      10.5538            0           -0           -0   -8435.4797   -8435.4797   -8435.4797   -8435.4797 -1.3434543e-06 -1.3434382e-06 -1.3434267e-06   -477.05165 
      12   -477.05165      10.5538      10.5538      10.5538            0           -0           -0   -8435.4801   -8435.4801   -8435.4801   -8435.4801 -8.3529795e-07 -8.3526972e-07 -8.3530577e-07   -477.05165 
      13   -477.05165      10.5538      10.5538      10.5538            0           -0           -0     -8435.48     -8435.48     -8435.48     -8435.48 -5.2884811e-08 -5.2869792e-08 -5.287078e-08   -477.05165 
      14   -477.05165      10.5538      10.5538      10.5538            0           -0           -0   -8435.4799   -8435.4799   -8435.4799   -8435.4799 2.5761942e-07 2.5763855e-07 2.5764523e-07   -477.05165 
      15   -477.05165      10.5538      10.5538      10.5538            0           -0           -0     -8435.48     -8435.48     -8435.48     -8435.48 2.425142e-07 2.4252207e-07 2.4252814e-07   -477.05165 
      16   -477.05165      10.5538      10.5538      10.5538            0           -0           -0   -8435.4801   -8435.4801   -8435.4801   -8435.4801 1.4606881e-07 1.4607271e-07 1.4608345e-07   -477.05165 
      17   -477.05165      10.5538      10.5538      10.5538            0           -0           -0   -8435.4801   -8435.4801   -8435.4801   -8435.4801 4.6259498e-08 4.6265091e-08 4.6279572e-08   -477.05165 
      18   -477.05165      10.5538      10.5538      10.5538            0           -0           -0     -8435.48     -8435.48     -8435.48     -8435.48 2.4220981e-09 2.435266e-09 2.3973482e-09   -477.05165 
      19   -477.05165      10.5538      10.5538      10.5538            0           -0           -0     -8435.48     -8435.48     -8435.48     -8435.48 7.1519529e-09 7.1611729e-09 7.1631979e-09   -477.05165 
      20   -477.05165      10.5538      10.5538      10.5538            0           -0           -0     -8435.48     -8435.48     -8435.48     -8435.48 1.9551266e-08 1.9581588e-08 1.9566787e-08   -477.05165 
      21   -477.05165      10.5538      10.5538      10.5538            0           -0           -0     -8435.48     -8435.48     -8435.48     -8435.48 1.6363151e-08 1.6376361e-08 1.6370667e-08   -477.05165 
      22   -477.05165      10.5538      10.5538      10.5538            0           -0           -0     -8435.48     -8435.48     -8435.48     -8435.48 7.3004345e-09 7.3066379e-09 7.2886103e-09   -477.05165 
      23   -477.05165      10.5538      10.5538      10.5538            0           -0           -0     -8435.48     -8435.48     -8435.48     -8435.48 4.9026434e-09 4.8857645e-09 4.8897077e-09   -477.05165 
      24   -477.05165      10.5538      10.5538      10.5538            0           -0           -0     -8435.48     -8435.48     -8435.48     -8435.48 3.2153547e-09 3.2388643e-09 3.2258479e-09   -477.05165 
      25   -477.05165      10.5538      10.5538      10.5538            0           -0           -0     -8435.48     -8435.48     -8435.48     -8435.48 2.0775926e-09 2.0336518e-09 2.0389297e-09   -477.05165 
      26   -477.05165      10.5538      10.5538      10.5538            0           -0           -0     -8435.48     -8435.48     -8435.48     -8435.48 1.5805719e-09 1.5742034e-09 1.561663e-09   -477.05165 
      27   -477.05165      10.5538      10.5538      10.5538            0           -0           -0     -8435.48     -8435.48     -8435.48     -8435.48 1.094958e-09 1.0943724e-09 1.0746439e-09   -477.05165 
      28   -477.05165      10.5538      10.5538      10.5538            0           -0           -0     -8435.48     -8435.48     -8435.48     -8435.48 7.3342021e-10 7.1275655e-10 6.9784209e-10   -477.05165 
      29   -477.05165      10.5538      10.5538      10.5538            0           -0           -0     -8435.48     -8435.48     -8435.48     -8435.48 4.0355904e-10 3.9986919e-10 3.963421e-10   -477.05165 
      30   -477.05165      10.5538      10.5538      10.5538            0           -0           -0     -8435.48     -8435.48     -8435.48     -8435.48 1.1765264e-10 1.2410347e-10 1.0548646e-10   -477.05165 
      31   -477.05165      10.5538      10.5538      10.5538            0           -0           -0     -8435.48     -8435.48     -8435.48     -8435.48 -7.5722977e-12 -1.2735364e-11 -2.0707781e-11   -477.05165 
      32   -477.05165      10.5538      10.5538      10.5538            0           -0           -0     -8435.48     -8435.48     -8435.48     -8435.48 -2.0657682e-11 -3.0290811e-11 -5.2402369e-11   -477.05165 
      33   -477.05165      10.5538      10.5538      10.5538            0           -0           -0     -8435.48     -8435.48     -8435.48     -8435.48 -2.8900063e-11 5.1097507e-12 -3.595511e-11   -477.05165 
      34   -477.05165      10.5538      10.5538      10.5538            0           -0           -0     -8435.48     -8435.48     -8435.48     -8435.48 -2.2917056e-11 -2.2439751e-11 -3.7530614e-11   -477.05165 
      35   -477.05165      10.5538      10.5538      10.5538            0           -0           -0     -8435.48     -8435.48     -8435.48     -8435.48 -1.6105767e-11 -3.6521016e-11 -3.3072022e-11   -477.05165 
      36   -477.05165      10.5538      10.5538      10.5538            0           -0           -0     -8435.48     -8435.48     -8435.48     -8435.48 -3.2595568e-11 -2.9974697e-11 -2.8749985e-11   -477.05165 
Loop time of 0.130139 on 1 procs for 36 steps with 107 atoms

98.8% CPU use with 1 MPI tasks x no OpenMP threads

Minimization stats:
  Stopping criterion = energy tolerance
  Energy initial, next-to-last, final = 
        -476.957939106     -477.051649428     -477.051649428
  Force two-norm initial, final = 0.83908 3.7168e-14
  Force max component initial, final = 0.166912 7.93809e-15
  Final line search alpha, max atom move = 1 7.93809e-15
  Iterations, force evaluations = 36 72

MPI task timing breakdown:
Section |  min time  |  avg time  |  max time  |%varavg| %total
---------------------------------------------------------------
Pair    | 0.1279     | 0.1279     | 0.1279     |   0.0 | 98.28
Neigh   | 0          | 0          | 0          |   0.0 |  0.00
Comm    | 0.0011046  | 0.0011046  | 0.0011046  |   0.0 |  0.85
Output  | 0.00071788 | 0.00071788 | 0.00071788 |   0.0 |  0.55
Modify  | 0          | 0          | 0          |   0.0 |  0.00
Other   |            | 0.0004208  |            |       |  0.32

Nlocal:    107 ave 107 max 107 min
Histogram: 1 0 0 0 0 0 0 0 0 0
Nghost:    3259 ave 3259 max 3259 min
Histogram: 1 0 0 0 0 0 0 0 0 0
Neighs:    28093 ave 28093 max 28093 min
Histogram: 1 0 0 0 0 0 0 0 0 0

Total # of neighbors = 28093
Ave neighs/atom = 262.551
Neighbor list builds = 0
Dangerous builds = 0
pypospack:output_section:begin
tot_energy = -477.051649427774
num_atoms = 107
a11 = 10.5538
a22 = 10.5538
a33 = 10.5538
a12 = 0
a13 = -0
a23 = -0
tot_press = -8435.48002566091
pxx = -8435.48002566089
pyy = -8435.48002566091
pzz = -8435.48002566093
pxy = -3.25955679798769e-11
pxz = -2.99746965663768e-11
pyz = -2.87499845799644e-11
pypospack:output_section:done
pypospack:lammps_sim:done
Total wall time: 0:00:00
