LAMMPS (10 Feb 2015)
Reading data file ...
  triclinic box = (0 0 0) to (4.2565 4.2565 4.2565) with tilt (0 0 0)
  1 by 1 by 1 MPI processor grid
  reading atoms ...
  8 atoms
4 atoms in group Mg
4 atoms in group O
Setting atom values ...
  4 settings made for charge
Setting atom values ...
  4 settings made for charge
PPPM initialization ...
  G vector (1/distance) = 0.352653
  grid = 8 8 8
  stencil order = 5
  estimated absolute RMS force accuracy = 3.87471e-05
  estimated relative force accuracy = 2.69083e-06
  using double precision FFTs
  3d grid and FFT values/proc = 3375 512
Neighbor list info ...
  1 neighbor list requests
  update every 1 steps, delay 0 steps, check yes
  master list distance cutoff = 11
Setting up minimization ...
Memory usage per processor = 4.06549 Mbytes
Step PotEng Lx Ly Lz Xy Xz Yz Press Pxx Pyy Pzz Pxy Pxz Pyz eatoms 
       0   -109.00108       4.2565       4.2565       4.2565            0            0            0    61252.417    61252.417    61252.417    61252.417 -3.6848803e-11 -3.3369169e-11 3.6549969e-10   -109.00108 
      10    -109.0509     4.299065     4.299065     4.299065            0            0            0    8703.9294    8703.9294    8703.9294    8703.9294 1.5032756e-10 -1.0327816e-11 -1.1009458e-10    -109.0509 
      15   -109.05203    4.3066964    4.3066964    4.3066964            0            0            0 0.0034250328 0.0034250327  0.003425033 0.0034250328 -1.8553982e-10 4.3823803e-11 -1.4551403e-10   -109.05203 
Loop time of 0.00846791 on 1 procs for 15 steps with 8 atoms

Minimization stats:
  Stopping criterion = linesearch alpha is zero
  Energy initial, next-to-last, final = 
        -109.001077098     -109.052033723     -109.052033723
  Force two-norm initial, final = 8.84488 3.43431e-05
  Force max component initial, final = 8.84488 7.26821e-06
  Final line search alpha, max atom move = 0.5 3.63411e-06
  Iterations, force evaluations = 15 22

Pair  time (%) = 0.00230336 (27.2011)
Kspce time (%) = 0.00149035 (17.6)
Neigh time (%) = 0 (0)
Comm  time (%) = 0.000314951 (3.71935)
Outpt time (%) = 1.5974e-05 (0.188642)
Other time (%) = 0.00434327 (51.2909)

Nlocal:    8 ave 8 max 8 min
Histogram: 1 0 0 0 0 0 0 0 0 0
Nghost:    2189 ave 2189 max 2189 min
Histogram: 1 0 0 0 0 0 0 0 0 0
Neighs:    2344 ave 2344 max 2344 min
Histogram: 1 0 0 0 0 0 0 0 0 0

Total # of neighbors = 2344
Ave neighs/atom = 293
Neighbor list builds = 0
Dangerous builds = 0
pypospack:output_section:begin
tot_energy = -109.052033723467
num_atoms = 8
xx = 4.30669636930156
yy = 4.30669636930156
zz = 4.30669636930156
xy = 0
xz = 0
yz = 0
tot_press = 0.00342503281246904
pxx = 0.00342503266517326
pyy = 0.00342503296687446
pzz = 0.00342503280535941
pxy = -1.85539817051957e-10
pxz = 4.38238030577261e-11
pyz = -1.45514027090344e-10
pypospack:output_section:done
pypospack:lammps_sim:done
PPPM initialization ...
  G vector (1/distance) = 0.352152
  grid = 8 8 8
  stencil order = 5
  estimated absolute RMS force accuracy = 3.96483e-05
  estimated relative force accuracy = 2.75342e-06
  using double precision FFTs
  3d grid and FFT values/proc = 3375 512
Setting up run ...
Memory usage per processor = 3.06549 Mbytes
Step Temp PotEng KinEng TotEng Press Lx Ly Lz Press Pxx Pyy Pzz Pxy Pxz Pyz Volume 
       0          900   -109.05204   0.81433891    -108.2377    10887.634    4.3066964    4.3066964    4.3066964    10887.634    16495.894    10901.665    5265.3421    3911.3468    1120.6466    386.76478    79.879026 
     100    318.66513   -108.41808    0.2883349   -108.12975    11012.148    4.3409935    4.3409935    4.3409935    11012.148    52243.165    6592.7824   -25799.504    -6105.983    632.30376    1281.8413    81.802654 
     200    381.23659   -108.25859   0.34495088   -107.91364   -13980.416    4.3622527    4.3622527    4.3622527   -13980.416    53006.083   -40650.103   -54297.227   -3845.6701   -3789.9966    606.41188    83.010392 
     300    937.81223   -108.56298   0.84855222   -107.71443    5723.8716    4.3299815    4.3299815    4.3299815    5723.8716    13642.001    25984.693    -22455.08   -4618.9027   -2540.4281   -958.47017    81.181698 
     400    653.60045    -108.1699   0.59139142    -107.5785    11755.739    4.3488706    4.3488706    4.3488706    11755.739    77925.032   -7404.6282   -35253.187    7945.0306   -2789.7034    1103.5014    82.248778 
     500    672.58691   -108.07893   0.60857077   -107.47036    -8470.927    4.3794946    4.3794946    4.3794946    -8470.927    71257.465   -41602.617   -55067.629    7874.9973    1582.8106    2146.2202    83.998585 
     600    1254.8224   -108.54325    1.1353897   -107.40787    -2162.398    4.3457151    4.3457151    4.3457151    -2162.398    8218.8811    14036.707   -28742.782    204.35817    509.46121   -4629.5148    82.069871 
     700    677.82324   -108.02545   0.61330871   -107.41214    16457.573     4.350409     4.350409     4.350409    16457.573    87921.719   -1389.7297   -37159.271   -10693.608    4156.2122   -12.831359    82.336096 
     800    811.63236   -108.14106   0.73438202   -107.40668   -13065.254    4.3775496    4.3775496    4.3775496   -13065.254    57593.247   -39504.615   -57284.396   -1126.5826    1235.0812   -1224.9018    83.886724 
     900    1091.0062    -108.3849    0.9871653   -107.39774   -3177.3492    4.3547701    4.3547701    4.3547701   -3177.3492   -9774.3244    25710.295   -25468.018    6673.9889    948.00462   -7860.1968    82.583957 
    1000    951.69575   -108.26703   0.86111431   -107.40592      1167.37    4.3469457    4.3469457    4.3469457      1167.37     35870.68   -6491.5298    -25877.04   -10503.579   -9215.0174    3029.5006     82.13961 
    1100    398.34932   -107.77964   0.36043483    -107.4192    23880.083    4.3677746    4.3677746    4.3677746    23880.083    83604.852    36548.958   -48513.561   -12919.715   -7293.6028   -1699.0979    83.326026 
    1200    1117.3443   -108.41781    1.0109966   -107.40681   -11505.694     4.366195     4.366195     4.366195   -11505.694    25721.838   -30415.535   -29823.384    6624.0669    -4675.925   -7225.0294    83.235652 
    1300    1172.8087   -108.46105     1.061182   -107.39987   -543.48984     4.341589     4.341589     4.341589   -543.48984   -12781.557    5066.5461    6084.5416   -1303.3749    3072.9687    9061.9446    81.836327 
    1400    715.45018   -108.06795   0.64735436    -107.4206    14691.986    4.3592311    4.3592311    4.3592311    14691.986    74289.609    6627.3536   -36841.003   -3060.2635    8455.1402    3703.0585    82.838012 
    1500    558.84523   -107.91379   0.50565491   -107.40813    -15300.17    4.3776176    4.3776176    4.3776176    -15300.17    33256.318     -26441.5   -52715.327    -2655.971    2892.3691   -8107.4623     83.89063 
    1600      914.431   -108.21882   0.82739638   -107.39142     18274.98    4.3331052    4.3331052    4.3331052     18274.98    27494.506    12349.142    14981.293     4930.636    6805.1894     10259.56    81.357521 
    1700    1324.0082   -108.61683    1.1979904   -107.41884   -4211.2816    4.3520951    4.3520951    4.3520951   -4211.2816    18542.783     -9099.47   -22077.158   -11394.255   -3142.1332   -2003.4953    82.431865 
    1800    947.23284   -108.25933   0.85707618   -107.40226   -32130.142    4.3820792    4.3820792    4.3820792   -32130.142     7156.224   -39620.731    -63925.92    -14366.63    843.77527   -8470.6852    84.147392 
    1900    431.86532    -107.7788   0.39076082   -107.38804    37501.486    4.3372322    4.3372322    4.3372322    37501.486    74578.997    36448.787     1476.674   -3247.8839   -12652.894    9741.4027    81.590207 
    2000    945.50918   -108.26155   0.85551658   -107.40603    15433.223    4.3459259    4.3459259    4.3459259    15433.223    9389.9661    41522.048   -4612.3464    15587.569    1283.7168   -6467.1487    82.081816 
    2100     1287.026   -108.56769    1.1645281   -107.40316   -32922.378    4.3717124    4.3717124    4.3717124   -32922.378   -48347.869   -18936.593   -31482.672   -7553.7921    6231.7466   -1291.3668    83.551597 
    2200    962.37618   -108.26905    0.8707782   -107.39827   -819.44529    4.3545434    4.3545434    4.3545434   -819.44529   -4568.9467    18257.956   -16147.345   -1792.1146    1345.2798   -3455.8373    82.571064 
    2300    865.65033   -108.18173   0.78325861   -107.39847    17285.365    4.3469515    4.3469515    4.3469515    17285.365    50179.884     17415.95   -15739.738   -2218.5978    4517.3428   -6371.9714    82.139938 
    2400    777.53482   -108.11516   0.70352984   -107.41163   -6530.7774    4.3647563    4.3647563    4.3647563   -6530.7774    29394.924    2054.9131   -51042.169    3934.7308    990.64961    1778.9562    83.153396 
    2500    840.17732   -108.16939   0.76021009   -107.40918   -589.00302    4.3574933    4.3574933    4.3574933   -589.00302    19389.849     2296.927   -23453.785    2042.0341   -2553.3178   -1763.7481    82.738982 
    2600    1076.9361    -108.3803   0.97443439   -107.40587    11615.941    4.3402112    4.3402112    4.3402112    11615.941    6226.0484    30796.314   -2174.5383    2787.2997   -3329.7822    6408.2582    81.758437 
    2700     808.1157   -108.14854   0.73120007   -107.41734   -22593.925    4.3597518    4.3597518    4.3597518   -22593.925    6211.9405   -16892.911   -57100.804   -8913.3534   -310.35071    440.48902    82.867703 
    2800    1038.1364   -108.34526   0.93932759   -107.40593   -15661.485    4.3594646    4.3594646    4.3594646   -15661.485    10451.766   -11782.664   -45653.555    4740.1654   -7947.2563    60.498367    82.851327 
    2900    709.17061   -108.04214   0.64167247   -107.40047    27244.855    4.3488366    4.3488366    4.3488366    27244.855    47338.118    40190.123   -5793.6757    17641.105    4616.2014    3673.2667    82.246851 
    3000     922.5539   -108.23857   0.83474616   -107.40383   -18410.478    4.3580155    4.3580155    4.3580155   -18410.478   -34091.353   -1756.5481   -19383.534   -7482.9785    5490.0834   -8886.6695    82.768733 
    3100    819.76578     -108.142    0.7417413   -107.40026    1963.7798    4.3608592    4.3608592    4.3608592    1963.7798    20138.801    22439.191   -36686.653    8298.9101   -4009.0766    4428.9471    82.930864 
    3200    1073.9601   -108.37352   0.97174169   -107.40178   -9897.5928    4.3530754    4.3530754    4.3530754   -9897.5928   -5355.1348    760.43192   -25098.076   -14305.326    1281.8674   -530.93149    82.487579 
    3300     826.8977   -108.15718   0.74819441   -107.40898     6053.055    4.3458278    4.3458278    4.3458278     6053.055    20625.837    12399.583   -14866.255      11379.4    3687.5611    2945.5798    82.076257 
    3400    1084.8847   -108.39512   0.98162644    -107.4135   -9995.4196    4.3611767    4.3611767    4.3611767   -9995.4196   -16801.705    19036.781   -32221.334    7372.7363    -936.7023   -2850.1125    82.948979 
    3500    866.72939   -108.19716   0.78423497   -107.41293   -308.09051    4.3557728    4.3557728    4.3557728   -308.09051    1902.6861    20237.276   -23064.234   -7246.0307    -4689.105    948.04019    82.641017 
    3600    712.59724   -108.06154   0.64477296   -107.41677   -1533.3122    4.3505699    4.3505699    4.3505699   -1533.3122    14997.683   -5654.5642   -13943.055    -5804.876    1587.2164    2377.7381    82.345231 
    3700    1322.7207    -108.6044    1.1968255   -107.40757    -13011.24    4.3564636    4.3564636    4.3564636    -13011.24   -3971.2518   -3136.3854   -31926.084    3542.0655   -3516.0944   -8694.0611    82.680342 
    3800     584.4736   -107.93649     0.528844   -107.40764    24450.694    4.3573575    4.3573575    4.3573575    24450.694    29972.332    52283.536   -8903.7864    5129.7272    -5500.826    15137.963    82.731251 
    3900    939.85622   -108.25312   0.85040166   -107.40272   -13774.932    4.3564914    4.3564914    4.3564914   -13774.932   -43615.716    4760.8317   -2469.9112    -3962.724    2015.1039    8588.6056    82.681926 
    4000    961.42761   -108.27204   0.86991991   -107.40212   -3671.6118    4.3578127    4.3578127    4.3578127   -3671.6118   -12144.532    31384.604   -30254.907   -3120.4791    1546.5877    4771.1871    82.757178 
    4100    709.14087   -108.04391   0.64164556   -107.40227    9716.4577    4.3538921    4.3538921    4.3538921    9716.4577     18469.06   -8663.8709    19344.184   -42.238447    2758.0118    4301.5535    82.534016 
    4200    937.48272   -108.25148   0.84825407   -107.40322      1842.74    4.3535029    4.3535029    4.3535029      1842.74   -24577.168    37642.435    -7537.048    9256.5358    5980.0739   -12181.049    82.511886 
    4300    1000.6218   -108.30711   0.90538367   -107.40172   -2252.9246     4.360596     4.360596     4.360596   -2252.9246    13919.814   -3938.4079    -16740.18     8400.758    7210.2778    7512.8664    82.915851 
    4400    809.95667   -108.13808   0.73286582   -107.40521   -5858.1871    4.3532778    4.3532778    4.3532778   -5858.1871   -5753.0604   -517.06212   -11304.439   -9388.9469    617.23082   -2300.0353    82.499087 
    4500    856.81846   -108.18495   0.77526734   -107.40968    3910.3462    4.3505335    4.3505335    4.3505335    3910.3462    5160.8807    15098.677   -8528.5195   -11195.511   -5907.6463    11474.484    82.343166 
    4600    1127.9964   -108.42734    1.0206349    -107.4067   -6577.4045    4.3596613    4.3596613    4.3596613   -6577.4045   -655.80118     19449.12   -38525.532    -2828.435   -7178.0645   -4945.2809     82.86254 
    4700    1046.8102   -108.35121   0.94717584   -107.40403     808.2428    4.3562479    4.3562479    4.3562479     808.2428    14772.956    14459.595   -26807.823    11688.099   -3237.1649    2921.3914     82.66806 
    4800    726.43781   -108.06755   0.65729619   -107.41026    6411.9089    4.3604272    4.3604272    4.3604272    6411.9089    17121.414    16953.073    -14838.76    8696.7059    8026.8357   -12846.945    82.906219 
    4900    912.90146   -108.22882   0.82601242   -107.40281   -12367.537    4.3572813    4.3572813    4.3572813   -12367.537   -11657.378   -5792.5319   -19652.702   -12885.493    5645.1504    246.53709    82.726906 
    5000    807.95108   -108.13035   0.73105111    -107.3993    14865.055    4.3485694    4.3485694    4.3485694    14865.055   -7465.5653    22016.156    30044.575    11140.262    7727.7885    1380.3055     82.23169 
    5100    1021.5404   -108.32757   0.92431124   -107.40326   -9261.9037    4.3696557    4.3696557    4.3696557   -9261.9037   -30465.306   -1402.8058    4082.4004   -3759.4424     -5895.79   -7277.9663    83.433727 
    5200    1050.1358   -108.34912   0.95018493   -107.39893   -2604.7698    4.3532669    4.3532669    4.3532669   -2604.7698    20369.843   -25612.156   -2571.9963   -2029.1832     -19251.2   -979.77175     82.49847 
    5300    606.21307   -107.95354   0.54851433   -107.40503    21036.455    4.3506303    4.3506303    4.3506303    21036.455    12077.622    33432.169    17599.574   -9203.6305    -3715.493   -10453.724    82.348658 
    5400    787.93048   -108.11066   0.71293606   -107.39772    -18962.76    4.3727517    4.3727517    4.3727517    -18962.76    10356.712   -25460.749   -41784.244   -14330.447    91.871947    2014.5444    83.611198 
    5500    1097.8632   -108.38836   0.99336973   -107.39499   -6416.8096    4.3468591    4.3468591    4.3468591   -6416.8096   -5882.6258    3560.0321   -16927.835   -913.98412   -4430.1978     1428.303    82.134704 
    5600    953.53517   -108.27387   0.86277866   -107.41109    18116.026    4.3465812    4.3465812    4.3465812    18116.026    29081.255    17398.757    7868.0666    11150.566    5653.6761    6886.6075    82.118953 
    5700    1102.4266   -108.40889   0.99749877    -107.4114    -25788.93    4.3679092    4.3679092    4.3679092    -25788.93    -5975.672   -29390.088    -42001.03    1333.2325    1595.1621     11793.89    83.333724 
    5800    784.88928   -108.11283   0.71018431   -107.40265    6172.0381    4.3535834    4.3535834    4.3535834    6172.0381    24565.728    1010.1147   -7059.7281   -12785.621   -808.94517   -1735.8852    82.516463 
    5900    956.40632   -108.26542   0.86537654   -107.40005    95.171475    4.3560462    4.3560462    4.3560462    95.171475    19075.423    1156.2011    -19946.11    9597.0469    2265.1587     -4133.32    82.656582 
    6000    638.29239   -107.98663   0.57754037   -107.40909    11485.921    4.3631219    4.3631219    4.3631219    11485.921    32654.039     44506.88   -42703.155    13936.067    3321.4721   -7082.9579    83.060024 
    6100    931.71016   -108.25273   0.84303093    -107.4097    742.39866    4.3554149    4.3554149    4.3554149    742.39866     -21661.6    48337.912   -24449.116    -3198.846    1703.1442   -5489.9957     82.62065 
    6200    983.30727   -108.29754   0.88971708   -107.40782   -2378.5299    4.3499386    4.3499386    4.3499386   -2378.5299    15387.854   -10466.362   -12057.082   -5186.8475    1243.4013   -775.78811    82.309387 
    6300    825.18509    -108.1585   0.74664481   -107.41185   -17461.556    4.3621835    4.3621835    4.3621835   -17461.556   -5928.5095   -7456.3229   -38999.834   -9219.2898   -6540.1086    974.34256    83.006442 
    6400     726.9696   -108.06115   0.65777737   -107.40337    7783.3546    4.3542394    4.3542394    4.3542394    7783.3546     43792.01    7944.4801   -28386.426   -6200.4232     2529.768    4793.9683     82.55377 
    6500     793.9281   -108.12452   0.71836283   -107.40616    21190.709    4.3539301    4.3539301    4.3539301    21190.709    16909.308    74491.009    -27828.19    15647.895   -752.56608    3891.1836    82.536176 
    6600    875.81849   -108.20284   0.79245898   -107.41038   -2967.9071    4.3595123    4.3595123    4.3595123   -2967.9071   -10177.969    20704.464   -19430.216   -1952.2593   -5109.3732    11796.804    82.854049 
    6700    869.96122    -108.1954   0.78715919   -107.40824   -6053.0292    4.3542665    4.3542665    4.3542665   -6053.0292   -12912.253    5120.7251    -10367.56   -961.22458     1441.819    1968.6191    82.555313 
    6800    1000.7609   -108.30903   0.90550953   -107.40352   -11580.184    4.3578075    4.3578075    4.3578075   -11580.184   -14221.549     11209.82   -31728.821   -340.77631    -68.87436    -8248.906    82.756882 
    6900    753.12457   -108.08368   0.68144294   -107.40224    13964.165    4.3518923    4.3518923    4.3518923    13964.165    1334.3101     30411.28    10146.904   -1223.6013    8226.7684    7055.5575    82.420345 
    7000    959.58924   -108.27087   0.86825651   -107.40261    1930.8326    4.3572733    4.3572733    4.3572733    1930.8326    19236.954    13738.225   -27182.681    15245.384   -4899.7552   -755.95061    82.726453 
    7100    1087.1099   -108.38093   0.98363993   -107.39729   -5248.1073    4.3557379    4.3557379    4.3557379   -5248.1073   -4170.3268    26406.789   -37980.784    -11727.46   -4052.3599    10874.976     82.63903 
    7200    1014.5582   -108.31474   0.91799355   -107.39675   -21511.385    4.3547456    4.3547456    4.3547456   -21511.385   -13752.895   -18811.065   -31970.196   -9716.7012   -947.55187     3991.793    82.582565 
    7300    625.49519   -107.96442   0.56596119   -107.39846    10790.193    4.3589571    4.3589571    4.3589571    10790.193    -3358.527    68504.987    -32775.88    4743.8722   -3029.3197   -448.05389    82.822394 
    7400    1113.3975   -108.40046    1.0074254   -107.39303     -7864.59    4.3571328    4.3571328    4.3571328     -7864.59   -30075.287    16080.841   -9599.3234   -8377.4003    3820.0687    -12441.47    82.718449 
    7500    924.04854   -108.23193   0.83609854   -107.39583   -8950.9124    4.3573276    4.3573276    4.3573276   -8950.9124   -15967.898   -6125.5535   -4759.2855    8768.8337   -7314.9913   -8280.7343    82.729544 
    7600     932.3588   -108.24005   0.84361784   -107.39643   -2294.1083    4.3578131    4.3578131    4.3578131   -2294.1083    -31784.95    10859.961    14042.665    6665.9066    2667.2779     191.3659      82.7572 
    7700    995.43879   -108.30555   0.90069394   -107.40486   -2696.1659    4.3555407    4.3555407    4.3555407   -2696.1659    -8753.286   -3764.0131    4428.8014    836.79837    9825.5635    5665.3871    82.627806 
    7800    448.88562   -107.81574   0.40616114   -107.40958      35327.1    4.3553671    4.3553671    4.3553671      35327.1    -15816.29    115988.85    5808.7358   -10705.714    5063.3779    10049.735    82.617928 
    7900    990.37984    -108.2999   0.89611649   -107.40379   -11238.795    4.3647611    4.3647611    4.3647611   -11238.795   -21217.791   -17506.636    5008.0409   -7705.1325    12097.014   -331.36877    83.153671 
    8000    867.45283   -108.17986   0.78488955   -107.39497    7939.0896    4.3558655    4.3558655    4.3558655    7939.0896    7967.8412    16529.885   -680.45771     -13638.2    13451.304   -4107.5133    82.646291 
    8100    838.46861   -108.15547   0.75866402    -107.3968    6121.1826    4.3563754    4.3563754    4.3563754    6121.1826   -2002.0158    18330.102    2035.4617    10721.716    4832.4463   -11779.489    82.675324 
    8200    942.57973   -108.25569   0.85286595   -107.40282   -10962.094    4.3640262    4.3640262    4.3640262   -10962.094    1406.7649    -134.6806   -34158.367    10051.624    11718.803   -3555.9399    83.111677 
    8300    642.58805   -107.98004   0.58142717   -107.39861     27161.73    4.3508073    4.3508073    4.3508073     27161.73     17845.29    76912.763   -13272.862    8058.6525    950.83202    611.34597    82.358709 
    8400     915.4837   -108.22922   0.82834889   -107.40087   -7900.2855     4.354109     4.354109     4.354109   -7900.2855   -11767.254   -15329.258    3395.6549     840.7821   -2153.3538   -6845.6052    82.546355 
    8500     1051.148   -108.35087   0.95110081   -107.39977   -19508.409    4.3606451    4.3606451    4.3606451   -19508.409    -25043.65     8073.598   -41555.175    -9012.558     2480.536    9477.3381     82.91865 
    8600    999.84711    -108.3054   0.90468268   -107.40072   -10173.399    4.3547146    4.3547146    4.3547146   -10173.399   -40801.184    38970.996   -28690.009   -900.84352   -6715.3873   -4103.0416    82.580799 
    8700    713.17918   -108.05994   0.64529951   -107.41464    18293.885    4.3519609    4.3519609    4.3519609    18293.885   -15805.077    81010.414   -10323.683    8919.6428    -30.95555     6241.911     82.42424 
    8800    1272.7469   -108.56409    1.1516082   -107.41248   -32483.822    4.3643567    4.3643567    4.3643567   -32483.822   -16499.666   -41833.335   -39118.464   -2086.0937   -7192.3871   -2700.8338    83.130562 
    8900    786.87776   -108.11761   0.71198353   -107.40563    3642.8502    4.3552235    4.3552235    4.3552235    3642.8502   -12032.023    30972.671    -8012.098    6289.5649   -1952.9133   -2000.8772    82.609754 
    9000    714.31418   -108.05204   0.64632648   -107.40571    15580.047    4.3514204    4.3514204    4.3514204    15580.047   -14752.124    47772.882    13719.383   -4202.2873    7615.5798   -1263.3154    82.393534 
    9100    1096.8084   -108.40298   0.99241526   -107.41057   -2757.7956    4.3571882    4.3571882    4.3571882   -2757.7956   -15731.605    8843.8529    -1385.635   -4039.2997    3755.7673    113.39269    82.721605 
    9200     793.6722    -108.1302   0.71813128   -107.41207    9706.5856    4.3554325    4.3554325    4.3554325    9706.5856   -6307.4708    24348.463    11078.764    2638.6247    8426.6036   -2286.2628     82.62165 
    9300    670.94439     -108.016   0.60708458   -107.40891    3884.6135    4.3501479    4.3501479    4.3501479    3884.6135    1457.5574    14540.853   -4344.5694    11701.681    14699.127   -1964.2111    82.321273 
    9400     777.3626   -108.11729   0.70337402   -107.41392    1136.5416    4.3533374    4.3533374    4.3533374    1136.5416   -1636.5994    2339.2702    2706.9541   -10904.566    2971.5617     7711.777    82.502477 
    9500    755.41299   -108.09267   0.68351355   -107.40916   -1645.2065    4.3625216    4.3625216    4.3625216   -1645.2065    -8844.169    19541.226   -15632.677     6981.414    3939.7484    3480.3305     83.02574 
    9600     1132.016   -108.42199    1.0242719   -107.39772   -14476.884      4.35959      4.35959      4.35959   -14476.884   -27101.638    16461.241   -32790.253   -23971.712    77.385888    5372.5594    82.858474 
    9700    889.45645   -108.19971   0.80479889   -107.39491    9024.7705    4.3492413    4.3492413    4.3492413    9024.7705   -8630.6618    47422.315   -11717.342   -4100.2556    956.09925   -309.56438    82.269812 
    9800    777.58098    -108.1014   0.70357161   -107.39783   -11017.883     4.358218     4.358218     4.358218   -11017.883   -26705.282    7298.4688   -13646.835    9984.3055   -6411.8323   -8682.3154    82.780271 
    9900    1263.4865   -108.54008    1.1432291   -107.39685   -32186.276    4.3610873    4.3610873    4.3610873   -32186.276   -35108.662   -20382.523   -41067.641   -175.76418    -3119.374   -5951.8746    82.943882 
   10000    1056.5858   -108.36572   0.95602103    -107.4097   -7991.4344    4.3513763    4.3513763    4.3513763   -7991.4344   -13543.254    17964.009   -28395.058   -4412.3597    2047.3748   -7316.0452     82.39103 
   10100    756.86749   -108.09878   0.68482961   -107.41395    27499.502    4.3494021    4.3494021    4.3494021    27499.502   -6978.9312    101951.53   -12474.096    4129.8162   -3598.8433    10642.387    82.278937 
   10200    994.40932   -108.31005   0.89976245   -107.41029   -25826.975    4.3679167    4.3679167    4.3679167   -25826.975   -8906.9084   -24172.618   -44401.398   -13464.818    5073.8453   -5815.8968    83.334154 
   10300    715.41395   -108.05048   0.64732157   -107.40316   -1512.0473    4.3546202    4.3546202    4.3546202   -1512.0473    1559.2162    17278.146   -23373.504   -865.67371   -656.88257    6781.6423    82.575431 
   10400    711.69579   -108.05388    0.6439573   -107.40992    23789.874    4.3427298    4.3427298    4.3427298    23789.874    2598.1996    78853.204   -10081.781    2956.5451    6368.2139   -6045.1864    81.900853 
   10500    723.97054   -108.08467   0.65506376   -107.42961   -11866.348    4.3637752    4.3637752    4.3637752   -11866.348   -33517.293    35574.637   -37656.388   -4951.1214    2358.0135    2539.4162    83.097337 
   10600     1493.187   -108.76776     1.351067   -107.41669   -23886.134    4.3586388    4.3586388    4.3586388   -23886.134   -32172.021   -6943.7802   -32542.601    8884.9967   -1496.3548   -9909.1872    82.804252 
   10700    820.52594   -108.16373   0.74242912    -107.4213    -874.4458     4.352105     4.352105     4.352105    -874.4458    4257.3212    11990.648   -18871.307   -17259.511   -5035.3907   -2402.4151     82.43243 
   10800    348.01483   -107.74192   0.31489113   -107.42703    21517.907    4.3513833    4.3513833    4.3513833    21517.907   -4285.4533    77286.632   -8447.4582      3400.64    -8642.436   -6533.4924    82.391428 
   10900    774.84609   -108.13115   0.70109703   -107.43006    1221.3443    4.3673272    4.3673272    4.3673272    1221.3443     7371.167     25160.85   -28867.984   -15726.201   -3581.9245    324.37679    83.300421 
   11000    967.72417   -108.29876   0.87561717   -107.42314   -8932.2245    4.3566873    4.3566873    4.3566873   -8932.2245     14722.61   -28640.165   -12879.119   -5610.0887   -13660.881   -9051.6267    82.693083 
   11100     836.0734   -108.17248   0.75649678   -107.41598    23631.626    4.3478087    4.3478087    4.3478087    23631.626    3730.8085    43738.561    23425.507    7804.4813   -2493.4464    3699.8302    82.188544 
   11200    854.78346   -108.18271   0.77342604   -107.40929   -3120.3211    4.3684075    4.3684075    4.3684075   -3120.3211   -21908.548    31393.832   -18846.248   -1532.1554   -2388.4596    6006.9652     83.36225 
   11300    828.42929   -108.15043   0.74958023   -107.40085   -16676.008    4.3586585    4.3586585    4.3586585   -16676.008   -42599.463   -14486.877    7058.3164   -7001.1114   -6115.0701    1501.8381    82.805374 
   11400    1112.4895    -108.4057    1.0066039    -107.3991    1144.3475    4.3491759    4.3491759    4.3491759    1144.3475   -11103.675    37868.924   -23332.207    4210.5443    7421.3396    8388.5912    82.266103 
   11500    920.14522   -108.24203   0.83256673   -107.40947   -12722.657    4.3650448    4.3650448    4.3650448   -12722.657   -40921.996    26816.683   -24062.659   -2990.9291    1215.4305    -1167.872    83.169885 
   11600    1200.2473   -108.49611     1.086009    -107.4101   -35247.113      4.36064      4.36064      4.36064   -35247.113   -53127.614   -23677.495   -28936.231   -11865.112    3171.2008   -8897.5291    82.918363 
   11700    974.23699   -108.28696    0.8815101   -107.40545    23610.798    4.3422851    4.3422851    4.3422851    23610.798    27524.014     38824.25    4484.1308    11774.018    -840.9452    -3047.277    81.875696 
   11800    590.76947   -107.95315   0.53454063   -107.41861    -18271.91    4.3652371    4.3652371    4.3652371    -18271.91   -27258.375   -7869.7274   -19687.627   -15709.843   -3541.1708    3421.8934    83.180879 
   11900    1106.1743   -108.41214    1.0008897   -107.41125   -4770.1278    4.3590695    4.3590695    4.3590695   -4770.1278     21692.86   -12332.868   -23670.376    11148.027   -5311.1668   -4841.6497    82.828801 
   12000    937.81438   -108.26345   0.84855416   -107.41489    10032.961     4.351451     4.351451     4.351451    10032.961   -2673.1669    21820.111    10951.938    3774.9717   -10360.588    8778.1336     82.39527 
   12100    623.99551   -107.97857   0.56460426   -107.41396    7172.7315     4.352593     4.352593     4.352593    7172.7315   -12539.484    34992.662   -934.98276   -1612.0783   -7791.5776    2482.0989    82.460163 
   12200    856.67245   -108.17636   0.77513523   -107.40122   -3197.2525    4.3657994    4.3657994    4.3657994   -3197.2525   -13121.802    427.29282    3102.7512    342.95585   -5294.0438    9507.9098     83.21303 
   12300    1016.1001   -108.31324   0.91938872   -107.39386   -12470.661    4.3565259    4.3565259    4.3565259   -12470.661   -22403.997   -25941.095    10933.109   -13691.074   -3874.9778   -2360.0994    82.683892 
   12400    929.27138   -108.23792   0.84082427   -107.39709    8750.5491    4.3478636    4.3478636    4.3478636    8750.5491   -2855.2163    12271.471    16835.393    -6601.814    20419.063    2116.5639    82.191657 
   12500    1113.1728   -108.40459    1.0072221   -107.39737   -17400.665     4.368987     4.368987     4.368987   -17400.665   -25745.078   -11954.661   -14502.257    12173.225   -991.60149    12718.138    83.395432 
   12600    775.69429   -108.09705    0.7018645   -107.39518    -815.6379    4.3536596    4.3536596    4.3536596    -815.6379   -13800.388   -3596.6288    14950.104   -5563.1651    1923.3152   -4419.0869    82.520797 
   12700    758.16126    -108.0879   0.68600024    -107.4019    16796.172    4.3501521    4.3501521    4.3501521    16796.172    23348.073   -5031.4116    32071.856   -7609.0296   -16334.031    4800.0585    82.321508 
   12800    867.14224   -108.18421   0.78460852    -107.3996   -2741.6656    4.3674536    4.3674536    4.3674536   -2741.6656   -3716.2581   -18637.558    14128.819     989.0849   -11994.135   -11282.845    83.307654 
   12900    899.80314   -108.20705   0.81416079   -107.39289    2267.2307    4.3553607    4.3553607    4.3553607    2267.2307    4198.4921   -2009.0143    4612.2143   -6434.7423    3526.2571    5169.9184    82.617565 
   13000    1218.4722   -108.49076    1.1024993   -107.38826   -8240.2982    4.3578197    4.3578197    4.3578197   -8240.2982   -10559.923   -2632.5274   -11528.444   -5832.0045    3790.5411   -822.78585     82.75758 
   13100    682.42446   -108.01162     0.617472   -107.39414    5826.6378    4.3590947    4.3590947    4.3590947    5826.6378   -18446.311    9819.0916    26107.133   -1985.5028    8985.6003     3655.183    82.830236 
   13200    1077.1514   -108.37264   0.97462924   -107.39801   -12646.229    4.3567872    4.3567872    4.3567872   -12646.229   -8646.7559   -27002.565   -2289.3673    3610.4363     2374.833    854.71038    82.698771 
   13300    1100.8666   -108.39625   0.99608721   -107.40017    9884.4482    4.3478675    4.3478675    4.3478675    9884.4482    528.71773    17329.723    11794.904    1771.6614   -1081.7474   -14532.758    82.191875 
   13400    787.56636   -108.12034   0.71260659   -107.40773   -3482.2084     4.352903     4.352903     4.352903   -3482.2084   -2944.4256    314.14134    -7816.341   -14134.616   -4112.7613   -1668.5779     82.47778 
   13500     777.3146   -108.11011   0.70333059   -107.40678   -10806.391    4.3653217    4.3653217    4.3653217   -10806.391    -10356.59    10227.198   -32289.781   -3915.3206    9993.7492    2563.4666    83.185714 
   13600    979.10204   -108.28308    0.8859121   -107.39717    7926.2598    4.3478901    4.3478901    4.3478901    7926.2598    8391.5634    9898.6539    5488.5622   -10040.834    2194.8392    10114.041    82.193159 
   13700    888.42081   -108.20818   0.80386182   -107.40432   -12094.237    4.3612506    4.3612506    4.3612506   -12094.237    1266.9768   -11154.112   -26395.577    7812.0281    1755.5739    3861.0439    82.953197 
   13800    1266.8076   -108.53808    1.1462341   -107.39184   -17220.886    4.3639954    4.3639954    4.3639954   -17220.886    -17297.41   -26642.836   -7722.4128     8746.498    2597.2362   -6173.3326     83.10992 
   13900    822.19326   -108.13524   0.74393774    -107.3913    12485.158     4.344792     4.344792     4.344792    12485.158    3383.0047     28499.99    5572.4791   -6657.5329   -6601.8263   -1782.9766    82.017586 
   14000    705.11888     -108.043   0.63800638   -107.40499   -4702.7529    4.3644526    4.3644526    4.3644526   -4702.7529      9290.16    8301.4891   -31699.908   -10624.862   -7467.2485   -7876.6677    83.136044 
   14100    645.43284   -107.97865    0.5840012   -107.39465    20474.794     4.357743     4.357743     4.357743    20474.794    40628.199    19059.598    1736.5842   -17050.262   -16590.728   -6177.2502    82.753211 
   14200    773.59049    -108.1001   0.69996093   -107.40014    8232.1194    4.3463824    4.3463824    4.3463824    8232.1194    2164.0755    21867.925     664.3577   -17892.311    7526.4887   -1974.2048    82.107683 
   14300    1100.9563   -108.39956   0.99616839   -107.40339   -5280.8866    4.3535219    4.3535219    4.3535219   -5280.8866    1090.2612    4248.4993    -21181.42     3067.929    6792.5347    7805.9587    82.512967 
   14400    996.09199   -108.30443   0.90128496   -107.40314   -21260.278    4.3580233    4.3580233    4.3580233   -21260.278   -41974.823   -28932.275    7126.2647    129.68986   -4007.9505   -3280.0224    82.769179 
   14500    822.05933   -108.14671   0.74381656    -107.4029   -18739.757    4.3565759    4.3565759    4.3565759   -18739.757   -18139.636   -25272.638   -12806.998   -6294.8803    3470.4445    3351.2595    82.686739 
   14600     1208.148   -108.48689    1.0931577   -107.39373    8388.8572    4.3436498    4.3436498    4.3436498    8388.8572    10713.281   -1585.8277    16039.118    8354.4971   -2319.9516   -5059.4694    81.952916 
   14700    648.10175   -107.99259   0.58641609   -107.40617   -1969.8557    4.3616552    4.3616552    4.3616552   -1969.8557    4708.0062    14859.495   -25477.068   -20766.549    -6350.405    288.44511    82.976284 
   14800    845.58197   -108.16202   0.76510033   -107.39692    714.28382    4.3573915    4.3573915    4.3573915    714.28382   -16871.307    12708.767    6305.3913    -15503.15    10267.683    11475.513    82.733188 
   14900    831.77286   -108.14429   0.75260557   -107.39169    23884.625    4.3432135    4.3432135    4.3432135    23884.625    5566.0482    33407.873    32679.952   -2579.7068   -1793.7553     7670.704    81.928224 
   15000    527.80211   -107.88076   0.47756644    -107.4032   -12603.301    4.3671507    4.3671507    4.3671507   -12603.301   -37478.724   -42077.114    41745.934    -9753.418    2314.8697    16013.667    83.290321 
   15100    1171.7246   -108.44623     1.060201   -107.38603    4478.5979    4.3498093    4.3498093    4.3498093    4478.5979   -735.31812    10829.433     3341.679   -5579.5629    6012.1818   -987.69447    82.302049 
   15200    877.40096   -108.19215   0.79389083   -107.39826   -6350.0495    4.3466967    4.3466967    4.3466967   -6350.0495   -38413.885   -17206.665    36570.401   -7141.7651   -16969.103   -4311.9484      82.1255 
   15300    878.23083   -108.19504   0.79464171   -107.40039   -10886.416    4.3585342    4.3585342    4.3585342   -10886.416   -45452.731   -5564.4969     18357.98   -3642.8975   -4265.2404   -3277.3692    82.798293 
   15400    894.25273   -108.20627   0.80913866   -107.39713    4897.7854    4.3527312    4.3527312    4.3527312    4897.7854   -20080.082   -15590.654    50364.092   -919.34787   -4365.5011    6989.0361    82.468017 
   15500     913.2476   -108.23434   0.82632562   -107.40801    -10997.18    4.3515201    4.3515201    4.3515201    -10997.18   -30373.953    3905.7852   -6523.3707   -2267.8396   -3911.4176   -3407.1307      82.3992 
   15600    1077.2774   -108.38625   0.97474321   -107.41151   -292.24185    4.3503797    4.3503797    4.3503797   -292.24185    -32084.28    4075.9132    27131.641    4821.9336    8486.4438     1947.519    82.334432 
   15700    825.95412   -108.16131   0.74734065   -107.41397    3384.0373    4.3526264    4.3526264    4.3526264    3384.0373    -22843.67   -5765.7721    38761.554   -3571.5245   -7091.7876   -5532.9012    82.462059 
   15800    722.69693   -108.05935   0.65391137   -107.40544    4936.0997    4.3568352    4.3568352    4.3568352    4936.0997   -16508.672    -1629.562    32946.533   -6344.1036   -3785.2169   -12247.995      82.7015 
   15900    1275.1078   -108.54986    1.1537443   -107.39611    -15516.94    4.3508804    4.3508804    4.3508804    -15516.94   -15611.041   -25628.719   -5311.0591    8481.4469    5422.8768    11401.409    82.362865 
   16000    474.45393   -107.83323   0.42929589   -107.40393    24382.738     4.347642     4.347642     4.347642    24382.738    12199.084    10068.779     50880.35    -5682.036   -887.67527   -10409.222    82.179092 
   16100    1200.5388   -108.48509    1.0862727   -107.39882   -22931.791    4.3598492    4.3598492    4.3598492   -22931.791   -41524.303   -5918.6728   -21352.396    1578.9292     2978.104    264.26172    82.873258 
   16200    802.20311   -108.12445   0.72585023    -107.3986    -8115.283     4.354542     4.354542     4.354542    -8115.283   -30952.876    13638.763    -7031.736    10858.823    1223.2959    3314.9632    82.570982 
   16300    872.00857   -108.18946   0.78901167   -107.40045    13600.712    4.3416741    4.3416741    4.3416741    13600.712    -14511.26    27654.022    27659.375   -5965.5258   -5931.4203   -2696.3132    81.841139 
   16400     1129.872   -108.42716    1.0223319   -107.40482   -19639.806    4.3613101    4.3613101    4.3613101   -19639.806    -23012.73   -12175.944   -23730.742    4016.7465   -8461.4231    5136.7164    82.956592 
   16500    648.50756   -107.99018   0.58678327    -107.4034   -5931.7473    4.3558919    4.3558919    4.3558919   -5931.7473   -27084.793    6651.4328    2638.1189    2723.8494   -5367.2193   -12648.669    82.647797 
   16600    861.23816   -108.17737   0.77926639   -107.39811    24169.499    4.3383303    4.3383303    4.3383303    24169.499     -2516.38    58490.571    16534.305   -2432.7516   -2787.5873    13570.066    81.652193 
   16700    1156.9455   -108.45706    1.0468286   -107.41023   -11748.359     4.356954     4.356954     4.356954   -11748.359   -32568.059    13815.477   -16492.497    7577.5415   -8973.7238   -4837.0509    82.708265 
   16800    790.50776   -108.12591   0.71526803   -107.41065   -3673.3856    4.3620688    4.3620688    4.3620688   -3673.3856   -8540.4828    10378.086    -12857.76   -8072.9218   -6965.2341    12339.665    82.999895 
   16900    1119.0872   -108.40941    1.0125736   -107.39684    11134.808    4.3408536    4.3408536    4.3408536    11134.808   -1717.7522    22704.714    12417.461    2970.7945    5953.8605   -3054.0741    81.794749 
   17000    651.17935    -108.0002   0.58920076     -107.411    5197.0274    4.3471637    4.3471637    4.3471637    5197.0274   -22764.347    45838.259   -7482.8295    1433.4883   -7195.8335    5734.7884    82.151969 
   17100    837.25021   -108.16921   0.75756159   -107.41165   -18595.067    4.3653063    4.3653063    4.3653063   -18595.067   -49251.804    672.20897   -7205.6073    -878.2383   -6562.0178    346.97639    83.184837 
   17200    1140.8263   -108.43239    1.0322436   -107.40014    21342.957    4.3400615    4.3400615    4.3400615    21342.957    10788.773     33347.18    19892.919   -3199.4939    1446.2522   -10125.681    81.749981 
   17300    846.78856   -108.17821   0.76619208   -107.41202   -10933.786    4.3571184    4.3571184    4.3571184   -10933.786    -32946.38    8001.5178   -7856.4959    11310.453   -3417.5241    133.60501    82.717628 
   17400    926.43375   -108.23744   0.83825672   -107.39919    2691.8381    4.3591532    4.3591532    4.3591532    2691.8381    4618.5723   -17805.088     21262.03    6490.3038    4605.5714   -9595.0615    82.833575 
   17500    810.75031   -108.13749   0.73358392    -107.4039    -1642.601    4.3443845    4.3443845    4.3443845    -1642.601   -26900.699     22107.83   -134.93416   -4351.9798   -538.87817    6502.2547    81.994507 
   17600    808.13543   -108.14739   0.73121792   -107.41617   -9199.7923    4.3503101    4.3503101    4.3503101   -9199.7923   -17282.167   -19732.173    9414.9624    9396.8344   -4306.4062    1797.9771    82.330479 
   17700    1171.5979   -108.46762    1.0600864   -107.40753    6805.7024    4.3524405    4.3524405    4.3524405    6805.7024   -1978.7991    16703.564     5692.342   -7288.1762   -2834.3932     1980.503    82.451493 
   17800    665.84033   -108.00669   0.60246632   -107.40422   -13969.651    4.3620387    4.3620387    4.3620387   -13969.651    -10245.44   -7051.4357   -24612.077    11435.508   -15430.055   -6917.7029    82.998176 
   17900      967.575   -108.26447   0.87548219   -107.38898    4149.9299    4.3440153    4.3440153    4.3440153    4149.9299   -13708.544   -2397.5765     28555.91   -357.18017    6625.9615    8323.5078    81.973603 
   18000    845.35896   -108.16504   0.76489855   -107.40014    14308.782    4.3451989    4.3451989    4.3451989    14308.782    8756.2402     53367.71   -19197.602    2037.8577   -3179.6372   -5116.2203     82.04063 
   18100    882.39403   -108.20556   0.79840866   -107.40715   -16942.472     4.368892     4.368892     4.368892   -16942.472   -9944.0947     5791.968    -46675.29    3069.8287    -10868.87    5297.9078    83.389989 
   18200    1146.8502   -108.43427    1.0376942   -107.39658    12319.522    4.3463432    4.3463432    4.3463432    12319.522   -5500.2777    26554.617    15904.228   -8001.0049    5224.5912    4101.4505    82.105463 
   18300    856.15772   -108.17739   0.77466949   -107.40272    9788.9094    4.3400652    4.3400652    4.3400652    9788.9094    14176.379    26190.341   -10999.992    -2158.766   -2250.0465   -713.63018     81.75019 
   18400    740.85377   -108.07586   0.67034006   -107.40552   -18149.115     4.370281     4.370281     4.370281   -18149.115   -45065.742   -6190.4463   -3191.1557    345.50752    463.14548    9627.2496     83.46955 
   18500    1085.7308   -108.38352   0.98239202   -107.40112   -3250.0619    4.3452072    4.3452072    4.3452072   -3250.0619   -16108.155    11489.591   -5131.6217   -5106.3972     3666.974   -2820.1566    82.041098 
   18600    746.08068   -108.08967   0.67506947    -107.4146    22973.736    4.3385024    4.3385024    4.3385024    22973.736    32949.092    10374.838    25597.278    11576.038    1021.4828    9882.2319    81.661907 
   18700    1308.8648    -108.6009    1.1842883   -107.41662   -34937.741    4.3673289    4.3673289    4.3673289   -34937.741   -35806.904   -30115.238    -38891.08   -832.88602   -9042.2426    -14251.74    83.300515 
   18800    528.74246   -107.89164   0.47841729   -107.41322    15791.713    4.3502857    4.3502857    4.3502857    15791.713    19468.008    7600.7571    20306.373   -364.20887    4787.5826    18528.297    82.329096 
   18900    1017.9251   -108.32695   0.92103998   -107.40591   -9962.0296    4.3444981    4.3444981    4.3444981   -9962.0296   -25253.139   -9945.1568    5312.2066    265.09232   -8858.3408   -6183.3402    82.000942 
   19000    919.00663   -108.24388   0.83153651   -107.41235   -1460.8165    4.3578371    4.3578371    4.3578371   -1460.8165   -1359.3903   -20451.459      17428.4   -1877.3718    1641.5546    4351.6571     82.75857 
   19100    884.09883   -108.20993    0.7999512   -107.40998   -10887.678     4.356589     4.356589     4.356589   -10887.678   -2310.2469   -18801.543   -11551.243    1987.7644    4604.0603    18845.717    82.687483 
   19200    950.80287   -108.26477   0.86030642   -107.40447    8091.1643    4.3398316    4.3398316    4.3398316    8091.1643   -13457.297   -5738.6843    43469.475   -13769.053   -3272.5757   -7517.4965    81.736991 
   19300    765.90344   -108.10915   0.69300553   -107.41614    1133.1097    4.3526538    4.3526538    4.3526538    1133.1097    11526.671   -2780.7512   -5346.5908    5105.5535    10665.441    12130.873    82.463618 
   19400    662.18631   -108.01165   0.59916008   -107.41249   -18863.135    4.3626212    4.3626212    4.3626212   -18863.135   -47190.715   -3911.0378   -5487.6529   -4034.3642   -13696.484    3199.8749    83.031428 
   19500    1203.3017    -108.4887    1.0887727   -107.39993    18222.629    4.3353453    4.3353453    4.3353453    18222.629    13300.452    680.62162    40686.812   -5484.6342    6791.2822   -444.44709    81.483766 
   19600    790.76474   -108.12923   0.71550055   -107.41373   -8647.0293    4.3583918    4.3583918    4.3583918   -8647.0293   -22391.731    11642.425   -15191.783     943.1555    2043.3734   -19.393747    82.790175 
   19700    955.77009   -108.26752   0.86480086   -107.40272    -25083.67    4.3569876    4.3569876    4.3569876    -25083.67   -41179.427   -11895.026   -22176.559   -2555.2735   -12968.265    7907.5933    82.710183 
   19800    616.09144   -107.95891   0.55745248   -107.40146    44989.443    4.3360227    4.3360227    4.3360227    44989.443   -13589.526    87293.281    61264.574   -1186.1371    9422.2189    200.83935    81.521964 
   19900    1132.1257     -108.441    1.0243711   -107.41662   -32937.607    4.3604353    4.3604353    4.3604353   -32937.607   -31654.452   -23373.385   -43784.986    6127.5557   -6553.6656   -484.86891    82.906681 
   20000    839.25945   -108.17249   0.75937958   -107.41311    23911.641    4.3476978    4.3476978    4.3476978    23911.641    -15242.28    56178.994    30798.209    1860.0216   -1059.9139    11357.062    82.182254 
   20100    1036.6635   -108.34831   0.93799492   -107.41031    1843.8039    4.3445271    4.3445271    4.3445271    1843.8039   -15917.813    20862.376    586.84925    -1071.469    14242.434   -6311.5566    82.002583 
   20200    839.48677   -108.16986   0.75958527   -107.41027    1187.7018     4.350197     4.350197     4.350197    1187.7018    -24913.23    41398.505    -12922.17    856.97849   -10610.613    6406.6098    82.324056 
   20300    725.54091   -108.06442   0.65648466   -107.40793    17883.698    4.3567536    4.3567536    4.3567536    17883.698     -23787.2    36672.888    40765.405    185.84618    7729.5971    5274.4088    82.696855 
   20400    1137.2625   -108.43526     1.029019   -107.40624   -5856.8032    4.3516764    4.3516764    4.3516764   -5856.8032   -12092.657    20220.722   -25698.475    1155.1295    1032.2329   -10568.712    82.408078 
   20500    791.04208   -108.12772    0.7157515   -107.41197    23485.621    4.3453814    4.3453814    4.3453814    23485.621   -3689.2656    25862.295    48283.834   -2796.6848   -11234.772    343.62088    82.050967 
   20600     883.8596   -108.21281   0.79973474   -107.41307    -13566.47    4.3584471    4.3584471    4.3584471    -13566.47   -28013.326    21923.941   -34610.026    -4592.798    9721.9173    6222.8229     82.79333 
   20700    973.38259   -108.28401   0.88073702   -107.40328    7715.7075    4.3416127    4.3416127    4.3416127    7715.7075   -22921.362    13575.588    32492.897    6187.1915   -8051.7882   -685.91136    81.837667 
   20800     902.2948    -108.2272    0.8164153   -107.41079   -1896.4206    4.3558076    4.3558076    4.3558076   -1896.4206   -13399.422    19455.153   -11744.993   -2694.1336   -598.90454    7336.0869    82.642997 
   20900    914.04404   -108.23164   0.82704626    -107.4046   -17137.778    4.3583041    4.3583041    4.3583041   -17137.778   -35042.456   -15845.671   -525.20802    2622.7367    11394.383    248.65166    82.785179 
   21000     704.3771   -108.03658   0.63733521   -107.39925    24990.258    4.3372522    4.3372522    4.3372522    24990.258   -4994.0075    54968.776    24996.005    4969.0616   -9504.0092   -5041.3743    81.591335 
   21100    856.99695   -108.18876   0.77542885   -107.41333   -20170.582    4.3571678    4.3571678    4.3571678   -20170.582   -44435.853   -3654.9926     -12420.9     3024.361    14758.177    11739.556    82.720442 
   21200    967.60194    -108.2858   0.87550657   -107.41029   -4500.5755    4.3492407    4.3492407    4.3492407   -4500.5755    13.732057   -4774.5373   -8740.9211     9779.845    1034.7976   -4770.4201    82.269782 
   21300    880.83162   -108.20804   0.79699496   -107.41105    15311.017    4.3459008    4.3459008    4.3459008    15311.017   -251.86222    30725.003    15459.911   -6503.5552   -1604.0449    742.63642    82.080394 
   21400    745.31564   -108.08858   0.67437726    -107.4142    4765.4285    4.3510166    4.3510166    4.3510166    4765.4285   -2001.6781    32854.803   -16556.839   -6836.6859   -694.31667   -5113.6319    82.370596 
   21500    697.14907   -108.04422   0.63079512   -107.41342    3301.9809     4.355924     4.355924     4.355924    3301.9809   -15764.489    14084.883    11585.548    1495.3841   -6950.1582    598.75572    82.649627 
   21600    1141.1172    -108.4392    1.0325068    -107.4067   -4104.1151    4.3527737    4.3527737    4.3527737   -4104.1151   -21969.336    25561.207   -15904.216   -6132.6606   -6655.1451    4336.9506    82.470429 
   21700    962.01462    -108.2777   0.87045105   -107.40725     10832.54    4.3435516    4.3435516    4.3435516     10832.54   -9655.5159    20847.952    21305.184    3342.6919    9818.0536     9840.841    81.947357 
   21800     784.9981   -108.11885   0.71028278   -107.40857   -8480.9672    4.3650154    4.3650154    4.3650154   -8480.9672   -27302.374    32164.881   -30305.409   -7806.2214   -1762.5238    -1550.875    83.168208 
   21900    1121.9857   -108.41035    1.0151963   -107.39515   -1392.1498    4.3461458    4.3461458    4.3461458   -1392.1498   -28464.617    12988.693    11299.475    4472.1221     2177.576   -205.92372    82.094274 
   22000    591.36764   -107.93449   0.53508187   -107.39941    22187.683    4.3412238    4.3412238    4.3412238    22187.683   -3524.3268    59127.006    10960.368   -6235.8266    5225.7186   -4265.4024    81.815679 
   22100    1285.0975   -108.55976    1.1627832   -107.39697   -22783.305     4.363376     4.363376     4.363376   -22783.305   -19944.501    -30076.57   -18328.845    3539.9174   -4726.6405   -8182.1534    83.074533 
   22200    747.14536   -108.07826   0.67603282   -107.40223    17124.453     4.346692     4.346692     4.346692    17124.453    688.44171    31088.536    19596.381    309.02693    -424.4671    2142.8909    82.125232 
   22300    804.68896   -108.13708   0.72809948   -107.40898    2520.8858    4.3448643    4.3448643    4.3448643    2520.8858    3404.0182    20734.348   -16575.709    12412.864   -1111.0504    4725.6924    82.021679 
   22400    755.49056   -108.09313   0.68358373   -107.40955    14365.224    4.3556707    4.3556707    4.3556707    14365.224   -19870.195    31054.456    31911.412   -1514.8834    36.962863   -4874.2889    82.635204 
   22500     1051.619   -108.35715   0.95152696   -107.40562   -17118.292    4.3599761    4.3599761    4.3599761   -17118.292   -19334.329    6162.9424   -38183.489   -7302.1581   -66.390715    8042.7355    82.880491 
   22600    863.43121   -108.18329    0.7812507   -107.40204   -7358.0535    4.3504021    4.3504021    4.3504021   -7358.0535   -15495.043   -14154.402     7575.285    11219.572    6681.6429    9685.3815    82.335705 
   22700    964.48406    -108.2724   0.87268545   -107.39971    12061.702    4.3396803    4.3396803    4.3396803    12061.702   -13932.847     45322.26    4795.6948   -6594.8741    194.47401   -7906.0829    81.728442 
   22800    887.10426   -108.21173   0.80267058   -107.40906   -33839.225    4.3665899    4.3665899    4.3665899   -33839.225   -41808.148   -37205.608   -22503.919    5334.2586    4577.4753    6679.1924    83.258238 
   22900    807.33135   -108.13248   0.73049037   -107.40199    8905.7897    4.3477806    4.3477806    4.3477806    8905.7897   -1160.7921    30675.573   -2797.4122    11670.816    1824.8184   -2902.9071    82.186947 
   23000    1041.3766   -108.34218   0.94225941   -107.39992    12952.601    4.3398271    4.3398271    4.3398271    12952.601    8961.3405    18969.351    10927.113   -11766.704     6118.392     718.3384    81.736733 
   23100    687.45146   -108.03046   0.62202053   -107.40844   -18292.652    4.3635188    4.3635188    4.3635188   -18292.652   -7585.4739   -11446.381   -35846.101    13422.897     6195.344     6682.918     83.08269 
   23200    980.60406    -108.2878   0.88727116   -107.40053   -3405.0702    4.3470897    4.3470897    4.3470897   -3405.0702    1924.1295   -23323.322    11183.982   -8675.1892    1287.6564     1190.465    82.147774 
   23300    684.44389   -108.02641   0.61929921   -107.40711    6168.1557    4.3464136    4.3464136    4.3464136    6168.1557   -21352.428    42587.835   -2730.9395    10509.152     5635.082   -1021.5568    82.109449 
   23400    1033.3842   -108.34977   0.93502776   -107.41474   -20341.065    4.3524687    4.3524687    4.3524687   -20341.065   -30142.282   -28939.557   -1941.3557    5112.7178   -5.2445629    724.23998    82.453095 
   23500    900.97192   -108.22635   0.81521833   -107.41113   -4476.7521    4.3536152    4.3536152    4.3536152   -4476.7521   -13602.714    19811.412   -19638.955   -541.70944     -1122.36   -11440.188    82.518274 
   23600    950.27944   -108.26512   0.85983281   -107.40529   -27633.467    4.3521764    4.3521764    4.3521764   -27633.467    -39133.52    -9732.745   -34034.135    16659.467    402.85846   -1265.2882    82.436487 
   23700    836.45362   -108.16333   0.75684082   -107.40648    5467.1766    4.3440411    4.3440411    4.3440411    5467.1766    5108.0388   -5000.7807    16294.272    8131.3283    847.64189   -3486.5092    81.975064 
   23800    1055.2988   -108.36153   0.95485657   -107.40667    238.90829    4.3554426    4.3554426    4.3554426    238.90829   -8964.4629    38862.917   -29181.729    1564.9729    4591.7247   -146.77619    82.622225 
   23900    709.71099   -108.05001   0.64216142   -107.40784   -2288.4239    4.3554737    4.3554737    4.3554737   -2288.4239   -11483.216    4886.4526   -268.50818    18770.352    6392.2206   -10691.472    82.623995 
   24000    874.20921   -108.19249   0.79100287   -107.40148     7653.998    4.3448709    4.3448709    4.3448709     7653.998    17213.271     24572.95   -18824.227    673.98744    7484.8658   -1396.0006     82.02205 
   24100    910.45449   -108.22822   0.82379836   -107.40442   -8346.7213    4.3540619    4.3540619    4.3540619   -8346.7213   -8982.3037    2635.5059   -18693.366   -1727.8515   -191.69935    873.19346    82.543675 
   24200    880.65885   -108.19763   0.79683864   -107.40079   -3914.2721    4.3552764    4.3552764    4.3552764   -3914.2721   -3686.6401   -29255.354    21199.178    3012.5256    5303.4725   -950.26291    82.612769 
   24300    1087.5349   -108.37867    0.9840244   -107.39464   -7445.9582    4.3555541    4.3555541    4.3555541   -7445.9582     1400.445      13043.4   -36781.719   -7635.9047    -1851.343    8277.8824    82.628569 
   24400    1105.3688   -108.39229    1.0001609   -107.39213   -7024.2701    4.3464149    4.3464149    4.3464149   -7024.2701    -8706.135   -8284.6348   -4082.0406   -6217.5804   -1376.6421    1788.5906    82.109528 
   24500    709.96969   -108.04971   0.64239549   -107.40732    13815.578    4.3546559    4.3546559    4.3546559    13815.578    25261.254    41630.292   -25444.811    11516.318      1801.95   -3304.9018     82.57746 
   24600    1141.8833   -108.43728       1.0332   -107.40408   -25788.956    4.3638854    4.3638854    4.3638854   -25788.956   -21141.732   -17169.333   -39055.802   -559.67431    -1553.644   -1958.9238    83.103633 
   24700     758.1799   -108.08113   0.68601711   -107.39511    32196.927    4.3316624    4.3316624    4.3316624    32196.927    24611.658    38092.326    33886.798    20503.934    4954.5617     -4248.54     81.27628 
   24800    819.27199   -108.15094   0.74129451   -107.40965   -6971.1374    4.3606808    4.3606808    4.3606808   -6971.1374    5240.5926    -5761.881   -20392.124   -861.12322    2137.5321    2853.5154    82.920688 
   24900    955.73359    -108.2627   0.86476784   -107.39793   -15051.586    4.3588377    4.3588377    4.3588377   -15051.586   -6648.7342   -9965.8994   -28540.123   -811.32935    7099.1071    8458.7102    82.815592 
   25000    737.82814   -108.05696   0.66760241   -107.38936    35882.378    4.3272631    4.3272631    4.3272631    35882.378     29801.19    64838.371    13007.574    13053.981    4.6145793    3697.3678    81.028891 
   25100    1054.3289   -108.36039   0.95397896   -107.40642    -25009.69    4.3602966    4.3602966    4.3602966    -25009.69   -19551.088   -28425.473   -27052.508    131.71366   -5109.7908    14084.379    82.898774 
   25200    1043.6183   -108.34435   0.94428778   -107.40006   -3574.0379    4.3549745    4.3549745    4.3549745   -3574.0379   -352.98423   -2850.8484    -7518.281    7569.1851    5690.4892    7170.5718    82.595587 
   25300    856.77947   -108.17408   0.77523207   -107.39885   -19270.579    4.3508654    4.3508654    4.3508654   -19270.579   -12338.107   -27122.825   -18350.805    3617.1283   -1508.6937   -10377.631    82.362013 
   25400    943.12831   -108.24947   0.85336231   -107.39611   -720.93973    4.3477106    4.3477106    4.3477106   -720.93973    16523.852   -19620.424    933.75283   -712.80224     4123.694    3843.6232     82.18298 
   25500    824.96237   -108.15145   0.74644329   -107.40501   -3333.1709     4.357463     4.357463     4.357463   -3333.1709    -2801.289    -1246.379   -5951.8445   -3355.2775    11293.956    4286.0665    82.737258 
   25600    670.22485   -108.01215   0.60643353   -107.40572    137.26911    4.3538702    4.3538702    4.3538702    137.26911   -26503.649     173.2909    26742.165   -2638.5159    10089.727    5726.0813    82.532774 
   25700    882.46511   -108.19877   0.79847298   -107.40029    22190.515    4.3439123    4.3439123    4.3439123    22190.515    11399.669    35805.539    19366.338   -3773.9914   -4728.3477    12505.796    81.967777 
   25800    866.12046   -108.18989     0.783684   -107.40621   -23639.835    4.3608321    4.3608321    4.3608321   -23639.835   -27471.192   -14222.345   -29225.967    14747.394    6161.1036   -695.46688    82.929319 
   25900    1050.1697   -108.34854   0.95021562   -107.39832   -9502.8744       4.3445       4.3445       4.3445   -9502.8744   -6790.2508   -21942.132     223.7598   -1924.4769   -6688.0479   -601.90156    82.001046 
   26000    1075.0491    -108.3774   0.97272703   -107.40467   -7116.9385    4.3515622    4.3515622    4.3515622   -7116.9385    11120.346     -8601.53   -23869.632     4934.383    249.35581    -11353.15    82.401591 
   26100    1068.9613    -108.3711   0.96721864   -107.40388   -16429.468    4.3565677    4.3565677    4.3565677   -16429.468    -40656.27    8109.1812   -16741.316    7043.8399    1764.8336    1686.9759     82.68627 
   26200    713.35952   -108.05093   0.64546268   -107.40547    17070.192    4.3484552    4.3484552    4.3484552    17070.192    27756.758    41308.707   -17854.888   -4164.9845   -4604.6859    13322.326    82.225209 
   26300    792.05886   -108.12135    0.7166715   -107.40468    2777.5795    4.3553621    4.3553621    4.3553621    2777.5795   -20746.981     2597.188    26482.532    3989.8467    5166.2444    10367.138    82.617645 
   26400    838.61796   -108.16113   0.75879915   -107.40234    1369.4318    4.3478753    4.3478753    4.3478753    1369.4318    6343.7785   -8323.4636    6087.9806    4971.4857    7.7078992    6040.0133    82.192322 
   26500    873.54891   -108.19139   0.79040541   -107.40099    4878.2324    4.3530573    4.3530573    4.3530573    4878.2324    12605.698   -17253.313    19282.313    -1331.831    5305.1808   -5434.2283    82.486553 
   26600    1252.8252   -108.53165    1.1335825   -107.39807   -9650.0822     4.354673     4.354673     4.354673   -9650.0822   -21794.129    6221.5528    -13377.67    10885.405   -5704.8702     -4845.07    82.578432 
   26700     725.0174   -108.05735   0.65601098   -107.40134    20790.432     4.343398     4.343398     4.343398    20790.432    41224.566    18396.654    2750.0779    3561.9084    940.01802    10684.791    81.938663 
   26800    790.66304   -108.12216   0.71540854   -107.40675   -17120.603     4.358301     4.358301     4.358301   -17120.603   -30386.831    3151.9901   -24126.969    6766.8192   -10042.621     5509.929    82.785003 
   26900    865.06151   -108.18197   0.78272584   -107.39925    9811.8265     4.349295     4.349295     4.349295    9811.8265   -10495.728   -3155.1551    43086.363    2603.9916   -3105.4932    11389.914    82.272858 
   27000    998.12924   -108.30476   0.90312831   -107.40163    18.988101    4.3471439    4.3471439    4.3471439    18.988101    8315.4955   -14263.585    6005.0537    -2291.433   -2461.4516    6792.6278    82.150847 
   27100    1125.5321   -108.42209    1.0184051   -107.40368     -22098.6    4.3573703    4.3573703    4.3573703     -22098.6   -36930.539   -30594.868    1229.6062    -1265.908    8773.0229   -12683.056    82.731977 
   27200    1002.7297   -108.30438   0.90729093   -107.39709    6246.6367    4.3498373    4.3498373    4.3498373    6246.6367    7838.6257   -16192.947    27094.231   -967.91767    6460.7349    3006.9977    82.303637 
   27300    634.10583   -107.97247   0.57375228   -107.39872    -10195.78    4.3556549    4.3556549    4.3556549    -10195.78   -35147.978    8381.0033   -3820.3638   -718.50981   -8384.9223    10024.796    82.634307 
   27400    1087.6911   -108.38092   0.98416575   -107.39675   -9150.2435    4.3485175    4.3485175    4.3485175   -9150.2435   -16491.983    247.37582   -11206.123   -845.66344   -874.84922    5018.7449    82.228748 
   27500    892.21131   -108.21257   0.80729155   -107.40528    18266.351    4.3507289    4.3507289    4.3507289    18266.351    6377.4441    39788.903    8632.7053    10318.632   -6215.9166    1748.2332    82.354261 
   27600    966.54852   -108.28119   0.87455341   -107.40663   -19390.642    4.3651698    4.3651698    4.3651698   -19390.642   -42137.648     4346.349   -20380.628   -1133.4708    363.79048   -4945.1234    83.177032 
   27700    755.44361   -108.07781   0.68354126   -107.39427    31979.678    4.3455443    4.3455443    4.3455443    31979.678    41461.879    13622.685    40854.471    12409.607    5379.8583   -7667.1594    82.060194 
   27800    795.26341    -108.1197   0.71957104   -107.40013   -542.14823    4.3482522    4.3482522    4.3482522   -542.14823   -2933.4914    2531.0513   -1224.0045   -1551.9778    4305.7336   -526.34024    82.213697 
   27900    894.81367   -108.21168   0.80964622   -107.40204   -22245.279    4.3585577    4.3585577    4.3585577   -22245.279   -25468.076   -10927.155   -30340.606   -17.415467   -15292.597   -2271.4188     82.79963 
   28000    1097.6328    -108.3888   0.99316118   -107.39564    22406.292    4.3434758    4.3434758    4.3434758    22406.292    38173.885    10821.831     18223.16    4740.9706   -10537.806    1977.7735    81.943068 
   28100    938.55301   -108.25461   0.84922249   -107.40538   -20679.767    4.3583348    4.3583348    4.3583348   -20679.767   -36155.116   -12134.885   -13749.299    -4747.569   -2386.4734    3400.4293     82.78693 
   28200    594.34827   -107.93939    0.5377788   -107.40161    16540.752     4.349321     4.349321     4.349321    16540.752    8484.5184   -2173.8078    43311.545    9333.4778    -2178.341    -8276.376    82.274337 
   28300    1127.5488   -108.41959    1.0202299   -107.39936   -3287.3517    4.3492781    4.3492781    4.3492781   -3287.3517   -6898.7844      11698.4    -14661.67   -5437.8008    437.77044   -2040.8083    82.271903 
   28400    847.00757   -108.17121   0.76639025   -107.40482   -23856.518    4.3610178    4.3610178    4.3610178   -23856.518   -44438.897    5261.1632   -32391.819    5148.2739   -19667.094   -297.67664    82.939913 
   28500    959.05511   -108.26597   0.86777322    -107.3982    18929.445    4.3400511    4.3400511    4.3400511    18929.445    31047.595    852.07394    24888.665   -7556.9133    1850.9718   -3481.6068    81.749391 
   28600    837.88499   -108.16818   0.75813594   -107.41005   -515.37133    4.3564974    4.3564974    4.3564974   -515.37133   -16472.279     24416.61   -9490.4442   -4872.0371     2916.805    9667.2748    82.682269 
   28700    607.85804   -107.95144   0.55000273   -107.40144   -8608.4224    4.3618777    4.3618777    4.3618777   -8608.4224    2337.2508    6290.9108   -34453.429   -4752.0612   -5888.6178   -3811.4298    82.988985 
   28800    1160.9243   -108.43922    1.0504287   -107.38879    4185.0398    4.3418859    4.3418859    4.3418859    4185.0398    4669.5376   -7438.3666    15323.948    626.12384    4737.2451   -10531.408    81.853116 
   28900    964.02972   -108.27014   0.87227435   -107.39786   -22497.968    4.3579841    4.3579841    4.3579841   -22497.968    -33214.32   -84.233111    -34195.35    2622.0094   -15687.473   -36.943308    82.766946 
   29000    920.38313   -108.22877     0.832782   -107.39599   -5755.5106    4.3529529    4.3529529    4.3529529   -5755.5106   -27214.323   -11133.198    21080.989    2761.6924   -1172.6215   -6286.1172    82.480617 
   29100    865.75025   -108.18324   0.78334902   -107.39989   -819.34274    4.3493336    4.3493336    4.3493336   -819.34274    7979.6911   -599.64962   -9838.0697    505.22978    1995.3645   -1107.0711     82.27505 
   29200    596.92553   -107.94715   0.54011077   -107.40704   -2774.6249    4.3520315    4.3520315    4.3520315   -2774.6249   -17462.902    46770.716   -37631.689   -11474.722    175.09299    12203.174    82.428254 
   29300    1047.1122   -108.35086   0.94744915   -107.40341    1864.1856    4.3551589    4.3551589    4.3551589    1864.1856    4755.8895   -753.67368     1590.341    5521.4102    3592.7555   -11169.744    82.606081 
   29400    900.44574    -108.2129   0.81474223   -107.39816   -14692.001     4.358922     4.358922     4.358922   -14692.001   -17009.403    8998.0802   -36064.678   -8997.8356   -11044.528   -6296.2004    82.820392 
   29500    987.00032   -108.28447   0.89305863   -107.39141   -5998.7294    4.3396443    4.3396443    4.3396443   -5998.7294   -23534.358   -2968.4051    8506.5747    5544.1664    -4236.499   -3460.8962    81.726408 
   29600    818.92883   -108.14569   0.74098401   -107.40471    4138.0451    4.3583004    4.3583004    4.3583004    4138.0451    17567.019   -5797.2927    644.40917    2966.8101   -1986.7911   -5464.6161    82.784965 
   29700    764.19591   -108.09575   0.69146052   -107.40428   -28550.106    4.3619102    4.3619102    4.3619102   -28550.106    -35795.27   -10756.133   -39098.916   -7264.4529    4006.9659    3083.2392    82.990839 
   29800    946.74058   -108.25106   0.85663077   -107.39443    25080.788    4.3337367    4.3337367    4.3337367    25080.788     36279.35    33375.204    5587.8106   -6782.1129    5352.8178    12603.152    81.393097 
   29900    999.29811   -108.31263   0.90418593   -107.40845    372.27969    4.3622833    4.3622833    4.3622833    372.27969    3508.5397    7527.9373   -9919.6379   -17268.574   -3605.6417    3481.8403     83.01214 
   30000    780.56497   -108.10808   0.70627159   -107.40181   -18340.579    4.3616884    4.3616884    4.3616884   -18340.579   -30886.493    27584.203   -51719.446   -6821.2707    -4654.626   -6964.2176    82.978179 
   30100    909.14278   -108.20735   0.82261149   -107.38474    29878.287    4.3411649    4.3411649    4.3411649    29878.287    25725.951    43461.184    20447.724   -4785.5751   -4879.4726   -858.25633    81.812349 
   30200    956.23233   -108.26188   0.86521911   -107.39666   -16297.682     4.360881     4.360881     4.360881   -16297.682     -38293.2   -9090.6535   -1509.1923    4497.5303   -390.82639   -3218.5304    82.932108 
   30300    956.37246   -108.26191    0.8653459   -107.39656   -10892.661    4.3563758    4.3563758    4.3563758   -10892.661   -26143.417    23756.361   -30290.929    1978.9168    2518.3929   -1099.0022    82.675345 
   30400    987.81449   -108.29112   0.89379531   -107.39733    28709.783    4.3412098    4.3412098    4.3412098    28709.783      15823.3    30560.621    39745.428    8415.4728    7899.4184   -1760.6433    81.814887 
   30500    797.26122   -108.13365   0.72137871   -107.41227   -13484.717    4.3522481    4.3522481    4.3522481   -13484.717   -27053.147    38244.206    -51645.21   -13724.784   -6887.3555   -1238.0442     82.44056 
   30600    783.40817   -108.11605   0.70884418    -107.4072    7325.3189     4.355722     4.355722     4.355722    7325.3189    16536.709   -6790.1437    12229.391    7549.4152    3845.1299    3901.0131    82.638124 
   30700    1086.4199   -108.38147   0.98301556   -107.39845     1608.627    4.3529367    4.3529367    4.3529367     1608.627    1855.5482    16948.326   -13977.993    6449.9271   -7801.2092   -3257.1096    82.479698 
   30800    794.56427   -108.12013   0.71893845    -107.4012    787.35305    4.3460441    4.3460441    4.3460441    787.35305   -28506.779    9468.4206    21400.418   -4154.7328   -13446.902    12305.688     82.08851 
   30900    1173.7122   -108.46405    1.0619995   -107.40205   -5869.0525    4.3530582    4.3530582    4.3530582   -5869.0525   -17848.185    24478.619   -24237.592    5874.4203    8996.2895    3710.8859    82.486601 
   31000    742.73015   -108.07542   0.67203785   -107.40338   -9454.2147    4.3607547    4.3607547    4.3607547   -9454.2147   -29202.477    21572.094   -20732.261   -8305.8658   -11384.733    -5422.542    82.924902 
   31100    844.58863   -108.16043   0.76420154   -107.39623    4817.6198    4.3467357    4.3467357    4.3467357    4817.6198   -38.279493    13148.766    1342.3726   -3450.1265     629.7158    4533.9673    82.127708 
   31200    942.85474   -108.25156   0.85311478   -107.39844    18201.722    4.3451482    4.3451482    4.3451482    18201.722    37768.604    3757.9133    13078.648   -8369.7165   -1340.1484   -7008.2872     82.03776 
   31300    869.25602   -108.19638   0.78652112   -107.40986   -2674.7192    4.3545598    4.3545598    4.3545598   -2674.7192    8917.5081   -2431.1223   -14510.543    1665.1858   -6736.7196    9.6718972    82.571993 
   31400    1120.9228   -108.41809    1.0142345   -107.40385    -25894.12    4.3594636    4.3594636    4.3594636    -25894.12   -26878.126   -37692.945   -13111.289   -1454.0377   -912.43509    349.99612    82.851272 
   31500    815.77051   -108.14184    0.7381263   -107.40371    15928.482    4.3353473    4.3353473    4.3353473    15928.482    28825.766     7178.251    11781.429    7810.6032    2641.9541    933.54598    81.483877 
   31600    863.12734   -108.20132   0.78097575   -107.42034   -7117.6011    4.3526397    4.3526397    4.3526397   -7117.6011   -10716.365   -14264.239       3627.8    839.27817   -11700.959   -1046.3273    82.462816 
   31700    803.11599   -108.13416   0.72667623   -107.40748   -3316.5694    4.3637725    4.3637725    4.3637725   -3316.5694    1761.5851   -11491.183   -220.11079   -4996.2323    3757.2319   -3912.5791    83.097181 
   31800     1044.678   -108.33522   0.94524659   -107.38997    24800.003    4.3293361    4.3293361    4.3293361    24800.003    12622.142    50511.924    11265.945    11726.212   -3907.7308   -563.51205    81.145399 
   31900    819.22195   -108.15062   0.74124924   -107.40937   -12813.459    4.3582576    4.3582576    4.3582576   -12813.459   -31401.554    3743.0026   -10781.825    -7564.259   -825.95225    9057.3211    82.782527 
   32000    1111.4587   -108.40381    1.0056712   -107.39814   -18286.431    4.3558937    4.3558937    4.3558937   -18286.431   -29382.414    9567.3093    -35044.19    14336.636    3809.3444    4410.9936    82.647897 
   32100     863.6644   -108.18199    0.7814617   -107.40053    501.29503     4.341338     4.341338     4.341338    501.29503   -21517.445   -523.50793    23544.838    8572.8814   -3227.6611    4155.2212    81.822133 
   32200    1053.2172   -108.35739   0.95297303   -107.40441   -3889.3558    4.3573988    4.3573988    4.3573988   -3889.3558   -42911.648    46523.135   -15279.555   -5541.5166   -6641.7131   -2328.2929    82.733599 
   32300    1063.1578   -108.36238   0.96196756   -107.40041   -12839.752    4.3574636    4.3574636    4.3574636   -12839.752   -34124.021   -13847.671    9452.4369    9306.0922    400.99568   -12070.113     82.73729 
   32400    554.06687   -107.90047   0.50133135   -107.39914    14578.857    4.3442185    4.3442185    4.3442185    14578.857   -951.18603    47816.228   -3128.4715   -10550.629   -14228.106   -2279.2824    81.985108 
   32500    996.91442   -108.30087   0.90202912   -107.39884    2985.9706    4.3479263    4.3479263    4.3479263    2985.9706    25627.056    -3785.778   -12883.366   -9634.8505    2944.4525   -2424.7608    82.195214 
   32600    562.97803   -107.91649   0.50939435    -107.4071   -6934.6837    4.3641393    4.3641393    4.3641393   -6934.6837    4901.8428    -20665.24   -5040.6536    7593.3498     1801.419   -1681.9782    83.118139 
   32700    1009.9168   -108.30909   0.91379392   -107.39529   -2030.5504    4.3522197    4.3522197    4.3522197   -2030.5504    29034.051   -22556.844   -12568.858    -9264.644   -4050.5365    3939.0419    82.438949 
   32800    1091.5338    -108.3819   0.98764275   -107.39426    14640.762    4.3397437    4.3397437    4.3397437    14640.762   -999.18911    7654.5205    37266.956    15813.856    5777.4736   -2144.5463    81.732021 
   32900     889.1412    -108.2112   0.80451364   -107.40669   -40981.001    4.3627258    4.3627258    4.3627258   -40981.001   -44005.889   -27496.537   -51440.577    8725.3796   -15048.967    4706.3727    83.037403 
   33000    938.32427   -108.24628   0.84901552   -107.39726    771.42644    4.3533229    4.3533229    4.3533229    771.42644    926.81285    1045.1287    342.33775   -2737.8651   -5651.1869     1062.781     82.50165 
   33100      881.233   -108.19304   0.79735814   -107.39568     2584.328    4.3447744    4.3447744    4.3447744     2584.328    5969.3345   -6507.1152    8290.7646    8573.0079    2103.3517    8189.7207    82.016589 
   33200    749.10939   -108.08189   0.67780992   -107.40408     -8079.22    4.3498058    4.3498058    4.3498058     -8079.22    11233.701   -13704.249   -21767.112    8270.0071    -15432.03   -7323.7866    82.301853 
   33300    935.03944   -108.24772   0.84604334   -107.40168    11134.767     4.348755     4.348755     4.348755    11134.767    19155.693    8386.5824    5862.0255   -3868.0114    1890.4797   -5472.7942     82.24222 
   33400    855.22687   -108.17738   0.77382724   -107.40355   -20131.825    4.3569488    4.3569488    4.3569488   -20131.825   -23664.375   -13871.424   -22859.676    8401.8462    72.421134   -2048.5316    82.707973 
   33500     884.8298   -108.19733    0.8006126   -107.39671   -9337.0122    4.3503551    4.3503551    4.3503551   -9337.0122   -31021.068    18845.693   -15835.661    6746.3568   -17872.887   -3650.5955    82.333036 
   33600    1239.2182    -108.5116    1.1212707   -107.39033   -2118.7165    4.3485908    4.3485908    4.3485908   -2118.7165   -10669.134   -5705.0388    10018.023   -8916.2129    1608.5823   -11118.152    82.232902 
   33700    767.77977   -108.09224   0.69470327   -107.39753   -15471.761    4.3579595    4.3579595    4.3579595   -15471.761   -15271.535   -8058.1333   -23085.615     7392.313   -14156.024    5297.9876    82.765546 
   33800    869.60874   -108.18633   0.78684027   -107.39949   -2016.0293    4.3459469    4.3459469    4.3459469   -2016.0293    19901.861   -11255.657   -14694.293   -5154.8449   -7091.2147    2109.3506    82.083006 
   33900    758.59144   -108.09128   0.68638948   -107.40489     12252.03    4.3466929    4.3466929    4.3466929     12252.03    31642.216    14589.567   -9475.6945    844.64375    10278.109    1830.1875     82.12528 
   34000    774.45757   -108.11032   0.70074548   -107.40957   -11729.091    4.3535377    4.3535377    4.3535377   -11729.091   -29109.666   -18092.198    12014.592    4787.0809   -14424.403    5979.5015    82.513863 
   34100    1090.7604   -108.38657   0.98694295   -107.39962    1911.7761    4.3517922    4.3517922    4.3517922    1911.7761   -12808.399    15969.812    2573.9151    1303.3203   -4511.7178    7185.6482    82.414656 
   34200    1199.3187   -108.48343    1.0851688   -107.39826   -17040.524    4.3543728    4.3543728    4.3543728   -17040.524   -17908.972   -19995.369    -13217.23    11391.521   -1935.7712    663.25763     82.56136 
   34300    609.19571   -107.95437   0.55121308   -107.40315    10095.679    4.3468038    4.3468038    4.3468038    10095.679    6940.9667     16492.34    6853.7305    8327.6505   -14374.243   -11999.862    82.131566 
   34400    965.07789     -108.276   0.87322276   -107.40278    1389.6182    4.3494632    4.3494632    4.3494632    1389.6182    30206.232   -23085.046   -2952.3306   -3404.7085     17289.18    11681.163    82.282408 
   34500    611.30128   -107.96016   0.55311824   -107.40704     2047.943    4.3541779    4.3541779    4.3541779     2047.943    4504.6214   -26564.698    28203.906   -4129.8822     566.2429   -4523.0159    82.550271 
   34600    1023.5786   -108.32951   0.92615544   -107.40336   -4903.6781    4.3501292    4.3501292    4.3501292   -4903.6781   -13666.893    9393.1131   -10437.255      9241.16   -17400.024   -1205.5833    82.320209 
   34700    1102.9736   -108.40037    0.9979937   -107.40238   -3374.6447    4.3537651    4.3537651    4.3537651   -3374.6447   -5484.0644   -15546.915    10907.045   -13650.613    2242.3514   -4215.4641    82.526793 
   34800    872.40204    -108.1935    0.7893677   -107.40414    1956.5725    4.3467652    4.3467652    4.3467652    1956.5725    13684.182   -6307.0277   -1507.4364    8639.7991   -9578.3747   -3546.5877    82.129382 
   34900    580.37528   -107.93294   0.52513575   -107.40781    7052.4815    4.3564932    4.3564932    4.3564932    7052.4815    6665.7529   -12651.298    27142.989   -3618.1578    1543.2176   -4610.0567     82.68203 
   35000    779.31939   -108.10216   0.70514456   -107.39702    1914.3484    4.3599547    4.3599547    4.3599547    1914.3484    29961.339   -37615.167    13396.874    -5158.336    13068.989   -4912.3979    82.879272 
[...]
   91200    1079.7406   -108.38139   0.97697196   -107.40442    13365.744    4.3274673    4.3274673    4.3274673    13365.744    8975.8655    38623.611   -7502.2447   -6320.7099    5632.2198    4853.6671    81.040366 
   91300    453.41368    -107.8307   0.41025822   -107.42044   -900.72877    4.3235345    4.3235345    4.3235345   -900.72877    4275.6463    20361.211   -27339.044   -1164.1802    30434.718   -4901.9044    80.819617 
   91400    1309.4057   -108.59606    1.1847778   -107.41128   -15784.787    4.3548659    4.3548659    4.3548659   -15784.787    24095.583   -30625.931   -40824.013   -6817.7716   -8818.5395    616.04159    82.589407 
   91500    740.86936    -108.0876   0.67035416   -107.41724     5350.275     4.336008     4.336008     4.336008     5350.275    1377.0387    33177.135   -18503.349    5866.1701    23193.412   -5085.7255    81.521134 
   91600    698.18764   -108.04464   0.63173485   -107.41291    7261.3201    4.3228476    4.3228476    4.3228476    7261.3201    36995.052    6264.9786    -21476.07   -2810.5137    18823.469   -942.10906    80.781103 
   91700    1148.6168   -108.44687    1.0392926   -107.40758   -2988.6248    4.3476327    4.3476327    4.3476327   -2988.6248     15544.36    -1185.956   -23324.278    3647.2244   -10546.171   -5883.2276    82.178564 
   91800    837.22492   -108.16735    0.7575387   -107.40982   -254.42548    4.3384114    4.3384114    4.3384114   -254.42548   -17649.688    32303.362    -15416.95    6203.0136    34655.004   -3442.3011     81.65677 
   91900    886.70888   -108.21034   0.80231283   -107.40802    6.0925082    4.3370452    4.3370452    4.3370452    6.0925082    57776.387   -22174.929    -35583.18   -380.90065   -5717.4389   -9516.2763    81.579653 
   92000    981.76097   -108.29569   0.88831796   -107.40737    7173.9055     4.331396     4.331396     4.331396    7173.9055   -9023.3737    32793.315   -2248.2245    -6810.324    7656.5825   -2140.4606    81.261283 
   92100    761.85929   -108.10438   0.68934629   -107.41504   -1097.9531    4.3433931    4.3433931    4.3433931   -1097.9531    22104.636    10751.187   -36149.682    6203.9096    20220.633   -1970.8568    81.938385 
   92200    1071.8965   -108.37444   0.96987447   -107.40457    -18921.43    4.3459088    4.3459088    4.3459088    -18921.43   -15670.855   -8042.6242   -33050.812    -10156.87   -13023.425     2626.432    82.080848 
   92300    786.30565   -108.11166   0.71146588   -107.40019    22095.735    4.3213868    4.3213868    4.3213868    22095.735    23291.333     34795.55    8200.3239    5711.3256    21659.498    3748.5568    80.699237 
   92400    952.00363   -108.27213   0.86139289   -107.41074   -20596.951    4.3442722    4.3442722    4.3442722   -20596.951   -3780.2539   -13602.561   -44408.037   -3899.4426    6474.5431    -16907.82    81.988151 
   92500    821.32007   -108.15058   0.74314766   -107.40743     1353.593    4.3362497    4.3362497    4.3362497     1353.593    13985.308   -7889.6704    -2034.859    6566.8258   -2832.6725   -8346.3995    81.534772 
   92600    891.09224   -108.21537   0.80627898   -107.40909   -5632.2718     4.333842     4.333842     4.333842   -5632.2718   -10324.489    17019.361   -23591.688   -10972.707    12072.899   -1138.7981    81.399028 
   92700     781.6531     -108.118   0.70725616   -107.41075   -15149.647    4.3413934    4.3413934    4.3413934   -15149.647    24282.796   -38930.746   -30800.991    12411.271    2172.4056   -31721.539    81.825263 
   92800     1088.442   -108.39261   0.98484521   -107.40777    12186.791    4.3286683    4.3286683    4.3286683    12186.791    6866.5275    28533.095    1160.7507   -6414.1714   -7413.1745    15158.168    81.107855 
   92900     816.4496   -108.15087   0.73874076   -107.41212   -34062.754     4.348581     4.348581     4.348581   -34062.754   -10611.166   -36038.456   -55538.641    1759.5284    14220.097   -26082.131    82.232351 
   93000    859.96752   -108.18954   0.77811668   -107.41142    11719.053    4.3194224    4.3194224    4.3194224    11719.053    35931.919   -9385.3418    8610.5829    15824.303   -1909.3899   -15003.239    80.589232 
   93100    991.72984   -108.31596     0.897338   -107.41862   -2796.6587    4.3354263    4.3354263    4.3354263   -2796.6587    9763.1661    9586.6492   -27739.791   -1435.9177   -2841.3196    5688.3106    81.488329 
   93200    537.52865   -107.90056   0.48636722   -107.41419   -33084.497    4.3509353    4.3509353    4.3509353   -33084.497    4271.0354   -48470.072   -55054.456    4677.2532    768.45334   -38349.031    82.365982 
   93300    1289.1409   -108.56194    1.1664418   -107.39549    18540.716    4.3148094    4.3148094    4.3148094    18540.716    26288.237    8165.5521    21168.358    3726.5382    593.07135    3079.4264    80.331308 
   93400    720.60648    -108.0658   0.65201989   -107.41378    -7787.149    4.3429412    4.3429412    4.3429412    -7787.149    33533.572   -20850.729    -36044.29   -7373.6684   -10684.489   -18044.915    81.912816 
   93500    690.04633   -108.03893   0.62436842   -107.41457   -15968.079    4.3356122    4.3356122    4.3356122   -15968.079    9383.4959   -22850.116   -34437.618    3585.8026    6763.8592   -27912.185    81.498814 
   93600    1094.2771   -108.39615   0.99012496   -107.40602     18247.68    4.3317177    4.3317177    4.3317177     18247.68    29367.397   -7450.2287     32825.87    15261.266   -1259.1379    5130.0438    81.279393 
   93700    907.48999   -108.23118   0.82111601   -107.41006   -30619.806    4.3448733    4.3448733    4.3448733   -30619.806   -7074.2779   -34626.182   -50158.959    -1502.012    -1460.114   -33158.676    82.022185 
   93800    786.20983   -108.11595   0.71137918   -107.40457    29473.545    4.3197744    4.3197744    4.3197744    29473.545    59732.715   -181.33384    28869.253     6239.986    10811.944   -3748.0489    80.608937 
   93900    1070.7059    -108.3742   0.96879721    -107.4054   -31112.937    4.3508955    4.3508955    4.3508955   -31112.937   -24742.724   -36770.016    -31826.07    12795.595   -971.81432   -7508.2765     82.36372 
   94000    679.27377   -108.02309   0.61462118   -107.40847    5593.2329    4.3265785    4.3265785    4.3265785    5593.2329     50702.97   -18130.342   -15792.929   -6313.4738    2794.5635   -28013.407     80.99044 
   94100    1095.8511   -108.39895   0.99154915    -107.4074    1455.4417    4.3265199    4.3265199    4.3265199    1455.4417   -8029.0068    4534.1329    7861.1989    16279.094    6650.8379    3308.0326    80.987152 
   94200    749.93914   -108.08123   0.67856069   -107.40267   -30092.884    4.3534394    4.3534394    4.3534394   -30092.884    14844.796   -60451.162   -44672.286    12685.009   -2452.1727   -16223.749    82.508274 
   94300    1105.0358   -108.39168   0.99985957   -107.39182    19615.541    4.3160302    4.3160302    4.3160302    19615.541    36693.983    8270.9167    13881.722   -7053.8959    9429.5479   -15113.695    80.399514 
   94400    710.87228   -108.05068   0.64321218   -107.40746   -17368.042    4.3405715    4.3405715    4.3405715   -17368.042   -2278.7401   -39189.748   -10635.638    22576.846    2669.3339     9560.696    81.778803 
   94500    806.89223   -108.13406   0.73009305   -107.40396   -9872.1037    4.3342854    4.3342854    4.3342854   -9872.1037    24660.342   -43186.652   -11090.001   -1166.0471    187.93767   -16871.753    81.424014 
   94600    940.00875   -108.25263   0.85053968   -107.40209    7832.0848    4.3305662    4.3305662    4.3305662    7832.0848    25316.433    1553.1881   -3373.3663    8709.1182    2123.7214    1863.0107    81.214588 
   94700    684.35091   -108.03076   0.61921509   -107.41155   -26950.268    4.3405741    4.3405741    4.3405741   -26950.268    2537.5599   -55239.048   -28149.316    18804.799     9242.737    4677.3548    81.778947 
   94800    1114.0561   -108.41525    1.0080214   -107.40723    19287.994     4.321389     4.321389     4.321389    19287.994     59799.88   -5417.5922    3481.6939   -1050.0702     499.5709   -16068.813    80.699361 
   94900    869.50216   -108.20201   0.78674383   -107.41527   -25397.492    4.3417671    4.3417671    4.3417671   -25397.492    -21362.98   -17343.596   -37485.901    847.56754   -469.61238    11468.601    81.846398 
   95000    762.75611   -108.10138   0.69015775   -107.41122    7291.9795    4.3292864    4.3292864    4.3292864    7291.9795    64139.016   -30099.471   -12163.607    5891.5583    591.52796   -3736.3407    81.142607 
   95100    1108.4602   -108.40714    1.0029581   -107.40418   -1975.6342    4.3358405    4.3358405    4.3358405   -1975.6342   -692.03472    964.55544   -6199.4234   -5464.4004   -7568.2923   -7186.3305    81.511692 
   95200    670.09194   -108.01488   0.60631327   -107.40857   -4472.1652    4.3367938    4.3367938    4.3367938   -4472.1652    18678.306   -17702.451    -14392.35   -1540.0573    1299.0708    10217.948    81.565467 
   95300    1243.3843   -108.52526    1.1250402   -107.40022    9424.8296     4.330164     4.330164     4.330164    9424.8296     38638.33   -20227.113     9863.272    9338.2309    5510.9966   -5230.7341    81.191964 
   95400    696.06328   -108.03955   0.62981268   -107.40973   -2803.0896    4.3382938    4.3382938    4.3382938   -2803.0896    15384.568   -31.398056   -23762.439   -17524.605   -11513.363    6172.9927    81.650133 
   95500    809.68078   -108.14439   0.73261619   -107.41177   -6223.3317    4.3379394    4.3379394    4.3379394   -6223.3317    26675.865   -17377.274   -27968.586    4055.9157    5222.2494    4309.9921    81.630119 
   95600    1288.5023   -108.57067     1.165864   -107.40481    8049.6373    4.3273092    4.3273092    4.3273092    8049.6373    31224.308   -4862.7229   -2212.6734     3775.499   -1959.0787    203.43833    81.031481 
   95700    483.82485   -107.86098   0.43777489    -107.4232   -7860.6122    4.3339129    4.3339129    4.3339129   -7860.6122    8232.1415   -3801.2164   -28012.762   -21781.676   -6687.1414    12320.187    81.403026 
   95800    1173.3843   -108.47128    1.0617027   -107.40958   -7488.3025    4.3433933    4.3433933    4.3433933   -7488.3025     14995.11   -15830.009   -21630.009    11908.483    9486.4758    2052.7995    81.938396 
   95900    844.78762   -108.17302   0.76438159   -107.40864   -3373.6394    4.3331092    4.3331092    4.3331092   -3373.6394    14531.483   -22518.863    -2133.538   -12856.415   -16915.012   -1431.3817    81.357745 
   96000    529.91344   -107.89891   0.47947682   -107.41943   -16358.475    4.3291999    4.3291999    4.3291999   -16358.475   -9629.4862   -13580.454   -25865.484   -5463.0233   -1654.3309    14876.983    81.137744 
   96100    1395.3529   -108.67336    1.2625447   -107.41081    11272.744    4.3327313    4.3327313    4.3327313    11272.744    23179.672    930.77741    9707.7822   -177.78081    13690.877   -6035.9212    81.336462 
   96200    528.51689   -107.90092   0.47821319    -107.4227   -17906.719    4.3482245    4.3482245    4.3482245   -17906.719    14058.641   -41554.789    -26224.01    -17263.83   -13909.064     991.3424    82.212127 
   96300    926.30252   -108.25257   0.83813799   -107.41443    7831.1044    4.3254123    4.3254123    4.3254123    7831.1044     9396.494    12288.091    1808.7284   -15020.425   -6468.7177    7282.0724    80.924967 
   96400    1092.9703   -108.40209   0.98894251   -107.41315    5512.6568    4.3342209    4.3342209    4.3342209    5512.6568    36703.898   -16315.492   -3850.4352    6964.4885   -2365.3768   -12877.877    81.420379 
   96500    698.44271   -108.04954   0.63196564   -107.41758   -4785.1113    4.3360696    4.3360696    4.3360696   -4785.1113    12185.315   -15228.843   -11311.807   -9952.4032   -17143.292    10009.659    81.524611 
   96600    1039.0381   -108.35125   0.94014351   -107.41111    6041.5988    4.3340088    4.3340088    4.3340088    6041.5988    40323.458   -9994.5417    -12204.12   -7917.1581   -631.70753   -10422.275    81.408429 
   96700    966.73383   -108.28915   0.87472108   -107.41443    4917.2588    4.3357337    4.3357337    4.3357337    4917.2588    57526.401    -29650.37   -13124.255    3441.7281    2963.9003   -9508.9187    81.505667 
   96800    832.18365   -108.17295   0.75297726   -107.41997   -178.02761    4.3293111    4.3293111    4.3293111   -178.02761    9235.7598   -10198.071    428.22864   -15006.291   -21089.598    8182.1574    81.143995 
   96900    863.70721    -108.1996   0.78150043    -107.4181    7269.1134    4.3356688    4.3356688    4.3356688    7269.1134    43442.696    -21326.48    -308.8758    5339.5202   -834.06181   -20332.931    81.502004 
   97000    1207.8219   -108.50224    1.0928627   -107.40938   -1695.2272    4.3399159    4.3399159    4.3399159   -1695.2272     24162.99   -23358.385   -5890.2862    1924.2704    3945.8313    5141.1037    81.741752 
   97100    456.85279    -107.8289      0.41337   -107.41553    8397.0095    4.3350036    4.3350036    4.3350036    8397.0095    49625.208   -23463.897   -970.28256   -16061.703   -8781.7389   -6530.2983    81.464498 
   97200    1078.5372   -108.38983   0.97588313   -107.41395   -6239.5493    4.3289487    4.3289487    4.3289487   -6239.5493    17127.234   -25282.436   -10563.446   -96.998503    1516.8375   -18859.583    81.123618 
   97300    1055.7978   -108.36868   0.95530807   -107.41338   -3247.4203     4.337926     4.337926     4.337926   -3247.4203    13407.566   -34503.634    11353.807   -73.303093   -6057.5438    8236.1381    81.629365 
   97400    689.46501   -108.04288   0.62384243   -107.41903   -1749.7387    4.3280191    4.3280191    4.3280191   -1749.7387    15862.531   -12346.298   -8765.4485   -11405.823   -14154.288    -23911.53    81.071371 
   97500    1121.7647   -108.42782    1.0149963   -107.41282    1352.6001     4.344645     4.344645     4.344645    1352.6001    40818.505   -25065.505   -11695.199    2649.0966    4141.6695   -6253.9597    82.009257 
   97600    1178.2672   -108.48219    1.0661209   -107.41607    755.84208    4.3284599    4.3284599    4.3284599    755.84208    12589.644    -27178.23    16856.112   -294.53982    5251.9097   -6697.9658    81.096143 
   97700    360.75647   -107.75515   0.32642003   -107.42873    12787.298    4.3247076    4.3247076    4.3247076    12787.298    74841.021   -21641.251   -14837.875   -16535.736   -23106.812   -28859.804    80.885419 
   97800    1286.0733   -108.57068    1.1636662   -107.40701    141.59677     4.347733     4.347733     4.347733    141.59677    28081.986   -17270.736    -10386.46    8872.6991    223.11921    9025.5967    82.184249 
   97900    905.35813   -108.23435   0.81918706   -107.41517    -3045.915    4.3263757    4.3263757    4.3263757    -3045.915    31655.844   -27998.187   -12795.402   -9773.0014   -6465.0528   -28502.145    80.979054 
   98000    559.91575   -107.93228   0.50662353   -107.42566   -9116.5642    4.3228435    4.3228435    4.3228435   -9116.5642    4210.0602   -14454.175   -17105.578   -12377.884   -20407.897    -10214.32    80.780873 
   98100    1286.2987   -108.58246    1.1638701   -107.41859   -4176.2391    4.3374522    4.3374522    4.3374522   -4176.2391    31248.586   -24906.482    -18870.82    5251.0242    8720.5231    4947.0467    81.602621 
   98200    542.13476   -107.91501   0.49053492   -107.42448   -25661.655    4.3476882    4.3476882    4.3476882   -25661.655    13246.797   -54680.123   -35551.637   -13845.095   -10036.577   -26027.569    82.181708 
   98300    940.36424   -108.26602   0.85086132   -107.41516    6073.3451    4.3111664    4.3111664    4.3111664    6073.3451    9360.6628    2702.9784    6156.3941   -11855.517   -22990.139    9849.1293     80.12801 
   98400    1054.6693   -108.37541   0.95428696   -107.42113    12504.712    4.3335791    4.3335791    4.3335791    12504.712    41850.478   -23008.436    18672.093     7834.896    4616.5392   -5162.8531    81.384215 
   98500    921.29815   -108.24755   0.83360993   -107.41394   -29071.186    4.3484951    4.3484951    4.3484951   -29071.186   -15100.321   -40670.179   -31443.057   -13678.889   -5727.9041   -11765.294    82.227478 
   98600    591.22725   -107.94044   0.53495484   -107.40549    31002.088    4.3108582    4.3108582    4.3108582    31002.088    46658.581    6498.6443    39849.038   -7609.0962   -17246.626    4717.5671    80.110829 
   98700    1222.9029   -108.51841    1.1065083    -107.4119   -10429.132    4.3309902    4.3309902    4.3309902   -10429.132    8594.1606   -28470.618   -11410.938    16660.101   -2286.1733   -495.26684    81.238447 
   98800      942.922   -108.26629   0.85317564   -107.41311   -6070.3198    4.3422726    4.3422726    4.3422726   -6070.3198    2663.8642   -21118.701    243.87704    -14459.34   -7361.0162   -5134.9681    81.874991 
   98900    738.63119   -108.08229   0.66832903   -107.41396   -16259.536    4.3390475    4.3390475    4.3390475   -16259.536    -9849.857   -26477.709   -12451.042   -5344.9916   -22688.869    9238.3608    81.692695 
   99000    1031.9762   -108.33834   0.93375375   -107.40458    21025.664    4.3153189    4.3153189    4.3153189    21025.664    53467.157    -14217.81    23827.644    11791.031     13425.32    5620.8709    80.359769 
   99100    661.09114   -108.02276   0.59816916   -107.42459   -11303.438    4.3361672    4.3361672    4.3361672   -11303.438   -24485.091   -27810.043    18384.819   -27193.968   -4398.0727   -4837.3371    81.530115 
   99200    826.75266   -108.16531   0.74806318   -107.41725   -30991.388    4.3432187    4.3432187    4.3432187   -30991.388    -33486.54    -30421.58   -29066.045    5601.3964   -21747.253    22021.557    81.928517 
   99300    1181.9688      -108.47    1.0694702   -107.40053    38973.754    4.3061327    4.3061327    4.3061327    38973.754      56042.9    16836.992     44041.37   -4201.5898    13916.386   -7053.1301    79.847666 
   99400    722.45893   -108.07593   0.65369602   -107.42224   -25910.449     4.339105     4.339105     4.339105   -25910.449   -23995.293   -28167.286   -25568.767   -23887.781   -9360.5625    4233.2879    81.695942 
   99500    830.89583   -108.16357   0.75181201   -107.41176   -11796.885    4.3406636    4.3406636    4.3406636   -11796.885     11202.81    -12536.54   -34056.924    8959.8234   -7895.8584     17103.58    81.784005 
   99600    1275.2537   -108.55648    1.1538763    -107.4026    2237.4075       4.3232       4.3232       4.3232    2237.4075    3413.2273   -19988.218    23287.214   -11996.401    3474.0577   -9563.6109    80.800861 
   99700    392.87303   -107.77711   0.35547977   -107.42163      8052.52    4.3282792    4.3282792    4.3282792      8052.52    41930.912   -14841.311   -2932.0407   -7643.6758   -17947.171    13933.141    81.085984 
   99800     922.4727   -108.25727   0.83467268   -107.42259   -10201.424    4.3408172    4.3408172    4.3408172   -10201.424   -8404.9643   -20242.764   -1956.5434    1542.6948   -24307.551    4152.5272    81.792691 
   99900    1074.9294   -108.38439   0.97261868   -107.41177    5448.8062    4.3347098    4.3347098    4.3347098    5448.8062    13278.188   -17419.378    20487.609   -10242.223     17978.22   -5331.6072    81.447938 
  100000    878.93849   -108.20817   0.79528202   -107.41289   -10429.094    4.3234682    4.3234682    4.3234682   -10429.094   -12802.689   -11471.349   -7013.2447   -3598.3253    -16826.46     15875.83    80.815898 
Loop time of 22.3508 on 1 procs for 100000 steps with 8 atoms

Pair  time (%) = 6.99596 (31.3007)
Kspce time (%) = 5.44601 (24.3661)
Neigh time (%) = 0 (0)
Comm  time (%) = 1.10493 (4.9436)
Outpt time (%) = 0.0269361 (0.120515)
Other time (%) = 8.77695 (39.2691)

Nlocal:    8 ave 8 max 8 min
Histogram: 1 0 0 0 0 0 0 0 0 0
Nghost:    2189 ave 2189 max 2189 min
Histogram: 1 0 0 0 0 0 0 0 0 0
Neighs:    2344 ave 2344 max 2344 min
Histogram: 1 0 0 0 0 0 0 0 0 0

Total # of neighbors = 2344
Ave neighs/atom = 293
Neighbor list builds = 0
Dangerous builds = 0
seeds:7178688
