# ['Ni']

18 atoms
1 atom types

    0.0000     2.3498 xlo xhi
    0.0000     4.0701 ylo yhi
    0.0000    34.5299 zlo zhi

    0.0000     0.0000    -0.0004 xy xz yz

Atoms

1 1     0.0000     0.0000     0.0000
2 1     1.1749     0.6783     1.9183
3 1     0.0000     1.3567     3.8367
4 1     1.1749     2.0350     0.0000
5 1     0.0000     2.7134     1.9183
6 1     1.1749     3.3917     3.8367
7 1     0.0000     0.0000     5.7550
8 1     1.1749     0.6783     7.6733
9 1     0.0000     1.3567     9.5917
10 1     1.1749     2.0350     5.7550
11 1     0.0000     2.7134     7.6733
12 1     1.1749     3.3917     9.5917
13 1     0.0000     0.0000    11.5100
14 1     1.1749     0.6783    13.4283
15 1     0.0000     1.3567    15.3466
16 1     1.1749     2.0350    11.5100
17 1     0.0000     2.7134    13.4283
18 1     1.1749     3.3917    15.3466
