   2   2   0   0
  0.9563318E+01  0.3001819E-09  0.3001820E-09  0.3001819E-09  0.5000000E-15
  1.000000000000000E-004
  CAR 
 automatically generated by pyflamestk   
     44.07434485    -16.31932713  301      3.63574865      1.00000000
    -16.319  0.0000E+00  0.0000E+00
    -16.118  0.0000E+00  0.0000E+00
    -15.917  0.0000E+00  0.0000E+00
    -15.715  0.0000E+00  0.0000E+00
    -15.514  0.0000E+00  0.0000E+00
    -15.313  0.0000E+00  0.0000E+00
    -15.111  0.0000E+00  0.0000E+00
    -14.910  0.0000E+00  0.0000E+00
    -14.709  0.0000E+00  0.0000E+00
    -14.508  0.0000E+00  0.0000E+00
    -14.306  0.0000E+00  0.0000E+00
    -14.105  0.0000E+00  0.0000E+00
    -13.904  0.0000E+00  0.0000E+00
    -13.702  0.4513E-04  0.9085E-05
    -13.501  0.3045E+00  0.6130E-01
    -13.300  0.1016E-01  0.6334E-01
    -13.098  0.9262E+00  0.2498E+00
    -12.897  0.6502E+00  0.3807E+00
    -12.696  0.7782E+00  0.5373E+00
    -12.494  0.2439E+01  0.1028E+01
    -12.293  0.2827E+01  0.1597E+01
    -12.092  0.2000E+01  0.2000E+01
    -11.890  0.1535E-05  0.2000E+01
    -11.689  0.0000E+00  0.2000E+01
    -11.488  0.0000E+00  0.2000E+01
    -11.287  0.0000E+00  0.2000E+01
    -11.085  0.0000E+00  0.2000E+01
    -10.884  0.0000E+00  0.2000E+01
    -10.683  0.0000E+00  0.2000E+01
    -10.481  0.0000E+00  0.2000E+01
    -10.280  0.0000E+00  0.2000E+01
    -10.079  0.0000E+00  0.2000E+01
     -9.877  0.0000E+00  0.2000E+01
     -9.676  0.0000E+00  0.2000E+01
     -9.475  0.0000E+00  0.2000E+01
     -9.273  0.0000E+00  0.2000E+01
     -9.072  0.0000E+00  0.2000E+01
     -8.871  0.0000E+00  0.2000E+01
     -8.669  0.0000E+00  0.2000E+01
     -8.468  0.0000E+00  0.2000E+01
     -8.267  0.0000E+00  0.2000E+01
     -8.066  0.0000E+00  0.2000E+01
     -7.864  0.0000E+00  0.2000E+01
     -7.663  0.0000E+00  0.2000E+01
     -7.462  0.0000E+00  0.2000E+01
     -7.260  0.0000E+00  0.2000E+01
     -7.059  0.0000E+00  0.2000E+01
     -6.858  0.0000E+00  0.2000E+01
     -6.656  0.0000E+00  0.2000E+01
     -6.455  0.0000E+00  0.2000E+01
     -6.254  0.0000E+00  0.2000E+01
     -6.052  0.0000E+00  0.2000E+01
     -5.851  0.0000E+00  0.2000E+01
     -5.650  0.0000E+00  0.2000E+01
     -5.448  0.0000E+00  0.2000E+01
     -5.247  0.0000E+00  0.2000E+01
     -5.046  0.0000E+00  0.2000E+01
     -4.845  0.0000E+00  0.2000E+01
     -4.643  0.0000E+00  0.2000E+01
     -4.442  0.0000E+00  0.2000E+01
     -4.241  0.0000E+00  0.2000E+01
     -4.039  0.0000E+00  0.2000E+01
     -3.838  0.0000E+00  0.2000E+01
     -3.637  0.0000E+00  0.2000E+01
     -3.435  0.0000E+00  0.2000E+01
     -3.234  0.0000E+00  0.2000E+01
     -3.033  0.0000E+00  0.2000E+01
     -2.831  0.0000E+00  0.2000E+01
     -2.630  0.0000E+00  0.2000E+01
     -2.429  0.0000E+00  0.2000E+01
     -2.227  0.0000E+00  0.2000E+01
     -2.026  0.0000E+00  0.2000E+01
     -1.825  0.0000E+00  0.2000E+01
     -1.624  0.0000E+00  0.2000E+01
     -1.422  0.0000E+00  0.2000E+01
     -1.221  0.0000E+00  0.2000E+01
     -1.020  0.1286E-06  0.2000E+01
     -0.818  0.6618E+00  0.2133E+01
     -0.617  0.2944E+00  0.2192E+01
     -0.416  0.3937E+00  0.2272E+01
     -0.214  0.2496E+01  0.2774E+01
     -0.013  0.1963E+01  0.3169E+01
      0.188  0.1941E+01  0.3560E+01
      0.390  0.9389E+00  0.3749E+01
      0.591  0.3775E-02  0.3750E+01
      0.792  0.1499E-07  0.3750E+01
      0.994  0.9659E+00  0.3944E+01
      1.195  0.2392E+01  0.4426E+01
      1.396  0.3677E+00  0.4500E+01
      1.597  0.1404E-03  0.4500E+01
      1.799  0.2695E+01  0.5042E+01
      2.000  0.1324E+00  0.5069E+01
      2.201  0.2464E+01  0.5565E+01
      2.403  0.2244E+01  0.6017E+01
      2.604  0.4459E+01  0.6915E+01
      2.805  0.1372E+01  0.7191E+01
      3.007  0.2736E+01  0.7742E+01
      3.208  0.6620E+00  0.7875E+01
      3.409  0.6177E+00  0.7999E+01
      3.611  0.2539E-02  0.8000E+01
      3.812  0.0000E+00  0.8000E+01
      4.013  0.0000E+00  0.8000E+01
      4.215  0.0000E+00  0.8000E+01
      4.416  0.0000E+00  0.8000E+01
      4.617  0.0000E+00  0.8000E+01
      4.818  0.0000E+00  0.8000E+01
      5.020  0.0000E+00  0.8000E+01
      5.221  0.0000E+00  0.8000E+01
      5.422  0.0000E+00  0.8000E+01
      5.624  0.0000E+00  0.8000E+01
      5.825  0.0000E+00  0.8000E+01
      6.026  0.0000E+00  0.8000E+01
      6.228  0.0000E+00  0.8000E+01
      6.429  0.0000E+00  0.8000E+01
      6.630  0.0000E+00  0.8000E+01
      6.832  0.0000E+00  0.8000E+01
      7.033  0.0000E+00  0.8000E+01
      7.234  0.0000E+00  0.8000E+01
      7.436  0.0000E+00  0.8000E+01
      7.637  0.0000E+00  0.8000E+01
      7.838  0.0000E+00  0.8000E+01
      8.039  0.0000E+00  0.8000E+01
      8.241  0.0000E+00  0.8000E+01
      8.442  0.0000E+00  0.8000E+01
      8.643  0.1135E-07  0.8000E+01
      8.845  0.1931E+00  0.8039E+01
      9.046  0.1174E+00  0.8062E+01
      9.247  0.0000E+00  0.8062E+01
      9.449  0.0000E+00  0.8062E+01
      9.650  0.0000E+00  0.8062E+01
      9.851  0.0000E+00  0.8062E+01
     10.053  0.0000E+00  0.8062E+01
     10.254  0.8689E-06  0.8063E+01
     10.455  0.7665E+00  0.8217E+01
     10.657  0.1649E+00  0.8250E+01
     10.858  0.1251E-07  0.8250E+01
     11.059  0.1952E+00  0.8289E+01
     11.260  0.6890E+00  0.8428E+01
     11.462  0.3577E+00  0.8500E+01
     11.663  0.3741E-06  0.8500E+01
     11.864  0.7229E+00  0.8646E+01
     12.066  0.2084E+00  0.8687E+01
     12.267  0.6805E-02  0.8689E+01
     12.468  0.9241E+00  0.8875E+01
     12.670  0.2222E+00  0.8920E+01
     12.871  0.1662E+01  0.9254E+01
     13.072  0.9112E+00  0.9438E+01
     13.274  0.9224E+00  0.9623E+01
     13.475  0.8724E-02  0.9625E+01
     13.676  0.8651E+00  0.9799E+01
     13.878  0.1200E+01  0.1004E+02
     14.079  0.1652E+01  0.1037E+02
     14.280  0.8801E-02  0.1038E+02
     14.481  0.0000E+00  0.1038E+02
     14.683  0.5091E-09  0.1038E+02
     14.884  0.9978E+00  0.1058E+02
     15.085  0.2728E+01  0.1112E+02
     15.287  0.4384E-01  0.1113E+02
     15.488  0.1841E+01  0.1150E+02
     15.689  0.2892E+01  0.1209E+02
     15.891  0.1122E+01  0.1231E+02
     16.092  0.4961E-01  0.1232E+02
     16.293  0.1571E+01  0.1264E+02
     16.495  0.2422E+00  0.1269E+02
     16.696  0.0000E+00  0.1269E+02
     16.897  0.2411E-06  0.1269E+02
     17.099  0.1316E+01  0.1295E+02
     17.300  0.9376E+00  0.1314E+02
     17.501  0.8493E+00  0.1331E+02
     17.702  0.1998E-02  0.1331E+02
     17.904  0.1198E-04  0.1331E+02
     18.105  0.8674E+00  0.1349E+02
     18.306  0.6397E-01  0.1350E+02
     18.508  0.2292E-12  0.1350E+02
     18.709  0.5829E-01  0.1351E+02
     18.910  0.8731E+00  0.1369E+02
     19.112  0.1479E-04  0.1369E+02
     19.313  0.3025E-03  0.1369E+02
     19.514  0.7190E+00  0.1383E+02
     19.716  0.2427E+01  0.1432E+02
     19.917  0.1740E+01  0.1467E+02
     20.118  0.1001E+01  0.1487E+02
     20.320  0.1683E+01  0.1521E+02
     20.521  0.1146E+01  0.1544E+02
     20.722  0.9071E+00  0.1562E+02
     20.923  0.3241E+00  0.1569E+02
     21.125  0.6130E+00  0.1581E+02
     21.326  0.9500E+00  0.1600E+02
     21.527  0.9074E+00  0.1619E+02
     21.729  0.1829E+01  0.1656E+02
     21.930  0.3356E-01  0.1656E+02
     22.131  0.3089E-03  0.1656E+02
     22.333  0.9208E+00  0.1675E+02
     22.534  0.1032E-01  0.1675E+02
     22.735  0.9029E+00  0.1693E+02
     22.937  0.1883E+01  0.1731E+02
     23.138  0.5487E+00  0.1742E+02
     23.339  0.1323E+01  0.1769E+02
     23.540  0.2677E-04  0.1769E+02
     23.742  0.5973E+00  0.1781E+02
     23.943  0.9470E+00  0.1800E+02
     24.144  0.8354E-02  0.1800E+02
     24.346  0.3088E+00  0.1806E+02
     24.547  0.9582E+00  0.1826E+02
     24.748  0.5955E+00  0.1837E+02
     24.950  0.8885E-02  0.1838E+02
     25.151  0.1229E+01  0.1862E+02
     25.352  0.4328E-02  0.1863E+02
     25.554  0.1561E+01  0.1894E+02
     25.755  0.1191E+01  0.1918E+02
     25.956  0.4225E-01  0.1919E+02
     26.158  0.9370E+00  0.1938E+02
     26.359  0.9258E+00  0.1956E+02
     26.560  0.2599E+00  0.1961E+02
     26.761  0.2534E+01  0.2012E+02
     26.963  0.3158E-02  0.2013E+02
     27.164  0.9422E+00  0.2032E+02
     27.365  0.9189E+00  0.2050E+02
     27.567  0.3087E+00  0.2056E+02
     27.768  0.2620E-03  0.2056E+02
     27.969  0.0000E+00  0.2056E+02
     28.171  0.0000E+00  0.2056E+02
     28.372  0.0000E+00  0.2056E+02
     28.573  0.0000E+00  0.2056E+02
     28.775  0.4695E-03  0.2056E+02
     28.976  0.6430E+00  0.2069E+02
     29.177  0.2705E+01  0.2124E+02
     29.379  0.9970E+00  0.2144E+02
     29.580  0.6763E+00  0.2157E+02
     29.781  0.2565E+00  0.2162E+02
     29.982  0.4674E-06  0.2163E+02
     30.184  0.1883E+01  0.2200E+02
     30.385  0.1771E+01  0.2236E+02
     30.586  0.1206E+01  0.2260E+02
     30.788  0.7282E+00  0.2275E+02
     30.989  0.4152E-06  0.2275E+02
     31.190  0.4418E+00  0.2284E+02
     31.392  0.1421E+01  0.2312E+02
     31.593  0.8732E+00  0.2330E+02
     31.794  0.1390E+01  0.2358E+02
     31.996  0.2394E+01  0.2406E+02
     32.197  0.1298E+01  0.2432E+02
     32.398  0.1273E+01  0.2458E+02
     32.600  0.4205E+01  0.2543E+02
     32.801  0.1735E+00  0.2546E+02
     33.002  0.2684E+01  0.2600E+02
     33.203  0.9217E+00  0.2619E+02
     33.405  0.7870E+00  0.2635E+02
     33.606  0.1697E+01  0.2669E+02
     33.807  0.4372E-06  0.2669E+02
     34.009  0.0000E+00  0.2669E+02
     34.210  0.0000E+00  0.2669E+02
     34.411  0.0000E+00  0.2669E+02
     34.613  0.0000E+00  0.2669E+02
     34.814  0.2660E-08  0.2669E+02
     35.015  0.4465E+00  0.2678E+02
     35.217  0.2347E+01  0.2725E+02
     35.418  0.3715E-03  0.2725E+02
     35.619  0.8243E+00  0.2742E+02
     35.821  0.2765E+01  0.2797E+02
     36.022  0.7131E+00  0.2812E+02
     36.223  0.3547E+00  0.2819E+02
     36.424  0.1214E-02  0.2819E+02
     36.626  0.1936E+01  0.2858E+02
     36.827  0.8567E+00  0.2875E+02
     37.028  0.2187E+00  0.2879E+02
     37.230  0.4023E+00  0.2888E+02
     37.431  0.8005E+00  0.2904E+02
     37.632  0.1068E+01  0.2925E+02
     37.834  0.9253E+00  0.2944E+02
     38.035  0.8068E+00  0.2960E+02
     38.236  0.1057E+01  0.2981E+02
     38.438  0.8604E+00  0.2999E+02
     38.639  0.7095E-01  0.3000E+02
     38.840  0.1552E-10  0.3000E+02
     39.042  0.2128E+00  0.3004E+02
     39.243  0.3788E+01  0.3081E+02
     39.444  0.3507E-01  0.3081E+02
     39.645  0.0000E+00  0.3081E+02
     39.847  0.0000E+00  0.3081E+02
     40.048  0.2068E-15  0.3081E+02
     40.249  0.7010E-02  0.3081E+02
     40.451  0.9239E+00  0.3100E+02
     40.652  0.5136E-03  0.3100E+02
     40.853  0.1877E-08  0.3100E+02
     41.055  0.1547E+00  0.3103E+02
     41.256  0.1557E+01  0.3134E+02
     41.457  0.3256E+01  0.3200E+02
     41.659  0.3087E-03  0.3200E+02
     41.860  0.0000E+00  0.3200E+02
     42.061  0.0000E+00  0.3200E+02
     42.263  0.0000E+00  0.3200E+02
     42.464  0.0000E+00  0.3200E+02
     42.665  0.0000E+00  0.3200E+02
     42.866  0.0000E+00  0.3200E+02
     43.068  0.0000E+00  0.3200E+02
     43.269  0.0000E+00  0.3200E+02
     43.470  0.0000E+00  0.3200E+02
     43.672  0.0000E+00  0.3200E+02
     43.873  0.0000E+00  0.3200E+02
     44.074  0.0000E+00  0.3200E+02
