       N       E                     dE             d eps       ncg     rms          rms(c)
DAV:   1    -0.242813813670E+03   -0.24281E+03   -0.10545E+04   352   0.710E+02
DAV:   2    -0.304116262186E+03   -0.61302E+02   -0.61302E+02   480   0.170E+02
DAV:   3    -0.304415001723E+03   -0.29874E+00   -0.29874E+00   320   0.135E+01
DAV:   4    -0.304416430209E+03   -0.14285E-02   -0.14285E-02   608   0.858E-01
DAV:   5    -0.304416430521E+03   -0.31126E-06   -0.31126E-06   336   0.815E-03    0.927E+01
DAV:   6    -0.664936534429E+02    0.23792E+03   -0.28037E+02   320   0.108E+02    0.392E+01
DAV:   7    -0.225805941208E+02    0.43913E+02   -0.38438E+02   480   0.742E+01    0.258E+01
DAV:   8    -0.210970723628E+02    0.14835E+01   -0.17870E+02   320   0.457E+01    0.166E+01
DAV:   9    -0.119542880963E+02    0.91428E+01   -0.32635E+01   320   0.183E+01    0.233E+00
DAV:  10    -0.119781000916E+02   -0.23812E-01   -0.19301E+00   416   0.579E+00    0.186E+00
DAV:  11    -0.119224437987E+02    0.55656E-01   -0.65744E-01   352   0.288E+00    0.398E-01
DAV:  12    -0.119188614229E+02    0.35824E-02   -0.28783E-02   416   0.694E-01    0.285E-02
DAV:  13    -0.119189040076E+02   -0.42585E-04   -0.83967E-04   368   0.153E-01    0.461E-02
DAV:  14    -0.119188772009E+02    0.26807E-04   -0.25902E-04   448   0.677E-02    0.972E-03
DAV:  15    -0.119188766540E+02    0.54696E-06   -0.14612E-05   352   0.169E-02    0.305E-03
DAV:  16    -0.119188766111E+02    0.42912E-07   -0.67229E-07   160   0.324E-03
   1 F= -.11918877E+02 E0= -.11918877E+02  d E =-.288286E-20
