LAMMPS (11 Aug 2017)
# ---- initialize simulations
clear
units metal
dimension 3
boundary p p p
atom_style atomic
atom_modify map array
# ---- create atoms
read_data /ufrc/phillpot/eragasa/pareto_optimization_3.5NN/rank_26/Ni_fcc_110_s.lmps_min_pos/lammps.structure
  triclinic box = (0 0 0) to (3.6293 2.598 25.9799) with tilt (0 0 0)
  1 by 1 by 1 MPI processor grid
  reading atoms ...
  10 atoms
# ---- define interatomic potential
include potential.mod
mass 1 58.6934

group Ni type 1
10 atoms in group Ni

pair_style eam/alloy
pair_coeff * * /ufrc/phillpot/eragasa/pareto_optimization_3.5NN/rank_26/Ni_fcc_110_s.lmps_min_pos/Ni.eam.alloy Ni

neighbor 1.0 bin
neigh_modify every 1 delay 0 check yes
# ---- define settings
compute eng all pe/atom
compute eatoms all reduce sum c_eng

# ---- run minimization
reset_timestep 0
thermo 1
thermo_style custom step pe lx ly lz xy xz yz press pxx pyy pzz pxy pxz pyz c_eatoms
min_style cg
minimize 1e-20 1e-20 1000 100000
Neighbor list info ...
  update every 1 steps, delay 0 steps, check yes
  max neighbors/atom: 2000, page size: 100000
  master list distance cutoff = 5.64464
  ghost atom cutoff = 5.64464
  binsize = 2.82232, bins = 2 1 10
  1 neighbor lists, perpetual/occasional/extra = 1 0 0
  (1) pair eam/alloy, perpetual
      attributes: half, newton on
      pair build: half/bin/newton/tri
      stencil: half/bin/3d/newton/tri
      bin: standard
Per MPI rank memory allocation (min/avg/max) = 4.215 | 4.215 | 4.215 Mbytes
Step PotEng Lx Ly Lz Xy Xz Yz Press Pxx Pyy Pzz Pxy Pxz Pyz c_eatoms 
       0    -19.44484       3.6293        2.598      25.9799            0            0            0   -19992.768   -19555.354   -22410.128    -18012.82 6.9720904e-12   0.48457439 -1.9061207e-12    -19.44484 
       1   -19.490308       3.6293        2.598      25.9799            0            0            0   -14355.871    -14002.07   -17844.477   -11221.067 4.597949e-12   0.25203376 2.7797594e-12   -19.490308 
       2   -19.499165       3.6293        2.598      25.9799            0            0            0   -11904.985   -11541.029   -16115.655   -8058.2705 1.6508367e-12   0.82199303 -3.7526752e-12   -19.499165 
       3   -19.509331       3.6293        2.598      25.9799            0            0            0   -7537.4347   -7768.5702    -13481.77   -1361.9638 -1.1062308e-13   -2.1762211 4.0419971e-12   -19.509331 
       4    -19.51038       3.6293        2.598      25.9799            0            0            0   -7124.8666   -7390.0897   -13238.161   -746.34879 3.2080693e-12   0.52551645 4.3767028e-12    -19.51038 
       5   -19.510423       3.6293        2.598      25.9799            0            0            0   -6946.5154    -7220.724    -13109.92   -508.90225 -1.1913255e-12  -0.51428975 -3.7867131e-12   -19.510423 
       6    -19.51045       3.6293        2.598      25.9799            0            0            0   -6727.4482   -7028.7387   -12980.463   -173.14306 1.1856525e-12    2.2938727 -1.0182996e-12    -19.51045 
       7    -19.51046       3.6293        2.598      25.9799            0            0            0    -6612.296   -6929.4753   -12909.599    2.1862313 4.7454464e-12  -0.10688176 1.9203032e-12    -19.51046 
       8    -19.51046       3.6293        2.598      25.9799            0            0            0   -6615.0435   -6931.5679   -12911.074   -2.4886995 -4.1072363e-12   0.31343291 -1.8181896e-12    -19.51046 
       9    -19.51046       3.6293        2.598      25.9799            0            0            0   -6615.3528   -6931.9292   -12911.357   -2.7723868 -4.0278146e-13  0.099731714 -3.1938868e-12    -19.51046 
      10    -19.51046       3.6293        2.598      25.9799            0            0            0   -6615.1069   -6931.8605   -12911.336   -2.1246087 4.1412742e-13  0.077971784 -1.5005028e-12    -19.51046 
      11    -19.51046       3.6293        2.598      25.9799            0            0            0   -6613.7091   -6930.5841   -12910.428  -0.11496834 -3.0350434e-12 -0.015582276 -4.9071263e-13    -19.51046 
      12    -19.51046       3.6293        2.598      25.9799            0            0            0   -6613.6858   -6930.5575    -12910.42 -0.079845738 3.1570125e-12 -0.0040097423 2.3202481e-12    -19.51046 
      13    -19.51046       3.6293        2.598      25.9799            0            0            0   -6613.6524   -6930.5302     -12910.4 -0.026893141 5.1936117e-12  0.011770996 -3.4803722e-12    -19.51046 
      14    -19.51046       3.6293        2.598      25.9799            0            0            0    -6613.634   -6930.5141   -12910.389 0.0010594318 -7.9591886e-12  0.028959752  -4.3143e-12    -19.51046 
      15    -19.51046       3.6293        2.598      25.9799            0            0            0   -6613.6341   -6930.5143   -12910.389 0.00092936377 2.1018385e-12  0.027539396 8.906576e-13    -19.51046 
      16    -19.51046       3.6293        2.598      25.9799            0            0            0    -6613.635   -6930.5152    -12910.39 -8.0913669e-05 3.9739213e-12 0.0054519151 1.044679e-11    -19.51046 
      17    -19.51046       3.6293        2.598      25.9799            0            0            0   -6613.6348   -6930.5149    -12910.39 7.0769653e-05 1.081837e-11 0.0031853489 6.9919458e-12    -19.51046 
      18    -19.51046       3.6293        2.598      25.9799            0            0            0   -6613.6342   -6930.5142   -12910.389 0.00068285191 8.8810476e-12 0.0023183284 -2.7230296e-13    -19.51046 
      19    -19.51046       3.6293        2.598      25.9799            0            0            0   -6613.6345   -6930.5145   -12910.389 0.00026368335 -5.6020661e-12 0.0017029331 2.3627955e-12    -19.51046 
      20    -19.51046       3.6293        2.598      25.9799            0            0            0    -6613.635   -6930.5151    -12910.39 -0.00037756972 -5.4630782e-12 0.00089202507 -1.0721929e-12    -19.51046 
      21    -19.51046       3.6293        2.598      25.9799            0            0            0   -6613.6349   -6930.5149    -12910.39 -0.0001541444 -3.403787e-12 0.00063155809 5.8148028e-13    -19.51046 
      22    -19.51046       3.6293        2.598      25.9799            0            0            0   -6613.6347   -6930.5148   -12910.389 3.7472227e-05 1.4182446e-12 0.00060459719 9.1051303e-13    -19.51046 
      23    -19.51046       3.6293        2.598      25.9799            0            0            0   -6613.6348   -6930.5148   -12910.389 -7.0707928e-05 2.3627955e-12 0.00053360378  2.23799e-12    -19.51046 
      24    -19.51046       3.6293        2.598      25.9799            0            0            0   -6613.6348   -6930.5148   -12910.389 -0.00010031207 -1.3756973e-12 0.00038710459 3.6675805e-12    -19.51046 
      25    -19.51046       3.6293        2.598      25.9799            0            0            0   -6613.6347   -6930.5148   -12910.389 5.1471584e-05 -7.218865e-12 0.00023057608 -4.5100178e-13    -19.51046 
      26    -19.51046       3.6293        2.598      25.9799            0            0            0   -6613.6347   -6930.5148   -12910.389 5.5899202e-05 -6.4643588e-12 0.00018724056 6.7621902e-12    -19.51046 
      27    -19.51046       3.6293        2.598      25.9799            0            0            0   -6613.6347   -6930.5148   -12910.389 1.8584972e-05 4.9553466e-12 0.00011962751 2.4195253e-12    -19.51046 
      28    -19.51046       3.6293        2.598      25.9799            0            0            0   -6613.6347   -6930.5148   -12910.389 2.7446834e-05 5.0404413e-12 8.593919e-05 -1.055174e-12    -19.51046 
      29    -19.51046       3.6293        2.598      25.9799            0            0            0   -6613.6347   -6930.5148   -12910.389 3.0262604e-05 6.7962281e-12 7.1994904e-05 -4.8390505e-12    -19.51046 
Loop time of 0.00148487 on 1 procs for 29 steps with 10 atoms

91.9% CPU use with 1 MPI tasks x no OpenMP threads

Minimization stats:
  Stopping criterion = energy tolerance
  Energy initial, next-to-last, final = 
        -19.4448396081      -19.510459802      -19.510459802
  Force two-norm initial, final = 0.591285 2.31754e-09
  Force max component initial, final = 0.386967 1.03751e-09
  Final line search alpha, max atom move = 1 1.03751e-09
  Iterations, force evaluations = 29 57

MPI task timing breakdown:
Section |  min time  |  avg time  |  max time  |%varavg| %total
---------------------------------------------------------------
Pair    | 0.0010123  | 0.0010123  | 0.0010123  |   0.0 | 68.18
Neigh   | 0          | 0          | 0          |   0.0 |  0.00
Comm    | 0.00011325 | 0.00011325 | 0.00011325 |   0.0 |  7.63
Output  | 0.00029016 | 0.00029016 | 0.00029016 |   0.0 | 19.54
Modify  | 0          | 0          | 0          |   0.0 |  0.00
Other   |            | 6.914e-05  |            |       |  4.66

Nlocal:    10 ave 10 max 10 min
Histogram: 1 0 0 0 0 0 0 0 0 0
Nghost:    357 ave 357 max 357 min
Histogram: 1 0 0 0 0 0 0 0 0 0
Neighs:    228 ave 228 max 228 min
Histogram: 1 0 0 0 0 0 0 0 0 0

Total # of neighbors = 228
Ave neighs/atom = 22.8
Neighbor list builds = 0
Dangerous builds = 0

# ---- define output variables ----
variable natoms equal "count(all)"
variable tot_energy equal "c_eatoms"
variable a11 equal "xhi-xlo"
variable a22 equal "yhi-ylo"
variable a33 equal "zhi-zlo"
variable tilt_xy equal "xy"
variable tilt_xz equal "xz"
variable tilt_yz equal "yz"
variable tot_press equal "press"
variable press_xx equal "pxx"
variable press_yy equal "pyy"
variable press_zz equal "pzz"
variable press_xy equal "pxy"
variable press_xz equal "pxz"
variable press_yz equal "pyz"

# ---- output ----
print "pypospack:output_section:begin"
pypospack:output_section:begin
print "tot_energy = ${tot_energy}"
tot_energy = -19.5104598019822
print "num_atoms = ${natoms}"
num_atoms = 10
print "a11 = ${a11}"
a11 = 3.6293
print "a22 = ${a22}"
a22 = 2.598
print "a33 = ${a33}"
a33 = 25.9799
print "a12 = ${tilt_xy}"
a12 = 0
print "a13 = ${tilt_xz}"
a13 = 0
print "a23 = ${tilt_yz}"
a23 = 0
print "tot_press = ${tot_press}"
tot_press = -6613.63471422056
print "pxx = ${press_xx}"
pxx = -6930.51477256789
print "pyy = ${press_yy}"
pyy = -12910.3894003564
print "pzz = ${press_zz}"
pzz = 3.02626039069558e-05
print "pxy = ${press_xy}"
pxy = 6.79622807715419e-12
print "pxz = ${press_xz}"
pxz = 7.19949040034107e-05
print "pyz = ${press_yz}"
pyz = -4.83905054241446e-12
print "pypospack:output_section:done"
pypospack:output_section:done
print "pypospack:lammps_sim:done"
pypospack:lammps_sim:done
Total wall time: 0:00:00
