LAMMPS (11 Aug 2017)
# ---- initialize simulations
clear
units metal
dimension 3
boundary p p p
atom_style atomic
atom_modify map array
# ---- create atoms
read_data /ufrc/phillpot/eragasa/pareto_optimization_3.5NN/rank_35/Ni_hcp.lmps_min_all/lammps.structure
  triclinic box = (0 0 0) to (3.6 6.2354 5.8788) with tilt (0 0 0)
  1 by 1 by 1 MPI processor grid
  reading atoms ...
  4 atoms
# ---- define interatomic potential
include potential.mod
mass 1 58.6934

group Ni type 1
4 atoms in group Ni

pair_style eam/alloy
pair_coeff * * /ufrc/phillpot/eragasa/pareto_optimization_3.5NN/rank_35/Ni_hcp.lmps_min_all/Ni.eam.alloy Ni

neighbor 1.0 bin
neigh_modify every 1 delay 0 check yes
# ---- define settings
compute eng all pe/atom
compute eatoms all reduce sum c_eng
# ---- run minimization
reset_timestep 0
fix 1 all box/relax aniso 0.0 vmax 0.001
thermo 10
thermo_style custom step pe xhi xlo yhi ylo zhi xy xz yz press pxx pyy pzz pxy pxz pyz c_eatoms
min_style cg
minimize 1e-25 1e-25 5000 10000
Neighbor list info ...
  update every 1 steps, delay 0 steps, check yes
  max neighbors/atom: 2000, page size: 100000
  master list distance cutoff = 5.64464
  ghost atom cutoff = 5.64464
  binsize = 2.82232, bins = 2 3 3
  1 neighbor lists, perpetual/occasional/extra = 1 0 0
  (1) pair eam/alloy, perpetual
      attributes: half, newton on
      pair build: half/bin/newton/tri
      stencil: half/bin/3d/newton/tri
      bin: standard
Per MPI rank memory allocation (min/avg/max) = 4.194 | 4.194 | 4.194 Mbytes
Step PotEng Xhi Xlo Yhi Ylo Zhi Xy Xz Yz Press Pxx Pyy Pzz Pxy Pxz Pyz c_eatoms 
       0   -8.0150319          3.6            0       6.2354            0       5.8788            0            0            0   -145647.35   -145648.56   -145646.63   -145646.87 -3.3698075e-13 -4.043769e-12 1.0783384e-11   -8.0150319 
      10    -8.378392        3.582        0.018    6.2042234   0.03117659    5.8494063            0            0            0   -151477.83   -151479.05    -151477.1   -151477.35 -5.5350251e-12 2.7566596e-12 1.6670193e-11    -8.378392 
      20   -8.7487407        3.564        0.036    6.1730468  0.062353186    5.8200127            0            0            0   -157541.32   -157542.56   -157540.57   -157540.83 5.4824256e-12 -1.0539684e-11            0   -8.7487407 
      30   -9.1261262        3.546        0.054    6.1418702  0.093529787     5.790619            0            0            0   -163840.66   -163841.91    -163839.9   -163840.17 -6.9460207e-12 -1.1769005e-11 5.9075791e-12   -9.1261262 
      40   -9.5105768        3.528        0.072    6.1106936   0.12470639    5.7612253            0            0            0   -170376.97   -170378.24    -170376.2   -170376.48 -9.9505539e-12 2.1377027e-11            0   -9.5105768 
      50   -9.9020961         3.51         0.09     6.079517   0.15588301    5.7318316            0            0            0   -177149.17   -177150.45   -177148.38   -177148.68 -3.6355947e-12 1.1103303e-11 6.2885962e-12   -9.9020961 
      60   -10.300659        3.492        0.108    6.0483404   0.18705962    5.7024379            0            0            0   -184153.41    -184154.7   -184152.61   -184152.93 1.6228593e-12 1.6025735e-11 3.8948623e-11   -10.300659 
      70   -10.706205        3.474        0.126    6.0171638   0.21823625    5.6730442            0            0            0   -191382.41    -191383.7    -191381.6   -191381.93 -1.7386156e-11 -2.5555555e-11 6.7030963e-12   -10.706205 
      80   -11.118633        3.456        0.144    5.9859871   0.24941288    5.6436505            0            0            0    -198824.6   -198825.89   -198823.78   -198824.13 1.1900725e-12 -2.7047103e-12 -6.9240582e-12   -11.118633 
      90   -11.537874        3.438        0.162    5.9548105   0.28058954    5.6142568            0            0            0   -206839.77   -206840.72   -206839.29   -206839.31 1.8763987e-11 1.591323e-11 -1.8173572e-11   -11.537874 
     100   -11.966164         3.42         0.18    5.9236337   0.31176629     5.584863            0            0            0   -216478.27   -216479.17   -216477.81   -216477.83 3.3513092e-12 7.5837816e-12 9.8228028e-13   -11.966164 
     110   -12.404277        3.402        0.198    5.8924569   0.34294306    5.5554692            0            0            0   -226272.83   -226273.68    -226272.4   -226272.42 9.5601325e-12 1.1173405e-11 8.1261127e-12   -12.404277 
     120   -12.851736        3.384        0.216    5.8612801   0.37411985    5.5260754            0            0            0   -236191.39   -236192.17   -236190.99   -236191.02 -1.891417e-11 -1.2424013e-11 -8.0972426e-12   -12.851736 
     130   -13.307988        3.366        0.234    5.8301033   0.40529666    5.4966816            0            0            0   -246190.08   -246190.78   -246189.72   -246189.75 3.8891941e-11 7.612074e-12 2.9552758e-11   -13.307988 
     140   -13.772387        3.348        0.252    5.7989265   0.43647348    5.4672878            0            0            0   -256210.68   -256211.29   -256210.36    -256210.4 -2.5297741e-11 1.4834277e-11 3.7880386e-11   -13.772387 
     150   -14.244176         3.33         0.27    5.7677497   0.46765033    5.4378939            0            0            0   -266177.57   -266178.06   -266177.31   -266177.34 -1.9479384e-11 -8.2307257e-13 -4.3348489e-11   -14.244176 
     160   -14.722462        3.312        0.288    5.7365728   0.49882719       5.4085            0            0            0   -275994.02   -275994.37   -275993.83   -275993.86 -3.69555e-12 -2.4873894e-11 -2.6437396e-11   -14.722462 
     170   -15.206193        3.294        0.306    5.7053959   0.53000409    5.3791061            0            0            0   -285537.73   -285537.92   -285537.62   -285537.65 -2.0627059e-12 -1.8711689e-11 -2.0037714e-11   -15.206193 
     180   -15.694125        3.276        0.324     5.674219   0.56118101    5.3497122            0            0            0   -294655.42   -294655.41    -294655.4   -294655.44 -6.1116987e-13 -1.2223397e-12 -2.7502644e-11   -15.694125 
     190   -16.184789        3.258        0.342     5.643042   0.59235796    5.3203182            0            0            0    -303156.3   -303156.07   -303156.39   -303156.43 -2.5363454e-12 -2.5680497e-11 -3.4240663e-11   -16.184789 
     200   -16.676454         3.24         0.36    5.6118651   0.62353494    5.2909242            0            0            0   -310804.22   -310803.73   -310804.44   -310804.48 2.632652e-12 2.632652e-11 -2.2048461e-11   -16.676454 
     210   -17.167076        3.222   0.37799998    5.5806881   0.65471193    5.2615302            0            0            0   -317307.95   -317307.31   -317308.49   -317308.04 -2.7338968e-11 4.1008452e-12 6.1512679e-12   -17.167076 
     220   -17.653831     3.204052   0.39594802     5.549601   0.68579902    5.2321362            0            0            0   -322995.36   -322292.63   -322294.34   -324399.12 -1.313588e-11 1.4200951e-12 -7.029471e-11   -17.653831 
     230   -18.133254    3.1862244   0.41377557    5.5187225   0.71667745    5.2027422            0            0            0   -326776.69   -325325.17   -325327.48   -329677.43 7.3788826e-12 1.9554039e-11 1.4388821e-11   -18.133254 
     240   -18.602091    3.1685222   0.43147777    5.4880612   0.74733883    5.1733482            0            0            0    -328152.4   -325919.27   -325922.29   -332615.63 7.6706317e-13  2.91484e-11 -2.8764869e-11   -18.602091 
     250    -19.05661    3.1509519   0.44904807    5.4576282   0.77777182    5.1439542            0            0            0   -326536.76   -323498.03   -323501.83   -332610.42 -2.3929226e-11 4.7459632e-11 7.5775883e-11    -19.05661 
     260   -19.493576    3.1335035   0.46649653    5.4274062   0.80799378    5.1145602            0            0            0   -323938.73   -320832.05   -320834.44    -330149.7 7.8109803e-13 4.1518115e-12 -3.1386528e-11   -19.493576 
     270   -19.918046     3.115957   0.48404301    5.3970145   0.83838547    5.0851662            0            0            0   -320839.69   -318834.38   -318837.72   -324846.96 -1.9337862e-11 1.0363907e-11 4.5611986e-11   -19.918046 
     280   -20.326568    3.0982324   0.50176755    5.3663143   0.86908568    5.0557722            0            0            0   -312257.34   -311460.13   -311464.57   -313847.34 -3.4583286e-12 -3.0871909e-11 -4.802297e-11   -20.326568 
     290   -20.711899    3.0803058   0.51969416     5.335264   0.90013602    5.0263859            0            0            0   -296733.14   -297240.11   -297245.77   -295713.53 1.4980701e-11 -1.8264142e-11 -2.0990571e-11   -20.711899 
     300     -21.0623    3.0623062   0.53769379     5.304087   0.93131302    4.9972869            0            0            0   -272684.75   -274550.87   -274557.85   -268945.54 -4.5877384e-12 5.2697822e-11 1.3934491e-10     -21.0623 
     310   -21.366598    3.0443067   0.55569328      5.27291   0.96249002    4.9686939            0            0            0   -238347.97    -241556.2   -241564.52   -231923.18 4.0857201e-12 3.2238885e-12 -7.6224216e-11   -21.366598 
     320   -21.614052    3.0263074   0.57369257     5.241733   0.99366702    4.9407812            0            0            0   -191656.66   -196058.74   -196068.25   -182843.01 6.2645234e-11 -5.997948e-11 1.0516402e-10   -21.614052 
     330   -21.792979    3.0083085   0.59169151     5.210556     1.024844    4.9138904            0            0            0   -131459.47   -136011.43   -136021.58   -122345.41 -3.4093729e-11 -2.2265293e-12 8.6278009e-12   -21.792979 
     340   -21.895376    2.9903103   0.60968966     5.179379     1.056021    4.8874168            0            0            0   -57341.414   -59186.533   -59195.854   -53641.855 -5.2324993e-12 -5.2324993e-12 -6.7005061e-11   -21.895376 
     350   -21.914604    2.9791091   0.62089091    5.1599665    1.0754335     4.870537            0            0            0   0.67804301   -2.2693879       0.8308    3.4727169 2.9883478e-11 -1.7930087e-12 -3.6756678e-11   -21.914604 
     360   -21.914604    2.9791056    0.6208944    5.1599708    1.0754292    4.8705393            0            0            0 -0.00071760026 1.0837412e-05 -0.0011488868 -0.0010147514 7.2616824e-11 -4.0641515e-11 -7.3662745e-11   -21.914604 
     370   -21.914604    2.9791056    0.6208944    5.1599708    1.0754292    4.8705393            0            0            0 1.9501452e-10 -1.7571478e-10 4.7626775e-10 2.844906e-10 -3.6756664e-11 7.7697013e-11 -7.2317989e-11   -21.914604 
     371   -21.914604    2.9791056    0.6208944    5.1599708    1.0754292    4.8705393            0            0            0 -2.1380375e-10 -2.3309104e-10 3.7761496e-10 -7.8593517e-10 -1.129595e-10 4.1836853e-11 -7.8593517e-11   -21.914604 
Loop time of 0.0321779 on 1 procs for 371 steps with 4 atoms

14.0% CPU use with 1 MPI tasks x no OpenMP threads

Minimization stats:
  Stopping criterion = energy tolerance
  Energy initial, next-to-last, final = 
         -8.0150318718     -21.9146036206     -21.9146036206
  Force two-norm initial, final = 20.7782 3.55758e-14
  Force max component initial, final = 11.9964 2.77774e-14
  Final line search alpha, max atom move = 1 2.77774e-14
  Iterations, force evaluations = 371 396

MPI task timing breakdown:
Section |  min time  |  avg time  |  max time  |%varavg| %total
---------------------------------------------------------------
Pair    | 0.0025134  | 0.0025134  | 0.0025134  |   0.0 |  7.81
Neigh   | 0.00010347 | 0.00010347 | 0.00010347 |   0.0 |  0.32
Comm    | 0.00052547 | 0.00052547 | 0.00052547 |   0.0 |  1.63
Output  | 0.027321   | 0.027321   | 0.027321   |   0.0 | 84.91
Modify  | 0          | 0          | 0          |   0.0 |  0.00
Other   |            | 0.001714   |            |       |  5.33

Nlocal:    4 ave 4 max 4 min
Histogram: 1 0 0 0 0 0 0 0 0 0
Nghost:    284 ave 284 max 284 min
Histogram: 1 0 0 0 0 0 0 0 0 0
Neighs:    136 ave 136 max 136 min
Histogram: 1 0 0 0 0 0 0 0 0 0

Total # of neighbors = 136
Ave neighs/atom = 34
Neighbor list builds = 6
Dangerous builds = 0
# ---- define output variables ----
variable natoms equal "count(all)"
variable tot_energy equal "c_eatoms"
variable a11 equal "xhi-xlo"
variable a22 equal "yhi-ylo"
variable a33 equal "zhi-zlo"
variable tilt_xy equal "xy"
variable tilt_xz equal "xz"
variable tilt_yz equal "yz"
variable tot_press equal "press"
variable press_xx equal "pxx"
variable press_yy equal "pyy"
variable press_zz equal "pzz"
variable press_xy equal "pxy"
variable press_xz equal "pxz"
variable press_yz equal "pyz"

# ---- output ----
print "pypospack:output_section:begin"
pypospack:output_section:begin
print "tot_energy = ${tot_energy}"
tot_energy = -21.9146036206077
print "num_atoms = ${natoms}"
num_atoms = 4
print "a11 = ${a11}"
a11 = 2.35821119629706
print "a22 = ${a22}"
a22 = 4.08454160696428
print "a33 = ${a33}"
a33 = 3.8622786821858
print "a12 = ${tilt_xy}"
a12 = 0
print "a13 = ${tilt_xz}"
a13 = 0
print "a23 = ${tilt_yz}"
a23 = 0
print "tot_press = ${tot_press}"
tot_press = -2.13803752217765e-10
print "pxx = ${press_xx}"
pxx = -2.33091039631737e-10
print "pyy = ${press_yy}"
pyy = 3.77614955070069e-10
print "pzz = ${press_zz}"
pzz = -7.85935172091626e-10
print "pxy = ${press_xy}"
pxy = -1.12959503821534e-10
print "pxz = ${press_xz}"
pxz = 4.18368532672349e-11
print "pyz = ${press_yz}"
pyz = -7.85935172091626e-11
print "pypospack:output_section:done"
pypospack:output_section:done
print "pypospack:lammps_sim:done"
pypospack:lammps_sim:done
Total wall time: 0:00:00
