# ['Ni']

10 atoms
1 atom types

    0.0000     3.2345 xlo xhi
    0.0000     2.3154 ylo yhi
    0.0000    23.1541 zlo zhi

    0.0000     0.0000     0.0000 xy xz yz

Atoms

1 1     0.0000     0.0000     0.0000
2 1     1.6173     1.1577     1.1577
3 1     0.0000     0.0000     2.3154
4 1     1.6173     1.1577     3.4731
5 1     0.0000     0.0000     4.6308
6 1     1.6173     1.1577     5.7885
7 1     0.0000     0.0000     6.9462
8 1     1.6173     1.1577     8.1039
9 1     0.0000     0.0000     9.2616
10 1     1.6173     1.1577    10.4193
