# ['Ni']

18 atoms
1 atom types

    0.0000     2.3692 xlo xhi
    0.0000     4.1035 ylo yhi
    0.0000    34.8138 zlo zhi

    0.0000     0.0000    -0.0004 xy xz yz

Atoms

1 1     0.0000     0.0000     0.0000
2 1     1.1846     0.6839     1.9341
3 1     0.0000     1.3678     3.8682
4 1     1.1846     2.0518     0.0000
5 1     0.0000     2.7357     1.9341
6 1     1.1846     3.4196     3.8682
7 1     0.0000     0.0000     5.8023
8 1     1.1846     0.6839     7.7364
9 1     0.0000     1.3678     9.6705
10 1     1.1846     2.0518     5.8023
11 1     0.0000     2.7357     7.7364
12 1     1.1846     3.4196     9.6705
13 1     0.0000     0.0000    11.6046
14 1     1.1846     0.6839    13.5387
15 1     0.0000     1.3678    15.4728
16 1     1.1846     2.0518    11.6046
17 1     0.0000     2.7357    13.5387
18 1     1.1846     3.4196    15.4728
