LAMMPS (11 Aug 2017)
# ---- initialize simulations
clear
units metal
dimension 3
boundary p p p
atom_style atomic
atom_modify map array
# ---- create atoms
read_data /ufrc/phillpot/eragasa/pareto_optimization_3.5NN/rank_23/Ni_fcc_111_s.lmps_min_pos/lammps.structure
  triclinic box = (0 0 0) to (2.3692 4.1035 34.8138) with tilt (0 0 -0.0004)
  1 by 1 by 1 MPI processor grid
  reading atoms ...
  18 atoms
# ---- define interatomic potential
include potential.mod
mass 1 58.6934

group Ni type 1
18 atoms in group Ni

pair_style eam/alloy
pair_coeff * * /ufrc/phillpot/eragasa/pareto_optimization_3.5NN/rank_23/Ni_fcc_111_s.lmps_min_pos/Ni.eam.alloy Ni

neighbor 1.0 bin
neigh_modify every 1 delay 0 check yes
# ---- define settings
compute eng all pe/atom
compute eatoms all reduce sum c_eng

# ---- run minimization
reset_timestep 0
thermo 1
thermo_style custom step pe lx ly lz xy xz yz press pxx pyy pzz pxy pxz pyz c_eatoms
min_style cg
minimize 1e-20 1e-20 1000 100000
Neighbor list info ...
  update every 1 steps, delay 0 steps, check yes
  max neighbors/atom: 2000, page size: 100000
  master list distance cutoff = 5.64464
  ghost atom cutoff = 5.64464
  binsize = 2.82232, bins = 1 2 13
  1 neighbor lists, perpetual/occasional/extra = 1 0 0
  (1) pair eam/alloy, perpetual
      attributes: half, newton on
      pair build: half/bin/newton/tri
      stencil: half/bin/3d/newton/tri
      bin: standard
Per MPI rank memory allocation (min/avg/max) = 4.217 | 4.217 | 4.217 Mbytes
Step PotEng Lx Ly Lz Xy Xz Yz Press Pxx Pyy Pzz Pxy Pxz Pyz c_eatoms 
       0   -84.124345       2.3692       4.1035      34.8138            0            0      -0.0004   -11610.931   -13350.204   -13333.717   -8148.8738 -1.773727e-12 7.883231e-13   -2.6154235   -84.124345 
       1   -84.136483       2.3692       4.1035      34.8138            0            0      -0.0004   -9888.9014   -12098.904   -12082.463   -5485.3367 -1.9708078e-13 1.5109526e-12    -2.608548   -84.136483 
       2   -84.138938       2.3692       4.1035      34.8138            0            0      -0.0004   -8645.2008   -11211.217   -11194.858   -3529.5276 -2.4306629e-12 -6.5693592e-14   -2.5676018   -84.138938 
       3   -84.139486       2.3692       4.1035      34.8138            0            0      -0.0004   -8261.4596   -10952.053   -10935.712   -2896.6132 6.5693592e-13 1.6423398e-12      -2.5589   -84.139486 
       4   -84.139609       2.3692       4.1035      34.8138            0            0      -0.0004   -7845.4734   -10658.146   -10641.832   -2236.4415 -1.773727e-12 -9.8540388e-13   -2.5445193   -84.139609 
       5   -84.139741       2.3692       4.1035      34.8138            0            0      -0.0004   -7296.7336   -10283.269   -10267.036   -1339.8958 -2.2992757e-12 -5.9124233e-13   -2.4860323   -84.139741 
       6   -84.139957       2.3692       4.1035      34.8138            0            0      -0.0004   -6405.9163    -9678.998   -9662.9728    124.22184 -7.883231e-13 -1.5109526e-12   -2.3289769   -84.139957 
       7   -84.139966       2.3692       4.1035      34.8138            0            0      -0.0004   -6494.5846   -9742.1246   -9726.1817   -15.447495 1.5109526e-12 -1.773727e-12   -2.2584372   -84.139966 
       8   -84.139967       2.3692       4.1035      34.8138            0            0      -0.0004   -6490.4416   -9738.8213   -9722.9242   -9.5791746 1.3138718e-12 1.3138718e-12   -2.2202152   -84.139967 
       9   -84.139967       2.3692       4.1035      34.8138            0            0      -0.0004   -6490.0031   -9738.5022   -9722.6387   -8.8683534 2.1021949e-12 -1.445259e-12   -2.1921448   -84.139967 
      10   -84.139967       2.3692       4.1035      34.8138            0            0      -0.0004   -6487.3734   -9736.5712   -9720.9151   -4.6340995 1.3138718e-13 3.2846796e-13    -2.019016   -84.139967 
      11   -84.139967       2.3692       4.1035      34.8138            0            0      -0.0004   -6486.0888    -9735.615   -9720.1643   -2.4870829 -5.9124233e-13 -2.4306629e-12   -1.8475002   -84.139967 
      12   -84.139967       2.3692       4.1035      34.8138            0            0      -0.0004   -6485.2134    -9734.943   -9719.6704   -1.0268899 5.9124233e-13 7.883231e-13   -1.6987453   -84.139967 
      13   -84.139967       2.3692       4.1035      34.8138            0            0      -0.0004    -6484.717    -9734.566   -9719.3673  -0.21767657 -6.5693592e-13 -1.2481782e-12   -1.6369015   -84.139967 
      14   -84.139967       2.3692       4.1035      34.8138            0            0      -0.0004   -6484.4415   -9734.3597   -9719.1985   0.23389575 -7.883231e-13 8.540167e-13   -1.6053871   -84.139967 
      15   -84.139967       2.3692       4.1035      34.8138            0            0      -0.0004   -6484.1556   -9734.1394   -9719.0241   0.69665121 -1.6423398e-12 1.1824847e-12   -1.5667363   -84.139967 
      16   -84.139967       2.3692       4.1035      34.8138            0            0      -0.0004   -6484.3168   -9734.1623   -9719.2355   0.44744092 1.3795654e-12 3.2846796e-13   -1.4086353   -84.139967 
      17   -84.139967       2.3692       4.1035      34.8138            0            0      -0.0004   -6484.2548   -9733.9089   -9719.3873   0.53177794 8.540167e-13 -1.0773749e-11   -1.0692954   -84.139967 
      18   -84.139967       2.3692       4.1035      34.8138            0            0      -0.0004   -6484.4113   -9733.7685   -9719.7476   0.28210845 -1.1233604e-11 4.1386963e-12  -0.65055734   -84.139967 
      19   -84.139967       2.3692       4.1035      34.8138            0            0      -0.0004   -6484.5156   -9733.5709   -9720.0858   0.10987962  6.76644e-12 1.2153315e-11  -0.20270395   -84.139967 
      20   -84.139967       2.3692       4.1035      34.8138            0            0      -0.0004   -6484.5589   -9733.4795   -9720.2356  0.038571302 7.8175374e-12 1.4781058e-11 -0.0011996014   -84.139967 
      21   -84.139967       2.3692       4.1035      34.8138            0            0      -0.0004   -6484.5563   -9733.4722   -9720.2383  0.041667191 1.2481782e-12 -1.5109526e-12 0.0071152555   -84.139967 
      22   -84.139967       2.3692       4.1035      34.8138            0            0      -0.0004   -6484.5674   -9733.4796   -9720.2465  0.023768322 1.1430685e-11 5.8467297e-12  0.007811995   -84.139967 
      23   -84.139967       2.3692       4.1035      34.8138            0            0      -0.0004   -6484.5761   -9733.4861   -9720.2523  0.010147537 7.6861503e-12 -3.4160668e-12 0.0071442028   -84.139967 
      24   -84.139967       2.3692       4.1035      34.8138            0            0      -0.0004   -6484.5792   -9733.4897   -9720.2528 0.0050325306 -5.9124233e-13 3.7445347e-12 0.0046142599   -84.139967 
      25   -84.139967       2.3692       4.1035      34.8138            0            0      -0.0004   -6484.5792   -9733.4916   -9720.2509 0.0048723955 1.3729961e-11 5.5839553e-12 0.0013868601   -84.139967 
      26   -84.139967       2.3692       4.1035      34.8138            0            0      -0.0004   -6484.5789    -9733.492   -9720.2499 0.0053342404 -1.3335799e-11 3.9416155e-12 0.00020860809   -84.139967 
      27   -84.139967       2.3692       4.1035      34.8138            0            0      -0.0004   -6484.5806   -9733.4935   -9720.2509 0.0026071976 5.9124233e-12 1.445259e-12 -9.7913733e-05   -84.139967 
      28   -84.139967       2.3692       4.1035      34.8138            0            0      -0.0004   -6484.5808   -9733.4937    -9720.251 0.0022346531 -5.5182617e-12 1.2219008e-11 -0.00025437969   -84.139967 
      29   -84.139967       2.3692       4.1035      34.8138            0            0      -0.0004    -6484.581   -9733.4938   -9720.2511 0.0019615501 3.1532924e-12 7.7518438e-12 -0.0002598172   -84.139967 
      30   -84.139967       2.3692       4.1035      34.8138            0            0      -0.0004   -6484.5811   -9733.4939   -9720.2512 0.0017183203 5.8467297e-12 7.4233759e-12 -0.00025331062   -84.139967 
      31   -84.139967       2.3692       4.1035      34.8138            0            0      -0.0004   -6484.5815   -9733.4942   -9720.2515 0.0010304157 -1.9051142e-11 -1.7605883e-11 -0.00022838504   -84.139967 
      32   -84.139967       2.3692       4.1035      34.8138            0            0      -0.0004    -6484.582   -9733.4945   -9720.2518 0.00026689364 -1.7080334e-11 -1.2350395e-11 -0.00019087938   -84.139967 
      33   -84.139967       2.3692       4.1035      34.8138            0            0      -0.0004   -6484.5822   -9733.4946   -9720.2519 6.8567692e-06 3.4817604e-12 8.8029413e-12 -0.00017753479   -84.139967 
      34   -84.139967       2.3692       4.1035      34.8138            0            0      -0.0004   -6484.5822   -9733.4946   -9720.2519 -2.875591e-05 -7.9489246e-12 -7.2919887e-12 -0.00017485609   -84.139967 
      35   -84.139967       2.3692       4.1035      34.8138            0            0      -0.0004   -6484.5822   -9733.4946   -9720.2519 8.8325203e-06 -9.0000221e-12 6.1751976e-12 -0.00015262804   -84.139967 
      36   -84.139967       2.3692       4.1035      34.8138            0            0      -0.0004   -6484.5822   -9733.4945    -9720.252 1.8420728e-05 -9.7226516e-12 -9.3284901e-12 -0.0001207628   -84.139967 
      37   -84.139967       2.3692       4.1035      34.8138            0            0      -0.0004   -6484.5822   -9733.4945    -9720.252 -7.5610612e-06 -1.1364991e-11 -4.7299386e-12 -3.3458281e-05   -84.139967 
      38   -84.139967       2.3692       4.1035      34.8138            0            0      -0.0004   -6484.5822   -9733.4945    -9720.252 -3.468508e-05 -2.9299342e-11 -2.4240935e-11 -1.6253696e-05   -84.139967 
      39   -84.139967       2.3692       4.1035      34.8138            0            0      -0.0004   -6484.5822   -9733.4945    -9720.252 -6.832102e-06 4.992713e-12 3.7708122e-11 -8.3173678e-07   -84.139967 
      40   -84.139967       2.3692       4.1035      34.8138            0            0      -0.0004   -6484.5822   -9733.4945    -9720.252 -4.0950432e-06 -7.883231e-12 -8.6715541e-12 -4.7205182e-08   -84.139967 
      41   -84.139967       2.3692       4.1035      34.8138            0            0      -0.0004   -6484.5822   -9733.4945    -9720.252 -3.9399674e-06 1.8065738e-11 2.1153337e-11 -4.5180177e-08   -84.139967 
      42   -84.139967       2.3692       4.1035      34.8138            0            0      -0.0004   -6484.5822   -9733.4945    -9720.252 -3.9156566e-06 -6.8978272e-12 -6.2408912e-12 -4.7053955e-08   -84.139967 
      43   -84.139967       2.3692       4.1035      34.8138            0            0      -0.0004   -6484.5822   -9733.4945    -9720.252 -3.3211874e-06 -1.957669e-11 -6.109504e-12 -4.6528472e-08   -84.139967 
      44   -84.139967       2.3692       4.1035      34.8138            0            0      -0.0004   -6484.5822   -9733.4945    -9720.252 -2.0598672e-07 -1.6357704e-11 -2.4963565e-12 -3.8278408e-08   -84.139967 
      45   -84.139967       2.3692       4.1035      34.8138            0            0      -0.0004   -6484.5822   -9733.4945    -9720.252 -2.6061962e-08 -1.7277415e-11 -1.7146027e-11 -3.4458785e-08   -84.139967 
      46   -84.139967       2.3692       4.1035      34.8138            0            0      -0.0004   -6484.5822   -9733.4945    -9720.252 1.5650841e-09 -1.8459899e-11 -2.0759175e-11 -2.9705131e-08   -84.139967 
      47   -84.139967       2.3692       4.1035      34.8138            0            0      -0.0004   -6484.5822   -9733.4945    -9720.252 -8.0062094e-09 -3.218986e-12 3.6788411e-12 -2.5370931e-08   -84.139967 
      48   -84.139967       2.3692       4.1035      34.8138            0            0      -0.0004   -6484.5822   -9733.4945    -9720.252 -6.4442786e-09 -3.218986e-12 -8.2773926e-12 -2.2631442e-08   -84.139967 
      49   -84.139967       2.3692       4.1035      34.8138            0            0      -0.0004   -6484.5822   -9733.4945    -9720.252 -3.1301683e-09 2.6277437e-13 8.4744734e-12 -2.2224865e-08   -84.139967 
      50   -84.139967       2.3692       4.1035      34.8138            0            0      -0.0004   -6484.5822   -9733.4945    -9720.252 1.4957117e-09 1.7146027e-11 -5.4525681e-12 -2.0306875e-08   -84.139967 
Loop time of 0.0612619 on 1 procs for 50 steps with 18 atoms

5.2% CPU use with 1 MPI tasks x no OpenMP threads

Minimization stats:
  Stopping criterion = energy tolerance
  Energy initial, next-to-last, final = 
        -84.1243453911     -84.1399668468     -84.1399668468
  Force two-norm initial, final = 0.624653 4.89714e-13
  Force max component initial, final = 0.22274 2.10498e-13
  Final line search alpha, max atom move = 1 2.10498e-13
  Iterations, force evaluations = 50 100

MPI task timing breakdown:
Section |  min time  |  avg time  |  max time  |%varavg| %total
---------------------------------------------------------------
Pair    | 0.00297    | 0.00297    | 0.00297    |   0.0 |  4.85
Neigh   | 0          | 0          | 0          |   0.0 |  0.00
Comm    | 0.00024271 | 0.00024271 | 0.00024271 |   0.0 |  0.40
Output  | 0.057907   | 0.057907   | 0.057907   |   0.0 | 94.52
Modify  | 0          | 0          | 0          |   0.0 |  0.00
Other   |            | 0.0001426  |            |       |  0.23

Nlocal:    18 ave 18 max 18 min
Histogram: 1 0 0 0 0 0 0 0 0 0
Nghost:    490 ave 490 max 490 min
Histogram: 1 0 0 0 0 0 0 0 0 0
Neighs:    618 ave 618 max 618 min
Histogram: 1 0 0 0 0 0 0 0 0 0

Total # of neighbors = 618
Ave neighs/atom = 34.3333
Neighbor list builds = 0
Dangerous builds = 0

# ---- define output variables ----
variable natoms equal "count(all)"
variable tot_energy equal "c_eatoms"
variable a11 equal "xhi-xlo"
variable a22 equal "yhi-ylo"
variable a33 equal "zhi-zlo"
variable tilt_xy equal "xy"
variable tilt_xz equal "xz"
variable tilt_yz equal "yz"
variable tot_press equal "press"
variable press_xx equal "pxx"
variable press_yy equal "pyy"
variable press_zz equal "pzz"
variable press_xy equal "pxy"
variable press_xz equal "pxz"
variable press_yz equal "pyz"

# ---- output ----
print "pypospack:output_section:begin"
pypospack:output_section:begin
print "tot_energy = ${tot_energy}"
tot_energy = -84.1399668467872
print "num_atoms = ${natoms}"
num_atoms = 18
print "a11 = ${a11}"
a11 = 2.3692
print "a22 = ${a22}"
a22 = 4.1035
print "a33 = ${a33}"
a33 = 34.8138
print "a12 = ${tilt_xy}"
a12 = 0
print "a13 = ${tilt_xz}"
a13 = 0
print "a23 = ${tilt_yz}"
a23 = -0.0004
print "tot_press = ${tot_press}"
tot_press = -6484.58216556344
print "pxx = ${press_xx}"
pxx = -9733.4944640688
print "pyy = ${press_yy}"
pyy = -9720.252032623
print "pzz = ${press_zz}"
pzz = 1.49571170113439e-09
print "pxy = ${press_xy}"
pxy = 1.71460274945571e-11
print "pxz = ${press_xz}"
pxz = -5.45256813045303e-12
print "pyz = ${press_yz}"
pyz = -2.03068746704216e-08
print "pypospack:output_section:done"
pypospack:output_section:done
print "pypospack:lammps_sim:done"
pypospack:lammps_sim:done
Total wall time: 0:00:00
