   2   2   0   0
  0.9639684E+01  0.3009788E-09  0.3009788E-09  0.3009788E-09  0.5000000E-15
  1.000000000000000E-004
  CAR 
 automatically generated by pyflamestk   
     43.83161460    -16.38509688  301      3.53659850      1.00000000
    -16.385  0.0000E+00  0.0000E+00
    -16.184  0.0000E+00  0.0000E+00
    -15.984  0.0000E+00  0.0000E+00
    -15.783  0.0000E+00  0.0000E+00
    -15.582  0.0000E+00  0.0000E+00
    -15.381  0.0000E+00  0.0000E+00
    -15.181  0.0000E+00  0.0000E+00
    -14.980  0.0000E+00  0.0000E+00
    -14.779  0.0000E+00  0.0000E+00
    -14.579  0.0000E+00  0.0000E+00
    -14.378  0.0000E+00  0.0000E+00
    -14.177  0.0000E+00  0.0000E+00
    -13.976  0.0000E+00  0.0000E+00
    -13.776  0.4716E-04  0.9465E-05
    -13.575  0.3053E+00  0.6128E-01
    -13.374  0.1321E-01  0.6393E-01
    -13.174  0.9264E+00  0.2499E+00
    -12.973  0.7505E+00  0.4005E+00
    -12.772  0.8888E+00  0.5789E+00
    -12.571  0.2703E+01  0.1122E+01
    -12.371  0.3094E+01  0.1743E+01
    -12.170  0.1282E+01  0.2000E+01
    -11.969  0.3787E-07  0.2000E+01
    -11.768  0.0000E+00  0.2000E+01
    -11.568  0.0000E+00  0.2000E+01
    -11.367  0.0000E+00  0.2000E+01
    -11.166  0.0000E+00  0.2000E+01
    -10.966  0.0000E+00  0.2000E+01
    -10.765  0.0000E+00  0.2000E+01
    -10.564  0.0000E+00  0.2000E+01
    -10.363  0.0000E+00  0.2000E+01
    -10.163  0.0000E+00  0.2000E+01
     -9.962  0.0000E+00  0.2000E+01
     -9.761  0.0000E+00  0.2000E+01
     -9.561  0.0000E+00  0.2000E+01
     -9.360  0.0000E+00  0.2000E+01
     -9.159  0.0000E+00  0.2000E+01
     -8.958  0.0000E+00  0.2000E+01
     -8.758  0.0000E+00  0.2000E+01
     -8.557  0.0000E+00  0.2000E+01
     -8.356  0.0000E+00  0.2000E+01
     -8.155  0.0000E+00  0.2000E+01
     -7.955  0.0000E+00  0.2000E+01
     -7.754  0.0000E+00  0.2000E+01
     -7.553  0.0000E+00  0.2000E+01
     -7.353  0.0000E+00  0.2000E+01
     -7.152  0.0000E+00  0.2000E+01
     -6.951  0.0000E+00  0.2000E+01
     -6.750  0.0000E+00  0.2000E+01
     -6.550  0.0000E+00  0.2000E+01
     -6.349  0.0000E+00  0.2000E+01
     -6.148  0.0000E+00  0.2000E+01
     -5.948  0.0000E+00  0.2000E+01
     -5.747  0.0000E+00  0.2000E+01
     -5.546  0.0000E+00  0.2000E+01
     -5.345  0.0000E+00  0.2000E+01
     -5.145  0.0000E+00  0.2000E+01
     -4.944  0.0000E+00  0.2000E+01
     -4.743  0.0000E+00  0.2000E+01
     -4.542  0.0000E+00  0.2000E+01
     -4.342  0.0000E+00  0.2000E+01
     -4.141  0.0000E+00  0.2000E+01
     -3.940  0.0000E+00  0.2000E+01
     -3.740  0.0000E+00  0.2000E+01
     -3.539  0.0000E+00  0.2000E+01
     -3.338  0.0000E+00  0.2000E+01
     -3.137  0.0000E+00  0.2000E+01
     -2.937  0.0000E+00  0.2000E+01
     -2.736  0.0000E+00  0.2000E+01
     -2.535  0.0000E+00  0.2000E+01
     -2.335  0.0000E+00  0.2000E+01
     -2.134  0.0000E+00  0.2000E+01
     -1.933  0.0000E+00  0.2000E+01
     -1.732  0.0000E+00  0.2000E+01
     -1.532  0.0000E+00  0.2000E+01
     -1.331  0.0000E+00  0.2000E+01
     -1.130  0.1908E-13  0.2000E+01
     -0.929  0.2801E-01  0.2006E+01
     -0.729  0.9061E+00  0.2187E+01
     -0.528  0.3049E+00  0.2249E+01
     -0.327  0.1013E+01  0.2452E+01
     -0.127  0.2740E+01  0.3002E+01
      0.074  0.2321E+01  0.3468E+01
      0.275  0.1136E+01  0.3696E+01
      0.476  0.2697E+00  0.3750E+01
      0.676  0.9334E-15  0.3750E+01
      0.877  0.1729E-01  0.3753E+01
      1.078  0.2464E+01  0.4248E+01
      1.278  0.1255E+01  0.4500E+01
      1.479  0.3234E-04  0.4500E+01
      1.680  0.8265E+00  0.4666E+01
      1.881  0.1976E+01  0.5063E+01
      2.081  0.1705E+01  0.5405E+01
      2.282  0.2676E+01  0.5942E+01
      2.483  0.2628E+01  0.6469E+01
      2.684  0.3485E+01  0.7169E+01
      2.884  0.1154E+01  0.7400E+01
      3.085  0.2364E+01  0.7875E+01
      3.286  0.4100E+00  0.7957E+01
      3.486  0.2133E+00  0.8000E+01
      3.687  0.0000E+00  0.8000E+01
      3.888  0.0000E+00  0.8000E+01
      4.089  0.0000E+00  0.8000E+01
      4.289  0.0000E+00  0.8000E+01
      4.490  0.0000E+00  0.8000E+01
      4.691  0.0000E+00  0.8000E+01
      4.891  0.0000E+00  0.8000E+01
      5.092  0.0000E+00  0.8000E+01
      5.293  0.0000E+00  0.8000E+01
      5.494  0.0000E+00  0.8000E+01
      5.694  0.0000E+00  0.8000E+01
      5.895  0.0000E+00  0.8000E+01
      6.096  0.0000E+00  0.8000E+01
      6.297  0.0000E+00  0.8000E+01
      6.497  0.0000E+00  0.8000E+01
      6.698  0.0000E+00  0.8000E+01
      6.899  0.0000E+00  0.8000E+01
      7.099  0.0000E+00  0.8000E+01
      7.300  0.0000E+00  0.8000E+01
      7.501  0.0000E+00  0.8000E+01
      7.702  0.0000E+00  0.8000E+01
      7.902  0.0000E+00  0.8000E+01
      8.103  0.0000E+00  0.8000E+01
      8.304  0.0000E+00  0.8000E+01
      8.504  0.9046E-07  0.8000E+01
      8.705  0.2341E+00  0.8047E+01
      8.906  0.7731E-01  0.8062E+01
      9.107  0.0000E+00  0.8062E+01
      9.307  0.0000E+00  0.8062E+01
      9.508  0.0000E+00  0.8062E+01
      9.709  0.0000E+00  0.8062E+01
      9.910  0.0000E+00  0.8062E+01
     10.110  0.1639E-05  0.8063E+01
     10.311  0.7945E+00  0.8222E+01
     10.512  0.1396E+00  0.8250E+01
     10.712  0.1379E-08  0.8250E+01
     10.913  0.1465E+00  0.8279E+01
     11.114  0.7068E+00  0.8421E+01
     11.315  0.3922E+00  0.8500E+01
     11.515  0.8659E-08  0.8500E+01
     11.716  0.4865E+00  0.8598E+01
     11.917  0.4476E+00  0.8687E+01
     12.117  0.4029E-02  0.8688E+01
     12.318  0.9290E+00  0.8875E+01
     12.519  0.8002E-01  0.8891E+01
     12.720  0.1789E+01  0.9250E+01
     12.920  0.9081E+00  0.9432E+01
     13.121  0.8770E+00  0.9608E+01
     13.322  0.8320E-01  0.9625E+01
     13.523  0.8006E+00  0.9786E+01
     13.723  0.3950E+00  0.9865E+01
     13.924  0.2217E+01  0.1031E+02
     14.125  0.3237E+00  0.1037E+02
     14.325  0.0000E+00  0.1038E+02
     14.526  0.8159E-12  0.1038E+02
     14.727  0.1645E+00  0.1041E+02
     14.928  0.3572E+01  0.1112E+02
     15.128  0.9091E-03  0.1113E+02
     15.329  0.1846E+01  0.1150E+02
     15.530  0.2229E+01  0.1194E+02
     15.730  0.1841E+01  0.1231E+02
     15.931  0.4187E-02  0.1231E+02
     16.132  0.1429E+01  0.1260E+02
     16.333  0.4355E+00  0.1269E+02
     16.533  0.0000E+00  0.1269E+02
     16.734  0.1283E-07  0.1269E+02
     16.935  0.9346E+00  0.1288E+02
     17.136  0.1117E+01  0.1310E+02
     17.336  0.9876E+00  0.1330E+02
     17.537  0.7468E-01  0.1331E+02
     17.738  0.4310E-06  0.1331E+02
     17.938  0.7280E+00  0.1346E+02
     18.139  0.2062E+00  0.1350E+02
     18.340  0.1400E-14  0.1350E+02
     18.541  0.1253E-01  0.1350E+02
     18.741  0.9213E+00  0.1369E+02
     18.942  0.2492E-03  0.1369E+02
     19.143  0.3172E-06  0.1369E+02
     19.343  0.5043E+00  0.1379E+02
     19.544  0.2452E+01  0.1428E+02
     19.745  0.1779E+01  0.1464E+02
     19.946  0.1043E+01  0.1485E+02
     20.146  0.1563E+01  0.1516E+02
     20.347  0.1334E+01  0.1543E+02
     20.548  0.9761E+00  0.1562E+02
     20.749  0.1203E+00  0.1565E+02
     20.949  0.8146E+00  0.1581E+02
     21.150  0.9259E+00  0.1600E+02
     21.351  0.9413E+00  0.1619E+02
     21.551  0.1795E+01  0.1655E+02
     21.752  0.7433E-01  0.1656E+02
     21.953  0.2463E-05  0.1656E+02
     22.154  0.8121E+00  0.1673E+02
     22.354  0.1220E+00  0.1675E+02
     22.555  0.8738E+00  0.1693E+02
     22.756  0.1838E+01  0.1729E+02
     22.956  0.3579E+00  0.1737E+02
     23.157  0.1600E+01  0.1769E+02
     23.358  0.4082E-05  0.1769E+02
     23.559  0.4928E+00  0.1779E+02
     23.759  0.1025E+01  0.1799E+02
     23.960  0.3926E-01  0.1800E+02
     24.161  0.3092E+00  0.1806E+02
     24.362  0.7519E+00  0.1821E+02
     24.562  0.8067E+00  0.1837E+02
     24.763  0.7078E-03  0.1838E+02
     24.964  0.1179E+01  0.1861E+02
     25.164  0.6634E-01  0.1863E+02
     25.365  0.1142E+01  0.1885E+02
     25.566  0.1371E+01  0.1913E+02
     25.767  0.2894E+00  0.1919E+02
     25.967  0.6419E+00  0.1932E+02
     26.168  0.1226E+01  0.1956E+02
     26.369  0.1309E+00  0.1959E+02
     26.569  0.2671E+01  0.2012E+02
     26.770  0.2084E-02  0.2013E+02
     26.971  0.9303E+00  0.2031E+02
     27.172  0.9308E+00  0.2050E+02
     27.372  0.3165E+00  0.2056E+02
     27.573  0.2617E-03  0.2056E+02
     27.774  0.0000E+00  0.2056E+02
     27.975  0.0000E+00  0.2056E+02
     28.175  0.0000E+00  0.2056E+02
     28.376  0.0000E+00  0.2056E+02
     28.577  0.5387E-03  0.2056E+02
     28.777  0.6316E+00  0.2069E+02
     28.978  0.2777E+01  0.2125E+02
     29.179  0.9478E+00  0.2144E+02
     29.380  0.3102E+00  0.2150E+02
     29.580  0.6261E+00  0.2162E+02
     29.781  0.4465E-06  0.2163E+02
     29.982  0.1812E+01  0.2199E+02
     30.182  0.1787E+01  0.2235E+02
     30.383  0.1352E+01  0.2262E+02
     30.584  0.6537E+00  0.2275E+02
     30.785  0.1201E-06  0.2275E+02
     30.985  0.3816E+00  0.2283E+02
     31.186  0.1486E+01  0.2312E+02
     31.387  0.4091E+00  0.2321E+02
     31.588  0.1699E+01  0.2355E+02
     31.788  0.2563E+01  0.2406E+02
     31.989  0.1054E+01  0.2427E+02
     32.190  0.1275E+01  0.2453E+02
     32.390  0.4433E+01  0.2542E+02
     32.591  0.1335E+00  0.2545E+02
     32.792  0.2760E+01  0.2600E+02
     32.993  0.9297E+00  0.2619E+02
     33.193  0.5240E+00  0.2629E+02
     33.394  0.1968E+01  0.2669E+02
     33.595  0.1039E-04  0.2669E+02
     33.795  0.0000E+00  0.2669E+02
     33.996  0.0000E+00  0.2669E+02
     34.197  0.0000E+00  0.2669E+02
     34.398  0.0000E+00  0.2669E+02
     34.598  0.8672E-10  0.2669E+02
     34.799  0.2433E+00  0.2674E+02
     35.000  0.2558E+01  0.2725E+02
     35.201  0.9333E-03  0.2725E+02
     35.401  0.7664E+00  0.2740E+02
     35.602  0.2739E+01  0.2795E+02
     35.803  0.6945E+00  0.2809E+02
     36.003  0.4709E+00  0.2819E+02
     36.204  0.1633E-03  0.2819E+02
     36.405  0.1848E+01  0.2856E+02
     36.606  0.9540E+00  0.2875E+02
     36.806  0.1034E+00  0.2877E+02
     37.007  0.5194E+00  0.2887E+02
     37.208  0.8806E+00  0.2905E+02
     37.408  0.9908E+00  0.2925E+02
     37.609  0.9296E+00  0.2944E+02
     37.810  0.6481E+00  0.2957E+02
     38.011  0.1221E+01  0.2981E+02
     38.211  0.8310E+00  0.2998E+02
     38.412  0.1031E+00  0.3000E+02
     38.613  0.1914E-11  0.3000E+02
     38.814  0.1487E+00  0.3003E+02
     39.014  0.3785E+01  0.3079E+02
     39.215  0.1139E+00  0.3081E+02
     39.416  0.0000E+00  0.3081E+02
     39.616  0.0000E+00  0.3081E+02
     39.817  0.5185E-16  0.3081E+02
     40.018  0.3579E-02  0.3081E+02
     40.219  0.9293E+00  0.3100E+02
     40.419  0.1217E-02  0.3100E+02
     40.620  0.1270E-09  0.3100E+02
     40.821  0.1000E+00  0.3102E+02
     41.022  0.1485E+01  0.3132E+02
     41.222  0.3397E+01  0.3200E+02
     41.423  0.2753E-03  0.3200E+02
     41.624  0.0000E+00  0.3200E+02
     41.824  0.0000E+00  0.3200E+02
     42.025  0.0000E+00  0.3200E+02
     42.226  0.0000E+00  0.3200E+02
     42.427  0.0000E+00  0.3200E+02
     42.627  0.0000E+00  0.3200E+02
     42.828  0.0000E+00  0.3200E+02
     43.029  0.0000E+00  0.3200E+02
     43.229  0.0000E+00  0.3200E+02
     43.430  0.0000E+00  0.3200E+02
     43.631  0.0000E+00  0.3200E+02
     43.832  0.0000E+00  0.3200E+02
