LAMMPS (11 Aug 2017)
# ---- initialize simulations
clear
units metal
dimension 3
boundary p p p
atom_style atomic
atom_modify map array
# ---- create atoms
read_data /home/sullberg/repos/pypospack/examples/Ni__eam__born_exp_rose/01_preconditioning_3.5NN/rank_46/Ni_fcc_vac.lmps_min_pos/lammps.structure
  triclinic box = (0 0 0) to (27.6059 27.6059 27.6059) with tilt (0 -0 -0)
  1 by 1 by 1 MPI processor grid
  reading atoms ...
  107 atoms
# ---- define interatomic potential
include potential.mod
mass 1 58.6934

group Ni type 1
107 atoms in group Ni

pair_style eam/alloy
pair_coeff * * /home/sullberg/repos/pypospack/examples/Ni__eam__born_exp_rose/01_preconditioning_3.5NN/rank_46/Ni_fcc_vac.lmps_min_pos/Ni.eam.alloy Ni

neighbor 1.0 bin
neigh_modify every 1 delay 0 check yes
# ---- define settings
compute eng all pe/atom
compute eatoms all reduce sum c_eng

# ---- run minimization
reset_timestep 0
thermo 1
thermo_style custom step pe lx ly lz xy xz yz press pxx pyy pzz pxy pxz pyz c_eatoms
min_style cg
minimize 1e-20 1e-20 1000 100000
Neighbor list info ...
  update every 1 steps, delay 0 steps, check yes
  max neighbors/atom: 2000, page size: 100000
  master list distance cutoff = 11
  ghost atom cutoff = 11
  binsize = 5.5, bins = 6 6 6
  1 neighbor lists, perpetual/occasional/extra = 1 0 0
  (1) pair eam/alloy, perpetual
      attributes: half, newton on
      pair build: half/bin/newton/tri
      stencil: half/bin/3d/newton/tri
      bin: standard
Per MPI rank memory allocation (min/avg/max) = 4.206 | 4.206 | 4.206 Mbytes
Step PotEng Lx Ly Lz Xy Xz Yz Press Pxx Pyy Pzz Pxy Pxz Pyz c_eatoms 
       0   -10.082786      27.6059      27.6059      27.6059            0           -0           -0   -323.09669   -323.09669   -323.09669   -323.09669 -1.175037e-11 -1.1708623e-11 -1.1639926e-11   -10.082786 
       1     -10.0829      27.6059      27.6059      27.6059            0           -0           -0   -323.12931   -323.12931   -323.12931   -323.12931 -1.5650461e-10 -1.565025e-10 -1.5641002e-10     -10.0829 
       2   -10.083021      27.6059      27.6059      27.6059            0           -0           -0   -323.16397   -323.16397   -323.16397   -323.16397 -3.0636727e-10 -3.0633345e-10 -3.0643029e-10   -10.083021 
       3   -10.083148      27.6059      27.6059      27.6059            0           -0           -0   -323.20009   -323.20009   -323.20009   -323.20009  -4.6083e-10 -4.6090239e-10 -4.6081771e-10   -10.083148 
       4    -10.08328      27.6059      27.6059      27.6059            0           -0           -0   -323.23774   -323.23774   -323.23774   -323.23774 -6.7563464e-10 -6.7586082e-10 -6.7578498e-10    -10.08328 
       5   -10.083418      27.6059      27.6059      27.6059            0           -0           -0   -323.27697   -323.27697   -323.27697   -323.27697 -8.4380349e-10 -8.4391235e-10 -8.4379662e-10   -10.083418 
       6   -10.083563      27.6059      27.6059      27.6059            0           -0           -0   -323.31788   -323.31788   -323.31788   -323.31788 -1.0694517e-09 -1.0697233e-09 -1.0695197e-09   -10.083563 
       7   -10.083713      27.6059      27.6059      27.6059            0           -0           -0   -323.36053   -323.36053   -323.36053   -323.36053 -1.3047371e-09 -1.3046293e-09 -1.3048807e-09   -10.083713 
       8   -10.083871      27.6059      27.6059      27.6059            0           -0           -0   -323.40503   -323.40503   -323.40503   -323.40503 -1.4782262e-09 -1.4783108e-09 -1.4780809e-09   -10.083871 
       9   -10.084036      27.6059      27.6059      27.6059            0           -0           -0   -323.45146   -323.45146   -323.45146   -323.45146 -1.6474377e-09 -1.6475809e-09 -1.6475818e-09   -10.084036 
      10   -10.084208      27.6059      27.6059      27.6059            0           -0           -0   -323.49993   -323.49993   -323.49993   -323.49993 -1.8968794e-09 -1.8969835e-09 -1.8968898e-09   -10.084208 
      11   -10.084388      27.6059      27.6059      27.6059            0           -0           -0   -323.55054   -323.55054   -323.55054   -323.55054 -2.1673334e-09 -2.1669561e-09 -2.1671416e-09   -10.084388 
      12   -10.084577      27.6059      27.6059      27.6059            0           -0           -0    -323.6034    -323.6034    -323.6034    -323.6034 -2.4936371e-09 -2.4934955e-09 -2.4936503e-09   -10.084577 
      13   -10.084775      27.6059      27.6059      27.6059            0           -0           -0   -323.65863   -323.65863   -323.65863   -323.65863 -2.7171319e-09 -2.7172577e-09 -2.7171668e-09   -10.084775 
      14   -10.084981      27.6059      27.6059      27.6059            0           -0           -0   -323.71636   -323.71636   -323.71636   -323.71636 -3.07544e-09 -3.0753988e-09 -3.0755506e-09   -10.084981 
      15   -10.085198      27.6059      27.6059      27.6059            0           -0           -0   -323.77672   -323.77672   -323.77672   -323.77672 -3.4224517e-09 -3.4224088e-09 -3.4224041e-09   -10.085198 
      16   -10.085425      27.6059      27.6059      27.6059            0           -0           -0   -323.83985   -323.83985   -323.83985   -323.83985 -3.7628678e-09 -3.7627886e-09 -3.7627138e-09   -10.085425 
      17   -10.085663      27.6059      27.6059      27.6059            0           -0           -0   -323.90591   -323.90591   -323.90591   -323.90591 -4.1588637e-09 -4.1588621e-09 -4.1589062e-09   -10.085663 
      18   -10.085912      27.6059      27.6059      27.6059            0           -0           -0   -323.97505   -323.97505   -323.97505   -323.97505 -4.5278377e-09 -4.5278779e-09 -4.5278836e-09   -10.085912 
      19   -10.086174      27.6059      27.6059      27.6059            0           -0           -0   -324.04745   -324.04745   -324.04745   -324.04745 -4.8802738e-09 -4.8801015e-09 -4.8801594e-09   -10.086174 
      20   -10.086448      27.6059      27.6059      27.6059            0           -0           -0    -324.1233    -324.1233    -324.1233    -324.1233 -5.4973368e-09 -5.4973674e-09 -5.4973005e-09   -10.086448 
      21   -10.086736      27.6059      27.6059      27.6059            0           -0           -0   -324.20278   -324.20278   -324.20278   -324.20278 -5.8273512e-09 -5.827171e-09 -5.8273125e-09   -10.086736 
      22   -10.087039      27.6059      27.6059      27.6059            0           -0           -0    -324.2861    -324.2861    -324.2861    -324.2861 -6.2767082e-09 -6.2768884e-09 -6.2768281e-09   -10.087039 
      23   -10.087357      27.6059      27.6059      27.6059            0           -0           -0    -324.3735    -324.3735    -324.3735    -324.3735 -7.0011448e-09 -7.0011987e-09 -7.0012858e-09   -10.087357 
      24   -10.087691      27.6059      27.6059      27.6059            0           -0           -0    -324.4652    -324.4652    -324.4652    -324.4652 -7.4963899e-09 -7.496299e-09 -7.4962047e-09   -10.087691 
      25   -10.088042      27.6059      27.6059      27.6059            0           -0           -0   -324.56147   -324.56147   -324.56147   -324.56147 -8.0057839e-09 -8.0059663e-09 -8.0059475e-09   -10.088042 
      26   -10.088412      27.6059      27.6059      27.6059            0           -0           -0   -324.66257   -324.66257   -324.66257   -324.66257 -8.8877967e-09 -8.8881519e-09 -8.8879471e-09   -10.088412 
      27   -10.088801      27.6059      27.6059      27.6059            0           -0           -0   -324.76881   -324.76881   -324.76881   -324.76881 -9.3693817e-09 -9.3691455e-09 -9.3691838e-09   -10.088801 
      28    -10.08921      27.6059      27.6059      27.6059            0           -0           -0   -324.88049   -324.88049   -324.88049   -324.88049 -1.0294111e-08 -1.0293835e-08 -1.0294031e-08    -10.08921 
      29   -10.089642      27.6059      27.6059      27.6059            0           -0           -0   -324.99795   -324.99795   -324.99795   -324.99795 -1.0935413e-08 -1.093547e-08 -1.0935254e-08   -10.089642 
      30   -10.090097      27.6059      27.6059      27.6059            0           -0           -0   -325.12156   -325.12156   -325.12156   -325.12156 -1.177592e-08 -1.1776046e-08 -1.1776126e-08   -10.090097 
      31   -10.090576      27.6059      27.6059      27.6059            0           -0           -0   -325.25171   -325.25171   -325.25171   -325.25171 -1.2875358e-08 -1.2875432e-08 -1.2875499e-08   -10.090576 
      32   -10.091082      27.6059      27.6059      27.6059            0           -0           -0   -325.38882   -325.38882   -325.38882   -325.38882 -1.3944023e-08 -1.3943939e-08 -1.3943921e-08   -10.091082 
      33   -10.091617      27.6059      27.6059      27.6059            0           -0           -0   -325.53334   -325.53334   -325.53334   -325.53334 -1.5195246e-08 -1.5195249e-08 -1.5195232e-08   -10.091617 
      34   -10.092181      27.6059      27.6059      27.6059            0           -0           -0   -325.68577   -325.68577   -325.68577   -325.68577 -1.6628688e-08 -1.662868e-08 -1.6628517e-08   -10.092181 
      35   -10.092778      27.6059      27.6059      27.6059            0           -0           -0   -325.84663   -325.84663   -325.84663   -325.84663 -1.8445816e-08 -1.8445805e-08 -1.8445671e-08   -10.092778 
      36   -10.093409      27.6059      27.6059      27.6059            0           -0           -0    -326.0165    -326.0165    -326.0165    -326.0165 -2.0886145e-08 -2.0886196e-08 -2.0886166e-08   -10.093409 
      37   -10.094076      27.6059      27.6059      27.6059            0           -0           -0   -326.19601   -326.19601   -326.19601   -326.19601 -2.248499e-08 -2.2484794e-08 -2.2484826e-08   -10.094076 
      38   -10.094784      27.6059      27.6059      27.6059            0           -0           -0   -326.38582   -326.38582   -326.38582   -326.38582 -2.516683e-08 -2.5166836e-08 -2.5166833e-08   -10.094784 
      39   -10.095534      27.6059      27.6059      27.6059            0           -0           -0   -326.58666   -326.58666   -326.58666   -326.58666 -2.7319773e-08 -2.7319717e-08 -2.7319702e-08   -10.095534 
      40   -10.096329      27.6059      27.6059      27.6059            0           -0           -0   -326.79934   -326.79934   -326.79934   -326.79934 -3.0485564e-08 -3.0485466e-08 -3.048565e-08   -10.096329 
      41   -10.097173      27.6059      27.6059      27.6059            0           -0           -0   -327.02473   -327.02473   -327.02473   -327.02473 -3.3834334e-08 -3.3834268e-08 -3.3834157e-08   -10.097173 
      42    -10.09807      27.6059      27.6059      27.6059            0           -0           -0   -327.26376   -327.26376   -327.26376   -327.26376 -3.8094306e-08 -3.8094405e-08 -3.8094356e-08    -10.09807 
      43   -10.099023      27.6059      27.6059      27.6059            0           -0           -0   -327.51747   -327.51747   -327.51747   -327.51747 -4.2570357e-08 -4.2570572e-08 -4.2570413e-08   -10.099023 
      44   -10.100037      27.6059      27.6059      27.6059            0           -0           -0   -327.78699   -327.78699   -327.78699   -327.78699 -4.7935492e-08 -4.7935516e-08 -4.7935488e-08   -10.100037 
      45   -10.101118      27.6059      27.6059      27.6059            0           -0           -0   -328.07357   -328.07357   -328.07357   -328.07357 -5.4555838e-08 -5.4555819e-08 -5.4555708e-08   -10.101118 
      46    -10.10227      27.6059      27.6059      27.6059            0           -0           -0   -328.37856   -328.37856   -328.37856   -328.37856 -6.0874378e-08 -6.0874413e-08 -6.0874209e-08    -10.10227 
      47   -10.103499      27.6059      27.6059      27.6059            0           -0           -0   -328.70347   -328.70347   -328.70347   -328.70347 -7.0698725e-08 -7.0698775e-08 -7.0698729e-08   -10.103499 
      48   -10.104813      27.6059      27.6059      27.6059            0           -0           -0   -329.04993   -329.04993   -329.04993   -329.04993 -8.014249e-08 -8.0142405e-08 -8.0142626e-08   -10.104813 
      49   -10.106217      27.6059      27.6059      27.6059            0           -0           -0   -329.41977   -329.41977   -329.41977   -329.41977 -9.1894991e-08 -9.1895224e-08 -9.1895089e-08   -10.106217 
      50   -10.107721      27.6059      27.6059      27.6059            0           -0           -0   -329.81502   -329.81502   -329.81502   -329.81502 -1.0773943e-07 -1.0773929e-07 -1.0773935e-07   -10.107721 
      51   -10.109333      27.6059      27.6059      27.6059            0           -0           -0   -330.23791   -330.23791   -330.23791   -330.23791 -1.2423622e-07 -1.2423625e-07 -1.2423614e-07   -10.109333 
      52   -10.111063      27.6059      27.6059      27.6059            0           -0           -0   -330.69092   -330.69092   -330.69092   -330.69092 -1.4389248e-07 -1.4389248e-07 -1.4389236e-07   -10.111063 
      53   -10.112923      27.6059      27.6059      27.6059            0           -0           -0   -331.17683   -331.17683   -331.17683   -331.17683 -1.6949808e-07 -1.6949801e-07 -1.6949777e-07   -10.112923 
      54   -10.114924      27.6059      27.6059      27.6059            0           -0           -0   -331.69875   -331.69875   -331.69875   -331.69875 -1.9773324e-07 -1.9773331e-07 -1.9773326e-07   -10.114924 
      55   -10.117082      27.6059      27.6059      27.6059            0           -0           -0   -332.26016   -332.26016   -332.26016   -332.26016 -2.3101421e-07 -2.3101403e-07 -2.3101428e-07   -10.117082 
      56   -10.119411      27.6059      27.6059      27.6059            0           -0           -0   -332.86497   -332.86497   -332.86497   -332.86497 -2.7129853e-07 -2.7129863e-07 -2.7129871e-07   -10.119411 
      57   -10.121931      27.6059      27.6059      27.6059            0           -0           -0    -333.5176    -333.5176    -333.5176    -333.5176 -3.2579535e-07 -3.2579541e-07 -3.2579551e-07   -10.121931 
      58   -10.124661      27.6059      27.6059      27.6059            0           -0           -0   -334.22305   -334.22305   -334.22305   -334.22305 -3.8810464e-07 -3.8810449e-07 -3.8810451e-07   -10.124661 
      59   -10.127625      27.6059      27.6059      27.6059            0           -0           -0   -334.98704   -334.98704   -334.98704   -334.98704 -4.6890724e-07 -4.6890722e-07 -4.6890724e-07   -10.127625 
      60   -10.130849      27.6059      27.6059      27.6059            0           -0           -0   -335.81606   -335.81606   -335.81606   -335.81606 -5.6319981e-07 -5.6319988e-07 -5.6319997e-07   -10.130849 
      61   -10.134365      27.6059      27.6059      27.6059            0           -0           -0   -336.71758   -336.71758   -336.71758   -336.71758 -6.8708678e-07 -6.8708685e-07 -6.8708694e-07   -10.134365 
      62   -10.138208      27.6059      27.6059      27.6059            0           -0           -0   -337.70023   -337.70023   -337.70023   -337.70023 -8.330052e-07 -8.3300506e-07 -8.3300503e-07   -10.138208 
      63   -10.142421      27.6059      27.6059      27.6059            0           -0           -0     -338.774     -338.774     -338.774     -338.774 -1.0259382e-06 -1.0259384e-06 -1.0259384e-06   -10.142421 
      64   -10.147051      27.6059      27.6059      27.6059            0           -0           -0   -339.95056   -339.95056   -339.95056   -339.95056 -1.2661001e-06 -1.2661001e-06  -1.2661e-06   -10.147051 
      65   -10.152158      27.6059      27.6059      27.6059            0           -0           -0   -341.24362   -341.24362   -341.24362   -341.24362 -1.5745652e-06 -1.574565e-06 -1.5745652e-06   -10.152158 
      66   -10.157809      27.6059      27.6059      27.6059            0           -0           -0   -342.66941   -342.66941   -342.66941   -342.66941 -1.9723386e-06 -1.9723386e-06 -1.9723386e-06   -10.157809 
      67   -10.164088      27.6059      27.6059      27.6059            0           -0           -0   -344.24729   -344.24729   -344.24729   -344.24729 -2.480707e-06 -2.4807071e-06 -2.4807071e-06   -10.164088 
      68   -10.171095      27.6059      27.6059      27.6059            0           -0           -0    -346.0006    -346.0006    -346.0006    -346.0006 -3.1528985e-06 -3.1528985e-06 -3.1528986e-06   -10.171095 
      69   -10.178953      27.6059      27.6059      27.6059            0           -0           -0   -347.95774   -347.95774   -347.95774   -347.95774 -4.0356914e-06 -4.0356913e-06 -4.0356914e-06   -10.178953 
      70   -10.187815      27.6059      27.6059      27.6059            0           -0           -0   -350.15429   -350.15429   -350.15429   -350.15429 -5.2167148e-06 -5.2167147e-06 -5.2167144e-06   -10.187815 
      71   -10.197872      27.6059      27.6059      27.6059            0           -0           -0   -352.63307   -352.63307   -352.63307   -352.63307 -6.819628e-06 -6.8196279e-06 -6.819628e-06   -10.197872 
      72   -10.209371      27.6059      27.6059      27.6059            0           -0           -0   -355.44919   -355.44919   -355.44919   -355.44919 -9.0163052e-06 -9.0163049e-06 -9.0163051e-06   -10.209371 
      73   -10.222632      27.6059      27.6059      27.6059            0           -0           -0    -358.6736    -358.6736    -358.6736    -358.6736 -1.208663e-05 -1.208663e-05 -1.208663e-05   -10.222632 
      74   -10.238079      27.6059      27.6059      27.6059            0           -0           -0   -362.39936   -362.39936   -362.39936   -362.39936 -1.6446541e-05 -1.6446542e-05 -1.6446541e-05   -10.238079 
      75   -10.256293      27.6059      27.6059      27.6059            0           -0           -0    -366.7515    -366.7515    -366.7515    -366.7515 -2.2784883e-05 -2.2784882e-05 -2.2784882e-05   -10.256293 
      76   -10.278089      27.6059      27.6059      27.6059            0           -0           -0   -371.90248   -371.90248   -371.90248   -371.90248 -3.2231075e-05 -3.2231075e-05 -3.2231075e-05   -10.278089 
      77   -10.304652      27.6059      27.6059      27.6059            0           -0           -0     -378.098     -378.098     -378.098     -378.098 -4.6743217e-05 -4.6743217e-05 -4.6743217e-05   -10.304652 
      78    -10.33778      27.6059      27.6059      27.6059            0           -0           -0   -385.70191   -385.70191   -385.70191   -385.70191 -6.9868578e-05 -6.9868578e-05 -6.9868579e-05    -10.33778 
      79   -10.380361      27.6059      27.6059      27.6059            0           -0           -0   -395.27918   -395.27918   -395.27918   -395.27918 -0.00010839227 -0.00010839227 -0.00010839227   -10.380361 
      80   -10.437356      27.6059      27.6059      27.6059            0           -0           -0    -407.7601    -407.7601    -407.7601    -407.7601 -0.00017611327 -0.00017611327 -0.00017611327   -10.437356 
      81   -10.518114      27.6059      27.6059      27.6059            0           -0           -0   -424.79146   -424.79146   -424.79146   -424.79146 -0.00030276808 -0.00030276808 -0.00030276808   -10.518114 
      82   -10.642623      27.6059      27.6059      27.6059            0           -0           -0   -449.73904   -449.73904   -449.73904   -449.73904 -0.00059129531 -0.00059129531 -0.00059129531   -10.642623 
      83   -10.863827      27.6059      27.6059      27.6059            0           -0           -0    -492.3895    -492.3895    -492.3895    -492.3895 -0.0014673643 -0.0014673643 -0.0014673643   -10.863827 
      84   -11.301673      27.6059      27.6059      27.6059            0           -0           -0   -571.82826   -571.82826   -571.82826   -571.82826 -0.0045114384 -0.0045114384 -0.0045114384   -11.301673 
      85   -11.992076      27.6059      27.6059      27.6059            0           -0           -0     -686.449     -686.449     -686.449     -686.449 -0.011753509 -0.011753509 -0.011753509   -11.992076 
      86   -13.084253      27.6059      27.6059      27.6059            0           -0           -0   -849.17792   -849.17792   -849.17792   -849.17792 -0.030132127 -0.030132127 -0.030132127   -13.084253 
      87   -14.805948      27.6059      27.6059      27.6059            0           -0           -0   -1076.8678   -1076.8678   -1076.8678   -1076.8678 -0.073555951 -0.073555951 -0.073555951   -14.805948 
      88   -17.493329      27.6059      27.6059      27.6059            0           -0           -0   -1387.5698   -1387.5698   -1387.5698   -1387.5698  -0.16593526  -0.16593526  -0.16593526   -17.493329 
      89   -21.622128      27.6059      27.6059      27.6059            0           -0           -0   -1796.3049   -1796.3049   -1796.3049   -1796.3049  -0.34289799  -0.34289799  -0.34289799   -21.622128 
      90   -27.827994      27.6059      27.6059      27.6059            0           -0           -0     -2307.02     -2307.02     -2307.02     -2307.02   -0.6193356   -0.6193356   -0.6193356   -27.827994 
      91   -36.893579      27.6059      27.6059      27.6059            0           -0           -0   -2899.3482   -2899.3482   -2899.3482   -2899.3482  -0.84413075  -0.84413075  -0.84413075   -36.893579 
      92   -49.661519      27.6059      27.6059      27.6059            0           -0           -0   -3510.0367   -3510.0367   -3510.0367   -3510.0367  -0.33689197  -0.33689197  -0.33689197   -49.661519 
      93    -66.81132      27.6059      27.6059      27.6059            0           -0           -0   -4012.1185   -4012.1185   -4012.1185   -4012.1185    2.8597209    2.8597209    2.8597209    -66.81132 
      94   -88.466471      27.6059      27.6059      27.6059            0           -0           -0      -4197.7      -4197.7      -4197.7      -4197.7    12.008472    12.008472    12.008472   -88.466471 
      95   -113.51848      27.6059      27.6059      27.6059            0           -0           -0   -3760.8318   -3760.8318   -3760.8318   -3760.8318    26.782786    26.782786    26.782786   -113.51848 
      96   -137.17992      27.6059      27.6059      27.6059            0           -0           -0    -2298.256    -2298.256    -2298.256    -2298.256    15.791195    15.791195    15.791195   -137.17992 
      97   -146.37328      27.6059      27.6059      27.6059            0           -0           -0   -347.35644   -347.35644   -347.35644   -347.35644    -57.17189    -57.17189    -57.17189   -146.37328 
      98   -146.58439      27.6059      27.6059      27.6059            0           -0           -0   -337.54883   -337.54883   -337.54883   -337.54883   -17.730661   -17.730661   -17.730661   -146.58439 
      99   -146.59586      27.6059      27.6059      27.6059            0           -0           -0   -323.91255   -323.91255   -323.91255   -323.91255   -6.1344996   -6.1344996   -6.1344996   -146.59586 
     100   -146.59723      27.6059      27.6059      27.6059            0           -0           -0   -318.81363   -318.81363   -318.81363   -318.81363   -1.9377728   -1.9377728   -1.9377728   -146.59723 
     101   -146.59748      27.6059      27.6059      27.6059            0           -0           -0   -316.31885   -316.31885   -316.31885   -316.31885   0.18811408   0.18811408   0.18811408   -146.59748 
     102   -146.60479      27.6059      27.6059      27.6059            0           -0           -0   -308.66766   -308.66766   -308.66766   -308.66766   -1.9612758   -1.9612758   -1.9612758   -146.60479 
     103   -146.60756      27.6059      27.6059      27.6059            0           -0           -0   -335.27727   -335.27727   -335.27727   -335.27727    3.1911837    3.1911837    3.1911837   -146.60756 
     104   -146.60818      27.6059      27.6059      27.6059            0           -0           -0   -347.79714   -347.79714   -347.79714   -347.79714    5.6447106    5.6447106    5.6447106   -146.60818 
     105   -146.67091      27.6059      27.6059      27.6059            0           -0           -0   -293.82299   -293.82299   -293.82299   -293.82299   -7.7780769   -7.7780769   -7.7780769   -146.67091 
     106   -146.75769      27.6059      27.6059      27.6059            0           -0           -0   -364.21309   -364.21309   -364.21309   -364.21309    1.0825258    1.0825258    1.0825258   -146.75769 
     107   -146.84221      27.6059      27.6059      27.6059            0           -0           -0   -325.37938   -325.37938   -325.37938   -325.37938   -1.6463353   -1.6463353   -1.6463353   -146.84221 
     108   -146.93399      27.6059      27.6059      27.6059            0           -0           -0   -317.95633   -317.95633   -317.95633   -317.95633   -3.3625479   -3.3625479   -3.3625479   -146.93399 
     109   -147.05834      27.6059      27.6059      27.6059            0           -0           -0   -356.81653   -356.81653   -356.81653   -356.81653   -3.6122618   -3.6122618   -3.6122618   -147.05834 
     110   -147.07104      27.6059      27.6059      27.6059            0           -0           -0   -460.09793   -460.09793   -460.09793   -460.09793    1.5149026    1.5149026    1.5149026   -147.07104 
     111   -147.07452      27.6059      27.6059      27.6059            0           -0           -0   -435.79517   -435.79517   -435.79517   -435.79517   0.27702875   0.27702875   0.27702875   -147.07452 
     112   -147.07546      27.6059      27.6059      27.6059            0           -0           -0    -421.4225    -421.4225    -421.4225    -421.4225  -0.21735893  -0.21735893  -0.21735893   -147.07546 
     113    -147.1233      27.6059      27.6059      27.6059            0           -0           -0   -502.92188   -502.92188   -502.92188   -502.92188    2.9869108    2.9869108    2.9869108    -147.1233 
     114    -147.3007      27.6059      27.6059      27.6059            0           -0           -0   -455.35147   -455.35147   -455.35147   -455.35147   -2.7127752   -2.7127752   -2.7127752    -147.3007 
     115   -147.49168      27.6059      27.6059      27.6059            0           -0           -0   -565.49372   -565.49372   -565.49372   -565.49372      7.60539      7.60539      7.60539   -147.49168 
     116   -147.72366      27.6059      27.6059      27.6059            0           -0           -0   -631.21049   -631.21049   -631.21049   -631.21049    7.6114723    7.6114723    7.6114723   -147.72366 
     117   -147.86762      27.6059      27.6059      27.6059            0           -0           -0   -511.48705   -511.48705   -511.48705   -511.48705   -17.494554   -17.494554   -17.494554   -147.86762 
     118   -147.89522      27.6059      27.6059      27.6059            0           -0           -0   -467.22945   -467.22945   -467.22945   -467.22945   -28.773036   -28.773036   -28.773036   -147.89522 
     119   -148.16151      27.6059      27.6059      27.6059            0           -0           -0   -505.97615   -505.97615   -505.97615   -505.97615   -36.482515   -36.482515   -36.482515   -148.16151 
     120   -148.68113      27.6059      27.6059      27.6059            0           -0           -0   -902.13328   -902.13328   -902.13328   -902.13328    6.0234206    6.0234206    6.0234206   -148.68113 
     121   -148.99431      27.6059      27.6059      27.6059            0           -0           -0   -1069.6015   -1069.6015   -1069.6015   -1069.6015    43.775223    43.775223    43.775223   -148.99431 
     122   -149.83656      27.6059      27.6059      27.6059            0           -0           -0   -988.59702   -988.59702   -988.59702   -988.59702    2.4450179    2.4450179    2.4450179   -149.83656 
     123   -150.55817      27.6059      27.6059      27.6059            0           -0           -0   -1280.5384   -1280.5384   -1280.5384   -1280.5384   -68.078931   -68.078931   -68.078931   -150.55817 
     124   -151.59811      27.6059      27.6059      27.6059            0           -0           -0   -1391.6429   -1391.6429   -1391.6429   -1391.6429   -26.745792   -26.745792   -26.745792   -151.59811 
     125   -151.66073      27.6059      27.6059      27.6059            0           -0           -0   -1308.4301   -1308.4301   -1308.4301   -1308.4301    12.278873    12.278873    12.278873   -151.66073 
     126   -152.71681      27.6059      27.6059      27.6059            0           -0           -0   -1700.4041   -1700.4041   -1700.4041   -1700.4041   -70.086308   -70.086308   -70.086308   -152.71681 
     127   -154.14392      27.6059      27.6059      27.6059            0           -0           -0   -1565.3816   -1565.3816   -1565.3816   -1565.3816    81.314957    81.314957    81.314957   -154.14392 
     128   -155.87969      27.6059      27.6059      27.6059            0           -0           -0   -1779.2331   -1779.2331   -1779.2331   -1779.2331    108.72697    108.72697    108.72697   -155.87969 
     129   -157.91764      27.6059      27.6059      27.6059            0           -0           -0   -2747.0374   -2747.0374   -2747.0374   -2747.0374   -155.78104   -155.78104   -155.78104   -157.91764 
     130   -160.05773      27.6059      27.6059      27.6059            0           -0           -0   -3348.3759   -3348.3759   -3348.3759   -3348.3759   -243.50605   -243.50605   -243.50605   -160.05773 
     131   -164.93695      27.6059      27.6059      27.6059            0           -0           -0   -3358.3169   -3358.3169   -3358.3169   -3358.3169   -70.464146   -70.464146   -70.464146   -164.93695 
     132   -166.41269      27.6059      27.6059      27.6059            0           -0           -0   -3137.1042   -3137.1042   -3137.1042   -3137.1042    142.93958    142.93958    142.93958   -166.41269 
     133   -172.03979      27.6059      27.6059      27.6059            0           -0           -0   -3815.5423   -3815.5423   -3815.5423   -3815.5423    95.399196    95.399196    95.399196   -172.03979 
     134   -177.04173      27.6059      27.6059      27.6059            0           -0           -0    -5352.829    -5352.829    -5352.829    -5352.829   -319.71087   -319.71087   -319.71087   -177.04173 
     135   -186.49197      27.6059      27.6059      27.6059            0           -0           -0    -6068.029    -6068.029    -6068.029    -6068.029   -284.53248   -284.53248   -284.53248   -186.49197 
     136   -196.64564      27.6059      27.6059      27.6059            0           -0           -0   -5725.7321   -5725.7321   -5725.7321   -5725.7321    199.88034    199.88034    199.88034   -196.64564 
     137   -209.36136      27.6059      27.6059      27.6059            0           -0           -0   -6550.9069   -6550.9069   -6550.9069   -6550.9069    189.50338    189.50338    189.50338   -209.36136 
     138   -224.23567      27.6059      27.6059      27.6059            0           -0           -0   -7642.9249   -7642.9249   -7642.9249   -7642.9249   -12.338153   -12.338153   -12.338154   -224.23567 
     139   -241.14913      27.6059      27.6059      27.6059            0           -0           -0   -8024.1608   -8024.1608   -8024.1608   -8024.1608     52.16183     52.16183     52.16183   -241.14913 
     140   -259.73788      27.6059      27.6059      27.6059            0           -0           -0   -8116.0473   -8116.0473   -8116.0473   -8116.0473    100.71779    100.71779    100.71779   -259.73788 
     141   -279.72847      27.6059      27.6059      27.6059            0           -0           -0   -7920.5814   -7920.5814   -7920.5814   -7920.5814    44.404178    44.404178    44.404178   -279.72847 
     142   -298.89733      27.6059      27.6059      27.6059            0           -0           -0   -7204.4517   -7204.4517   -7204.4517   -7204.4517   -34.257976   -34.257976   -34.257976   -298.89733 
     143   -315.17914      27.6059      27.6059      27.6059            0           -0           -0   -6200.9725   -6200.9725   -6200.9725   -6200.9725   -86.431783   -86.431783   -86.431783   -315.17914 
     144   -328.08359      27.6059      27.6059      27.6059            0           -0           -0   -5362.3915   -5362.3915   -5362.3915   -5362.3915   -116.17015   -116.17015   -116.17015   -328.08359 
     145   -338.70302      27.6059      27.6059      27.6059            0           -0           -0   -4736.2702   -4736.2702   -4736.2702   -4736.2702   -167.56584   -167.56584   -167.56584   -338.70302 
     146   -348.21175      27.6059      27.6059      27.6059            0           -0           -0   -4245.8267   -4245.8267   -4245.8267   -4245.8267   -168.60426   -168.60426   -168.60426   -348.21175 
     147   -356.93537      27.6059      27.6059      27.6059            0           -0           -0   -3507.6669   -3507.6669   -3507.6669   -3507.6669    -129.7815    -129.7815    -129.7815   -356.93537 
     148     -363.669      27.6059      27.6059      27.6059            0           -0           -0   -2306.7368   -2306.7368   -2306.7368   -2306.7368   -88.852453   -88.852453   -88.852453     -363.669 
     149   -366.55933      27.6059      27.6059      27.6059            0           -0           -0    -682.1693    -682.1693    -682.1693    -682.1693   -44.828679   -44.828679   -44.828679   -366.55933 
     150   -367.30887      27.6059      27.6059      27.6059            0           -0           -0    -259.8346    -259.8346    -259.8346    -259.8346    49.107008    49.107008    49.107008   -367.30887 
     151   -367.58919      27.6059      27.6059      27.6059            0           -0           -0   -977.49572   -977.49572   -977.49572   -977.49572    32.736718    32.736718    32.736718   -367.58919 
     152   -368.09925      27.6059      27.6059      27.6059            0           -0           -0   -1008.3009   -1008.3009   -1008.3009   -1008.3009    25.539645    25.539645    25.539645   -368.09925 
     153    -368.6682      27.6059      27.6059      27.6059            0           -0           -0   -563.02861   -563.02861   -563.02861   -563.02861    -20.43871    -20.43871    -20.43871    -368.6682 
     154   -369.28671      27.6059      27.6059      27.6059            0           -0           -0   -603.35617   -603.35617   -603.35617   -603.35617   -77.918295   -77.918295   -77.918295   -369.28671 
     155    -370.5471      27.6059      27.6059      27.6059            0           -0           -0   -1347.7668   -1347.7668   -1347.7668   -1347.7668   0.94655478   0.94655478   0.94655477    -370.5471 
     156   -371.96167      27.6059      27.6059      27.6059            0           -0           -0   -1736.8014   -1736.8014   -1736.8014   -1736.8014   -10.357111   -10.357111   -10.357111   -371.96167 
     157   -373.21041      27.6059      27.6059      27.6059            0           -0           -0   -584.52583   -584.52583   -584.52583   -584.52583    75.456443    75.456443    75.456443   -373.21041 
     158   -374.54377      27.6059      27.6059      27.6059            0           -0           -0   -476.28868   -476.28868   -476.28868   -476.28868    45.326842    45.326842    45.326842   -374.54377 
     159   -377.36212      27.6059      27.6059      27.6059            0           -0           -0   -2122.5137   -2122.5137   -2122.5137   -2122.5137   -23.636868   -23.636868   -23.636868   -377.36212 
     160   -379.59813      27.6059      27.6059      27.6059            0           -0           -0   -2273.0763   -2273.0763   -2273.0763   -2273.0763    126.22418    126.22418    126.22418   -379.59813 
     161   -382.80412      27.6059      27.6059      27.6059            0           -0           -0    -2564.526    -2564.526    -2564.526    -2564.526    42.926847    42.926847    42.926846   -382.80412 
     162    -386.3601      27.6059      27.6059      27.6059            0           -0           -0   -2598.3592   -2598.3592   -2598.3592   -2598.3592    -77.94077    -77.94077    -77.94077    -386.3601 
     163   -390.95701      27.6059      27.6059      27.6059            0           -0           -0   -2804.2362   -2804.2362   -2804.2362   -2804.2362    98.351813    98.351813    98.351813   -390.95701 
     164   -395.87428      27.6059      27.6059      27.6059            0           -0           -0   -3504.5245   -3504.5245   -3504.5245   -3504.5245    29.816709    29.816709    29.816709   -395.87428 
     165   -401.26822      27.6059      27.6059      27.6059            0           -0           -0   -3763.9156   -3763.9156   -3763.9156   -3763.9156    93.604371    93.604371    93.604371   -401.26822 
     166    -407.2683      27.6059      27.6059      27.6059            0           -0           -0   -4010.6689   -4010.6689   -4010.6689   -4010.6689    117.82639    117.82639    117.82639    -407.2683 
     167   -413.98177      27.6059      27.6059      27.6059            0           -0           -0   -4218.5169   -4218.5169   -4218.5169   -4218.5169    173.82803    173.82803    173.82803   -413.98177 
     168   -421.46362      27.6059      27.6059      27.6059            0           -0           -0   -4371.8622   -4371.8622   -4371.8622   -4371.8622     234.4888     234.4888     234.4888   -421.46362 
     169   -429.68236      27.6059      27.6059      27.6059            0           -0           -0   -4420.9812   -4420.9812   -4420.9812   -4420.9812    296.24899    296.24899    296.24899   -429.68236 
     170   -438.49508      27.6059      27.6059      27.6059            0           -0           -0   -4322.2301   -4322.2301   -4322.2301   -4322.2301    347.72027    347.72027    347.72027   -438.49508 
     171   -447.63206      27.6059      27.6059      27.6059            0           -0           -0   -4031.4755   -4031.4755   -4031.4755   -4031.4755    368.54155    368.54155    368.54155   -447.63206 
     172   -456.10155      27.6059      27.6059      27.6059            0           -0           -0   -3529.4025   -3529.4025   -3529.4025   -3529.4025    335.46847    335.46847    335.46847   -456.10155 
     173   -462.69899      27.6059      27.6059      27.6059            0           -0           -0   -2878.0964   -2878.0964   -2878.0964   -2878.0964    241.01218    241.01218    241.01218   -462.69899 
     174   -467.16685      27.6059      27.6059      27.6059            0           -0           -0   -2144.0966   -2144.0966   -2144.0966   -2144.0966    88.210724    88.210724    88.210724   -467.16685 
     175     -469.558      27.6059      27.6059      27.6059            0           -0           -0   -1412.8944   -1412.8944   -1412.8944   -1412.8944   -114.20497   -114.20497   -114.20497     -469.558 
     176   -471.78857      27.6059      27.6059      27.6059            0           -0           -0   -1305.1493   -1305.1493   -1305.1493   -1305.1493    -205.8237    -205.8237    -205.8237   -471.78857 
     177   -474.54807      27.6059      27.6059      27.6059            0           -0           -0   -1660.3382   -1660.3382   -1660.3382   -1660.3382   -177.70356   -177.70356   -177.70356   -474.54807 
     178   -477.64198      27.6059      27.6059      27.6059            0           -0           -0   -1844.5601   -1844.5601   -1844.5601   -1844.5601   -190.66841   -190.66841   -190.66841   -477.64198 
     179   -481.18026      27.6059      27.6059      27.6059            0           -0           -0   -1952.3335   -1952.3335   -1952.3335   -1952.3335   -210.94863   -210.94863   -210.94863   -481.18026 
     180   -485.15819      27.6059      27.6059      27.6059            0           -0           -0   -2054.9197   -2054.9197   -2054.9197   -2054.9197   -217.98268   -217.98268   -217.98268   -485.15819 
     181   -489.54916      27.6059      27.6059      27.6059            0           -0           -0   -2091.1607   -2091.1607   -2091.1607   -2091.1607   -215.93894   -215.93894   -215.93894   -489.54916 
     182   -494.27772      27.6059      27.6059      27.6059            0           -0           -0   -2022.3588   -2022.3588   -2022.3588   -2022.3588   -204.03527   -204.03527   -204.03527   -494.27772 
     183   -499.19926      27.6059      27.6059      27.6059            0           -0           -0   -1798.8327   -1798.8327   -1798.8327   -1798.8327   -178.56868   -178.56868   -178.56868   -499.19926 
     184   -503.64652      27.6059      27.6059      27.6059            0           -0           -0   -1402.9124   -1402.9124   -1402.9124   -1402.9124   -145.88263   -145.88263   -145.88263   -503.64652 
     185   -507.03047      27.6059      27.6059      27.6059            0           -0           -0   -851.51908   -851.51908   -851.51908   -851.51908   -116.73734   -116.73734   -116.73734   -507.03047 
     186   -509.05838      27.6059      27.6059      27.6059            0           -0           -0   -220.44873   -220.44873   -220.44873   -220.44873   -116.08992   -116.08992   -116.08992   -509.05838 
     187    -509.7438      27.6059      27.6059      27.6059            0           -0           -0     255.4857     255.4857     255.4857     255.4857   -154.71725   -154.71725   -154.71725    -509.7438 
     188   -511.20529      27.6059      27.6059      27.6059            0           -0           -0   -96.666829    -96.66683   -96.666829   -96.666829   -317.68637   -317.68637   -317.68637   -511.20529 
     189   -513.45795      27.6059      27.6059      27.6059            0           -0           -0    4.4528807    4.4528811    4.4528806    4.4528804   -227.24866   -227.24866   -227.24866   -513.45795 
     190   -516.53595      27.6059      27.6059      27.6059            0           -0           -0   -47.809889   -47.809889    -47.80989    -47.80989    -313.5232    -313.5232   -313.52319   -516.53595 
     191   -518.88456      27.6059      27.6059      27.6059            0           -0           -0    705.94041    705.94041    705.94041    705.94041   -622.74565   -622.74565   -622.74565   -518.88456 
     192    -521.0755      27.6059      27.6059      27.6059            0           -0           -0    1633.2645    1633.2645    1633.2645    1633.2645   -399.55367   -399.55367   -399.55367    -521.0755 
     193   -523.22074      27.6059      27.6059      27.6059            0           -0           -0    823.29389    823.29389    823.29389    823.29389   -86.721786   -86.721787   -86.721785   -523.22074 
     194   -523.77448      27.6059      27.6059      27.6059            0           -0           -0   -120.92691   -120.92691   -120.92691   -120.92691   -224.96003   -224.96003   -224.96003   -523.77448 
     195   -524.41118      27.6059      27.6059      27.6059            0           -0           -0    94.811243    94.811244    94.811243    94.811244   -123.04159   -123.04159   -123.04159   -524.41118 
     196   -524.55057      27.6059      27.6059      27.6059            0           -0           -0    213.53412    213.53412    213.53412    213.53412    -44.99861    -44.99861    -44.99861   -524.55057 
     197   -524.74142      27.6059      27.6059      27.6059            0           -0           -0   -145.39799   -145.39799   -145.39799   -145.39799   -77.668915   -77.668915   -77.668915   -524.74142 
     198   -525.35197      27.6059      27.6059      27.6059            0           -0           -0   -136.20873   -136.20873   -136.20873   -136.20873   -121.33081   -121.33081   -121.33081   -525.35197 
     199   -525.54801      27.6059      27.6059      27.6059            0           -0           -0    185.30752    185.30752    185.30752    185.30752   -93.501647   -93.501647   -93.501647   -525.54801 
     200   -525.69958      27.6059      27.6059      27.6059            0           -0           -0    413.99689    413.99689    413.99689    413.99689   -65.138996   -65.138996   -65.138995   -525.69958 
     201   -526.33331      27.6059      27.6059      27.6059            0           -0           -0   -21.240324   -21.240328   -21.240321   -21.240324    73.490464    73.490464    73.490459   -526.33331 
     202   -526.54018      27.6059      27.6059      27.6059            0           -0           -0    -365.8849    -365.8849    -365.8849    -365.8849     46.59652     46.59652    46.596519   -526.54018 
     203   -526.66247      27.6059      27.6059      27.6059            0           -0           -0   -72.903413   -72.903412   -72.903414   -72.903413    54.432343    54.432343    54.432345   -526.66247 
     204   -526.83573      27.6059      27.6059      27.6059            0           -0           -0    248.95166    248.95165    248.95166    248.95166    76.622278    76.622278    76.622275   -526.83573 
     205   -526.98208      27.6059      27.6059      27.6059            0           -0           -0    234.05022    234.05022    234.05022    234.05022   -1.5027135   -1.5027142   -1.5027114   -526.98208 
     206   -527.10641      27.6059      27.6059      27.6059            0           -0           -0    156.23743    156.23743    156.23743    156.23743   -76.843985   -76.843985   -76.843986   -527.10641 
     207   -527.20563      27.6059      27.6059      27.6059            0           -0           -0   -0.4383099  -0.43829951  -0.43831732  -0.43831286   -64.709692   -64.709699   -64.709678   -527.20563 
     208   -527.35605      27.6059      27.6059      27.6059            0           -0           -0   -145.73098   -145.73098   -145.73098   -145.73098   -6.4665773   -6.4665772    -6.466581   -527.35605 
     209   -527.39683      27.6059      27.6059      27.6059            0           -0           -0    -85.25426   -85.254259   -85.254261   -85.254259    8.7842472    8.7842453    8.7842478   -527.39683 
     210   -527.41377      27.6059      27.6059      27.6059            0           -0           -0    11.615496    11.615495    11.615496    11.615496    27.566102      27.5661    27.566101   -527.41377 
     211    -527.4207      27.6059      27.6059      27.6059            0           -0           -0    31.557328    31.557328    31.557327    31.557328    41.442786    41.442784    41.442785    -527.4207 
     212   -527.44397      27.6059      27.6059      27.6059            0           -0           -0   -95.506137   -95.506137   -95.506137   -95.506135    -13.07638   -13.076384   -13.076382   -527.44397 
     213   -527.46236      27.6059      27.6059      27.6059            0           -0           -0   -54.631605   -54.631606   -54.631606   -54.631603   -19.253253   -19.253256   -19.253255   -527.46236 
     214   -527.49223      27.6059      27.6059      27.6059            0           -0           -0    100.53583    100.53583    100.53583    100.53584   -16.825108   -16.825112   -16.825109   -527.49223 
     215   -527.49801      27.6059      27.6059      27.6059            0           -0           -0    111.46821    111.46821    111.46821    111.46821   -2.3080127   -2.3080162   -2.3080162   -527.49801 
     216   -527.51435      27.6059      27.6059      27.6059            0           -0           -0    9.7566386    9.7566381    9.7566365    9.7566411   -9.3244207   -9.3244217   -9.3244209   -527.51435 
     217   -527.51894      27.6059      27.6059      27.6059            0           -0           -0   -15.185105   -15.185106   -15.185106   -15.185103   -6.2774492    -6.277449   -6.2774492   -527.51894 
     218   -527.52368      27.6059      27.6059      27.6059            0           -0           -0    28.335997    28.335996    28.335995    28.335999    11.174284    11.174289    11.174286   -527.52368 
     219   -527.52445      27.6059      27.6059      27.6059            0           -0           -0     18.58569     18.58569    18.585689    18.585692    12.321562    12.321567    12.321565   -527.52445 
     220    -527.5256      27.6059      27.6059      27.6059            0           -0           -0    3.4416641    3.4416629    3.4416625     3.441667    14.440828    14.440838    14.440834    -527.5256 
     221   -527.52613      27.6059      27.6059      27.6059            0           -0           -0   -3.7473918   -3.7473932   -3.7473933    -3.747389     13.07125    13.071262    13.071256   -527.52613 
     222   -527.52706      27.6059      27.6059      27.6059            0           -0           -0   0.85166847   0.85166681    0.8516666     0.851672    13.292376    13.292395    13.292386   -527.52706 
     223    -527.5285      27.6059      27.6059      27.6059            0           -0           -0    24.139103    24.139102    24.139101    24.139106    19.701653    19.701688     19.70167    -527.5285 
     224   -527.53095      27.6059      27.6059      27.6059            0           -0           -0   -19.650683    -19.65068   -19.650684   -19.650684    14.965872    14.965945    14.965906   -527.53095 
     225   -527.53248      27.6059      27.6059      27.6059            0           -0           -0   -22.768469   -22.768465   -22.768468   -22.768473    9.2941892    9.2942956    9.2942373   -527.53248 
     226   -527.53785      27.6059      27.6059      27.6059            0           -0           -0    19.607612    19.607631    19.607658    19.607549    12.678741    12.679072     12.67893   -527.53785 
     227   -527.53894      27.6059      27.6059      27.6059            0           -0           -0    7.0564752    7.0565032    7.0565318    7.0563904    15.362925    15.363311    15.363152   -527.53894 
     228   -527.54169      27.6059      27.6059      27.6059            0           -0           -0   -10.910822   -10.910723   -10.910708   -10.911036    11.583312    11.583882    11.583582   -527.54169 
     229   -527.54314      27.6059      27.6059      27.6059            0           -0           -0     6.346462    6.3466234    6.3466208    6.3461418    11.305732    11.306403     11.30598   -527.54314 
     230   -527.54855      27.6059      27.6059      27.6059            0           -0           -0    18.414936    18.415403    18.415452    18.413951    18.641685    18.643299    18.642437   -527.54855 
     231   -527.56286      27.6059      27.6059      27.6059            0           -0           -0     80.67002    80.670203    80.671994    80.667863    24.110821    24.114854    24.115362   -527.56286 
     232   -527.58368      27.6059      27.6059      27.6059            0           -0           -0   -10.343073   -10.341698   -10.336846   -10.350675    6.0959931    6.0980761    6.1019675   -527.58368 
     233   -527.60162      27.6059      27.6059      27.6059            0           -0           -0    -129.0485   -129.04272   -129.03794   -129.06484   0.46151947   0.45387125   0.46200479   -527.60162 
     234   -527.62938      27.6059      27.6059      27.6059            0           -0           -0   -65.609011   -65.588868   -65.595254   -65.642909    15.975542    15.939557    15.952045   -527.62938 
     235    -527.6357      27.6059      27.6059      27.6059            0           -0           -0   -36.612402   -36.590758   -36.590616   -36.655832    15.454957    15.415069    15.430397    -527.6357 
     236   -527.64024      27.6059      27.6059      27.6059            0           -0           -0   -21.355137    -21.33326   -21.330744   -21.401408    21.234727    21.190429    21.212114   -527.64024 
     237   -527.64309      27.6059      27.6059      27.6059            0           -0           -0    36.972435    36.991926    36.996233    36.929146    29.388376    29.334613    29.371247   -527.64309 
     238   -527.64865      27.6059      27.6059      27.6059            0           -0           -0   -38.302336   -38.286751   -38.259006   -38.361252    22.811975    22.717987    22.824903   -527.64865 
     239   -527.65143      27.6059      27.6059      27.6059            0           -0           -0   -35.790163   -35.751319    -35.75046   -35.868709      15.8973    15.714533    15.882138   -527.65143 
     240   -527.65721      27.6059      27.6059      27.6059            0           -0           -0   -46.810287   -46.608528   -46.791022   -47.031311    26.950253     26.26489    26.671268   -527.65721 
     241   -527.66919      27.6059      27.6059      27.6059            0           -0           -0    31.676228    32.607003    31.565683    30.855999    22.698225    17.035668    20.909871   -527.66919 
     242   -527.72049      27.6059      27.6059      27.6059            0           -0           -0    46.590699    49.486521    43.528752    46.756823    44.735903    11.751943    38.039065   -527.72049 
     243   -527.88132      27.6059      27.6059      27.6059            0           -0           -0   -78.849071   -76.202301   -88.081183   -72.263728     90.71734    12.410211    87.265817   -527.88132 
     244   -528.17728      27.6059      27.6059      27.6059            0           -0           -0   -49.621548    -46.31261   -70.319616   -32.232417    94.382518   -51.400767    111.49097   -528.17728 
     245   -528.59377      27.6059      27.6059      27.6059            0           -0           -0    389.31022    395.26068    360.57274    412.09723    22.240961   -123.50857    30.669253   -528.59377 
     246   -529.03147      27.6059      27.6059      27.6059            0           -0           -0    771.26889    786.77449    712.66846    814.36371    47.618711   -146.87945    11.853098   -529.03147 
     247    -530.1684      27.6059      27.6059      27.6059            0           -0           -0     598.8675    608.98167    521.46494    666.15587    126.96759   -54.295728    44.337317    -530.1684 
     248   -530.64344      27.6059      27.6059      27.6059            0           -0           -0    241.09842    225.90471    228.94032    268.45023  -0.83426523   -48.088286    11.099162   -530.64344 
     249   -531.52461      27.6059      27.6059      27.6059            0           -0           -0    -107.2314   -146.55328   -77.044464   -98.096448   -41.999907   -115.36981    64.426442   -531.52461 
     250   -532.78229      27.6059      27.6059      27.6059            0           -0           -0     333.3025    286.17292    320.95897    392.77562   -8.5238767   -126.58583    49.487705   -532.78229 
     251   -533.87886      27.6059      27.6059      27.6059            0           -0           -0    877.95814    848.61648    828.27301    956.98494   -52.095216    44.733632     -59.0039   -533.87886 
     252   -534.81186      27.6059      27.6059      27.6059            0           -0           -0    905.72667    867.35165    892.47135      957.357    50.004099    251.53308   -177.63021   -534.81186 
     253   -536.02778      27.6059      27.6059      27.6059            0           -0           -0    497.37962    447.19232     520.6098    524.33673    151.09505    186.03263   -171.68808   -536.02778 
     254   -536.79224      27.6059      27.6059      27.6059            0           -0           -0    230.87737    193.69852    239.14141    259.79218   -26.403937   -15.927024   -29.169732   -536.79224 
     255   -537.33217      27.6059      27.6059      27.6059            0           -0           -0    580.56971    598.42182    557.85433    585.43299    -71.91061    4.8592853   -19.749516   -537.33217 
     256   -538.42048      27.6059      27.6059      27.6059            0           -0           -0    638.75341     658.0381    637.89929    620.32285   -3.4885702    92.667368   -51.694015   -538.42048 
     257   -538.65801      27.6059      27.6059      27.6059            0           -0           -0    229.77715    215.10228    240.09887    234.13028    10.775191    37.428685   -21.649774   -538.65801 
     258   -538.90792      27.6059      27.6059      27.6059            0           -0           -0   -142.04835   -184.93382   -126.61761   -114.59361   -53.544872    132.81477    15.879834   -538.90792 
     259   -539.81675      27.6059      27.6059      27.6059            0           -0           -0    217.17398    207.83757     234.3725    209.31188   -19.114351    154.15671    27.641608   -539.81675 
     260   -539.95435      27.6059      27.6059      27.6059            0           -0           -0    185.82484    190.06801    181.62393    185.78259    30.445647     15.35317    29.648002   -539.95435 
     261   -540.20217      27.6059      27.6059      27.6059            0           -0           -0    268.78058    306.83151    220.10778    279.40246    95.313403   -118.24039    10.566934   -540.20217 
     262   -541.14784      27.6059      27.6059      27.6059            0           -0           -0    234.50418    267.54063    210.68468    225.28723    83.582303    8.0910552    51.059174   -541.14784 
     263   -541.22807      27.6059      27.6059      27.6059            0           -0           -0    3.5295718    6.6191059   -9.0071934    12.976803    31.529939    77.517963    58.676591   -541.22807 
     264    -541.4077      27.6059      27.6059      27.6059            0           -0           -0   -321.53855   -313.93184   -323.85325   -326.83057    43.719652    82.038518    149.23758    -541.4077 
     265   -542.22677      27.6059      27.6059      27.6059            0           -0           -0   -268.83746   -263.23899   -288.36352   -254.90986    117.76948    85.188108    180.73992   -542.22677 
     266   -542.33199      27.6059      27.6059      27.6059            0           -0           -0   -72.335802   -74.194376   -98.568856   -44.244173    131.92391     81.11426     134.2834   -542.33199 
     267   -542.61781      27.6059      27.6059      27.6059            0           -0           -0   -30.546498     49.24488   -73.357639   -67.526735    233.63681   -66.786684    247.44199   -542.61781 
     268   -543.11679      27.6059      27.6059      27.6059            0           -0           -0   -54.552929    57.582889   -109.10703   -112.13465    259.35954   -93.639599     295.2079   -543.11679 
     269    -543.5729      27.6059      27.6059      27.6059            0           -0           -0   -182.45136    -134.7876   -240.25469   -172.31177    160.36526    68.845286    200.07027    -543.5729 
     270   -544.17136      27.6059      27.6059      27.6059            0           -0           -0   -412.58619   -357.59038   -482.06327   -398.10492     160.4998    75.400593    243.91663   -544.17136 
     271   -544.97179      27.6059      27.6059      27.6059            0           -0           -0   -282.04076   -176.84666   -377.08002   -292.19558    238.71735    22.190562    325.91361   -544.97179 
     272   -545.81711      27.6059      27.6059      27.6059            0           -0           -0   -250.42253   -168.08967    -339.3325   -243.84543    248.55389    27.039976     298.4608   -545.81711 
     273   -546.74146      27.6059      27.6059      27.6059            0           -0           -0   -386.15223   -292.71194    -495.4411   -370.30366    257.98084    43.425031    341.59489   -546.74146 
     274   -547.66682      27.6059      27.6059      27.6059            0           -0           -0   -271.60865   -242.60351   -368.84217   -203.38025    257.63827    65.991576    237.34647   -547.66682 
     275   -548.41069      27.6059      27.6059      27.6059            0           -0           -0   -318.93719   -338.31814   -425.93614   -192.55728    265.68745    92.162388    196.32244   -548.41069 
     276   -548.84881      27.6059      27.6059      27.6059            0           -0           -0   -48.503066   -233.24406   -115.30532    203.04018    229.26263    166.59812   -88.436055   -548.84881 
     277   -549.67449      27.6059      27.6059      27.6059            0           -0           -0  -0.74277112   -249.28365   -73.314112    320.36945    248.09189    194.72001   -165.12552   -549.67449 
     278   -551.16597      27.6059      27.6059      27.6059            0           -0           -0   -408.30109   -473.54143   -561.36493   -189.99689    354.72935    106.38182    216.50939   -551.16597 
     279   -552.62952      27.6059      27.6059      27.6059            0           -0           -0    -452.1351    -496.0125   -603.12206   -257.27073    344.22804    95.878607    270.19728   -552.62952 
     280   -554.10567      27.6059      27.6059      27.6059            0           -0           -0   -209.53061   -333.48741   -301.03825    5.9338205    235.35967     132.9422    111.19613   -554.10567 
     281   -555.70961      27.6059      27.6059      27.6059            0           -0           -0   -267.95107   -273.23567   -327.53365   -203.08389    93.368884    85.054509    304.25002   -555.70961 
     282   -556.93863      27.6059      27.6059      27.6059            0           -0           -0   -90.751139   -96.496768   -89.481365   -86.275284   -75.957301    122.97981    219.54756   -556.93863 
     283   -558.03028      27.6059      27.6059      27.6059            0           -0           -0   -84.851254   -22.712428   -113.82058   -118.02075   -90.971127    163.58338    219.40941   -558.03028 
     284   -558.65079      27.6059      27.6059      27.6059            0           -0           -0    85.465593    62.860732    104.22339    89.312652   -91.173058     191.9963    3.4899431   -558.65079 
     285   -558.87812      27.6059      27.6059      27.6059            0           -0           -0    32.472209     38.07608    61.488125   -2.1475783   -30.820623    154.16071    48.803847   -558.87812 
     286   -558.92288      27.6059      27.6059      27.6059            0           -0           -0    81.711958    54.374265     139.5288    51.232813   -16.187392     144.6657   -7.9124956   -558.92288 
     287     -558.947      27.6059      27.6059      27.6059            0           -0           -0    87.217682    49.106267    159.27827     53.26851   -23.701825    140.48398   -12.908665     -558.947 
     288   -559.06713      27.6059      27.6059      27.6059            0           -0           -0   -104.89389   -81.717674   -33.512554   -199.45145    10.328979    82.501095    166.64598   -559.06713 
     289   -559.32982      27.6059      27.6059      27.6059            0           -0           -0    -194.5867   -172.36548   -115.07213   -296.32249    28.824504    57.727571    187.41516   -559.32982 
     290   -559.64743      27.6059      27.6059      27.6059            0           -0           -0    96.802415    18.116754    222.30418    49.986313    17.975136     157.3193     -21.4638   -559.64743 
     291   -559.80925      27.6059      27.6059      27.6059            0           -0           -0    160.77533    111.03282    260.99054    110.30264    22.398326    228.77408   -5.2464973   -559.80925 
     292   -560.01292      27.6059      27.6059      27.6059            0           -0           -0   -51.038614   -34.030921    21.167405   -140.25233   -37.900782    180.18446    102.88754   -560.01292 
     293   -560.09371      27.6059      27.6059      27.6059            0           -0           -0   -25.395749   -51.084381    73.659066   -98.761931   -72.256796    172.82963     17.07637   -560.09371 
     294    -560.1399      27.6059      27.6059      27.6059            0           -0           -0    37.143757   -1.2918327    142.33673    -29.61363   -40.214598    200.33336   -19.022602    -560.1399 
     295   -560.23337      27.6059      27.6059      27.6059            0           -0           -0   -60.171953   -61.038206    28.426681   -147.90433   -25.899844    195.52976    103.44161   -560.23337 
     296   -560.39637      27.6059      27.6059      27.6059            0           -0           -0   -77.875742   -161.30065    48.064678   -120.39125   -66.357109    225.31751    78.044264   -560.39637 
     297   -560.51898      27.6059      27.6059      27.6059            0           -0           -0   -41.992821    -187.9056    114.30712   -52.379977   -25.821841    223.47037   -66.328895   -560.51898 
     298   -560.94752      27.6059      27.6059      27.6059            0           -0           -0   -126.00472   -196.50564    28.549847   -210.05837    77.602458    257.18392    5.6134918   -560.94752 
     299   -561.62521      27.6059      27.6059      27.6059            0           -0           -0   -149.46586   -251.68784    58.323783   -255.03352    36.525159    324.40601    88.648368   -561.62521 
     300   -561.87971      27.6059      27.6059      27.6059            0           -0           -0   -131.01477   -338.53446    127.55625   -182.06609    -108.7768    361.64689    34.041517   -561.87971 
     301    -562.5231      27.6059      27.6059      27.6059            0           -0           -0   -197.52418   -402.30781    63.397057   -253.66179   -168.72638    416.97488    93.902401    -562.5231 
     302   -563.21672      27.6059      27.6059      27.6059            0           -0           -0   -266.34177   -357.74546   -57.144117   -384.13572    20.791403    444.32615    101.42437   -563.21672 
     303   -564.03087      27.6059      27.6059      27.6059            0           -0           -0   -221.70847   -309.94725   -20.286918   -334.89124    58.352109    447.75327    52.807756   -564.03087 
     304   -565.49478      27.6059      27.6059      27.6059            0           -0           -0   -142.28611   -316.74515    59.127393   -169.24058    -93.78847      366.206    13.611193   -565.49478 
     305   -566.52929      27.6059      27.6059      27.6059            0           -0           -0    -48.18102     -95.4571   -11.908291    -37.17767   -98.762587    160.24827    116.89211   -566.52929 
     306   -566.83782      27.6059      27.6059      27.6059            0           -0           -0    106.87525    47.499139    92.713513    180.41311    -37.98375    46.550556   -40.033151   -566.83782 
     307   -567.40982      27.6059      27.6059      27.6059            0           -0           -0    71.316841    84.387304    19.474306    110.08891   -21.466713   -21.242427    99.038218   -567.40982 
     308   -568.22086      27.6059      27.6059      27.6059            0           -0           -0    11.163225   -44.387147    44.866134    33.010686   -88.265652    113.97208    124.51988   -568.22086 
     309   -568.97734      27.6059      27.6059      27.6059            0           -0           -0    10.993741   -95.434998    41.133667    87.282554   -128.19019    168.08711    8.3042942   -568.97734 
     310   -569.89436      27.6059      27.6059      27.6059            0           -0           -0     4.761358    -51.70344   -9.1818284    75.169343   -111.41652    90.163451    114.32078   -569.89436 
     311   -570.78582      27.6059      27.6059      27.6059            0           -0           -0    151.44694    89.118196    90.607674    274.61496   -92.140384    -29.98637    77.589601   -570.78582 
     312   -571.29481      27.6059      27.6059      27.6059            0           -0           -0    206.15599    251.23941    8.0291751    359.19937   -15.737273   -209.08546    65.263534   -571.29481 
     313   -571.57392      27.6059      27.6059      27.6059            0           -0           -0    425.71987      391.781    300.16666    585.21196    28.178332   -252.55119   -72.093366   -571.57392 
     314   -571.97338      27.6059      27.6059      27.6059            0           -0           -0    389.13398    358.37308    311.89036     497.1385     32.94335   -215.37861   -24.163781   -571.97338 
     315   -572.06785      27.6059      27.6059      27.6059            0           -0           -0    149.63594    200.72558    -14.74328     262.9255   -37.020724   -156.17797    54.607248   -572.06785 
     316   -572.18644      27.6059      27.6059      27.6059            0           -0           -0   -2.5433995    47.895394    -206.8924    151.36681   -131.51683    -69.43236    10.669914   -572.18644 
     317    -572.5563      27.6059      27.6059      27.6059            0           -0           -0     242.6319    224.56667    161.81119    341.51784   -33.416985   -129.87064   -45.994768    -572.5563 
     318   -572.61585      27.6059      27.6059      27.6059            0           -0           -0    223.79781    264.19069    136.56521    270.63751     9.454137   -162.29256     38.56919   -572.61585 
     319   -572.73382      27.6059      27.6059      27.6059            0           -0           -0     136.7313    223.85043    17.359628    168.98386   -18.580369   -139.25633     90.48251   -572.73382 
     320   -572.93672      27.6059      27.6059      27.6059            0           -0           -0    187.55865    181.22984    108.39109    273.05503   -61.570877   -93.144206   -39.104134   -572.93672 
     321    -572.9593      27.6059      27.6059      27.6059            0           -0           -0    183.63705    209.63947    111.39682    229.87488   -13.341476   -115.18306    8.9788599    -572.9593 
     322   -573.04358      27.6059      27.6059      27.6059            0           -0           -0     268.0626    272.38609    256.51622    275.28548    78.546663   -103.41998   -21.872955   -573.04358 
     323   -573.19006      27.6059      27.6059      27.6059            0           -0           -0    199.29808    195.34833    154.07829    248.46762    10.583672   -73.637721   -21.124512   -573.19006 
     324   -573.19913      27.6059      27.6059      27.6059            0           -0           -0    143.10402    162.47754    68.152561    198.68196     -20.1125    -79.83373    8.3217011   -573.19913 
     325   -573.21548      27.6059      27.6059      27.6059            0           -0           -0    130.98324    154.27284    65.529694    173.14718    -35.65041   -81.350145    19.135593   -573.21548 
     326     -573.252      27.6059      27.6059      27.6059            0           -0           -0     182.7728     188.3908    153.98568    205.94192   -8.8711616   -77.453695   -15.544576     -573.252 
     327   -573.26104      27.6059      27.6059      27.6059            0           -0           -0    146.24864    170.88113    88.358164    179.50662   -28.879997   -77.699644   -4.9910139   -573.26104 
     328   -573.29279      27.6059      27.6059      27.6059            0           -0           -0    66.356432    123.12038   -40.417966    116.36688   -72.028226   -69.645785    8.8696607   -573.29279 
     329   -573.39331      27.6059      27.6059      27.6059            0           -0           -0     102.5018    134.97037    44.448537     128.0865   -48.429407   -59.067565   -9.3000303   -573.39331 
     330   -573.40239      27.6059      27.6059      27.6059            0           -0           -0    135.34786    155.38907    102.07495    148.57956   -26.955907   -61.674428   -12.675179   -573.40239 
     331   -573.41035      27.6059      27.6059      27.6059            0           -0           -0    162.72869     168.6402     147.5501    171.99576   -11.355668   -61.072154   -3.1579047   -573.41035 
     332   -573.42171      27.6059      27.6059      27.6059            0           -0           -0    126.97325    139.30653    74.580298    167.03293   -32.284225   -51.947565    5.9289693   -573.42171 
     333    -573.4242      27.6059      27.6059      27.6059            0           -0           -0    139.65601    148.26975    96.285524    174.41275   -3.4456634   -49.526474   -10.426198    -573.4242 
     334   -573.43595      27.6059      27.6059      27.6059            0           -0           -0    140.22032    139.99838    120.65474    160.00783   -4.4584512      -60.394    23.543239   -573.43595 
     335   -573.49415      27.6059      27.6059      27.6059            0           -0           -0    73.067059    81.728461    11.994373    125.47834   -71.857006   -44.818367    31.363318   -573.49415 
     336   -573.54363      27.6059      27.6059      27.6059            0           -0           -0     146.7382    153.66448    118.92413    167.62599    30.608116   -21.766286   -40.913974   -573.54363 
     337   -573.58595      27.6059      27.6059      27.6059            0           -0           -0     150.5957    156.42207    139.62065    155.74439    48.051894   -14.654786   -44.642449   -573.58595 
     338   -573.61191      27.6059      27.6059      27.6059            0           -0           -0    87.611283    101.92454    42.929883    117.97943   -34.373176   -37.238089   0.21635307   -573.61191 
     339   -573.61616      27.6059      27.6059      27.6059            0           -0           -0    101.26367    106.83795    78.119966    118.83309   -30.943395   -40.179441    17.489322   -573.61616 
     340   -573.63325      27.6059      27.6059      27.6059            0           -0           -0    141.13951    140.97705    148.10698     134.3345    18.418176   -23.188721    -12.06216   -573.63325 
     341   -573.64329      27.6059      27.6059      27.6059            0           -0           -0    103.44733    120.89931    73.432811    116.00987   -13.681668   -29.091867   -27.710465   -573.64329 
     342   -573.65173      27.6059      27.6059      27.6059            0           -0           -0    72.607039    92.200093    35.896103    89.724921   -46.523531   -46.343953   -1.8786527   -573.65173 
     343   -573.65849      27.6059      27.6059      27.6059            0           -0           -0    102.29629    104.83987    103.02275    99.026248   -21.520182   -39.879049    15.509963   -573.65849 
     344   -573.67934      27.6059      27.6059      27.6059            0           -0           -0    134.58878    135.19393    135.60976    132.96265    14.756386   -12.521688   -16.548532   -573.67934 
     345   -573.69811      27.6059      27.6059      27.6059            0           -0           -0    75.974577     102.0364    16.511228    109.37611   -24.017795   -25.542616   -38.019359   -573.69811 
     346   -573.72283      27.6059      27.6059      27.6059            0           -0           -0    33.423179    52.823527   -22.210339    69.656348   -49.260087   -47.499366    7.0144124   -573.72283 
     347   -573.73866      27.6059      27.6059      27.6059            0           -0           -0    85.998685    82.397339    75.288518     100.3102   -6.8528155   -25.982399    24.102125   -573.73866 
     348   -573.75364      27.6059      27.6059      27.6059            0           -0           -0    107.72787    112.46078    82.540859    128.18198    12.944423   -7.4152381   -14.425475   -573.75364 
     349   -573.76201      27.6059      27.6059      27.6059            0           -0           -0    62.062989    82.167176    6.3333307    97.688461   -16.146961   -24.078424   -25.030952   -573.76201 
     350   -573.77632      27.6059      27.6059      27.6059            0           -0           -0    22.924178     40.21524   -27.592827    56.150122   -39.873187   -44.824636    9.2527293   -573.77632 
     351   -573.79552      27.6059      27.6059      27.6059            0           -0           -0    70.846146    74.265844     52.55425    85.718343   -6.3198142   -23.354577    19.436199   -573.79552 
     352   -573.81889      27.6059      27.6059      27.6059            0           -0           -0    99.543937     112.3888    69.780613     116.4624    9.4034113   -1.0321144   -28.298931   -573.81889 
     353    -573.8341      27.6059      27.6059      27.6059            0           -0           -0    48.242861    70.087935  -0.16570793    74.806356   -27.417187   -27.155387   -30.738483    -573.8341 
     354   -573.85634      27.6059      27.6059      27.6059            0           -0           -0    1.9479392     22.53182   -40.826547    24.138545   -44.970802   -52.880522    8.5538871   -573.85634 
     355     -573.881      27.6059      27.6059      27.6059            0           -0           -0    45.562595     57.86843    26.081708    52.737646   -3.0836859   -21.074448      6.89412     -573.881 
     356   -573.91854      27.6059      27.6059      27.6059            0           -0           -0    68.720654    83.198832    42.665294    80.297837    10.767438    2.9887084   -28.157735   -573.91854 
     357   -573.93938      27.6059      27.6059      27.6059            0           -0           -0     42.96842     55.21709    4.7552425    68.932926   -25.806694   -27.183393   -11.558062   -573.93938 
     358   -573.95145      27.6059      27.6059      27.6059            0           -0           -0    15.917482    22.876094   -20.700345    45.576697   -31.071707   -46.702358    28.029239   -573.95145 
     359   -573.98235      27.6059      27.6059      27.6059            0           -0           -0    7.2628665    19.590121   -46.315985    48.514464    7.2087607   -12.585759    11.777924   -573.98235 
     360   -574.03979      27.6059      27.6059      27.6059            0           -0           -0    29.363336    38.083832   -50.648632    100.65481    5.9760872    10.396518   -21.807428   -574.03979 
     361   -574.07291      27.6059      27.6059      27.6059            0           -0           -0    29.080954    23.734236   -42.551559    106.06018   -12.219322   -31.763905    35.769407   -574.07291 
     362   -574.14396      27.6059      27.6059      27.6059            0           -0           -0   -28.336306   -25.534949   -116.50619    57.032226   -10.286963   -62.898734    68.080548   -574.14396 
     363   -574.28041      27.6059      27.6059      27.6059            0           -0           -0   -77.138334   -53.629841   -202.31662    24.531457    14.911152   -1.7902181   -12.381626   -574.28041 
     364   -574.44075      27.6059      27.6059      27.6059            0           -0           -0    -30.07603   -20.128059   -160.40675    90.306723    3.7560443     30.63915   -20.752839   -574.44075 
     365   -574.58647      27.6059      27.6059      27.6059            0           -0           -0   -4.6655916   -9.5714817   -128.65724    124.23194   -36.190501   -62.744076    102.57306   -574.58647 
     366   -574.71774      27.6059      27.6059      27.6059            0           -0           -0   -36.088789    -33.90158    -180.0601    105.69532   -54.078153   -117.50503    155.99173   -574.71774 
     367   -575.12618      27.6059      27.6059      27.6059            0           -0           -0   -137.74276   -111.94426   -324.75857    23.474544   -28.500541   -88.386007    98.953777   -575.12618 
     368   -575.26118      27.6059      27.6059      27.6059            0           -0           -0     -140.127   -115.97561   -346.12243    41.717056   -5.1082875    15.525182   -1.0296241   -575.26118 
     369    -575.5677      27.6059      27.6059      27.6059            0           -0           -0   -64.428865   -58.026104   -274.67515    139.41466   -19.287066    43.754472    20.996205    -575.5677 
     370   -576.00708      27.6059      27.6059      27.6059            0           -0           -0   -178.36957   -147.28117    -425.6303    37.802766    -25.05778   -58.349625    86.612597   -576.00708 
     371   -576.47991      27.6059      27.6059      27.6059            0           -0           -0    -243.7971   -201.16495   -530.23409 0.0077439644   -13.433462   -45.533378    61.740186   -576.47991 
     372   -577.02415      27.6059      27.6059      27.6059            0           -0           -0   -187.86417   -162.74484   -478.02768    77.179995   -25.330855   -16.800214    68.956339   -577.02415 
     373   -577.62536      27.6059      27.6059      27.6059            0           -0           -0   -226.17836    -203.0607    -521.6799    46.205514   -28.065381   -25.069079    65.087557   -577.62536 
     374   -578.26682      27.6059      27.6059      27.6059            0           -0           -0   -219.23856   -219.91216   -488.67966    50.876149   -47.773082   -30.748399    64.945911   -578.26682 
     375   -578.90506      27.6059      27.6059      27.6059            0           -0           -0   -193.76507   -236.38411   -395.76341    50.852307   -75.583061   -21.080548    42.262121   -578.90506 
     376   -579.45313      27.6059      27.6059      27.6059            0           -0           -0   -126.33287   -249.56513   -196.02731    66.593823   -133.92385   -22.079586    18.494819   -579.45313 
     377   -579.86185      27.6059      27.6059      27.6059            0           -0           -0   -83.895837     -298.974    6.4763278    40.810165   -194.85193    2.0003696    -42.37205   -579.86185 
     378   -580.30295      27.6059      27.6059      27.6059            0           -0           -0   -49.574096    -305.6275    64.192148    92.713061   -232.59645   -18.869418   -14.831499   -580.30295 
     379   -580.83986      27.6059      27.6059      27.6059            0           -0           -0   -130.05838   -354.51739   -81.726346    46.068601   -211.26747   -9.9994565   -20.337422   -580.83986 
[...]
     917     -601.544      27.6059      27.6059      27.6059            0           -0           -0    25.465221    25.349373    25.447344    25.598946  -0.94024865   -1.5415372    1.2481876     -601.544 
     918   -601.54403      27.6059      27.6059      27.6059            0           -0           -0    22.341106    21.886236    22.431927    22.705154  -0.45843617  -0.36644603  -0.14921938   -601.54403 
     919   -601.54404      27.6059      27.6059      27.6059            0           -0           -0    20.394764    19.592059    21.141183    20.451049  -0.44285479  -0.17132446   -1.0379834   -601.54404 
     920    -601.5441      27.6059      27.6059      27.6059            0           -0           -0    22.165582    21.559229    22.602603    22.334913   -1.2031154   -1.6843924   0.13057589    -601.5441 
     921   -601.54414      27.6059      27.6059      27.6059            0           -0           -0    26.040158    25.839766    25.455943    26.824765   0.13566471   -1.1975756   0.93382219   -601.54414 
     922   -601.54418      27.6059      27.6059      27.6059            0           -0           -0    24.335076    23.647046     24.66305    24.695131   0.41072211  -0.58447114  0.095642046   -601.54418 
     923   -601.54424      27.6059      27.6059      27.6059            0           -0           -0    20.226116    19.189371    21.334556    20.154421   -0.9939518   -1.4793435   -0.6378662   -601.54424 
     924   -601.54428      27.6059      27.6059      27.6059            0           -0           -0    22.464121    22.121636    22.195628      23.0751  -0.93367304   -2.1177594   0.13593556   -601.54428 
     925   -601.54438      27.6059      27.6059      27.6059            0           -0           -0    29.440283    29.231621    28.356762    30.732467    1.4203389  -0.59795609    1.3118192   -601.54438 
     926   -601.54455      27.6059      27.6059      27.6059            0           -0           -0    27.285867    26.355693    27.388769    28.113139    0.9126127   0.22368727    1.0431656   -601.54455 
     927   -601.54461      27.6059      27.6059      27.6059            0           -0           -0    22.508376    22.138109    22.913075    22.473944  -0.78763455   -1.0130926    0.2250797   -601.54461 
     928   -601.54462      27.6059      27.6059      27.6059            0           -0           -0    20.615715    20.486413    20.573188    20.787544   -1.2675841   -1.1246677  -0.32882575   -601.54462 
     929   -601.54465      27.6059      27.6059      27.6059            0           -0           -0    20.728071    20.128003    20.560435    21.495775   -0.7129032   -0.1835592  -0.67422711   -601.54465 
     930   -601.54472      27.6059      27.6059      27.6059            0           -0           -0    25.235639    24.147491    25.891378    25.668049   0.38292974   0.12678387   0.56100511   -601.54472 
     931   -601.54482      27.6059      27.6059      27.6059            0           -0           -0    28.319075    28.687089    28.346129    27.924006    0.2707624   -1.2480565    1.8989535   -601.54482 
     932   -601.54494      27.6059      27.6059      27.6059            0           -0           -0    24.221881    24.803578    23.652497    24.209567  -0.71525269   -1.2059419   0.88251638   -601.54494 
     933   -601.54496      27.6059      27.6059      27.6059            0           -0           -0    21.980578    21.422804    22.325272    22.193657  -0.52769229  -0.37399339  -0.24609748   -601.54496 
     934   -601.54497      27.6059      27.6059      27.6059            0           -0           -0    22.583594    21.429834    23.444105    22.876841   0.24865886   0.09915717  -0.58080493   -601.54497 
     935     -601.545      27.6059      27.6059      27.6059            0           -0           -0    24.608155    24.275799    24.548456     25.00021 -0.078783027  -0.94393339   0.46395882     -601.545 
     936   -601.54501      27.6059      27.6059      27.6059            0           -0           -0    22.084976    21.753979    22.137484    22.363464   -1.2020316   -1.4783689   0.37215898   -601.54501 
     937   -601.54501      27.6059      27.6059      27.6059            0           -0           -0    21.734815    21.125219    22.277988    21.801238  -0.44588374  -0.71475044 -0.0041873757   -601.54501 
     938   -601.54503      27.6059      27.6059      27.6059            0           -0           -0    24.987008    24.038908    25.496432    25.425682    1.1186946  -0.13999528 -0.046476169   -601.54503 
     939   -601.54506      27.6059      27.6059      27.6059            0           -0           -0    25.252451    24.183874    25.279663    26.293815 -0.065413184   -1.3493045   0.26602849   -601.54506 
     940   -601.54509      27.6059      27.6059      27.6059            0           -0           -0    21.164406    20.501202    21.563018    21.428999   -1.3372522   -1.5109067   0.20224892   -601.54509 
     941   -601.54511      27.6059      27.6059      27.6059            0           -0           -0    21.510999    22.463319    21.710982    20.358697   0.10983411  -0.11540355    0.9129451   -601.54511 
     942   -601.54521      27.6059      27.6059      27.6059            0           -0           -0    22.972436    24.580963    22.599268    21.737078   0.71559828   0.55205461    1.1641931   -601.54521 
     943   -601.54526      27.6059      27.6059      27.6059            0           -0           -0    21.955701    21.610865    22.084136    22.172102   -1.0775988  -0.72009699    0.1008536   -601.54526 
     944   -601.54527      27.6059      27.6059      27.6059            0           -0           -0    25.122076    24.274657    25.540606    25.550965    0.8137385  -0.21837372  -0.42079658   -601.54527 
     945    -601.5453      27.6059      27.6059      27.6059            0           -0           -0    27.008944    26.697623    26.907056    27.422154    1.5681733   0.16252958   0.60925161    -601.5453 
     946   -601.54533      27.6059      27.6059      27.6059            0           -0           -0    23.229854     22.79506    23.232853    23.661649  -0.59536103   -1.0270985   0.60231571   -601.54533 
     947   -601.54533      27.6059      27.6059      27.6059            0           -0           -0    22.927718    22.289554    23.317209     23.17639  -0.21532204   -1.0832481 -0.074664325   -601.54533 
     948   -601.54534      27.6059      27.6059      27.6059            0           -0           -0    21.244196    21.013881    21.497628    21.221078  -0.94349765   -1.0596424  0.079149687   -601.54534 
     949   -601.54534      27.6059      27.6059      27.6059            0           -0           -0    22.742129    22.399938    22.881455    22.944994  -0.59135787  -0.74998118    0.3022659   -601.54534 
     950   -601.54534      27.6059      27.6059      27.6059            0           -0           -0    23.004751    22.554126    23.210751    23.249378  -0.38001802  -0.75614695   0.11879283   -601.54534 
     951   -601.54535      27.6059      27.6059      27.6059            0           -0           -0    21.725167     21.36406    21.990383    21.821059  -0.59904515   -1.0233453  -0.23118551   -601.54535 
     952   -601.54537      27.6059      27.6059      27.6059            0           -0           -0    19.285122    19.856888    19.183058    18.815418   -2.1985758  -0.72758199    1.1424059   -601.54537 
     953   -601.54543      27.6059      27.6059      27.6059            0           -0           -0     20.49064     20.89926    20.423369    20.149291   -1.6827715  -0.48994679    1.1450884   -601.54543 
     954   -601.54545      27.6059      27.6059      27.6059            0           -0           -0    22.353474    22.158994     22.53687    22.364558  -0.49270558  -0.71180861   0.18309536   -601.54545 
     955   -601.54545      27.6059      27.6059      27.6059            0           -0           -0    22.987991    22.667129     23.09478    23.202064  -0.30864034  -0.80327626   0.11314187   -601.54545 
     956   -601.54545      27.6059      27.6059      27.6059            0           -0           -0     23.48906    23.031261    23.682875    23.753044  -0.21890236   -0.6112594   0.25896982   -601.54545 
     957   -601.54545      27.6059      27.6059      27.6059            0           -0           -0     22.67855    22.135863    22.943415    22.956372  -0.64198264  -0.82705717   0.21360315   -601.54545 
     958   -601.54545      27.6059      27.6059      27.6059            0           -0           -0    23.219277    22.527289    23.370996    23.759547  -0.44530768   -1.0627257 -0.033162248   -601.54545 
     959   -601.54549      27.6059      27.6059      27.6059            0           -0           -0    27.709833    26.277305    27.735272    29.116923    1.3608918  -0.14174425  -0.20409852   -601.54549 
     960   -601.54554      27.6059      27.6059      27.6059            0           -0           -0    26.911098     25.78755    26.900857    28.044887    1.2041115 0.0026107628 -0.023522056   -601.54554 
     961   -601.54557      27.6059      27.6059      27.6059            0           -0           -0    22.666691    22.514755    22.771578     22.71374  -0.35407916  -0.85480459   0.10791514   -601.54557 
     962   -601.54557      27.6059      27.6059      27.6059            0           -0           -0     22.23277     22.05713     22.40416    22.237019  -0.50112888  -0.70602527   0.20613367   -601.54557 
     963   -601.54557      27.6059      27.6059      27.6059            0           -0           -0    23.006486    22.725667    23.135452     23.15834  -0.28994815  -0.79395928   0.12075211   -601.54557 
     964   -601.54557      27.6059      27.6059      27.6059            0           -0           -0    23.185303     22.71024    23.341518    23.504152  -0.23504672  -0.62406853   0.15664073   -601.54557 
     965   -601.54557      27.6059      27.6059      27.6059            0           -0           -0    22.582022    22.058231    22.841257     22.84658  -0.65652095  -0.81108154   0.23100876   -601.54557 
     966   -601.54557      27.6059      27.6059      27.6059            0           -0           -0    23.157846    22.557936    23.380023    23.535577  -0.51613142  -0.97746314   0.10868163   -601.54557 
     967   -601.54558      27.6059      27.6059      27.6059            0           -0           -0    24.921547    23.703493    25.081275    25.979872   0.18234811  -0.61508773  -0.14121606   -601.54558 
     968   -601.54564      27.6059      27.6059      27.6059            0           -0           -0    22.263529    21.175084    22.615263    23.000238  -0.78650918  -0.15505126    0.4173547   -601.54564 
     969   -601.54567      27.6059      27.6059      27.6059            0           -0           -0    22.962903    22.348014    23.363303    23.177392   -1.1194759   -1.6673203   0.18562544   -601.54567 
     970   -601.54568      27.6059      27.6059      27.6059            0           -0           -0      22.7985    22.331969    23.210381    22.853151   -1.2538425   -2.0019349       0.1303   -601.54568 
     971   -601.54573      27.6059      27.6059      27.6059            0           -0           -0    21.312187    20.520222    21.673515    21.742826   -1.0829384  -0.62046923   0.30076475   -601.54573 
     972   -601.54575      27.6059      27.6059      27.6059            0           -0           -0    26.256857     25.27439    26.513067    26.983114   0.32116067  -0.43003036   0.35190026   -601.54575 
     973   -601.54576      27.6059      27.6059      27.6059            0           -0           -0    27.746338    26.797412    27.849187    28.592415   0.93990798  -0.54810655   0.11975582   -601.54576 
     974   -601.54581      27.6059      27.6059      27.6059            0           -0           -0    22.353549    21.955765    22.285121     22.81976 -0.066495392  -0.71825278  -0.23579623   -601.54581 
     975   -601.54582      27.6059      27.6059      27.6059            0           -0           -0    22.655477     22.59014    22.898115    22.478178  -0.46273013  -0.69824145   0.38672078   -601.54582 
     976   -601.54582      27.6059      27.6059      27.6059            0           -0           -0    23.095363    23.146977    23.556702     22.58241  -0.80954001  -0.88446064   0.74151978   -601.54582 
     977   -601.54584      27.6059      27.6059      27.6059            0           -0           -0    21.800203    20.943102    21.899331    22.558177  -0.79245099   -1.1801308  -0.31748834   -601.54584 
     978   -601.54585      27.6059      27.6059      27.6059            0           -0           -0    23.325247    22.202331    23.793335    23.980076  -0.67165371  -0.47791478    0.3790425   -601.54585 
     979   -601.54586      27.6059      27.6059      27.6059            0           -0           -0     24.42929    23.348845    24.965826      24.9732   -1.2762758  -0.99568167   0.88566741   -601.54586 
     980   -601.54588      27.6059      27.6059      27.6059            0           -0           -0    23.520381    22.248116    23.999455    24.313572   -1.4922134   -1.1867061   0.58747398   -601.54588 
     981   -601.54589      27.6059      27.6059      27.6059            0           -0           -0    21.505609    19.788482    22.049397    22.678949   -1.4133201  -0.98475252   -0.1311671   -601.54589 
     982   -601.54593      27.6059      27.6059      27.6059            0           -0           -0    23.130546    22.117456     23.95411    23.320073  -0.95399683  -0.87272153   0.38365818   -601.54593 
     983   -601.54594      27.6059      27.6059      27.6059            0           -0           -0    23.129885    22.806713    23.333703    23.249239  -0.56006273  -0.87044745   0.36144012   -601.54594 
     984   -601.54594      27.6059      27.6059      27.6059            0           -0           -0    22.540128    22.132995    22.713828    22.773562  -0.45768157   -0.7671148   0.15769885   -601.54594 
     985   -601.54594      27.6059      27.6059      27.6059            0           -0           -0    22.629097     22.10661    22.949984    22.830696  -0.42223599  -0.71459764   0.14953191   -601.54594 
     986   -601.54595      27.6059      27.6059      27.6059            0           -0           -0    23.504284    23.296299    23.695586    23.520967  -0.48138818  -0.88195596   0.38787118   -601.54595 
     987   -601.54595      27.6059      27.6059      27.6059            0           -0           -0    22.468453     22.93391    22.148426    22.323024  -0.23643173  -0.74919107 0.0092761676   -601.54595 
     988   -601.54596      27.6059      27.6059      27.6059            0           -0           -0    21.731805    21.816927    21.805522    21.572965  0.088767071  -0.35053038  -0.32855041   -601.54596 
     989   -601.54597      27.6059      27.6059      27.6059            0           -0           -0    24.175711    24.017082    24.643861    23.866191   0.16118334  -0.50653689   0.16394906   -601.54597 
     990   -601.54602      27.6059      27.6059      27.6059            0           -0           -0    25.811755    26.803743     24.82098    25.810542   -1.0902278   -2.0074475   0.95229751   -601.54602 
     991   -601.54608      27.6059      27.6059      27.6059            0           -0           -0    24.823894    25.795319    23.725217    24.951146   -1.2620633   -1.9815964   0.80976233   -601.54608 
     992   -601.54613      27.6059      27.6059      27.6059            0           -0           -0    22.199999    21.869238    22.685932    22.044829  -0.11799014  -0.36714169  -0.15048466   -601.54613 
     993   -601.54613      27.6059      27.6059      27.6059            0           -0           -0    22.100135    21.745658    22.548722    22.006025 -0.035069214  -0.30692013  -0.18533024   -601.54613 
     994   -601.54613      27.6059      27.6059      27.6059            0           -0           -0    22.686625    22.614105    22.732675    22.713096  -0.28508634  -0.68224319   0.02952631   -601.54613 
     995   -601.54613      27.6059      27.6059      27.6059            0           -0           -0    22.762248    22.357521    23.120365    22.808857  -0.67981526  -0.93893877    0.2885446   -601.54613 
     996   -601.54613      27.6059      27.6059      27.6059            0           -0           -0    22.592313    22.094256    22.848859    22.833826  -0.49404325   -0.7253333    0.2298607   -601.54613 
     997   -601.54614      27.6059      27.6059      27.6059            0           -0           -0    22.608959     22.13633    22.790999    22.899549  -0.52711986  -0.82625426   0.23074367   -601.54614 
     998   -601.54614      27.6059      27.6059      27.6059            0           -0           -0    22.613537      21.9949    23.162848    22.682863  -0.83879813    -1.081409   0.32617552   -601.54614 
     999   -601.54616      27.6059      27.6059      27.6059            0           -0           -0    22.871324    22.216225    23.625069    22.772677  -0.74200382   -0.4070677   0.47453946   -601.54616 
    1000   -601.54621      27.6059      27.6059      27.6059            0           -0           -0    22.777166    22.371662    23.285419    22.674417  -0.58817333  -0.28995573    0.3590298   -601.54621 
Loop time of 0.551938 on 1 procs for 1000 steps with 107 atoms

38.1% CPU use with 1 MPI tasks x no OpenMP threads

Minimization stats:
  Stopping criterion = max iterations
  Energy initial, next-to-last, final = 
        -10.0827857037     -601.546159855      -601.54620656
  Force two-norm initial, final = 0.0106207 0.0556533
  Force max component initial, final = 0.00216846 0.0242773
  Final line search alpha, max atom move = 0.620783 0.015071
  Iterations, force evaluations = 1000 1664

MPI task timing breakdown:
Section |  min time  |  avg time  |  max time  |%varavg| %total
---------------------------------------------------------------
Pair    | 0.47962    | 0.47962    | 0.47962    |   0.0 | 86.90
Neigh   | 0.034089   | 0.034089   | 0.034089   |   0.0 |  6.18
Comm    | 0.0053556  | 0.0053556  | 0.0053556  |   0.0 |  0.97
Output  | 0.02755    | 0.02755    | 0.02755    |   0.0 |  4.99
Modify  | 0          | 0          | 0          |   0.0 |  0.00
Other   |            | 0.005324   |            |       |  0.96

Nlocal:    107 ave 107 max 107 min
Histogram: 1 0 0 0 0 0 0 0 0 0
Nghost:    533 ave 533 max 533 min
Histogram: 1 0 0 0 0 0 0 0 0 0
Neighs:    1426 ave 1426 max 1426 min
Histogram: 1 0 0 0 0 0 0 0 0 0

Total # of neighbors = 1426
Ave neighs/atom = 13.3271
Neighbor list builds = 71
Dangerous builds = 0

# ---- define output variables ----
variable natoms equal "count(all)"
variable tot_energy equal "c_eatoms"
variable a11 equal "xhi-xlo"
variable a22 equal "yhi-ylo"
variable a33 equal "zhi-zlo"
variable tilt_xy equal "xy"
variable tilt_xz equal "xz"
variable tilt_yz equal "yz"
variable tot_press equal "press"
variable press_xx equal "pxx"
variable press_yy equal "pyy"
variable press_zz equal "pzz"
variable press_xy equal "pxy"
variable press_xz equal "pxz"
variable press_yz equal "pyz"

# ---- output ----
print "pypospack:output_section:begin"
pypospack:output_section:begin
print "tot_energy = ${tot_energy}"
tot_energy = -601.546206560278
print "num_atoms = ${natoms}"
num_atoms = 107
print "a11 = ${a11}"
a11 = 27.6059
print "a22 = ${a22}"
a22 = 27.6059
print "a33 = ${a33}"
a33 = 27.6059
print "a12 = ${tilt_xy}"
a12 = 0
print "a13 = ${tilt_xz}"
a13 = -0
print "a23 = ${tilt_yz}"
a23 = -0
print "tot_press = ${tot_press}"
tot_press = 22.7771662243056
print "pxx = ${press_xx}"
pxx = 22.3716622904104
print "pyy = ${press_yy}"
pyy = 23.2854190534681
print "pzz = ${press_zz}"
pzz = 22.6744173290385
print "pxy = ${press_xy}"
pxy = -0.588173332359454
print "pxz = ${press_xz}"
pxz = -0.289955733601237
print "pyz = ${press_yz}"
pyz = 0.359029796806962
print "pypospack:output_section:done"
pypospack:output_section:done
print "pypospack:lammps_sim:done"
pypospack:lammps_sim:done
Total wall time: 0:00:00
