# ['Ni']

28 atoms
1 atom types

    0.0000     2.3596 xlo xhi
    0.0000     4.0869 ylo yhi
    0.0000    26.9723 zlo zhi

    0.0000     0.0000     0.0000 xy xz yz

Atoms

1 1     0.0000     0.0000     0.0000
2 1     1.1798     2.0435     0.0000
3 1     1.1798     0.6812     1.9266
4 1     0.0000     2.7246     1.9266
5 1     0.0000     1.3623     3.8532
6 1     1.1798     3.4058     3.8532
7 1     0.0000     0.0000     5.7798
8 1     1.1798     2.0435     5.7798
9 1     1.1798     0.6812     7.7064
10 1     0.0000     2.7246     7.7064
11 1     0.0000     1.3623     9.6330
12 1     1.1798     3.4058     9.6330
13 1     0.0000     0.0000    11.5595
14 1     1.1798     2.0435    11.5595
15 1     0.0000     1.3623    13.4861
16 1     1.1798     3.4058    13.4861
17 1     0.0000     0.0000    15.4127
18 1     1.1798     2.0435    15.4127
19 1     1.1798     0.6812    17.3393
20 1     0.0000     2.7246    17.3393
21 1     0.0000     1.3623    19.2659
22 1     1.1798     3.4058    19.2659
23 1     0.0000     0.0000    21.1925
24 1     1.1798     2.0435    21.1925
25 1     1.1798     0.6812    23.1191
26 1     0.0000     2.7246    23.1191
27 1     0.0000     1.3623    25.0457
28 1     1.1798     3.4058    25.0457
