# ['Ni']

18 atoms
1 atom types

    0.0000     2.1518 xlo xhi
    0.0000     3.7270 ylo yhi
    0.0000    31.6195 zlo zhi

    0.0000     0.0000    -0.0003 xy xz yz

Atoms

1 1     0.0000     0.0000     0.0000
2 1     1.0759     0.6212     1.7567
3 1     0.0000     1.2423     3.5133
4 1     1.0759     1.8635     0.0000
5 1     0.0000     2.4847     1.7567
6 1     1.0759     3.1058     3.5133
7 1     0.0000     0.0000     5.2699
8 1     1.0759     0.6212     7.0266
9 1     0.0000     1.2423     8.7832
10 1     1.0759     1.8635     5.2699
11 1     0.0000     2.4847     7.0266
12 1     1.0759     3.1058     8.7832
13 1     0.0000     0.0000    10.5398
14 1     1.0759     0.6212    12.2965
15 1     0.0000     1.2423    14.0531
16 1     1.0759     1.8635    10.5398
17 1     0.0000     2.4847    12.2965
18 1     1.0759     3.1058    14.0531
