LAMMPS (10 Feb 2015)
Reading data file ...
  triclinic box = (0 0 0) to (4.2565 4.2565 4.2565) with tilt (0 0 0)
  1 by 1 by 1 MPI processor grid
  reading atoms ...
  8 atoms
4 atoms in group Mg
4 atoms in group O
Setting atom values ...
  4 settings made for charge
Setting atom values ...
  4 settings made for charge
PPPM initialization ...
  G vector (1/distance) = 0.353134
  grid = 8 8 8
  stencil order = 5
  estimated absolute RMS force accuracy = 4.09436e-05
  estimated relative force accuracy = 2.84338e-06
  using double precision FFTs
  3d grid and FFT values/proc = 3375 512
Neighbor list info ...
  1 neighbor list requests
  update every 1 steps, delay 0 steps, check yes
  master list distance cutoff = 11
Setting up minimization ...
Memory usage per processor = 4.06549 Mbytes
Step PotEng Lx Ly Lz Xy Xz Yz Press Pxx Pyy Pzz Pxy Pxz Pyz eatoms 
       0   -117.43599       4.2565       4.2565       4.2565            0            0            0    33717.192    33717.192    33717.192    33717.192 -3.1023281e-11 -2.4163961e-10 -2.0934262e-10   -117.43599 
       8   -117.45138    4.2835821    4.2835821    4.2835821            0            0            0   -5.0124394   -5.0124394   -5.0124394   -5.0124394 6.8970478e-11 -1.4442567e-10 -9.765937e-11   -117.45138 
Loop time of 0.00861907 on 1 procs for 8 steps with 8 atoms

Minimization stats:
  Stopping criterion = linesearch alpha is zero
  Energy initial, next-to-last, final = 
        -117.435990229     -117.451383044     -117.451383044
  Force two-norm initial, final = 4.86878 0.0018005
  Force max component initial, final = 4.86878 0.000733039
  Final line search alpha, max atom move = 0.00390625 2.86343e-06
  Iterations, force evaluations = 8 25

Pair  time (%) = 0.00232267 (26.9481)
Kspce time (%) = 0.00134063 (15.5542)
Neigh time (%) = 0 (0)
Comm  time (%) = 0.000268698 (3.11748)
Outpt time (%) = 0 (0)
Other time (%) = 0.00468707 (54.3802)

Nlocal:    8 ave 8 max 8 min
Histogram: 1 0 0 0 0 0 0 0 0 0
Nghost:    2189 ave 2189 max 2189 min
Histogram: 1 0 0 0 0 0 0 0 0 0
Neighs:    2344 ave 2344 max 2344 min
Histogram: 1 0 0 0 0 0 0 0 0 0

Total # of neighbors = 2344
Ave neighs/atom = 293
Neighbor list builds = 0
Dangerous builds = 0
pypospack:output_section:begin
tot_energy = -117.45138304358
num_atoms = 8
xx = 4.28358206284588
yy = 4.28358206284588
zz = 4.28358206284588
xy = 0
xz = 0
yz = 0
tot_press = -5.01243937142067
pxx = -5.01243937108414
pyy = -5.01243937158826
pzz = -5.01243937158962
pxy = 6.8970477610601e-11
pxz = -1.44425666326158e-10
pyz = -9.76593698696591e-11
pypospack:output_section:done
pypospack:lammps_sim:done
PPPM initialization ...
  G vector (1/distance) = 0.352856
  grid = 8 8 8
  stencil order = 5
  estimated absolute RMS force accuracy = 4.14735e-05
  estimated relative force accuracy = 2.88018e-06
  using double precision FFTs
  3d grid and FFT values/proc = 3375 512
Setting up run ...
Memory usage per processor = 3.06549 Mbytes
Step Temp PotEng KinEng TotEng Press Lx Ly Lz Press Pxx Pyy Pzz Pxy Pxz Pyz Volume 
       0          200   -117.45139    0.1809642   -117.27042    2453.1997    4.2835821    4.2835821    4.2835821    2453.1997    2796.6023    2098.2511    2464.7455   -110.11314   -296.21196    536.28686     78.59977 
     100    47.201613   -117.28731  0.042709011    -117.2446    802.44706    4.2928502    4.2928502    4.2928502    802.44706    6663.6648    622.68013   -4879.0037   -272.91828   -1689.8792    217.57169    79.111059 
     200    172.83975   -117.35286   0.15638904   -117.19647    -7671.457    4.2951689    4.2951689    4.2951689    -7671.457   -7208.9367   -9500.0513    -6305.383    -386.3367    1266.5634    1164.9928     79.23932 
     300    110.97676   -117.25369    0.1004141   -117.15328    9504.3693    4.2888862    4.2888862    4.2888862    9504.3693     12892.38    7754.9134    7865.8146    115.15653    519.19911   -1153.6639    78.892111 
     400    206.23547   -117.30678   0.18660619   -117.12018   -370.58153    4.2959992    4.2959992    4.2959992   -370.58153    1739.0234   -2483.0705    -367.6975    182.93788     419.3885   -1333.6256    79.285279 
     500    230.24463   -117.30707   0.20833018   -117.09874   -6542.6158    4.2981048    4.2981048    4.2981048   -6542.6158   -3510.9376   -7158.1291   -8958.7808   -383.63102   -968.49769    1768.4094    79.401918 
     600    110.98452   -117.18952   0.10042112    -117.0891    6547.3663    4.2925167    4.2925167    4.2925167    6547.3663    12396.883    7377.2146   -131.99847   -543.29873   -399.05964     912.5489    79.092623 
     700    337.21106   -117.39093   0.30511565   -117.08581   -7977.0581    4.2969647    4.2969647    4.2969647   -7977.0581   -2837.3946   -10172.599   -10921.181    619.53674    -323.8527    1072.5559    79.338752 
     800     123.8515   -117.20005   0.11206344   -117.08798    4848.7372    4.2971783    4.2971783    4.2971783    4848.7372    10822.541    4822.0016   -1098.3313    333.42046    263.90154   -1041.1077    79.350585 
     900    247.61545    -117.3127   0.22404766   -117.08865   -3391.7837     4.293925     4.293925     4.293925   -3391.7837   -1915.5388   -7519.0777   -740.73451    33.687242    1975.1108    1496.9742    79.170495 
    1000    98.577455   -117.17918  0.089194953   -117.08998    3886.0393    4.2958317    4.2958317    4.2958317    3886.0393    11458.824    2671.6626   -2472.3683   -858.66502   -3045.1106    911.00117    79.276006 
    1100    279.83618   -117.34137   0.25320165   -117.08817   -3302.0292    4.2967333    4.2967333    4.2967333   -3302.0292   -549.58242   -7018.0991   -2338.4061     363.8222   -133.45337   -1337.7842    79.325931 
    1200    181.61527    -117.2528   0.16432931   -117.08847    3227.6386    4.2941466    4.2941466    4.2941466    3227.6386    15609.214    933.51413   -6859.8125    37.838394   -3140.7628    1107.4968    79.182756 
    1300    191.37982   -117.26198   0.17316448   -117.08881   -4483.5026    4.2965961    4.2965961    4.2965961   -4483.5026   -2039.8474   -4392.5766   -7018.0838   -310.26305    657.52204     1925.396    79.318336 
    1400    212.04557   -117.28061   0.19186329   -117.08875   -1858.9998     4.296066     4.296066     4.296066   -1858.9998    9473.6042    -4217.874    -10832.73   -128.82871    1314.5276    733.86914    79.288982 
    1500    220.65486   -117.28785   0.19965316    -117.0882    3407.3532    4.2939519    4.2939519    4.2939519    3407.3532    2610.8092    3194.6694    4416.5809   -878.65554   -1326.0787   -1052.9284    79.171982 
    1600    208.46481   -117.27752   0.18862334   -117.08889   -2685.0441    4.2965947    4.2965947    4.2965947   -2685.0441    6068.5543   -8119.1664   -6004.5201   -36.416188    1889.7033    -191.3232    79.318259 
    1700    104.44713   -117.18447  0.094505956   -117.08996    3362.1275     4.296018     4.296018     4.296018    3362.1275    5578.6671    2560.4128    1947.3025   -1317.9128   -2241.1363    197.28594    79.286321 
    1800    269.07812   -117.33177   0.24346754    -117.0883   -411.67377    4.2937834    4.2937834    4.2937834   -411.67377    3991.0965   -6196.5237    970.40586    246.31642    1612.4486   -155.82303    79.162664 
    1900    183.43925   -117.25449   0.16597968   -117.08851    1774.7311    4.2964063    4.2964063    4.2964063    1774.7311    9505.7595    1739.7535   -5921.3196    383.18435   -2872.4486   -75.928539    79.307827 
    2000    252.32993   -117.31688   0.22831342   -117.08857   -6289.5497    4.2973606    4.2973606    4.2973606   -6289.5497   -7426.3408   -9228.6063    -2213.702   -796.55386    2489.1641    2006.7744    79.360683 
    2100    116.60841   -117.19469   0.10550974   -117.08918    5788.1184    4.2928638    4.2928638    4.2928638    5788.1184    21206.357    1333.2496   -5175.2515   -578.62136   -1669.6327     1502.049    79.111813 
    2200    235.89401   -117.30203   0.21344186   -117.08858    -1774.807    4.2958243    4.2958243    4.2958243    -1774.807   -7049.4765   -2783.3654    4508.4208   -977.48088     252.5901   -165.50054    79.275598 
    2300    210.78659   -117.27966   0.19072413   -117.08894   -2384.9631    4.2981844    4.2981844    4.2981844   -2384.9631    8114.9517   -8445.5013   -6824.3397    589.48734   -694.89613   -437.97779    79.406334 
    2400    143.82646   -117.21931   0.13013721   -117.08917    2737.1766    4.2932527    4.2932527    4.2932527    2737.1766    2051.6576    3194.8895    2964.9826   -810.45333   -1148.1012     1691.795    79.133315 
    2500    236.02828   -117.30199   0.21356334   -117.08843   -4591.3482    4.2950846    4.2950846    4.2950846   -4591.3482     3204.505    -7872.233   -9106.3166    177.51815     4087.997    1152.7826    79.234652 
    2600      181.407   -117.25253   0.16414087   -117.08839    13.138569    4.2982253    4.2982253    4.2982253    13.138569    3264.3429   -336.44394   -2888.4833    375.68802   -3690.5577   -1396.7782      79.4086 
    2700    255.62995   -117.31958   0.23129935   -117.08828   -2348.5033    4.2944044    4.2944044    4.2944044   -2348.5033    460.16432   -7473.1991   -32.474966    -328.4164    4255.7348    2270.3588    79.197016 
    2800    127.66863   -117.20527   0.11551726   -117.08975    3229.1549     4.293893     4.293893     4.293893    3229.1549    9735.2509    2496.7615   -2544.5478   -611.04127   -1864.7331    160.79583    79.168726 
    2900    200.37147   -117.27074   0.18130032   -117.08944   -1825.9924    4.2973779    4.2973779    4.2973779   -1825.9924    -4616.878    -6617.407    5756.3079   -847.53775    3280.4707    12.744388    79.361639 
    3000    245.99399   -117.31091   0.22258053   -117.08833     31.84144    4.2950872    4.2950872    4.2950872     31.84144    8547.5924   -1727.9605   -6724.1076    1095.0873   -1567.4412   -961.86616    79.234799 
    3100    170.23901   -117.24278   0.15403583   -117.08874    3463.9041    4.2947613    4.2947613    4.2947613    3463.9041    4647.6062    1120.2411    4623.8649    554.27713    1129.3904   -502.88161    79.216763 
    3200    213.63288   -117.28225   0.19329952   -117.08895   -3327.1911     4.296176     4.296176     4.296176   -3327.1911    6789.4082   -7863.7534    -8907.228    129.10087    23.614716    2964.0483    79.295069 
    3300    182.11998   -117.25384   0.16478599   -117.08905    1209.4026    4.2949865    4.2949865    4.2949865    1209.4026   -422.80613    3202.2882    848.72573   -126.07448   -1764.4353   -1987.9626    79.229225 
    3400    240.64538   -117.30651     0.217741   -117.08877   -782.55284    4.2963913    4.2963913    4.2963913   -782.55284    7621.9731   -7909.8005   -2059.8311   -557.64665    3748.2164    1220.9324    79.306995 
    3500     186.6677   -117.25822   0.16890086   -117.08932    41.639136    4.2952863    4.2952863    4.2952863    41.639136    1870.7079    1077.5957   -2823.3862    45.850693   -1634.8408    863.56792     79.24582 
    3600    127.39242   -117.20501   0.11526734   -117.08974    1725.9166    4.2938874    4.2938874    4.2938874    1725.9166    13060.142   -4209.9424     -3672.45   -387.99252    6380.1822    1225.7893    79.168416 
    3700    270.53226   -117.33336   0.24478327   -117.08857   -6121.2965    4.2982784    4.2982784    4.2982784   -6121.2965   -2426.0599   -4300.8283   -11637.001    1471.3508   -2710.9673   -896.53646    79.411543 
    3800    192.27553   -117.26256   0.17397494   -117.08858    1302.6382    4.2957029    4.2957029    4.2957029    1302.6382    7906.1816   -2689.7052   -1308.5618   -748.06461    2264.3417   -516.99846    79.268876 
    3900    212.98547   -117.28133   0.19271373   -117.08861   -2280.0455    4.2932721    4.2932721    4.2932721   -2280.0455    4760.3825   -2722.3113   -8878.2077   -812.95524    1053.6599    3402.0313    79.134385 
    4000    172.85825   -117.24532   0.15640578   -117.08891   -1711.8798    4.2977035    4.2977035    4.2977035   -1711.8798    1055.8671    -2385.269   -3806.2376   -1239.8785     705.7164   -1175.6589    79.379683 
    4100    198.21669   -117.26739   0.17935063   -117.08804    1792.2738    4.2965224    4.2965224    4.2965224    1792.2738    13668.823   -6241.7582   -2050.2435    53.786078    3769.0549    564.62333    79.314252 
    4200    233.97594   -117.29973   0.21170635   -117.08802    1579.2692    4.2929706    4.2929706    4.2929706    1579.2692    1681.0038    4957.0757   -1900.2719    1637.2747   -1575.8344   -408.60274    79.117717 
    4300    125.29748   -117.20272   0.11337179   -117.08935    2667.7002    4.2963909    4.2963909    4.2963909    2667.7002    15403.205   -5950.9978   -1449.1062   -1219.1332    3599.8357    1246.8618    79.306973 
    4400    254.19886   -117.31843   0.23000447   -117.08842   -4408.7375    4.2971175    4.2971175    4.2971175   -4408.7375   -7606.9603    45.257392   -5664.5095    691.17869    -3173.341    603.57157    79.347215 
    4500    207.40895     -117.276   0.18766798   -117.08833    3687.5651    4.2938524    4.2938524    4.2938524    3687.5651    15196.989   -1846.0755   -2288.2179   -30.370517     3118.538   -1717.4368    79.166481 
    4600    216.00736   -117.28375     0.195448   -117.08831   -499.63429    4.2959749    4.2959749    4.2959749   -499.63429    3618.4845   -2015.8884    -3101.499    651.06774    245.25297    2667.0298    79.283938 
    4700    164.67553    -117.2379   0.14900188    -117.0889   -1743.4722    4.2962733    4.2962733    4.2962733   -1743.4722    2575.7087   -4286.4536   -3519.6719   -310.56019    3752.3008    501.00188    79.300461 
    4800    202.15504   -117.27153   0.18291412   -117.08862   -947.09808    4.2956029    4.2956029    4.2956029   -947.09808    2248.9986   -3628.8391   -1461.4537   -489.15943    2484.3438   -418.07672     79.26334 
    4900    230.95618   -117.29726     0.208974   -117.08829   -797.01452    4.2960914    4.2960914    4.2960914   -797.01452   -688.62634   -575.16828    -1127.249    784.57864   -3424.3461    266.10988    79.290389 
    5000    179.36692   -117.25149   0.16229496   -117.08919   -1278.0003    4.2947739    4.2947739    4.2947739   -1278.0003    5603.2394   -6547.8853    -2889.355   -326.82527    4412.8347    677.65741    79.217459 
    5100    171.53988    -117.2449   0.15521289   -117.08969   -2444.4089    4.2962547    4.2962547    4.2962547   -2444.4089    1786.6352    1928.4226   -11048.285   -616.40199   -2808.3416    636.10428    79.299429 
    5200    246.19864   -117.31165    0.2227657   -117.08888   -2295.0963    4.2969352    4.2969352    4.2969352   -2295.0963     1539.018   -8292.7681   -131.53873   -490.50627    4048.9398    -978.3035    79.337116 
    5300    197.55125   -117.26767   0.17874852   -117.08892    3769.2752    4.2937013    4.2937013    4.2937013    3769.2752    4596.0036    4266.3122    2445.5099    467.70833   -1943.8192    549.64323    79.158122 
    5400    192.71553   -117.26339   0.17437306   -117.08901   -110.97406    4.2956882    4.2956882    4.2956882   -110.97406    4723.3847   -5742.6581    686.35127    -524.9115    2284.0316    2141.5725    79.268066 
    5500    172.39031   -117.24495   0.15598238   -117.08897    565.74116    4.2973745    4.2973745    4.2973745    565.74116   -4138.8748   -1243.6111    7079.7094   -244.13088   -580.62559   -176.00687    79.361453 
    5600    218.08858   -117.28555   0.19733113   -117.08821    2656.4466    4.2939338    4.2939338    4.2939338    2656.4466    9629.3541      1370.94   -3030.9543   -225.85898   -840.42152   -14.951318     79.17098 
    5700    242.85432   -117.30787   0.21973969   -117.08813   -728.67161    4.2952757    4.2952757    4.2952757   -728.67161    270.21759   -4249.4698    1793.2374   -77.582416    2407.4917    935.83636    79.245232 
    5800    158.14237   -117.23224   0.14309054   -117.08915   -1337.6027     4.297279     4.297279     4.297279   -1337.6027    1467.9507   -247.07389   -5233.6848   -455.82011    216.25936    1421.9707    79.356159 
    5900     221.3367   -117.28894    0.2002701   -117.08867   -3552.6887    4.2950567    4.2950567    4.2950567   -3552.6887   -6268.3306   -6492.8609    2103.1252   -154.90682    5671.2571    76.797299    79.233112 
    6000     170.6513    -117.2431   0.15440888   -117.08869    2984.7368     4.295454     4.295454     4.295454    2984.7368    4220.8296     3136.776    1596.6048    127.97585   -4527.3831   -1283.1217    79.255099 
    6100     219.0863   -117.28676   0.19823389   -117.08852    -3398.346    4.2963674    4.2963674    4.2963674    -3398.346   -2348.9395   -9517.1619    1671.0633   -181.36332    2704.7164    2104.2848    79.305672 
    6200    169.57593   -117.24253   0.15343587    -117.0891   -2286.9834    4.2955668    4.2955668    4.2955668   -2286.9834   -1637.4583    1574.5066   -6797.9987   -1062.7791    -446.5045   -196.35787    79.261344 
    6300    214.22769   -117.28279   0.19383772   -117.08895   -1085.7774    4.2965699    4.2965699    4.2965699   -1085.7774    4128.2571   -4804.8172    -2580.772    253.53841    766.31258    797.28397    79.316884 
    6400    239.72233   -117.30531    0.2169058   -117.08841    1189.6373    4.2944787    4.2944787    4.2944787    1189.6373   -3539.1107    -1333.919    8441.9416    420.85138    96.511119   -459.33814    79.201129 
    6500    149.01689    -117.2242   0.13483362   -117.08936    4151.6302      4.29509      4.29509      4.29509    4151.6302    11415.655   -555.27014    1594.5056    291.41149    473.66039    247.26053    79.234953 
    6600    210.75163   -117.28002    0.1906925   -117.08932   -1475.3957    4.2974123    4.2974123    4.2974123   -1475.3957   -8269.1511    -7104.878    10947.842   -668.55955    1822.2375    728.60557    79.363549 
    6700    168.81793   -117.24206   0.15275002   -117.08931    4859.2381     4.293736     4.293736     4.293736    4859.2381       9486.4    6519.6439   -1428.3295   -190.09276   -621.91752   -2354.2364    79.160041 
    6800      261.252   -117.32502    0.2363863   -117.08864   -2819.6747    4.2955298    4.2955298    4.2955298   -2819.6747   -2192.1609   -6335.8599    68.996516    333.93425     1697.843     3126.581    79.259296 
    6900    177.57445   -117.24928    0.1606731   -117.08861   -1863.5522    4.2978627    4.2978627    4.2978627   -1863.5522   -3949.8607   -127.47445   -1513.3215   -421.36957    -366.5651    1102.5243    79.388504 
    7000    166.34572   -117.23893    0.1505131   -117.08842   -66.037814    4.2943579    4.2943579    4.2943579   -66.037814    863.14857   -4729.5032    3668.2412    226.54914    5323.1706    968.43415    79.194443 
    7100    228.21548   -117.29432   0.20649416   -117.08783    -2060.139    4.2956529    4.2956529    4.2956529    -2060.139   -6316.3153   -1707.8061    1843.7044   -1281.6414   -2328.9767   -867.71397    79.266113 
    7200    176.47537    -117.2482   0.15967863   -117.08852   -890.79869    4.2973689    4.2973689    4.2973689   -890.79869    423.65496   -5589.3576    2493.3066     65.06116    3278.3891    -949.4423     79.36114 
    7300     234.2937   -117.30039   0.21199386    -117.0884   -5259.0108    4.2947933    4.2947933    4.2947933   -5259.0108   -8909.5997   -2539.8615   -4327.5713   -1009.4773    2513.2716    2487.6259    79.218531 
    7400    154.67657   -117.22921   0.13995461   -117.08925    2024.2091     4.296056     4.296056     4.296056    2024.2091    5416.5759   -114.20327    770.25462   -57.091548    799.71114   -868.94667     79.28843 
    7500    225.90871   -117.29304   0.20440695   -117.08864    16.453152    4.2958829    4.2958829    4.2958829    16.453152   -6560.4999   -5852.9608     12462.82    325.31379   -299.46947    2014.2408    79.278841 
    7600    169.85789   -117.24245   0.15369099   -117.08876     3660.696    4.2944177    4.2944177    4.2944177     3660.696    2736.0581    2334.8903    5911.1396   -730.80952   -1136.7753    2017.6929    79.197751 
    7700    210.75419   -117.27944   0.19069482   -117.08875   -1032.4318    4.2974939    4.2974939    4.2974939   -1032.4318    731.90055   -10155.339    6326.1434   -51.273549    3707.9207   -65.154413    79.368065 
    7800    229.92809   -117.29655   0.20804377    -117.0885   -528.18096    4.2948801    4.2948801    4.2948801   -528.18096   -2361.6222    1611.7921    -834.7128   -1084.2612   -667.04093    -1148.622    79.223339 
    7900    187.83552   -117.25931   0.16995752   -117.08935    1458.9505    4.2952424    4.2952424    4.2952424    1458.9505    6493.1082   -4536.9182    2420.6616    911.99755    2908.6019   -1308.9452     79.24339 
    8000     235.9547   -117.30258   0.21349677   -117.08908   -4517.1971    4.2983659    4.2983659    4.2983659   -4517.1971   -7919.3915   -4927.6489   -704.55086   -6.5986599   -2565.6374    2988.9187    79.416392 
    8100    97.047675   -117.17767  0.087810776   -117.08986      5203.42    4.2933082    4.2933082    4.2933082      5203.42    6503.3185     1321.993    7784.9486    799.21665    5476.7878    2023.0408    79.136382 
    8200    265.84568   -117.32939   0.24054276   -117.08885   -5724.8577    4.2961436    4.2961436    4.2961436   -5724.8577   -6654.4816   -5539.8158   -4980.2756   -175.77867   -1571.8151   -524.30837    79.293278 
    8300     181.2059   -117.25292   0.16395891   -117.08896   -1209.0792    4.2980352    4.2980352    4.2980352   -1209.0792   -2972.2534   -2414.4405    1759.4564   -528.80216    1757.6286    882.16644    79.398063 
    8400    214.87984   -117.28288   0.19442779   -117.08845   -1883.5618    4.2935783    4.2935783    4.2935783   -1883.5618    1702.9735   -5423.7907   -1929.8683    24.433632    3778.6257    -423.1604    79.151322 
    8500    199.90632   -117.26932   0.18087944   -117.08844   -405.33532    4.2963106    4.2963106    4.2963106   -405.33532   -2993.6656   -2035.6832    3813.3428   -888.65952   -1447.9236      205.631    79.302523 
    8600    159.60814    -117.2332    0.1444168   -117.08878    2940.9767    4.2963492    4.2963492    4.2963492    2940.9767    3644.5815   -6227.4132    11405.762    1103.0064    2707.5895   -748.43856    79.304662 
    8700    266.81772   -117.32956   0.24142228   -117.08813   -2399.5862    4.2940617    4.2940617    4.2940617   -2399.5862    -6025.131    2583.3612   -3756.9887    -514.6248   -3866.6997    1449.2228    79.178059 
    8800    133.18037   -117.20962    0.1205044   -117.08911    5306.2876    4.2964728    4.2964728    4.2964728    5306.2876    13810.091   -5747.9613    7856.7327    474.50135    6472.8356    2536.5638    79.311507 
    8900    258.83861   -117.32235   0.23420262   -117.08815    -2840.972    4.2954777    4.2954777    4.2954777    -2840.972   -3392.7469   -1303.6623   -3826.5068   -419.75766   -2664.9974   -1376.7974     79.25641 
    9000    148.90838   -117.22367   0.13473543   -117.08894    3541.9008    4.2944934    4.2944934    4.2944934    3541.9008    8398.8693   -1262.3826    3489.2158   -805.37389    693.55994    468.82539    79.201938 
    9100    224.41525   -117.29201   0.20305563   -117.08895   -2788.9618    4.2978481    4.2978481    4.2978481   -2788.9618     1147.774   -7285.0362   -2229.6233    556.34926   -483.33652    218.09157    79.387694 
    9200    205.64392   -117.27492   0.18607094   -117.08885   -1682.3551    4.2943289    4.2943289    4.2943289   -1682.3551   -3405.4786    218.78438   -1860.3712   -993.53837    3980.6675    1356.8755    79.192839 
    9300    165.99705   -117.23894   0.15019762   -117.08874   -64.806624    4.2948955    4.2948955    4.2948955   -64.806624    8100.4252   -2881.1512   -5413.6939    444.40478    4234.7476   -272.71059     79.22419 
    9400    252.18507   -117.31671   0.22818235   -117.08853   -6050.2985    4.2985046    4.2985046    4.2985046   -6050.2985   -6416.8979   -2739.4035   -8994.5941   -214.07532   -4544.0166   -997.64337    79.424078 
    9500    132.51674   -117.20936   0.11990393   -117.08945    4166.2701    4.2934479    4.2934479    4.2934479    4166.2701    8868.4742    -1726.061     5356.397   -988.21948    5171.8364    2271.6082    79.144106 
    9600    244.29302   -117.31002   0.22104146   -117.08898   -2540.8949    4.2953422    4.2953422    4.2953422   -2540.8949    -3264.347    732.33197   -5090.6697    1250.7974   -1020.8223     37.93077    79.248912 
    9700    189.43016   -117.26048   0.17140039   -117.08908     804.3645    4.2973883    4.2973883    4.2973883     804.3645    882.50072   -6412.2428    7942.8356   -1705.4218    3982.3623   -38.286737    79.362217 
    9800    212.83396    -117.2809   0.19257664   -117.08832     1252.794    4.2945897    4.2945897    4.2945897     1252.794    2747.1211    3288.6159    -2277.355    1169.1433   -2220.3211    18.626872    79.207271 
    9900    195.03341   -117.26503   0.17647033   -117.08856    2549.4495    4.2951035    4.2951035    4.2951035    2549.4495    10939.731   -2963.0807   -328.30189   -2088.0886    2396.9968   -142.67416    79.235698 
   10000    168.75616   -117.24138   0.15269412   -117.08868    3401.5876    4.2960646    4.2960646    4.2960646    3401.5876    5859.5955   -1193.8595     5539.027   -631.62825    1511.7968    533.05439    79.288906 
   10100    249.47552   -117.31387   0.22573069   -117.08814   -2566.9193    4.2955282    4.2955282    4.2955282   -2566.9193    -84.80798    897.32731   -8513.2773    2384.0552   -2218.5881   -1254.3405    79.259205 
   10200    186.61148   -117.25749   0.16884999   -117.08864     189.6581     4.296249     4.296249     4.296249     189.6581    4380.1167     -5906.27    2095.1276   -650.20014    2209.0989    1049.4053    79.299112 
   10300    212.81542   -117.28112   0.19255986   -117.08856   -2692.7369    4.2956515    4.2956515    4.2956515   -2692.7369   -101.47107    947.10506   -8923.8447    1754.1458   -202.24026    1858.5626    79.266031 
   10400    185.67963   -117.25656   0.16800683   -117.08855   -1813.2276     4.295567     4.295567     4.295567   -1813.2276     4832.548   -4860.8546   -5411.3761   -2843.8051    6754.5132   -728.74525    79.261354 
   10500    167.18383   -117.23985   0.15127144   -117.08858   -599.06061    4.2971381    4.2971381    4.2971381   -599.06061     3953.313    2868.5097   -8619.0046   -235.75453   -4047.6836    464.46787    79.348357 
   10600    244.29311   -117.30918   0.22104154   -117.08814   -4406.2195    4.2956326    4.2956326    4.2956326   -4406.2195   -4766.1548   -2702.4082   -5750.0953   -601.87386    1176.8469   -235.31615    79.264988 
   10700     157.5803   -117.23127   0.14258197   -117.08868    2166.7925    4.2948464    4.2948464    4.2948464    2166.7925    556.28926     6498.185   -554.09664    349.91565    2489.1965    953.73398    79.221474 
   10800    251.07503   -117.31604   0.22717797   -117.08886   -3383.0654    4.2970217    4.2970217    4.2970217   -3383.0654    933.63168   -3490.3025   -7592.5254    2654.0082    279.64861   -69.452001    79.341907 
   10900    197.48693   -117.26764   0.17869033   -117.08895    1941.2053    4.2960154    4.2960154    4.2960154    1941.2053    593.66218   -1598.4741    6828.4277   -1399.1766    674.94249    120.88482    79.286177 
   11000     150.1511   -117.22486   0.13585987     -117.089    6248.2426    4.2942338    4.2942338    4.2942338    6248.2426     18206.51    4721.5102   -4183.2926   -688.44963   -863.08998    2241.7849    79.187576 
   11100    239.20778   -117.30519   0.21644023   -117.08875   -1623.2849    4.2959716    4.2959716    4.2959716   -1623.2849    -3897.266   -5668.7334    4696.1447   -3578.7454    2712.9538   -1236.4485    79.283753 
   11200    154.67921   -117.22901     0.139957   -117.08905    2648.3165    4.2971736    4.2971736    4.2971736    2648.3165    745.97562    7863.2958   -664.32181   -82.179602   -2548.7881    622.69985    79.350325 
   11300    278.62509    -117.3405   0.25210584   -117.08839    -3816.627    4.2954099    4.2954099    4.2954099    -3816.627   -1501.3982   -4745.6342   -5202.8486    1393.0934    186.05197   -2216.2294    79.252657 
   11400    135.69056     -117.212   0.12277567   -117.08922    3372.7477    4.2946863    4.2946863    4.2946863    3372.7477    3721.1082     4688.285    1708.8498    540.62469   -1567.4975    2209.1829    79.212613 
   11500    206.76274   -117.27565   0.18708327   -117.08857   -4803.9631    4.2978538    4.2978538    4.2978538   -4803.9631    3881.4182   -6960.4228   -11332.885    1376.4261    3064.0412     537.1019    79.388007 
   11600    201.71256   -117.27072   0.18251377   -117.08821   -2251.2097    4.2960434    4.2960434    4.2960434   -2251.2097   -11.259515   -587.24066   -6155.1288   -1963.4607   -2105.0793   -1248.0137     79.28773 
   11700    185.38003   -117.25576   0.16773575   -117.08802    633.51346    4.2949077    4.2949077    4.2949077    633.51346    4230.2083    3071.1335   -5400.8014   -820.57104   -3097.2654    2621.5528    79.224864 
   11800    249.01911   -117.31317   0.22531773   -117.08785   -6069.4486     4.297079     4.297079     4.297079   -6069.4486   -8846.8964   -1573.3914   -7788.0581   -886.03711    2635.9983   -2517.9991    79.345085 
   11900    142.10614   -117.21712   0.12858062   -117.08854    1753.2961     4.296037     4.296037     4.296037    1753.2961    4776.6369    6717.6609   -6234.4095    929.34194   -728.27863    1695.6849    79.287373 
   12000    246.87918   -117.31149   0.22338147   -117.08811   -519.99267    4.2955014    4.2955014    4.2955014   -519.99267    4373.4457   -4229.6255   -1703.7982    2870.4041   -249.51412   -2550.9242    79.257724 
   12100     155.7641   -117.22989   0.14093863   -117.08896    4797.8757    4.2956613    4.2956613    4.2956613    4797.8757    8443.6913     6719.971   -770.03522   -200.04228   -924.85621    1336.5148    79.266577 
   12200    215.30259   -117.28375    0.1948103   -117.08894   -1780.6577    4.2948975    4.2948975    4.2948975   -1780.6577    2670.8455   -5214.4132   -2798.4054   -290.98725    3079.2209    1321.9763    79.224298 
   12300    217.11529   -117.28555   0.19645048    -117.0891    -1849.971    4.2974502    4.2974502    4.2974502    -1849.971   -7671.6698    1239.8982    881.85863   -2367.5552   -548.10133   -1156.2211    79.365647 
   12400    207.21532   -117.27611   0.18749277   -117.08862    2073.1851     4.295669     4.295669     4.295669    2073.1851    4072.3484    1722.9913    424.21565    272.63683   -1215.9339    848.68351    79.266999 
   12500    192.48701   -117.26281   0.17416629   -117.08864    1127.5874    4.2936882    4.2936882    4.2936882    1127.5874     2592.439    619.02539    171.29798    1567.9182   -391.74715    -3640.177    79.157396 
   12600    153.45801   -117.22792   0.13885203   -117.08906   -509.53189    4.2980335    4.2980335    4.2980335   -509.53189    1868.9835   -795.05765   -2602.5215     176.6768    2737.7468    2234.2863     79.39797 
   12700    208.71973    -117.2774     0.188854   -117.08855   -1082.2318    4.2959931    4.2959931    4.2959931   -1082.2318    7806.2676   -3207.6189   -7845.3441    1743.9957   -628.19413   -2465.4216    79.284944 
   12800    240.11357   -117.30575    0.2172598   -117.08849   -611.49352    4.2933407    4.2933407    4.2933407   -611.49352   -3334.1067    3238.0268   -1738.4006   -2426.7914   -3876.3353     1077.779    79.138183 
   12900    199.36024   -117.26956   0.18038534   -117.08917   -2741.1253    4.2979976    4.2979976    4.2979976   -2741.1253    4166.6566   -5049.3418   -7340.6907   -92.314346    1414.2778    396.13218    79.395979 
   13000      191.802   -117.26253   0.17354648   -117.08898   -1972.2644    4.2958288    4.2958288    4.2958288   -1972.2644   -423.55256    2771.1201   -8264.3609   -1184.1736    2245.6211   -1599.6707    79.275846 
   13100    184.95439   -117.25636   0.16735061   -117.08901    2619.2978    4.2943504    4.2943504    4.2943504    2619.2978    11187.363      71.0704   -3400.5404    1349.7054    1304.3987    642.52979    79.194031 
   13200    191.17253   -117.26172   0.17297692   -117.08874     1357.737    4.2965471    4.2965471    4.2965471     1357.737    6814.7569    1375.9759   -4117.5219    1614.8303   -2170.2445   -3358.9438    79.315623 
   13300    225.09134   -117.29235   0.20366737   -117.08869   -4008.1019    4.2953027    4.2953027    4.2953027   -4008.1019   -6294.1343    1243.7448   -6973.9162   -1371.0546     4070.452    2430.8443    79.246727 
   13400    169.90529   -117.24288   0.15373388   -117.08914    31.742731    4.2958178    4.2958178    4.2958178    31.742731    5214.0734   -1666.1647   -3452.6805    776.78438    1845.6946   -1640.8376    79.275237 
   13500    251.58933   -117.31581   0.22764332   -117.08817   -1578.3401     4.296565     4.296565     4.296565   -1578.3401   -2265.8618   -949.48901   -1519.6694   -594.08527    619.02202    393.62995    79.316611 
   13600    180.21376   -117.25199    0.1630612   -117.08893    3202.3314     4.293334     4.293334     4.293334    3202.3314    12366.878   -247.23511   -2512.6489    1033.6323    79.669025    112.35085    79.137812 
   13700    168.94796   -117.24246   0.15286766   -117.08959    241.34784    4.2970861    4.2970861    4.2970861    241.34784    5660.5236   -2948.0791    -1988.401   -149.41107    2533.3349   -1339.2958    79.345475 
   13800    217.60804   -117.28582   0.19689632   -117.08892   -757.89487    4.2963656    4.2963656    4.2963656   -757.89487    2320.6349   -1613.1489   -2981.1706   -608.51032     2232.573    782.14628    79.305569 
   13900    206.58802    -117.2752   0.18692518   -117.08827    3553.3199    4.2927252    4.2927252    4.2927252    3553.3199    8379.4908    1111.7859    1168.6831    1006.8397   -3223.6949    -4315.085     79.10415 
   14000    239.36192   -117.30466    0.2165797   -117.08808   -2862.8169    4.2974883    4.2974883    4.2974883   -2862.8169    2533.6209   -4693.2413   -6428.8304   -472.01873    1872.0637    1525.7082    79.367759 
   14100     140.1002   -117.21544   0.12676561   -117.08867    1055.6405    4.2963156    4.2963156    4.2963156    1055.6405     10553.81   -1580.1635   -5806.7255     -655.381    1499.4198   -754.04413    79.302801 
   14200    216.58973   -117.28418   0.19597494   -117.08821   -652.21034    4.2934448    4.2934448    4.2934448   -652.21034    2617.8458    1193.3222   -5767.7991    102.58685    3482.3375    98.323198    79.143939 
   14300    245.17841   -117.30993   0.22184258   -117.08809   -2651.0881    4.2971504    4.2971504    4.2971504   -2651.0881    1227.6076   -4276.4418   -4904.4301   -453.77767   -1528.4621   -266.72742    79.349037 
   14400    152.33882   -117.22692   0.13783936   -117.08909    527.45592    4.2957072    4.2957072    4.2957072    527.45592    856.55853    3127.8192     -2402.01    276.69109     1991.579   -2094.5972    79.269118 
   14500    225.14691   -117.29275   0.20371766   -117.08904   -4302.3925    4.2951038    4.2951038    4.2951038   -4302.3925   -4126.9262   -2329.3565   -6450.8948    -1013.488    3743.5857     786.5474    79.235719 
   14600    142.58527   -117.21845   0.12901415   -117.08944    4623.9881    4.2962246    4.2962246    4.2962246    4623.9881    14931.186   -1695.8857    636.66365    665.59364    -1528.439   -2414.5998    79.297763 
   14700    259.70143   -117.32383   0.23498331   -117.08884   -1673.7188    4.2951793    4.2951793    4.2951793   -1673.7188   -708.40994   -403.68672   -3909.0597   -346.37483    1428.8493    1178.7393    79.239896 
   14800    196.38713   -117.26697   0.17769521   -117.08927   -1060.0293    4.2960972    4.2960972    4.2960972   -1060.0293    5361.1505   -4241.3877   -4299.8506     236.5681    1835.4718   -306.77221    79.290708 
   14900     166.9958   -117.24033    0.1511013   -117.08923     1934.399    4.2958801    4.2958801    4.2958801     1934.399    4878.7847   -320.78471    1245.1971   -560.38371    3735.4379     3.711326    79.278686 
   15000    265.47048   -117.32873   0.24020327   -117.08852   -867.15757    4.2944094    4.2944094    4.2944094   -867.15757    2194.8303    -3246.769   -1549.5341   -1145.4739   -3038.9631   -738.20988    79.197291 
   15100    124.87488   -117.20209   0.11298941    -117.0891    5492.9595    4.2961068    4.2961068    4.2961068    5492.9595    17020.442   -481.52159   -60.042228    147.29707    60.265614   -2150.2593    79.291242 
   15200    234.26495    -117.3007   0.21196785   -117.08873   -4896.3769    4.2960138    4.2960138    4.2960138   -4896.3769   -5029.6318   -4634.7221   -5024.7768   -2655.6012    1475.5918    1013.5582    79.286093 
   15300    164.87116   -117.23799   0.14917889   -117.08881    853.77517    4.2945694    4.2945694    4.2945694    853.77517    6178.9648     1063.818   -4681.4573    1119.8196    2906.9642   -2826.9735    79.206144 
   15400    259.91566   -117.32315   0.23517715   -117.08797   -4541.9942    4.2969476    4.2969476    4.2969476   -4541.9942   -3515.6665   -3154.0368   -6956.2793     -451.037   -409.52508    346.54997    79.337804 
   15500    202.12206   -117.27128   0.18288428    -117.0884   -2206.1398    4.2956474    4.2956474    4.2956474   -2206.1398    1115.6016    -2445.503   -5288.5179   -117.00915   -697.20429   -202.22547    79.265803 
   15600    125.95978   -117.20284   0.11397105   -117.08887    2393.6324    4.2949584    4.2949584    4.2949584    2393.6324    8514.3173    3053.2928   -4386.7129   -736.88887    3596.2758    215.67461    79.227668 
   15700     258.1461   -117.32191   0.23357602   -117.08833    -4014.179    4.2963659    4.2963659    4.2963659    -4014.179    19.051648   -4561.8515   -7499.7371   -1082.9748   -1820.9964   -522.69808    79.305588 
   15800     150.2586   -117.22474   0.13595714   -117.08878    4539.8178    4.2955989    4.2955989    4.2955989    4539.8178    6111.8992    4165.9336    3341.6206     518.2611   -723.80552    -2357.243    79.263123 
   15900    256.37736   -117.32078   0.23197562    -117.0888   -3516.9059    4.2958422    4.2958422    4.2958422   -3516.9059   -469.96748   -1036.7242   -9044.0259    423.54097     2433.589    20.658642    79.276591 
   16000    180.30599   -117.25285   0.16314465    -117.0897    871.39769    4.2955721    4.2955721    4.2955721    871.39769    5330.6459   -2678.3993   -38.053534    796.91274    3631.4025   -875.07402    79.261637 
   16100    180.39367   -117.25287   0.16322398   -117.08964    2648.9442    4.2957576    4.2957576    4.2957576    2648.9442    9771.6549     2129.503   -3954.3254    327.86397    -687.0222    1050.5479    79.271909 
   16200    260.76856     -117.325   0.23594887   -117.08906   -3060.4566    4.2961103    4.2961103    4.2961103   -3060.4566    2006.1338   -7555.7099   -3631.7938   -364.10837   -2381.0393   -747.11622    79.291433 
   16300    124.41938   -117.20227   0.11257727   -117.08969    3232.5058    4.2944501    4.2944501    4.2944501    3232.5058    4032.9983    2590.8016    3073.7176   -1931.8071    1302.0679    166.40463    79.199547 
   16400    252.43308   -117.31704   0.22840676   -117.08864    -6474.585    4.2969871    4.2969871    4.2969871    -6474.585   -6516.7826   -3483.6695    -9423.303    493.29486    2848.8888   -1437.9395    79.339993 
   16500    162.25602   -117.23507   0.14681266   -117.08826    2117.0617    4.2959952    4.2959952    4.2959952    2117.0617    5259.0362   -461.79799    1553.9469   -228.25741    -638.5819   -1993.6978    79.285058 
   16600    227.51246   -117.29361   0.20585806   -117.08775   -1900.1643    4.2943999    4.2943999    4.2943999   -1900.1643    3567.6939   -1527.6622   -7740.5245    2202.9019   -302.92147    101.51893    79.196769 
   16700    165.14313    -117.2379   0.14942497   -117.08848   -1033.7179    4.2966577    4.2966577    4.2966577   -1033.7179    4819.8035   -4174.4356   -3746.5215    -749.1798    2667.8838   -656.88837    79.321747 
   16800    189.97187   -117.26003   0.17189054   -117.08814     -785.429    4.2962777    4.2962777    4.2962777     -785.429    6852.1417    26.555526   -9234.9843    376.10305   -86.273918    1006.7351    79.300703 
   16900    278.37902   -117.33954   0.25188319   -117.08766     -2572.18    4.2945698    4.2945698    4.2945698     -2572.18   -3593.0075   -4846.0817    722.54915    411.46572   -1603.4565   -932.09704    79.206165 
   17000    135.91793     -117.212    0.1229814   -117.08902    4859.0721    4.2961175    4.2961175    4.2961175    4859.0721    13486.826    2979.3485   -1888.9582    -620.4629    649.74411    826.96784    79.291832 
   17100    228.14639   -117.29542   0.20643165   -117.08899   -2621.2042    4.2956345    4.2956345    4.2956345   -2621.2042     3401.628   -4318.3648   -6946.8756    1435.2678     4320.036   -1364.2627    79.265093 
   17200    150.26755   -117.22551   0.13596523   -117.08954    3991.2743    4.2956549    4.2956549    4.2956549    3991.2743    5156.9204    2702.7196    4114.1827     -179.216    1225.4231   -1115.2754    79.266223 
   17300    237.86106    -117.3042   0.21522168   -117.08898   -222.05678    4.2954111    4.2954111    4.2954111   -222.05678    9795.0162   -2791.0256   -7670.1609    3072.4711   -1365.3561   -563.03648    79.252725 
   17400    203.56313   -117.27373    0.1841882   -117.08954   -1337.6827    4.2946293    4.2946293    4.2946293   -1337.6827   -4917.3749   -1782.0675    2686.3942   -2551.9501    7.5495971    -290.1534    79.209461 
   17500    189.88963   -117.26135   0.17181613   -117.08954   -3072.0925    4.2972012    4.2972012    4.2972012   -3072.0925    2086.7975   -2968.3586   -8334.7165     1554.694    3753.3888    1597.6244    79.351854 
   17600    201.41717   -117.27126   0.18224649   -117.08901    80.268707    4.2957215    4.2957215    4.2957215    80.268707    8471.2537   -3930.3899   -4300.0577   -217.82675   -1061.4077   -2111.0873    79.269907 
   17700    197.06314     -117.267   0.17830687    -117.0887     2079.063    4.2931879    4.2931879    4.2931879     2079.063    3909.9458   -59.329582    2386.5727     2345.865   -162.85686    850.55999    79.129731 
   17800     191.5821   -117.26207   0.17334751   -117.08873    -3123.786    4.2977575    4.2977575    4.2977575    -3123.786    6300.7767   -4978.4279   -10693.707    1366.4776    1253.9453   -1637.7447    79.382673 
   17900    184.29464   -117.25508   0.16675367   -117.08833   -1330.9983    4.2960189    4.2960189    4.2960189   -1330.9983   -1410.1285     569.3621   -3152.2285   -1290.4947     2013.203    -284.2851    79.286372 
   18000    235.88352   -117.30108   0.21343236   -117.08764    184.12219     4.293492     4.293492     4.293492    184.12219    7282.7354   -3151.4734   -3578.8955    4647.3482   -494.91596   -304.14412    79.146548 
   18100    188.12279   -117.25825   0.17021745   -117.08803    908.69579    4.2966266    4.2966266    4.2966266    908.69579    4734.0988   -1913.4216   -94.589752   -1785.4834    -1387.674   -265.11334    79.320024 
   18200     203.2193   -117.27195   0.18387709   -117.08807   -2505.8129    4.2961278    4.2961278    4.2961278   -2505.8129    3778.8504   -3461.7952    -7834.494    2264.0269    3224.6266    2545.1822      79.2924 
   18300    175.19864   -117.24696   0.15852341   -117.08844    2300.0396    4.2948944    4.2948944    4.2948944    2300.0396    1929.4492    1650.0473    3320.6223    156.27169     1663.279   -1865.1666    79.224127 
   18400    235.23708   -117.30123   0.21284745   -117.08839    651.04836    4.2952901    4.2952901    4.2952901    651.04836    214.27473    2936.0815   -1197.2111    1344.8228   -122.01856    888.37323    79.246028 
   18500    204.84626   -117.27456    0.1853492   -117.08921    395.38332    4.2948386    4.2948386    4.2948386    395.38332    3243.6148     1849.751   -3907.2158    128.12843   -777.77271   -1590.7138     79.22104 
   18600    166.85663   -117.24075   0.15097538   -117.08977    148.05979    4.2967809    4.2967809    4.2967809    148.05979   -1423.6876    1234.9701    632.89686   -1851.2698    3402.1009    975.87582    79.328568 
   18700    234.53499   -117.30145   0.21221219   -117.08923   -2065.8457      4.29512      4.29512      4.29512   -2065.8457    6233.9398     -3025.62   -9405.8568    1911.4755    590.88747   -475.88678    79.236613 
   18800    169.32394   -117.24294   0.15320786   -117.08974    3367.4474     4.293659     4.293659     4.293659    3367.4474    4710.3027    939.80086    4452.2386    2443.6588   -1044.1433   -797.91888    79.155785 
   18900    252.99136   -117.31792    0.2289119     -117.089    -6743.911    4.2983111    4.2983111    4.2983111    -6743.911   -5820.2004   -4235.3338   -10176.199    1337.4263    642.08528    1703.8986    79.413354 
   19000    149.49545   -117.22465   0.13526662   -117.08938   -174.64694    4.2952547    4.2952547    4.2952547   -174.64694    3539.7806    1703.6812   -5767.4026    -1824.775    3565.7826   -971.26576    79.244067 
   19100    202.00167   -117.27155   0.18277536   -117.08877    275.83658    4.2937724    4.2937724    4.2937724    275.83658   -745.36131    4374.7251   -2801.8541    628.42891    613.41032    1560.1848    79.162057 
   19200     224.8373   -117.29151   0.20343751   -117.08807   -1462.6384     4.297226     4.297226     4.297226   -1462.6384    6038.5455   -6146.0326   -4280.4281   -20.413678   -1565.0901   -1662.0447    79.353223 
   19300    168.24719   -117.24058   0.15223359   -117.08835    442.60081    4.2955241    4.2955241    4.2955241    442.60081    646.79291    4159.7239   -3478.7144    1537.2086     2654.128    1476.2748    79.258983 
   19400    254.11845   -117.31796   0.22993171   -117.08803   -3249.0813    4.2950733    4.2950733    4.2950733   -3249.0813   -3512.5828    -2321.751   -3912.9102     19.54633    1749.9457     285.1165     79.23403 
   19500     140.2818   -117.21583   0.12692992    -117.0889     6323.796    4.2959269    4.2959269    4.2959269     6323.796    7376.8173    8165.5711    3428.9997    2048.2643    205.70118     121.9622    79.281277 
   19600    267.35469   -117.32997   0.24190814   -117.08806   -2122.6258    4.2946526    4.2946526    4.2946526   -2122.6258   -3391.7627    2894.5835   -5870.6984   -1646.2123   -1734.4038     1222.859    79.210749 
   19700    121.83957   -117.19957     0.110243   -117.08933    4099.2517    4.2963423    4.2963423    4.2963423    4099.2517    9476.9042    1216.1268    1604.7241    191.16628    2160.8924   -242.94287    79.304278 
   19800    245.16714   -117.31083   0.22183238     -117.089   -2961.8404    4.2957204    4.2957204    4.2957204   -2961.8404   -4085.0769    1514.4613   -6314.9056   -1498.5957    2386.0834     872.9251    79.269844 
   19900    206.51981   -117.27588   0.18686346   -117.08902     294.0541    4.2938281    4.2938281    4.2938281     294.0541    4905.4714    -2769.361   -1253.9481    3834.3613   -443.41318   -780.77163    79.165138 
   20000    186.09739    -117.2575   0.16838483   -117.08912   -2402.6335    4.2978438    4.2978438    4.2978438   -2402.6335   -5811.1665    2803.1624   -4199.8964     1840.462   -10.711428   -637.32116    79.387457 
   20100    229.87315   -117.29681   0.20799405   -117.08881    -5712.469    4.2964412    4.2964412    4.2964412    -5712.469   -3951.5494   -2954.4929   -10231.365   -1587.6599    2460.1344   -152.29738    79.309755 
   20200    105.57601   -117.18482  0.095527388   -117.08929    5931.4134    4.2928088    4.2928088    4.2928088    5931.4134    7028.2433    12725.218   -1959.2207    1828.6394    1245.1846    612.07962    79.108769 
   20300    300.89372   -117.36063   0.27225496   -117.08837   -7962.7286    4.2977912    4.2977912    4.2977912   -7962.7286   -4489.1516   -9686.9483   -9712.0858   -2144.9642   -869.06893    248.42799     79.38454 
   20400    130.29269   -117.20743   0.11789156   -117.08954    2216.9771    4.2954588    4.2954588    4.2954588    2216.9771    3855.7842    4548.7707   -1753.6236    3383.2413    3572.2359    437.87216    79.255363 
   20500    251.00898   -117.31629    0.2271182   -117.08917   -2549.3416    4.2944573    4.2944573    4.2944573   -2549.3416   -4449.7851    3321.2953    -6519.535    -2334.709    2332.1239   -622.34401    79.199942 
   20600     169.2874   -117.24228    0.1531748    -117.0891    4469.5546     4.296385     4.296385     4.296385    4469.5546    9588.7233    596.44751    3223.4929    3208.8209    575.67791   -1035.1977    79.306645 
   20700    189.70229   -117.25994   0.17164662   -117.08829    2837.3524    4.2946957    4.2946957    4.2946957    2837.3524   -1312.4136    10304.156   -479.68474   -434.67862   -1933.1474   -1135.5305    79.213132 
   20800    233.86175   -117.30023   0.21160303   -117.08862   -2162.2444    4.2959119    4.2959119    4.2959119   -2162.2444    1861.8673   -4694.6982   -3653.9024   -121.85376    2303.8323    1344.5244    79.280447 
   20900    147.18945   -117.22239   0.13318011   -117.08921    4069.2096    4.2959047    4.2959047    4.2959047    4069.2096     1877.051    6383.2258    3947.3521    173.97728    1687.3715    856.67531    79.280052 
   21000    278.24877   -117.34075   0.25176534   -117.08899   -4102.0574     4.293925     4.293925     4.293925   -4102.0574   -4742.1833   -1759.9155   -5804.0733    615.57667    339.65702    884.96111    79.170495 
   21100     170.6811   -117.24415   0.15443585   -117.08971   -341.18784    4.2968022    4.2968022    4.2968022   -341.18784    -2854.079   -313.37459    2143.8901    2952.1222   -834.66308   -939.45669    79.329748 
   21200    182.36562   -117.25442   0.16500824   -117.08942   -1940.1946    4.2971995    4.2971995    4.2971995   -1940.1946   -4294.4463     7220.853   -8746.9905   -2625.5701    1743.2812   -1530.1259    79.351755 
   21300    181.93237   -117.25352   0.16461623   -117.08891     866.6972    4.2928518    4.2928518    4.2928518     866.6972    1049.9524    1589.4423   -39.303088    2311.5181    1199.5247   -29.305601    79.111146 
   21400    197.28771   -117.26698   0.17851006   -117.08847   -985.61848    4.2968503    4.2968503    4.2968503   -985.61848   -1280.5735    3642.2127   -5318.4946    413.84574   -2114.8819   -883.73902    79.332414 
   21500    250.17565   -117.31456   0.22636419   -117.08819   -4988.9845    4.2973491    4.2973491    4.2973491   -4988.9845   -3940.2685   -3089.1094   -7937.5757    1164.6577    2398.5052    1735.8224    79.360043 
   21600    159.06553   -117.23261   0.14392584   -117.08869    3395.2853    4.2932477    4.2932477    4.2932477    3395.2853    3038.0584    10386.926   -3239.1285   -1142.3713    1545.1772   -307.98271    79.133039 
   21700    222.15015   -117.28946   0.20100613   -117.08846    187.03088    4.2961551    4.2961551    4.2961551    187.03088    2441.3951    5769.3296   -7649.6321   -1014.5387    1760.8867   -41.334023    79.293917 
   21800    184.61184   -117.25546   0.16704067   -117.08842     2836.977    4.2961017    4.2961017    4.2961017     2836.977    841.25344    3285.9195    4383.7581    1885.0197   -2773.6146   -2186.7107    79.290955 
   21900     191.2403   -117.26153   0.17303824   -117.08849    1905.1488    4.2944851    4.2944851    4.2944851    1905.1488    3175.2763    8229.2849   -5689.1146    735.43709    1196.6439   -799.15177    79.201481 
   22000    226.14901   -117.29315   0.20462438   -117.08853   -1668.8651    4.2964409    4.2964409    4.2964409   -1668.8651   -1447.4366   -7080.6457     3521.487    808.27915    1421.4072    932.24896    79.309742 
   22100    169.65999    -117.2427   0.15351193   -117.08919    2585.0187    4.2944493    4.2944493    4.2944493    2585.0187   -2755.0706    11406.025   -895.89858    1959.3455     -1088.67    1251.1051    79.199502 
   22200    253.72635   -117.31865   0.22957693   -117.08907   -3967.9443     4.296175     4.296175     4.296175   -3967.9443   -6146.2265   -1065.6549   -4691.9514   -99.391406    947.09959    1219.8799    79.295018 
   22300     138.7505   -117.21528   0.12554437   -117.08973    2213.4726    4.2969111    4.2969111    4.2969111    2213.4726   -2409.7374    9291.0166   -240.86148   -679.80406   -620.29227   -1242.7758    79.335783 
   22400    224.03285   -117.29137   0.20270963   -117.08866   -1945.4284    4.2942333    4.2942333    4.2942333   -1945.4284   -2478.4415    4657.0824   -8014.9262   -1031.8022    2953.3551    543.09321    79.187549 
   22500    195.06599   -117.26486   0.17649981   -117.08836    -16.73933    4.2958034    4.2958034    4.2958034    -16.73933   -800.47812     616.1673    134.09283    2205.6739   -3321.7394   -1889.7449    79.274441 
   22600    206.05783   -117.27472   0.18644546   -117.08827   -1879.0897    4.2982528    4.2982528    4.2982528   -1879.0897   -4128.7354    4724.3438   -6232.8774     2359.606   -254.59703    730.28548    79.410124 
   22700    207.08806   -117.27566   0.18737763   -117.08828   -327.47641    4.2938627    4.2938627    4.2938627   -327.47641   -2576.7108    4554.2975    -2960.016   -1950.6986    2401.2621    475.05174    79.167052 
   22800    152.10765   -117.22633    0.1376302    -117.0887    3424.5297    4.2950701    4.2950701    4.2950701    3424.5297    1796.8208     13165.76    -4688.992    115.99583     1098.716    1256.9334     79.23385 
   22900    255.38739   -117.31958   0.23107987    -117.0885   -4045.7489    4.2977358    4.2977358    4.2977358   -4045.7489   -2867.6711   -2663.3871   -6606.1884   -1589.5098    130.35468    404.92228    79.381474 
   23000    199.23909    -117.2691   0.18027571   -117.08883    527.18788    4.2945149    4.2945149    4.2945149    527.18788    1540.9647    1786.7703   -1746.1714    1523.1559   -1770.7757    -1806.973    79.203129 
   23100    181.03859   -117.25354   0.16380752   -117.08973    1617.1118     4.294733     4.294733     4.294733    1617.1118   -45.427623    10184.178   -5287.4152    -1370.449     3589.865   -176.28482    79.215198 
   23200    212.65335    -117.2822   0.19241322   -117.08979   -1062.9955    4.2962734    4.2962734    4.2962734   -1062.9955   -5520.7091   -2310.0048    4641.7273     2395.315   -2004.5436    475.54842    79.300465 
   23300     176.9756   -117.24938   0.16013124   -117.08925    1963.5731    4.2952069    4.2952069    4.2952069    1963.5731   -3867.4631    12899.138   -3140.9554    593.81435    145.68237    666.35593    79.241425 
   23400    217.40492    -117.2852   0.19671254   -117.08849   -1147.9059    4.2960347    4.2960347    4.2960347   -1147.9059   -6700.7021    1785.6518    1471.3328   -707.27179    454.23088    418.16555     79.28725 
   23500    198.40725   -117.26749   0.17952304   -117.08797   -842.81335    4.2953553    4.2953553    4.2953553   -842.81335   -7195.2027    4919.2218   -252.45918     -1514.52    1410.5357   -94.364595    79.249635 
   23600    195.66048   -117.26519   0.17703771   -117.08815   -1167.3037    4.2951027    4.2951027    4.2951027   -1167.3037   -4181.2654    5788.8758   -5109.5215   -873.93988    648.74127    163.32644    79.235654 
   23700    222.65782    -117.2899   0.20146547   -117.08844   -2749.8876     4.296958     4.296958     4.296958   -2749.8876   -5381.5209   -3441.5752    573.43317    3803.1637   -3203.4461   -320.00092    79.338377 
   23800    150.03127   -117.22446   0.13575145   -117.08871    2368.8036    4.2950658    4.2950658    4.2950658    2368.8036   -3326.1663    13523.885   -3091.3081    -1910.083    2653.1417   -725.89589    79.233611 
   23900     219.8942    -117.2872   0.19896489   -117.08824   -2570.7414    4.2944394    4.2944394    4.2944394   -2570.7414   -2415.1499   -2031.2682    -3265.806    557.08119   -53.814621    962.31915    79.198954 
   24000    201.53369   -117.27057   0.18235192   -117.08822   -1483.4957    4.2972175    4.2972175    4.2972175   -1483.4957   -3521.4791    4706.3304   -5635.3383   -1026.9729    4.4147199    28.569078    79.352755 
   24100     224.8339   -117.29242   0.20343444   -117.08899   -844.00435    4.2961248    4.2961248    4.2961248   -844.00435   -1847.2186    1811.7086    -2496.503    850.28999    336.40269     308.0426    79.292234 
   24200    216.80797   -117.28631   0.19617241   -117.09014    467.53972    4.2929429    4.2929429    4.2929429    467.53972   -734.56246    7912.8445   -5775.6629   -1149.6997    2072.5361   -1074.6111    79.116186 
   24300    148.15796   -117.22471   0.13405644   -117.09066    2802.5295    4.2963142    4.2963142    4.2963142    2802.5295   -2277.5561    10320.354     364.7902    333.69327     1266.395    2021.3096    79.302726 
   24400     224.2952    -117.2922   0.20294701   -117.08926   -1341.0158    4.2967571    4.2967571    4.2967571   -1341.0158   -4628.8206   -792.93093    1398.7041    1932.4189   -3196.8901   -1734.0834    79.327253 
   24500    217.70951    -117.2856   0.19698814   -117.08861    648.84433    4.2936234    4.2936234    4.2936234    648.84433   -3802.5258    5946.9848   -197.92606    1592.1022    1859.6276    878.08394    79.153813 
   24600    156.22973   -117.23012   0.14135994   -117.08876    908.85014    4.2960879    4.2960879    4.2960879    908.85014   -6261.1301    5586.0979    3401.5826   -657.29211     629.6358    -943.6277    79.290192 
   24700    256.96185   -117.32069   0.23250448   -117.08818   -6660.6604    4.2966671    4.2966671    4.2966671   -6660.6604    -10482.62   -2099.8306   -7399.5303   -241.82968    1549.1414    642.62959    79.322266 
   24800    148.78028   -117.22347   0.13461952   -117.08886    2762.6022    4.2944995    4.2944995    4.2944995    2762.6022   -3172.1162    10498.729    961.19408    2783.3367   -1804.3501    2233.8961    79.202279 
   24900    262.42237   -117.32552   0.23744528   -117.08807   -5033.2114     4.296747     4.296747     4.296747   -5033.2114   -9926.1279    -4812.046   -361.46036    66.067588      569.069   -997.71855    79.326694 
   25000    123.24298   -117.20048   0.11151284   -117.08896    3018.2509    4.2944597    4.2944597    4.2944597    3018.2509   -3300.9167    14677.434   -2321.7645    1621.5104    2493.6129    2647.3122    79.200077 
   25100    234.77031   -117.30137   0.21242511   -117.08895   -2611.3243    4.2954829    4.2954829    4.2954829   -2611.3243   -4037.2317   -4385.1147    588.37361    216.65618   -2708.9356    -2590.192    79.256698 
   25200    218.20495   -117.28728   0.19743642   -117.08984   -561.54701    4.2972155    4.2972155    4.2972155   -561.54701   -4994.9536    7841.1708   -4530.8583    635.48184    603.19729    823.49793    79.352641 
   25300    156.69195   -117.23214   0.14177817   -117.09036    3939.3811    4.2930041    4.2930041    4.2930041    3939.3811    2705.1742    10051.407   -938.43811    -1476.192    544.29934   -863.33053     79.11957 
   25400    255.00659   -117.31998   0.23073532   -117.08924   -5077.9223    4.2962902    4.2962902    4.2962902   -5077.9223   -6952.7205   -784.58698   -7496.4595   -63.395906    3120.3413     1784.361    79.301397 
   25500    156.44711   -117.23052   0.14155663   -117.08896    2283.2237    4.2977373    4.2977373    4.2977373    2283.2237    -366.0038    2296.5637    4919.1113    191.41313   -1878.7406     414.1716    79.381555 
   25600    238.94221   -117.30426   0.21619993   -117.08806    353.72892    4.2929772    4.2929772    4.2929772    353.72892   -3275.5182    2255.7468    2080.9582    2483.8795   -626.96097   -1768.2615    79.118083 
   25700    178.40544   -117.25035   0.16142499   -117.08892    1190.0035    4.2958175    4.2958175    4.2958175    1190.0035   -2217.2877    2484.7947    3302.5034   -1458.9194    1959.7494   -457.08956    79.275224 
   25800    153.20079   -117.22819   0.13861929   -117.08957  -0.38584359     4.297008     4.297008     4.297008  -0.38584359    -7806.676    6462.0476    1343.4708     716.3672    -943.7265   -162.49139    79.341148 
   25900    288.44501   -117.34958   0.26099111   -117.08859   -5290.9117    4.2942357    4.2942357    4.2942357   -5290.9117   -5130.5978   -4870.6598   -5871.4774    1370.5539    982.11089    1815.6716     79.18768 
   26000     131.9019   -117.20887   0.11934761   -117.08953    4485.4714    4.2962058    4.2962058    4.2962058    4485.4714   -4337.4397    12873.254    4920.6004   -726.19784   -1853.7019    770.76276    79.296723 
   26100    283.12556    -117.3453   0.25617796   -117.08912    -7695.308    4.2957881    4.2957881    4.2957881    -7695.308   -11346.361   -7103.3822   -4636.1807    148.29514    4514.5123    933.47748    79.273594 
   26200    100.26615   -117.18135  0.090722915   -117.09062    3767.8231    4.2951141    4.2951141    4.2951141    3767.8231   -3272.5137    10540.057    4035.9259   -1570.2447   -1087.2369   -1548.6764    79.236288 
   26300    253.68807   -117.31893   0.22954229   -117.08939   -3397.8235    4.2970206    4.2970206    4.2970206   -3397.8235   -6132.7868   -1992.5168   -2068.1668    1883.2753   -1985.2485    -1987.113    79.341849 
   26400    178.49414   -117.25069   0.16150525   -117.08918    1569.1042    4.2939625    4.2939625    4.2939625    1569.1042    550.30334     6610.447   -2453.4376   -3204.3404    2348.2994    830.95333    79.172569 
   26500    171.09851   -117.24352   0.15481353    -117.0887   -739.60183    4.2955346    4.2955346    4.2955346   -739.60183   -1928.9701    4698.9938   -4988.8293    26.939735    177.37499     172.6242    79.259559 
   26600    263.75988   -117.32681   0.23865548   -117.08816    -4993.999    4.2977855    4.2977855    4.2977855    -4993.999   -5386.2741   -4574.9015   -5020.8214   -1339.9923    2242.0569    960.07444    79.384227 
   26700    159.90005   -117.23371   0.14468092   -117.08903    6370.3323    4.2929687    4.2929687    4.2929687    6370.3323    4133.5163    9416.9298    5560.5508    1408.9374   -3325.1832   -67.036633    79.117609 
   26800    253.25873   -117.31836   0.22915382   -117.08921   -2511.5533    4.2956949    4.2956949    4.2956949   -2511.5533   -4468.0818    2644.6578    -5711.236   -1054.4419    3354.6338   -2150.0089    79.268434 
   26900     123.4266   -117.20161   0.11167898   -117.08993    3132.1961    4.2969825    4.2969825    4.2969825    3132.1961   -2239.3727    5100.2995    6535.6614   -799.26864   -1132.5024    453.59842    79.339735 
   27000    230.29615   -117.29733    0.2083768   -117.08895   -322.01417    4.2939962    4.2939962    4.2939962   -322.01417   -1958.0155    5270.1685   -4278.1955   -141.70551   -971.79532   -2476.3044    79.174435 
   27100    237.70596   -117.30421   0.21508135   -117.08913   -1031.1338      4.29539      4.29539      4.29539   -1031.1338   -1229.5313   -332.78638   -1531.0836   -1180.9579    94.881476    1633.8403    79.251557 
   27200    153.36045   -117.22873   0.13876376   -117.08996   -362.26369    4.2963623    4.2963623    4.2963623   -362.26369   -7016.1428    7071.4948   -1142.1431    543.86894    642.18235   -632.58709    79.305387 
   27300    243.97304    -117.3098   0.22075194   -117.08905    -6356.314    4.2954201    4.2954201    4.2954201    -6356.314   -8239.0199   -2557.4854   -8272.4369   -3175.7237    3696.4146    735.53336    79.253222 
   27400    166.97439   -117.23976   0.15108194   -117.08867    2103.9897    4.2958664    4.2958664    4.2958664    2103.9897    244.31952    5097.5964    970.05304    2649.4813    -4259.728     -1241.07     79.27793 
   27500    219.24569   -117.28624   0.19837811   -117.08786   -1521.2726    4.2955587    4.2955587    4.2955587   -1521.2726   -4744.6962    4232.0132   -4051.1348   -1513.3595    2156.7787   -1741.4092    79.260894 
   27600    180.91457   -117.25198    0.1636953   -117.08829   -1089.4251    4.2951538    4.2951538    4.2951538   -1089.4251    2093.6146   -585.65172   -4776.2381   -149.52851    587.43851    1082.5062    79.238486 
   27700    162.86746   -117.23625    0.1473659   -117.08888    1945.4845    4.2961877    4.2961877    4.2961877    1945.4845     91.83742     11713.01   -5968.3937   -301.35473   -705.14621    -1483.987    79.295721 
   27800    269.71717   -117.33259   0.24404577   -117.08855   -1633.3647    4.2949049    4.2949049    4.2949049   -1633.3647    4530.9454   -5490.5069   -3940.5327   -270.28927   -148.47287     1568.526    79.224707 
   27900    162.46807    -117.2366   0.14700452   -117.08959    2967.4735    4.2944426    4.2944426    4.2944426    2967.4735   -57.648817    14275.851   -5315.7817    70.883981    -204.2369    -1914.162    79.199126 
   28000     236.9053   -117.30435   0.21435689   -117.08999   -4250.9228    4.2967553    4.2967553    4.2967553   -4250.9228   -3677.9496   -1620.6814   -7454.1373   -527.56905    4122.6296    1356.5825    79.327153 
   28100     164.6136    -117.2394   0.14894584   -117.09045    2381.6199     4.295195     4.295195     4.295195    2381.6199    2787.6331    2733.4966    1623.7299   -514.32018   -3251.0785   -3481.2751    79.240765 
   28200    221.49695    -117.2902    0.2004151   -117.08979   -21.321243    4.2946546    4.2946546    4.2946546   -21.321243    1429.1746    4891.0037    -6384.142    749.79299    203.14666    144.04129    79.210862 
   28300    174.49881   -117.24746   0.15789019   -117.08957    261.31664    4.2959553    4.2959553    4.2959553    261.31664    394.65413     605.5891   -216.29332   -258.40898   -480.42172    1240.3583    79.282854 
   28400    192.36688   -117.26279    0.1740576   -117.08873   -1606.8768    4.2962376    4.2962376    4.2962376   -1606.8768   -8212.3842    4196.4883   -804.73462   -474.47052    1433.8986   -262.09947    79.298484 
   28500    215.86866   -117.28348    0.1953225   -117.08815    118.31913    4.2943627    4.2943627    4.2943627    118.31913    597.32119    6680.0227   -6922.3865    119.75647   -199.80256     2086.716     79.19471 
   28600    231.76262   -117.29793   0.20970369   -117.08823   -279.84633    4.2955151    4.2955151    4.2955151   -279.84633   -1946.7921   -1577.2831    2684.5362   -10.265972   -1855.4711   -2215.7587    79.258484 
   28700    166.03746   -117.23949   0.15023419   -117.08926    1144.4707    4.2962282    4.2962282    4.2962282    1144.4707   -1007.6056    13492.961    -9051.943    979.02925    3650.8884    1457.2642    79.297964 
   28800    211.99568   -117.28131   0.19181815   -117.08949   -1104.3114     4.294397     4.294397     4.294397   -1104.3114    4500.1711   -4458.5158   -3354.5895   -337.89943   -2340.6866   -1383.6612    79.196604 
   28900    168.61796   -117.24223   0.15256907   -117.08966    2756.9596    4.2955067    4.2955067    4.2955067    2756.9596     714.7056    10804.475   -3248.3015    1539.4637    41.576432   -503.55721    79.258018 
   29000    229.67843   -117.29728   0.20781787   -117.08947   -2058.6571    4.2958491    4.2958491    4.2958491   -2058.6571    1454.8983   -2389.0786    -5241.791   -838.07016   -1296.4447    512.56839    79.276969 
   29100    191.11871   -117.26305   0.17292823   -117.09012   -1300.5054    4.2944254    4.2944254    4.2944254   -1300.5054   -6343.2322    8137.4498   -5695.7338    259.97356    2808.6716    721.79391    79.198178 
   29200    194.35202   -117.26567   0.17585379   -117.08982   -1281.1583    4.2968533    4.2968533    4.2968533   -1281.1583   -1511.9103     3360.209   -5691.7737   -2064.6173    1464.9819    -221.6467    79.332578 
   29300    227.38525   -117.29445   0.20574295   -117.08871   -952.82075    4.2950785    4.2950785    4.2950785   -952.82075   -4475.3933    798.64174    818.28933    2627.1936   -2778.5774   -2222.2015    79.234318 
   29400    199.77808   -117.26911   0.18076341   -117.08835     739.8825    4.2945649    4.2945649    4.2945649     739.8825    1567.1899     7380.845   -6728.3874   -246.86063    2756.4589    915.61108    79.205896 
   29500    146.13605   -117.22125   0.13222697   -117.08902     1576.964    4.2971231    4.2971231    4.2971231     1576.964   -5945.0722    5563.4273    5112.5371    1253.6584   -346.78267    498.96161    79.347527 
   29600    251.64443   -117.31643   0.22769317   -117.08874   -2500.5202    4.2944158    4.2944158    4.2944158   -2500.5202   -5102.9063   -1217.9735    -1180.681   -872.77997    436.36403    616.76854    79.197649 
   29700    152.33569   -117.22794   0.13783654    -117.0901      5333.23    4.2941176    4.2941176    4.2941176      5333.23    1897.6204    12708.398    1393.6719   -417.55717   -2217.0264   -578.81687    79.181151 
   29800    279.05818   -117.34214   0.25249771   -117.08964   -5810.9009    4.2973364    4.2973364    4.2973364   -5810.9009   -11663.375    -7764.205    1994.8774    154.68133    2009.4388   -472.36316    79.359342 
   29900     131.9075   -117.20964   0.11935268   -117.09029    2792.7607    4.2940551    4.2940551    4.2940551    2792.7607    1396.3312    13432.024   -6450.0729   -2784.3177    1905.9943   -68.886837     79.17769 
   30000    229.68098   -117.29719   0.20782018   -117.08937   -1246.8554    4.2952106    4.2952106    4.2952106   -1246.8554   -1031.8584   -4709.3568    2000.6489    2114.2822   -1642.4982   -2024.2778    79.241626 
   30100    199.72675   -117.26993   0.18071696   -117.08921    742.52382    4.2962716    4.2962716    4.2962716    742.52382    186.84259    7956.6316   -5915.9027   -1166.1935    689.27273    1187.2262    79.300363 
   30200    161.69934   -117.23569   0.14630896   -117.08938     1039.772    4.2945338    4.2945338    4.2945338     1039.772   -329.72754    5368.6278   -1919.5841     1101.334   -272.95363   -221.05172    79.204174 
   30300     238.9356   -117.30492   0.21619395   -117.08873   -4511.2367    4.2963881    4.2963881    4.2963881   -4511.2367   -7634.7796    1327.2166   -7226.1471    -3105.561    3333.4781    474.79128    79.306815 
   30400    171.87581   -117.24394   0.15551684   -117.08842    2322.2135    4.2955332    4.2955332    4.2955332    2322.2135    479.49367    7273.4307   -786.28389    770.65826   -2481.1755   -500.95451    79.259485 
   30500    246.43839   -117.31086   0.22298263   -117.08788   -2796.2557    4.2942692    4.2942692    4.2942692   -2796.2557   -7113.9321    2605.6498   -3880.4848   -243.11312    1836.5463   -2053.5432    79.189537 
   30600    185.80993   -117.25706   0.16812473   -117.08894   -1544.7541    4.2967266    4.2967266    4.2967266   -1544.7541   -3858.4461    5519.7237     -6295.54   -220.32408    2591.6469    1290.0207    79.325564 
   30700    150.86665   -117.22653   0.13650732   -117.09003    2648.3844    4.2948782    4.2948782    4.2948782    2648.3844   -7699.7461    5442.8928    10202.007   -1087.3894   -1041.7216   -2106.5673    79.223231 
   30800    274.72194   -117.33775   0.24857418   -117.08917   -2543.3748    4.2941159    4.2941159    4.2941159   -2543.3748     -848.389   -2718.5416   -4063.1939   -1911.3064   -137.47824    1338.6586    79.181057 
   30900    129.78087   -117.20743   0.11742846   -117.09001    4104.4125    4.2965357    4.2965357    4.2965357    4104.4125   -7418.9305    10711.757    9020.4107    708.27473   -289.72966   -760.12318     79.31499 
   31000    254.76492   -117.31977   0.23051665   -117.08926   -4869.7107    4.2953215    4.2953215    4.2953215   -4869.7107   -9244.8843    -4166.571   -1197.6769    -3699.227    2960.0609    950.04278    79.247764 
   31100    159.05705   -117.23371   0.14391816   -117.08979    3907.3375    4.2941292    4.2941292    4.2941292    3907.3375   -412.45818    12322.064   -187.59338    877.23049   -1633.0206   -1459.1709     79.18179 
   31200    230.70983   -117.29768    0.2087511   -117.08893   -54.384689    4.2962066    4.2962066    4.2962066   -54.384689   -5381.9544    1459.0707    3759.7297    774.51062   -30.678158   -772.43606    79.296766 
   31300    209.13234   -117.27782   0.18922733   -117.08859   -1935.1722    4.2952927    4.2952927    4.2952927   -1935.1722   -354.21886    2096.0032    -7547.301   -54.110737    651.01163    627.11477    79.246173 
   31400     123.2191   -117.20044   0.11149123   -117.08895     2383.413    4.2950733    4.2950733    4.2950733     2383.413   -5396.3293    11725.883    820.68529    -996.8524    1994.5296   -1250.2023    79.234028 
   31500    280.73298   -117.34182    0.2540131   -117.08781   -5055.7239    4.2964069    4.2964069    4.2964069   -5055.7239   -447.42171   -6507.5797   -8212.1705   -1149.0238    -75.85092   -189.64539    79.307858 
   31600    156.11935    -117.2303   0.14126007   -117.08904    2603.0038    4.2942377    4.2942377    4.2942377    2603.0038   -5486.7113    13075.522    220.20115    221.80889   -1195.9316   -2050.3962    79.187792 
   31700    220.51216   -117.28938   0.19952404   -117.08985   -4751.3857    4.2957599    4.2957599    4.2957599   -4751.3857   -5445.4102    149.86747   -8958.6142    846.89166    4737.8534    829.22932    79.272034 
   31800    183.45715   -117.25614   0.16599589   -117.09015   -598.22432    4.2961373    4.2961373    4.2961373   -598.22432   -6998.8163    303.64099    4900.5024   -1204.7323   -1134.4394   -1769.2352    79.292929 
   31900     201.0736   -117.27129   0.18193562   -117.08935    3104.4957    4.2937423    4.2937423    4.2937423    3104.4957   -3685.8777    7512.8392    5486.5257    1908.6086   -163.53022   -748.01044    79.160393 
   32000    223.46481   -117.29095   0.20219565   -117.08876   -182.31636    4.2955481    4.2955481    4.2955481   -182.31636   -3040.1177       1196.4    1296.7686   -639.29904   -383.83359   -315.23853    79.260311 
   32100     150.4406   -117.22513   0.13612181   -117.08901    1630.0597    4.2967292    4.2967292    4.2967292    1630.0597    -11167.63    7441.9269    8615.8823   -144.61764    1766.0065    226.74052    79.325707 
   32200    228.79791   -117.29552   0.20702115   -117.08849   -283.85164    4.2939701    4.2939701    4.2939701   -283.85164   -1397.0459    2833.9887   -2288.4977   -624.37647    1542.3405    965.73299    79.172989 
   32300      219.227   -117.28657   0.19836119    -117.0882    719.89699    4.2956029    4.2956029    4.2956029    719.89699   -8350.0824    2875.0541    7634.7193    1011.1742   -1822.2673   -815.43939    79.263343 
   32400    192.53405   -117.26268   0.17420885   -117.08847   -1942.8608    4.2966419    4.2966419    4.2966419   -1942.8608   -3835.4876    2454.4735   -4447.5684    1741.3796    2448.6952   -2051.7535    79.320871 
   32500    204.32963   -117.27337   0.18488174   -117.08849   -3790.7332    4.2947563    4.2947563    4.2947563   -3790.7332   -8771.9446   -766.66761   -1833.5873   -1883.1725     269.2278     112.3754    79.216489 
   32600    149.01034   -117.22404   0.13482768   -117.08921    2601.2203    4.2953705    4.2953705    4.2953705    2601.2203   -289.07847    11719.936   -3627.1967    171.00067    586.56346   -2574.7251    79.250479 
   32700    249.40234   -117.31509   0.22566448   -117.08943   -3271.6121    4.2959194    4.2959194    4.2959194   -3271.6121   -2391.9771   -4934.7589   -2488.1003   -2350.7729   -1205.8472    1101.7296    79.280863 
   32800      170.555   -117.24461   0.15432175   -117.09029   -268.62547    4.2944982    4.2944982    4.2944982   -268.62547   -6039.3601    10150.075   -4916.5915    2292.9369    2822.7468   -926.46115    79.202208 
   32900    194.50636   -117.26582   0.17599344   -117.08983   -1255.7796    4.2966485    4.2966485    4.2966485   -1255.7796   -2361.5475   -3484.3608    2078.5694    -2224.351    2405.4952    795.17333    79.321236 
   33000    225.13509    -117.2923   0.20370696   -117.08859    1669.7842    4.2944031    4.2944031    4.2944031    1669.7842   -8856.5321     8727.536    5138.3486    1964.8129   -2509.5028   -1199.9487    79.196944 
   33100    206.90284    -117.2756   0.18721004   -117.08839    2393.0744    4.2946209    4.2946209    4.2946209    2393.0744   -56.463613    4566.2137    2669.4731   -383.80047    1406.0352   -2185.7952    79.208997 
   33200    197.17588   -117.26714   0.17840888   -117.08873   -1706.0851    4.2974432    4.2974432    4.2974432   -1706.0851   -12539.608    2799.9368    4621.4161   -1287.1122    314.53448    1240.5242    79.365258 
   33300    160.68803   -117.23436   0.14539391   -117.08897    2238.3262    4.2942032    4.2942032    4.2942032    2238.3262   -1633.2366    6445.6973     1902.518   -509.34056    1998.9011   -608.33652    79.185884 
   33400    234.44334    -117.3004   0.21212926   -117.08827    -1121.456    4.2950182    4.2950182    4.2950182    -1121.456   -5563.3448    -3036.753      5235.73   -3348.6201   -1090.9852    3173.7352    79.230981 
   33500    217.99862   -117.28547   0.19724973   -117.08822   -3316.8533    4.2974544    4.2974544    4.2974544   -3316.8533   -6636.3179    472.01879   -3786.2609     2741.126    1366.7953    -2668.163    79.365881 
   33600    130.55206   -117.20752   0.11812625   -117.08939    483.02572    4.2943632    4.2943632    4.2943632    483.02572   -6997.8872    7434.1478    1012.8166   -1995.3664    3535.6719    942.91551    79.194739 
   33700     279.7134   -117.34259   0.25309056    -117.0895    -6134.377    4.2956215    4.2956215    4.2956215    -6134.377   -9198.4123   -2625.6051   -6579.1136    34.799267   -877.10239   -1991.2446    79.264371 
   33800    125.27654   -117.20415   0.11335284    -117.0908    6065.2102    4.2957207    4.2957207    4.2957207    6065.2102    1191.1821    11946.251    5058.1979   -1722.0825    57.337259    1848.3788    79.269864 
   33900    295.01965   -117.35645   0.26693998   -117.08951   -6225.6468    4.2946555    4.2946555    4.2946555   -6225.6468   -7687.0724   -2998.4861   -7991.3819   -533.16322    1403.8367   -361.96825    79.210906 
   34000    97.123877   -117.17794  0.087879725   -117.09006    5197.9971    4.2961933    4.2961933    4.2961933    5197.9971    1573.2505    7330.6384    6690.1026   -1053.4981    2856.2549    1357.9844    79.296028 
   34100    236.99075   -117.30261   0.21443421   -117.08817    542.06167    4.2944586    4.2944586    4.2944586    542.06167   -3469.4592     2542.403    2553.2412   -1104.5854   -303.38231    615.06877    79.200015 
   34200    239.14845   -117.30428   0.21638654    -117.0879    596.46272      4.29448      4.29448      4.29448    596.46272   -1709.7039    1693.1411    1805.9509    1217.9138    99.641336   -1036.7097    79.201196 
   34300    138.33208   -117.21413   0.12516577   -117.08896    1548.5245    4.2973649    4.2973649    4.2973649    1548.5245   -6879.7059    6993.4802    4531.7993   -1118.1176    2154.3722    791.96278    79.360921 
   34400     272.0148    -117.3344   0.24612471   -117.08828   -6894.4774    4.2946097    4.2946097    4.2946097   -6894.4774   -9395.1147   -4854.7493   -6433.5682   -126.97118    1696.7578   -444.86586    79.208373 
   34500    104.78473   -117.18398  0.094811426   -117.08917    6518.4203    4.2940066    4.2940066    4.2940066    6518.4203   -1137.3943    9737.8502    10954.805   -3399.4651    -693.6422    1769.4108    79.175009 
   34600    324.01885   -117.38125   0.29317907   -117.08807    -9175.307     4.297779     4.297779     4.297779    -9175.307   -9173.6029   -8083.2192   -10269.099    501.19277    1173.9013    302.69616    79.383863 
   34700    82.790904   -117.16546   0.07491095   -117.09055    4393.6786    4.2937968    4.2937968    4.2937968    4393.6786   -1859.4169    8716.0038     6324.449   -977.62234     3100.958   -18.463607    79.163407 
   34800    236.49293   -117.30399   0.21398377   -117.09001   -3735.7802      4.29539      4.29539      4.29539   -3735.7802   -8045.0218    1934.3254   -5096.6441   -431.61946     563.6801    -70.00832    79.251556 
   34900    214.61992    -117.2837   0.19419261   -117.08951    1054.6016    4.2960885    4.2960885    4.2960885    1054.6016   -2484.4028    974.78943     4673.418   -146.89984   -1249.8595   -207.09009    79.290224 
   35000    208.06451   -117.27727   0.18826114   -117.08901    1086.5382     4.294009     4.294009     4.294009    1086.5382   -3184.6241     6301.504    142.73467   -84.694543    1222.1777   -2438.2473     79.17514 
   35100    213.71637   -117.28207   0.19337507    -117.0887   -2127.8558    4.2967179    4.2967179    4.2967179   -2127.8558   -7035.1015   -1720.9627    2372.4967    436.17703    2553.4155     1596.355    79.325081 
   35200    132.47793   -117.20863   0.11986882   -117.08876    6045.4844      4.29445      4.29445      4.29445    6045.4844    2707.9429    8279.8929    7148.6174    -1137.098    389.27649   -2134.7946     79.19954 
[...]
   91200    194.49763   -117.26427   0.17598555   -117.08829     627.4833    4.2965495    4.2965495    4.2965495     627.4833   -6631.7748    2036.1984    6478.0263    544.46461    1060.5867    149.54343    79.315756 
   91300    210.78543   -117.27901   0.19072309   -117.08829   -2563.8757    4.2970101    4.2970101    4.2970101   -2563.8757   -10878.597    1733.7523     1453.218   -192.63042     -11.4874   -2176.6392    79.341266 
   91400      147.359   -117.22189   0.13333352   -117.08855    326.52746    4.2942841    4.2942841    4.2942841    326.52746   -3250.1108   -1653.2569    5882.9501   -831.31551   -2749.6749    896.09257     79.19036 
   91500    281.30453   -117.34224   0.25453025   -117.08771   -6756.3721     4.297368     4.297368     4.297368   -6756.3721   -9645.5509   -617.25623   -10006.309   -855.45229   -1978.3829   -4.6069542    79.361094 
   91600    162.65097   -117.23674   0.14717001   -117.08957     3488.444    4.2957433    4.2957433    4.2957433     3488.444    1179.6185   -159.94175    9445.6552     1971.001    2661.6475    1401.8219    79.271114 
   91700    223.01433   -117.29162   0.20178805   -117.08983   -1039.3913    4.2942531    4.2942531    4.2942531   -1039.3913   -8816.3121    4394.5626    1303.5755   -433.79125   -836.96512   -1579.8734    79.188647 
   91800     143.5932   -117.22014   0.12992615   -117.09021    2732.1646    4.2974048    4.2974048    4.2974048    2732.1646   -3081.4804   -772.15257    12050.127    689.75794    792.04087   -1559.5322    79.363131 
   91900    193.32739   -117.26379   0.17492669   -117.08886    2216.6533    4.2954965    4.2954965    4.2954965    2216.6533   -4686.4019    5941.6837     5394.678   -552.66881   -223.89818   -1365.4973    79.257453 
   92000    289.15743    -117.3497   0.26163572   -117.08806   -3515.3988    4.2947008    4.2947008    4.2947008   -3515.3988   -6230.6756   -4772.6245    457.10363   -416.28943   -299.06316    346.61402    79.213416 
   92100    138.17077   -117.21423   0.12501982   -117.08921    2427.6369    4.2976993    4.2976993    4.2976993    2427.6369   -2530.9904    6711.1312    3102.7698    735.02128   -1280.2333     1785.381    79.379448 
   92200    255.99624   -117.32025   0.23163077   -117.08862   -3759.2071    4.2950737    4.2950737    4.2950737   -3759.2071   -6812.7222   -4587.0872      122.188    16.056472   -1346.3117   -2378.9097     79.23405 
   92300    130.92594   -117.20805   0.11846454   -117.08959    5910.1991    4.2944702    4.2944702    4.2944702    5910.1991   -247.87775    9800.5484    8177.9267     2306.905    2122.1467    427.17016    79.200659 
   92400    219.33697   -117.28746    0.1984607     -117.089   -2621.0031    4.2979418    4.2979418    4.2979418   -2621.0031   -5605.0776   -4447.1127    2189.1809    252.09491   -14.920255   -1785.5564    79.392884 
   92500    191.46134   -117.26177   0.17323824   -117.08853   -1731.0224    4.2945626    4.2945626    4.2945626   -1731.0224   -6600.2726    2582.6722   -1175.4668   -465.78625   -1352.7463    2633.0366    79.205771 
   92600    233.29778   -117.29964   0.21109273   -117.08854   -3301.1255    4.2959707    4.2959707    4.2959707   -3301.1255   -5897.6056   -2730.1899    -1275.581   -1034.2249   -2321.0686   -697.25303    79.283705 
   92700    212.32472   -117.28143   0.19211587   -117.08931   -768.07885     4.296784     4.296784     4.296784   -768.07885   -8116.6206    355.43805     5456.946   -85.508849    164.26087    1101.9681    79.328745 
   92800    164.33406   -117.23849   0.14869291   -117.08979    2200.0623    4.2942348    4.2942348    4.2942348    2200.0623   -6250.4185    6089.7505    6760.8549    426.63866    338.23673   -1562.2025    79.187631 
   92900    190.11351   -117.26148    0.1720187   -117.08947   -659.80037    4.2964733    4.2964733    4.2964733   -659.80037    -7387.112   -2333.7606    7741.4715    71.070818   -2031.8816   -127.84032    79.311534 
   93000     222.7808   -117.29048   0.20157675   -117.08891   -1452.4389    4.2962873    4.2962873    4.2962873   -1452.4389   -4448.3562    5502.9393      -5411.9     1582.656    2142.5192   -366.05335    79.301236 
   93100    207.77205    -117.2772   0.18799652    -117.0892   -254.39295    4.2948458    4.2948458    4.2948458   -254.39295   -587.90788   -4549.6579     4374.387   -1237.2081    303.05535    2096.0295    79.221442 
   93200    223.91649   -117.29187   0.20260435   -117.08926   -3238.6172    4.2972964    4.2972964    4.2972964   -3238.6172   -10486.633    3179.2861   -2408.5043   -328.76374     -2127.88   -972.99707    79.357125 
   93300    142.28566   -117.21818   0.12874305   -117.08944    2891.2637    4.2953971    4.2953971    4.2953971    2891.2637    371.01862   -124.67653    8427.4491   -667.41493   -835.26406    378.46811    79.251948 
   93400    214.95266   -117.28305   0.19449369   -117.08855   -594.81196     4.294994     4.294994     4.294994   -594.81196   -7194.8626    4809.2227    601.20407    1018.3687    363.94879    -1543.015    79.229639 
   93500    217.04761   -117.28469   0.19638924    -117.0883   -1724.6335    4.2968607    4.2968607    4.2968607   -1724.6335   -4418.3349   -2898.3316     2142.766    1678.9338    2999.9329    1245.7258    79.332993 
   93600    189.44044    -117.2599   0.17140969   -117.08849    382.75685    4.2952739    4.2952739    4.2952739    382.75685    1209.9049    -27.15725   -34.477092   -1125.8814   -1604.4692    2669.9484    79.245131 
   93700    243.69012   -117.30878   0.22049594   -117.08828   -2087.8002    4.2955253    4.2955253    4.2955253   -2087.8002   -6804.3168   -846.47769    1387.3938    118.20334   -950.60901   -1772.6888    79.259047 
   93800    125.18322   -117.20234   0.11326841   -117.08907    5597.6926     4.295905     4.295905     4.295905    5597.6926    3139.3618   -918.38735    14572.103   -1133.2707   -398.84196    762.02379    79.280067 
   93900    234.81973   -117.30088   0.21246983   -117.08841   -2001.9605    4.2953213    4.2953213    4.2953213   -2001.9605   -8778.9712    2472.3687     300.7208   -517.41779   -624.82719    -2981.835    79.247752 
   94000    181.91121   -117.25315   0.16459709   -117.08855    371.29865    4.2956994    4.2956994    4.2956994    371.29865   -4813.7712   -1269.6815    7197.3486   -1079.2929    -801.1173    3363.5283    79.268684 
   94100    239.13737   -117.30505   0.21637651   -117.08868   -3595.0295    4.2959886    4.2959886    4.2959886   -3595.0295   -6040.0027    714.42801   -5459.5139    1181.9596    -1205.847   -2097.8204    79.284696 
   94200    209.32063    -117.2787    0.1893977    -117.0893   -2241.2694    4.2960449    4.2960449    4.2960449   -2241.2694   -5516.5916   -1082.3798   -124.83674    299.98284    2673.8802    2635.9031     79.28781 
   94300    167.97416   -117.24125   0.15198655   -117.08927    449.09018    4.2960244    4.2960244    4.2960244    449.09018   -5762.8408    1981.5315    5128.5798   -1284.8969   -2338.0631   -2257.4672    79.286675 
   94400    187.70316    -117.2589   0.16983776   -117.08906   -147.92931      4.29557      4.29557      4.29557   -147.92931   -6294.2472    1667.7703    4182.6889   -810.50153   -1194.6483   -55.088312    79.261521 
   94500    183.08175   -117.25462   0.16565622   -117.08896    868.55443    4.2956931    4.2956931    4.2956931    868.55443    759.34442    1527.9105    318.40836   -1415.3189   -433.15386   -865.26602    79.268336 
   94600    240.03271   -117.30583   0.21718664   -117.08864   -2616.0326    4.2959234    4.2959234    4.2959234   -2616.0326   -9215.0632   -2908.8553    4275.8207    1242.7543    1107.4972    205.79918    79.281087 
   94700    208.47263   -117.27762   0.18863042   -117.08899    330.25992    4.2950582    4.2950582    4.2950582    330.25992    -131.4906    974.65351    147.61686   -941.32714    715.76613    3714.1673    79.233193 
   94800    201.57365   -117.27108   0.18238807   -117.08869    1303.6472    4.2963838    4.2963838    4.2963838    1303.6472   -4159.0249   -4819.4529    12889.419    474.86328   -2106.7862    -3277.402    79.306579 
   94900    189.44085   -117.25995   0.17141007   -117.08854    1918.0988    4.2948709    4.2948709    4.2948709    1918.0988   -3995.5877    2171.0995    7578.7846   -78.477165    1853.6541    1224.8424    79.222826 
   95000    172.46596   -117.24463   0.15605083   -117.08858     1558.666    4.2951544    4.2951544    4.2951544     1558.666    2521.4179    -2847.128    5001.7082   -1307.2909   -1814.4765   -4254.8387    79.238519 
   95100    248.35689   -117.31323   0.22471853   -117.08851   -3828.8106    4.2968269    4.2968269    4.2968269   -3828.8106   -8553.1218   -631.23098   -2302.0792   -1175.6053   -96.672764     3473.906     79.33112 
   95200     184.7717   -117.25654   0.16718532   -117.08935     1067.315     4.293774     4.293774     4.293774     1067.315    821.11134     1708.789    672.04481   -653.79731    -2319.364   -2445.7963    79.162146 
   95300    187.42878    -117.2589    0.1695895   -117.08931   -1047.2208    4.2963294    4.2963294    4.2963294   -1047.2208   -5194.7479   -2198.0857    4251.1712    1119.4871    1592.1439    -255.2134    79.303564 
   95400    208.18494   -117.27717   0.18837011    -117.0888   -2387.6361    4.2970833    4.2970833    4.2970833   -2387.6361    -10662.51    4554.1818   -1054.5801   -282.71927     722.3525   -447.85765    79.345323 
   95500    180.51888   -117.25196   0.16333727   -117.08862    2104.2888    4.2934782    4.2934782    4.2934782    2104.2888   -3961.4514   -911.43462    11185.752   -46.090559   -2103.5324     -810.687    79.145786 
   95600    230.63659   -117.29746   0.20868484   -117.08877   -1964.0798    4.2969586    4.2969586    4.2969586   -1964.0798   -7368.2033    6358.1827   -4882.2189   -454.18204    -144.5289    197.76805    79.338412 
   95700    207.23985   -117.27699   0.18751497   -117.08948   -800.04904    4.2957955    4.2957955    4.2957955   -800.04904   -3156.9286   -6341.5476    7098.3291   -559.95815    1303.9456   -1656.0581    79.274004 
   95800    168.58282   -117.24271   0.15253728   -117.09017     3246.207    4.2931216    4.2931216    4.2931216     3246.207   -5770.2753    6499.1799    9009.7163   -130.45177    2338.1183     1055.757    79.126064 
   95900    210.78803   -117.28017   0.19072544   -117.08944   -605.23148     4.297744     4.297744     4.297744   -605.23148   -3582.7104   -5710.1445    7477.1604   -872.37155   -2170.9841   -2637.2356    79.381928 
   96000    197.62772   -117.26723   0.17881771   -117.08841   -721.10819    4.2950743    4.2950743    4.2950743   -721.10819   -6045.4918    137.24426    3744.9229    1317.1786    2487.9151     -396.592    79.234087 
   96100    191.58714   -117.26148   0.17335207   -117.08813   -1395.9733    4.2942599    4.2942599    4.2942599   -1395.9733   -4494.2579    2209.3609    -1903.023    -272.6185    -145.4595   -3811.7768    79.189019 
   96200     236.7894   -117.30201   0.21425203   -117.08776   -4469.5298    4.2986091    4.2986091    4.2986091   -4469.5298   -5205.7603   -9727.2714    1524.4423   -804.77207    1170.3371    2039.4539    79.429872 
   96300    168.92785   -117.24119   0.15284947   -117.08834    2283.1424    4.2938373    4.2938373    4.2938373    2283.1424   -4634.7475    7059.6364    4424.5383   -344.91992   -568.22388   -2564.2645    79.165646 
   96400    224.54668   -117.29141   0.20317455   -117.08823   -2190.7311    4.2944251    4.2944251    4.2944251   -2190.7311   -262.49377    -9996.921    3687.2214   -483.37229    691.98341   -2595.4673    79.198159 
   96500    125.20931   -117.20235   0.11329202   -117.08906    2871.9867    4.2983032    4.2983032    4.2983032    2871.9867   -5924.4382    4973.4516    9566.9466    809.42157    3191.5314   -1297.4037    79.412916 
   96600    280.69698   -117.34241   0.25398052   -117.08843   -2740.1215    4.2934254    4.2934254    4.2934254   -2740.1215   -6141.4628   -1562.0352   -516.86655   -778.62564   -2381.3268    -489.2119    79.142863 
   96700    159.49099   -117.23395    0.1443108   -117.08964    4322.2922    4.2954317    4.2954317    4.2954317    4322.2922   -5361.8906    4606.9578     13721.81    953.01973    1425.1736    617.19634    79.253866 
   96800     203.8719   -117.27446   0.18446758   -117.08999   -1712.1975    4.2974235    4.2974235    4.2974235   -1712.1975   -9369.1888   -1397.3172    5629.9135    68.301907    79.110061   -196.60802    79.364165 
   96900    237.68981   -117.30465   0.21506673   -117.08959   -3501.5585    4.2935526    4.2935526    4.2935526   -3501.5585   -9455.0036   -4441.2439    3391.5721   -1471.7188     4340.306   -785.34978    79.149897 
   97000      156.302   -117.23121   0.14142533   -117.08978    2025.6007     4.296316     4.296316     4.296316    2025.6007   -5284.7256     4305.994    7055.5337   -133.84172   -453.64729    -2845.058    79.302824 
   97100    263.78325   -117.32834   0.23867663   -117.08966   -5714.3873    4.2964079    4.2964079    4.2964079   -5714.3873   -6694.3753   -5429.7345   -5019.0521      76.6812   -432.65613    391.02902    79.307915 
   97200    129.03439   -117.20776   0.11675302     -117.091    2169.0238    4.2941333    4.2941333    4.2941333    2169.0238   -1079.6106    6607.6123    979.06979    2104.4253    1582.0946   -1280.9003    79.182019 
   97300    180.85469   -117.25447   0.16364112   -117.09083   -329.94319    4.2976086    4.2976086    4.2976086   -329.94319   -9057.4049    -3400.695     11468.27   -460.55609   -1393.9327    2591.9703    79.374422 
   97400    231.00166    -117.2985   0.20901516   -117.08948    82.138567    4.2944078    4.2944078    4.2944078    82.138567   -859.20006    62.707054    1042.9087    188.39434    1071.0536   -3140.5635    79.197204 
   97500    206.24858   -117.27541   0.18661805    -117.0888    1029.5222    4.2950116    4.2950116    4.2950116    1029.5222   -6416.4013   -2149.2893    11654.257   -220.87444   -451.91749   -1038.2825    79.230617 
   97600     232.3236    -117.2987   0.21021128   -117.08849   -2335.5769    4.2977572    4.2977572    4.2977572   -2335.5769   -6466.1121   -3217.6387    2677.0201    -932.6606    3564.6152   -2209.3641    79.382658 
   97700    168.95931   -117.24162   0.15287793   -117.08874    4560.4327    4.2938308    4.2938308    4.2938308    4560.4327   -714.07981    4910.9892    9484.3889     66.94936   -1846.6676    749.73431    79.165287 
   97800     212.7438   -117.28079   0.19249506   -117.08829    1599.4388    4.2954167    4.2954167    4.2954167    1599.4388   -6820.3878   -1375.9558     12994.66   -1159.8081   -1139.5844    1116.7452    79.253038 
   97900    176.34712   -117.24821   0.15956258   -117.08864    68.703395    4.2971215    4.2971215    4.2971215    68.703395   -1128.8072     3129.857   -1794.9396    1811.1278   -1043.5777    -1088.716    79.347438 
   98000    173.04059   -117.24512   0.15657076   -117.08855   -1459.5991    4.2942834    4.2942834    4.2942834   -1459.5991   -8653.9214   -3314.2087    7589.3329   -1368.3041    3205.0799    543.71592     79.19032 
   98100    261.52104   -117.32482   0.23662973    -117.0882   -6047.2735    4.2962527    4.2962527    4.2962527   -6047.2735   -9103.5061   -2255.0403   -6783.2741   -1160.8332    614.00356   -1634.6201    79.299316 
   98200    168.61704   -117.24243   0.15256824   -117.08986    2225.4568    4.2953377    4.2953377    4.2953377    2225.4568   -8857.9926    834.40075    14699.962   -219.87799   -1678.8288    390.32876    79.248665 
   98300    244.83708   -117.31163   0.22153373    -117.0901   -4084.0868    4.2956603    4.2956603    4.2956603   -4084.0868   -9482.1469   -2896.8868    126.77346   -1320.1791    1130.3225    399.95444    79.266517 
   98400    119.38865    -117.1985   0.10802536   -117.09048    3712.3084    4.2958566    4.2958566    4.2958566    3712.3084   -8533.1046    4328.5329    15341.497    1173.7966   -1437.6072    421.15346    79.277389 
   98500    256.69184   -117.32112   0.23226017   -117.08886   -946.74124    4.2948937    4.2948937    4.2948937   -946.74124   -1531.9402    -1965.499    657.21546   -779.78524   -755.73989    947.26393    79.224088 
   98600    186.69662   -117.25777   0.16892703   -117.08885    4070.3688    4.2955499    4.2955499    4.2955499    4070.3688     -364.715     -1134.03    13709.851     1128.196   -650.09804   -466.17715    79.260408 
   98700    211.49915   -117.28065   0.19136888   -117.08928    -1324.149    4.2957747    4.2957747    4.2957747    -1324.149   -4871.1298   -1520.1507    2418.8334   -841.87408    3608.0277   -42.244006    79.272852 
   98800    166.75578   -117.24091   0.15088413   -117.09003    298.60709    4.2947509    4.2947509    4.2947509    298.60709   -2677.9092   -1288.9746    4862.7051   -1395.3752    721.44653    1143.1113    79.216188 
   98900    232.57616    -117.2994    0.2104398   -117.08896   -2155.3464    4.2964157    4.2964157    4.2964157   -2155.3464   -9814.9061    1908.7176    1440.1494   -903.26763   -613.30395   -364.16436    79.308345 
   99000    219.96362   -117.28764   0.19902771   -117.08862   -1866.1632    4.2955837    4.2955837    4.2955837   -1866.1632   -6878.1837   -962.64489    2242.3392   -388.33618   -2977.3746    1928.1928    79.262279 
   99100    193.09222   -117.26353    0.1747139   -117.08881   -3090.7995    4.2958637    4.2958637    4.2958637   -3090.7995   -4913.8471    350.19626   -4708.7475    444.20025    2631.8646   -2042.1232    79.277781 
   99200    147.69148   -117.22348   0.13363436   -117.08985    1168.8813    4.2956961    4.2956961    4.2956961    1168.8813   -6796.6237   -5647.6313    15950.899    -1798.113    2044.3919    1240.7315      79.2685 
   99300    228.40456   -117.29656   0.20666525   -117.08989    1414.5671    4.2944748    4.2944748    4.2944748    1414.5671    -433.3694    1661.1787    3015.8921   -95.916748    207.70713   -40.984018    79.200909 
   99400     217.8526   -117.28688   0.19711761   -117.08976   -570.68072    4.2970649    4.2970649    4.2970649   -570.68072   -7092.4009    -1658.174    7038.5327    -1178.682    -156.2335    492.72548      79.3443 
   99500    152.45579   -117.22782    0.1379452   -117.08987    344.62547    4.2950957    4.2950957    4.2950957    344.62547   -7864.5768    2744.6712     6153.782   -1763.7947   -145.80751   -1997.1722    79.235266 
   99600      196.673   -117.26734   0.17795386   -117.08939   -369.89206     4.294804     4.294804     4.294804   -369.89206    -8658.482    5225.4548     2323.351   -246.29121    1753.9422   -2259.7374    79.219126 
   99700    262.56811   -117.32621   0.23757714   -117.08863   -2752.3377    4.2975232    4.2975232    4.2975232   -2752.3377   -8086.0279   -7105.4275    6934.4424   -224.09199   -1790.6642     380.2157    79.369689 
   99800    169.59293   -117.24362   0.15345125   -117.09017     905.1916    4.2939173    4.2939173    4.2939173     905.1916   -4628.1702    2994.5467    4349.1983    1144.0154    3225.8765    769.07836    79.170071 
   99900    228.62296   -117.29692   0.20686286   -117.09006   -5620.4153    4.2960592    4.2960592    4.2960592   -5620.4153   -4813.9321   -5977.0838   -6070.2301   -974.09727    2096.1855    300.47061    79.288606 
  100000    134.02283   -117.21137   0.12126667    -117.0901    4710.3088    4.2968063    4.2968063    4.2968063    4710.3088   -1223.8495    2457.7064    12897.069    -1285.144    303.37165   -273.05879    79.329978 
Loop time of 22.6544 on 1 procs for 100000 steps with 8 atoms

Pair  time (%) = 7.27932 (32.132)
Kspce time (%) = 5.42208 (23.9338)
Neigh time (%) = 0 (0)
Comm  time (%) = 1.09515 (4.83414)
Outpt time (%) = 0.0385437 (0.170137)
Other time (%) = 8.81936 (38.9299)

Nlocal:    8 ave 8 max 8 min
Histogram: 1 0 0 0 0 0 0 0 0 0
Nghost:    2189 ave 2189 max 2189 min
Histogram: 1 0 0 0 0 0 0 0 0 0
Neighs:    2344 ave 2344 max 2344 min
Histogram: 1 0 0 0 0 0 0 0 0 0

Total # of neighbors = 2344
Ave neighs/atom = 293
Neighbor list builds = 0
Dangerous builds = 0
seeds:8129881
