# ['Ni']

18 atoms
1 atom types

    0.0000     2.3341 xlo xhi
    0.0000     4.0428 ylo yhi
    0.0000    34.2986 zlo zhi

    0.0000     0.0000    -0.0004 xy xz yz

Atoms

1 1     0.0000     0.0000     0.0000
2 1     1.1670     0.6738     1.9055
3 1     0.0000     1.3476     3.8109
4 1     1.1670     2.0214     0.0000
5 1     0.0000     2.6952     1.9055
6 1     1.1670     3.3690     3.8109
7 1     0.0000     0.0000     5.7164
8 1     1.1670     0.6738     7.6219
9 1     0.0000     1.3476     9.5274
10 1     1.1670     2.0214     5.7164
11 1     0.0000     2.6952     7.6219
12 1     1.1670     3.3690     9.5274
13 1     0.0000     0.0000    11.4328
14 1     1.1670     0.6738    13.3383
15 1     0.0000     1.3476    15.2438
16 1     1.1670     2.0214    11.4328
17 1     0.0000     2.6952    13.3383
18 1     1.1670     3.3690    15.2438
