# ['Ni']

20 atoms
1 atom types

    0.0000     3.4981 xlo xhi
    0.0000     3.4981 ylo yhi
    0.0000    34.9806 zlo zhi

    0.0000    -0.0000     0.0000 xy xz yz

Atoms

1 1     0.0000     0.0000     0.0000
2 1     1.7490     1.7490     0.0000
3 1     1.7490     0.0000     1.7490
4 1     0.0000     1.7490     1.7490
5 1     0.0000     0.0000     3.4981
6 1     1.7490     1.7490     3.4981
7 1     1.7490     0.0000     5.2471
8 1     0.0000     1.7490     5.2471
9 1     0.0000     0.0000     6.9961
10 1     1.7490     1.7490     6.9961
11 1     1.7490     0.0000     8.7451
12 1     0.0000     1.7490     8.7451
13 1     0.0000     0.0000    10.4942
14 1     1.7490     1.7490    10.4942
15 1     1.7490     0.0000    12.2432
16 1     0.0000     1.7490    12.2432
17 1     0.0000     0.0000    13.9922
18 1     1.7490     1.7490    13.9922
19 1     1.7490     0.0000    15.7413
20 1     0.0000     1.7490    15.7413
