# ['Ni']

28 atoms
1 atom types

    0.0000     2.4909 xlo xhi
    0.0000     4.3143 ylo yhi
    0.0000    28.4730 zlo zhi

    0.0000     0.0000     0.0000 xy xz yz

Atoms

1 1     0.0000     0.0000     0.0000
2 1     1.2454     2.1572     0.0000
3 1     1.2454     0.7191     2.0338
4 1     0.0000     2.8762     2.0338
5 1     0.0000     1.4381     4.0676
6 1     1.2454     3.5953     4.0676
7 1     0.0000     0.0000     6.1014
8 1     1.2454     2.1572     6.1014
9 1     1.2454     0.7191     8.1351
10 1     0.0000     2.8762     8.1351
11 1     0.0000     1.4381    10.1689
12 1     1.2454     3.5953    10.1689
13 1     0.0000     0.0000    12.2027
14 1     1.2454     2.1572    12.2027
15 1     0.0000     1.4381    14.2365
16 1     1.2454     3.5953    14.2365
17 1     0.0000     0.0000    16.2703
18 1     1.2454     2.1572    16.2703
19 1     1.2454     0.7191    18.3040
20 1     0.0000     2.8762    18.3040
21 1     0.0000     1.4381    20.3378
22 1     1.2454     3.5953    20.3378
23 1     0.0000     0.0000    22.3716
24 1     1.2454     2.1572    22.3716
25 1     1.2454     0.7191    24.4054
26 1     0.0000     2.8762    24.4054
27 1     0.0000     1.4381    26.4392
28 1     1.2454     3.5953    26.4392
