    4    4    1    2
  0.1064635E+02  0.3492102E-09  0.3492102E-09  0.3492102E-09  0.5000000E-15
  1.000000000000000E-004
  CAR 
 automatically generated by pyflamestk   
     40      4     32
 
  0.1250000E+00  0.1250000E+00  0.1250000E+00  0.1250000E+00
    1        1.121221      1.121251   1.000000   1.000000
    2        5.332247      5.332386   1.000000   1.000000
    3        5.332247      5.332386   1.000000   1.000000
    4        5.332247      5.332386   1.000000   1.000000
    5        5.901992      5.902006   1.000000   1.000000
    6        5.901992      5.902006   1.000000   1.000000
    7        5.901992      5.902006   1.000000   1.000000
    8        7.440599      7.440616   1.000000   1.000000
    9        7.724531      7.724552   1.000000   1.000000
   10        7.724531      7.724552   1.000000   1.000000
   11        8.702948      8.703149   1.000000   1.000000
   12        8.702948      8.703149   1.000000   1.000000
   13        8.724587      8.724605   1.000000   1.000000
   14        8.724587      8.724605   1.000000   1.000000
   15        8.724587      8.724605   1.000000   1.000000
   16        9.204393      9.204557   1.021542   1.021580
   17        9.204393      9.204557   1.021542   1.021580
   18        9.204393      9.204557   1.021542   1.021580
   19        9.607630      9.607686   0.200676   0.200492
   20        9.607630      9.607686   0.200676   0.200492
   21        9.607630      9.607686   0.200676   0.200492
   22       12.352705     12.352743  -0.000000  -0.000000
   23       12.352705     12.352743  -0.000000  -0.000000
   24       12.352705     12.352743  -0.000000  -0.000000
   25       20.689464     20.689523   0.000000   0.000000
   26       20.689464     20.689523   0.000000   0.000000
   27       20.689464     20.689523   0.000000   0.000000
   28       22.009227     22.009286   0.000000   0.000000
   29       22.009227     22.009286   0.000000   0.000000
   30       22.009227     22.009286   0.000000   0.000000
   31       25.661059     25.661132   0.000000   0.000000
   32       25.661059     25.661132   0.000000   0.000000
 
  0.3750000E+00  0.1250000E+00  0.1250000E+00  0.3750000E+00
    1        2.639150      2.639181   1.000000   1.000000
    2        4.784965      4.785032   1.000000   1.000000
    3        5.996544      5.996682   1.000000   1.000000
    4        5.996544      5.996682   1.000000   1.000000
    5        6.348734      6.348750   1.000000   1.000000
    6        6.359031      6.359054   1.000000   1.000000
    7        6.359031      6.359054   1.000000   1.000000
    8        6.999322      6.999338   1.000000   1.000000
    9        7.399390      7.399411   1.000000   1.000000
   10        7.399390      7.399411   1.000000   1.000000
   11        7.810667      7.810766   1.000000   1.000000
   12        7.879857      7.879951   1.000000   1.000000
   13        8.032369      8.032413   1.000000   1.000000
   14        8.550774      8.550894   1.000000   1.000000
   15        8.618298      8.618380   1.000000   1.000000
   16        8.751959      8.752146   1.000000   1.000000
   17        8.751959      8.752146   1.000000   1.000000
   18        9.010820      9.010998   1.000729   1.000732
   19        9.401546      9.401685   0.940127   0.939847
   20        9.521359      9.521383   0.540800   0.540698
   21        9.521359      9.521383   0.540800   0.540698
   22        9.621493      9.621552   0.157156   0.156980
   23       14.674710     14.674750  -0.000000  -0.000000
   24       14.674710     14.674750  -0.000000  -0.000000
   25       17.979697     17.979738   0.000000   0.000000
   26       17.979697     17.979738   0.000000   0.000000
   27       21.700615     21.700670   0.000000   0.000000
   28       21.700615     21.700670   0.000000   0.000000
   29       23.797987     23.798025   0.000000   0.000000
   30       23.980664     23.980729   0.000000   0.000000
   31       23.980664     23.980729   0.000000   0.000000
   32       26.908071     26.908098   0.000000   0.000000
 
  0.3750000E+00  0.3750000E+00  0.1250000E+00  0.3750000E+00
    1        3.909138      3.909167   1.000000   1.000000
    2        5.535774      5.535817   1.000000   1.000000
    3        5.535774      5.535817   1.000000   1.000000
    4        6.045162      6.045181   1.000000   1.000000
    5        6.638405      6.638555   1.000000   1.000000
    6        6.745938      6.745996   1.000000   1.000000
    7        6.745938      6.745996   1.000000   1.000000
    8        7.023589      7.023605   1.000000   1.000000
    9        7.208753      7.208833   1.000000   1.000000
   10        7.208753      7.208833   1.000000   1.000000
   11        7.327583      7.327597   1.000000   1.000000
   12        7.646570      7.646675   1.000000   1.000000
   13        7.982347      7.982458   1.000000   1.000000
   14        8.333759      8.333923   1.000000   1.000000
   15        8.334889      8.335027   1.000000   1.000000
   16        8.334889      8.335027   1.000000   1.000000
   17        8.640470      8.640576   1.000000   1.000000
   18        9.169972      9.170046   1.014232   1.014246
   19        9.169972      9.170046   1.014232   1.014246
   20        9.237533      9.237583   1.029078   1.029088
   21        9.582968      9.583078   0.288172   0.287757
   22       11.108648     11.108715  -0.000000  -0.000000
   23       11.108648     11.108715  -0.000000  -0.000000
   24       13.420588     13.420639  -0.000000  -0.000000
   25       16.960152     16.960192   0.000000   0.000000
   26       19.783636     19.783673   0.000000   0.000000
   27       19.783636     19.783673   0.000000   0.000000
   28       22.787782     22.787813   0.000000   0.000000
   29       22.914861     22.914910   0.000000   0.000000
   30       25.390776     25.390812   0.000000   0.000000
   31       25.390776     25.390812   0.000000   0.000000
   32       28.266095     28.266121   0.000000   0.000000
 
  0.3750000E+00  0.3750000E+00  0.3750000E+00  0.1250000E+00
    1        4.525465      4.525490   1.000000   1.000000
    2        5.280319      5.280342   1.000000   1.000000
    3        5.280319      5.280342   1.000000   1.000000
    4        5.280319      5.280342   1.000000   1.000000
    5        7.245726      7.245873   1.000000   1.000000
    6        7.245726      7.245873   1.000000   1.000000
    7        7.245726      7.245873   1.000000   1.000000
    8        7.651176      7.651290   1.000000   1.000000
    9        7.651176      7.651290   1.000000   1.000000
   10        7.808443      7.808567   1.000000   1.000000
   11        7.808443      7.808567   1.000000   1.000000
   12        7.808443      7.808567   1.000000   1.000000
   13        7.868659      7.868674   1.000000   1.000000
   14        7.898825      7.898841   1.000000   1.000000
   15        7.898825      7.898841   1.000000   1.000000
   16        7.898825      7.898841   1.000000   1.000000
   17        9.277452      9.277556   1.035188   1.035195
   18        9.277452      9.277556   1.035188   1.035195
   19        9.516053      9.516144   0.563109   0.562726
   20        9.516053      9.516144   0.563109   0.562726
   21        9.516053      9.516144   0.563109   0.562726
   22       11.123873     11.123931  -0.000000  -0.000000
   23       11.123873     11.123931  -0.000000  -0.000000
   24       11.123873     11.123931  -0.000000  -0.000000
   25       16.311279     16.311322   0.000000   0.000000
   26       16.311279     16.311322   0.000000   0.000000
   27       16.311279     16.311322   0.000000   0.000000
   28       18.746993     18.747029   0.000000   0.000000
   29       29.297599     29.297598   0.000000   0.000000
   30       29.297599     29.297598   0.000000   0.000000
   31       29.297599     29.297598   0.000000   0.000000
   32       31.674642     31.674717   0.000000   0.000000
