# ['Ni']

107 atoms
1 atom types

    0.0000    10.5480 xlo xhi
    0.0000    10.5480 ylo yhi
    0.0000    10.5480 zlo zhi

    0.0000    -0.0000    -0.0000 xy xz yz

Atoms

1 1     1.7580     1.7580     0.0000
2 1     1.7580     0.0000     1.7580
3 1     0.0000     1.7580     1.7580
4 1     0.0000     0.0000     3.5160
5 1     1.7580     1.7580     3.5160
6 1     1.7580     0.0000     5.2740
7 1     0.0000     1.7580     5.2740
8 1     0.0000     0.0000     7.0320
9 1     1.7580     1.7580     7.0320
10 1     1.7580     0.0000     8.7900
11 1     0.0000     1.7580     8.7900
12 1     0.0000     3.5160     0.0000
13 1     1.7580     5.2740     0.0000
14 1     1.7580     3.5160     1.7580
15 1     0.0000     5.2740     1.7580
16 1     0.0000     3.5160     3.5160
17 1     1.7580     5.2740     3.5160
18 1     1.7580     3.5160     5.2740
19 1     0.0000     5.2740     5.2740
20 1     0.0000     3.5160     7.0320
21 1     1.7580     5.2740     7.0320
22 1     1.7580     3.5160     8.7900
23 1     0.0000     5.2740     8.7900
24 1     0.0000     7.0320     0.0000
25 1     1.7580     8.7900     0.0000
26 1     1.7580     7.0320     1.7580
27 1     0.0000     8.7900     1.7580
28 1     0.0000     7.0320     3.5160
29 1     1.7580     8.7900     3.5160
30 1     1.7580     7.0320     5.2740
31 1     0.0000     8.7900     5.2740
32 1     0.0000     7.0320     7.0320
33 1     1.7580     8.7900     7.0320
34 1     1.7580     7.0320     8.7900
35 1     0.0000     8.7900     8.7900
36 1     3.5160     0.0000     0.0000
37 1     5.2740     1.7580     0.0000
38 1     5.2740     0.0000     1.7580
39 1     3.5160     1.7580     1.7580
40 1     3.5160     0.0000     3.5160
41 1     5.2740     1.7580     3.5160
42 1     5.2740     0.0000     5.2740
43 1     3.5160     1.7580     5.2740
44 1     3.5160     0.0000     7.0320
45 1     5.2740     1.7580     7.0320
46 1     5.2740     0.0000     8.7900
47 1     3.5160     1.7580     8.7900
48 1     3.5160     3.5160     0.0000
49 1     5.2740     5.2740     0.0000
50 1     5.2740     3.5160     1.7580
51 1     3.5160     5.2740     1.7580
52 1     3.5160     3.5160     3.5160
53 1     5.2740     5.2740     3.5160
54 1     5.2740     3.5160     5.2740
55 1     3.5160     5.2740     5.2740
56 1     3.5160     3.5160     7.0320
57 1     5.2740     5.2740     7.0320
58 1     5.2740     3.5160     8.7900
59 1     3.5160     5.2740     8.7900
60 1     3.5160     7.0320     0.0000
61 1     5.2740     8.7900     0.0000
62 1     5.2740     7.0320     1.7580
63 1     3.5160     8.7900     1.7580
64 1     3.5160     7.0320     3.5160
65 1     5.2740     8.7900     3.5160
66 1     5.2740     7.0320     5.2740
67 1     3.5160     8.7900     5.2740
68 1     3.5160     7.0320     7.0320
69 1     5.2740     8.7900     7.0320
70 1     5.2740     7.0320     8.7900
71 1     3.5160     8.7900     8.7900
72 1     7.0320     0.0000     0.0000
73 1     8.7900     1.7580     0.0000
74 1     8.7900     0.0000     1.7580
75 1     7.0320     1.7580     1.7580
76 1     7.0320     0.0000     3.5160
77 1     8.7900     1.7580     3.5160
78 1     8.7900     0.0000     5.2740
79 1     7.0320     1.7580     5.2740
80 1     7.0320     0.0000     7.0320
81 1     8.7900     1.7580     7.0320
82 1     8.7900     0.0000     8.7900
83 1     7.0320     1.7580     8.7900
84 1     7.0320     3.5160     0.0000
85 1     8.7900     5.2740     0.0000
86 1     8.7900     3.5160     1.7580
87 1     7.0320     5.2740     1.7580
88 1     7.0320     3.5160     3.5160
89 1     8.7900     5.2740     3.5160
90 1     8.7900     3.5160     5.2740
91 1     7.0320     5.2740     5.2740
92 1     7.0320     3.5160     7.0320
93 1     8.7900     5.2740     7.0320
94 1     8.7900     3.5160     8.7900
95 1     7.0320     5.2740     8.7900
96 1     7.0320     7.0320     0.0000
97 1     8.7900     8.7900     0.0000
98 1     8.7900     7.0320     1.7580
99 1     7.0320     8.7900     1.7580
100 1     7.0320     7.0320     3.5160
101 1     8.7900     8.7900     3.5160
102 1     8.7900     7.0320     5.2740
103 1     7.0320     8.7900     5.2740
104 1     7.0320     7.0320     7.0320
105 1     8.7900     8.7900     7.0320
106 1     8.7900     7.0320     8.7900
107 1     7.0320     8.7900     8.7900
