LAMMPS (10 Feb 2015)
Reading data file ...
  triclinic box = (0 0 0) to (4.2565 4.2565 4.2565) with tilt (0 0 0)
  1 by 1 by 1 MPI processor grid
  reading atoms ...
  8 atoms
4 atoms in group Mg
4 atoms in group O
Setting atom values ...
  4 settings made for charge
Setting atom values ...
  4 settings made for charge
PPPM initialization ...
  G vector (1/distance) = 0.353152
  grid = 8 8 8
  stencil order = 5
  estimated absolute RMS force accuracy = 4.10333e-05
  estimated relative force accuracy = 2.84961e-06
  using double precision FFTs
  3d grid and FFT values/proc = 3375 512
Neighbor list info ...
  1 neighbor list requests
  update every 1 steps, delay 0 steps, check yes
  master list distance cutoff = 11
Setting up minimization ...
Memory usage per processor = 4.06549 Mbytes
Step PotEng Lx Ly Lz Xy Xz Yz Press Pxx Pyy Pzz Pxy Pxz Pyz eatoms 
       0   -119.82944       4.2565       4.2565       4.2565            0            0            0   -43102.631   -43102.631   -43102.631   -43102.631 -1.1410716e-10 2.0651384e-11 1.0044018e-10   -119.82944 
       9    -119.8549     4.222448     4.222448     4.222448            0            0            0   -490.28356   -490.28356   -490.28356   -490.28356 -3.7927136e-11 -7.2182599e-11 3.2130495e-11    -119.8549 
Loop time of 0.20461 on 1 procs for 9 steps with 8 atoms

Minimization stats:
  Stopping criterion = linesearch alpha is zero
  Energy initial, next-to-last, final = 
        -119.829437963     -119.854898204     -119.854898204
  Force two-norm initial, final = 6.22404 0.0696885
  Force max component initial, final = 6.22404 0.069669
  Final line search alpha, max atom move = 1.75215e-06 1.2207e-07
  Iterations, force evaluations = 9 35

Pair  time (%) = 0.103507 (50.5876)
Kspce time (%) = 0.00484753 (2.36915)
Neigh time (%) = 0 (0)
Comm  time (%) = 0.000687838 (0.33617)
Outpt time (%) = 0 (0)
Other time (%) = 0.0955675 (46.7071)

Nlocal:    8 ave 8 max 8 min
Histogram: 1 0 0 0 0 0 0 0 0 0
Nghost:    2189 ave 2189 max 2189 min
Histogram: 1 0 0 0 0 0 0 0 0 0
Neighs:    2344 ave 2344 max 2344 min
Histogram: 1 0 0 0 0 0 0 0 0 0

Total # of neighbors = 2344
Ave neighs/atom = 293
Neighbor list builds = 0
Dangerous builds = 0
pypospack:output_section:begin
tot_energy = -119.854898204259
num_atoms = 8
xx = 4.222448
yy = 4.222448
zz = 4.222448
xy = 0
xz = 0
yz = 0
tot_press = -490.283556338482
pxx = -490.283556338668
pyy = -490.283556338614
pzz = -490.283556338163
pxy = -3.79271362347293e-11
pxz = -7.2182599384956e-11
pyz = 3.21304951944417e-11
pypospack:output_section:done
pypospack:lammps_sim:done
PPPM initialization ...
  G vector (1/distance) = 0.353501
  grid = 8 8 8
  stencil order = 5
  estimated absolute RMS force accuracy = 4.03791e-05
  estimated relative force accuracy = 2.80417e-06
  using double precision FFTs
  3d grid and FFT values/proc = 3375 512
Setting up run ...
Memory usage per processor = 3.06549 Mbytes
Step Temp PotEng KinEng TotEng Press Lx Ly Lz Press Pxx Pyy Pzz Pxy Pxz Pyz Volume 
       0         1800    -119.8549    1.6286778   -118.22622    22618.087     4.222448     4.222448     4.222448    22618.087    31714.115    6746.5849    29393.561   -1510.6824   -449.33539   -423.67666    75.282309 
     100    889.16719   -118.86077   0.80453716   -118.05624    18804.756    4.2635193    4.2635193    4.2635193    18804.756    10343.033    13975.912    32095.324    4217.1609    8310.0041   -7311.3817    77.500537 
     200    1086.4866   -118.57635   0.98307591   -117.59327   -33213.598    4.3163082    4.3163082    4.3163082   -33213.598    1272.6268   -79116.371   -21797.051    4621.8129   -11796.204   -8341.5479     80.41505 
     300    1789.0665   -118.79925     1.618785   -117.18047   -24167.176    4.3151062    4.3151062    4.3151062   -24167.176   -48240.087   -62319.006    38057.566   -3975.6578   -6136.3213   -6602.7559    80.347887 
     400    1542.6981   -118.27329    1.3958656   -116.87742    7771.4511    4.3019006    4.3019006    4.3019006    7771.4511    52729.981    -65787.88    36372.252    26510.056     3842.044    376.85551    79.612472 
     500    1212.4737   -117.80078    1.0970717   -116.70371    38954.925    4.3119741    4.3119741    4.3119741    38954.925    83801.942    2815.5359    30247.297    15312.863     -21929.8   -2293.5621    80.173054 
     600    1322.8735   -117.79983    1.1969638   -116.60287   -2542.5196    4.3337417    4.3337417    4.3337417   -2542.5196    92468.881   -80752.609   -19343.831   -9153.5978    14200.785   -13330.027     81.39338 
     700     1520.968   -117.94671    1.3762038   -116.57051    8192.1107    4.3313268    4.3313268    4.3313268    8192.1107    48823.731   -84519.273    60271.874     37940.68    4294.3959    1582.5086    81.257388 
     800    2428.0568   -118.74434    2.1969568   -116.54738   -24895.269    4.3185805    4.3185805    4.3185805   -24895.269    5567.5386    -72013.93   -8239.4145    14831.825   -3258.8856    10486.745    80.542118 
     900    2451.8477   -118.78505    2.2184833   -116.56657   -16497.459    4.3034905    4.3034905    4.3034905   -16497.459   -18621.149   -13078.028     -17793.2    8950.1788    3980.3761   -9204.5092    79.700775 
    1000    1910.8222   -118.33176    1.7289521    -116.6028    16982.757    4.3060329    4.3060329    4.3060329    16982.757    77557.883   -26770.325    160.71238   -5164.4669    3180.4997    11898.826    79.842112 
    1100    1515.6333   -118.02246    1.3713768   -116.65109    7218.4165    4.3353701    4.3353701    4.3353701    7218.4165    34049.164   -57874.989    45481.075    3151.1273   -23558.979   -8746.5545    81.485161 
    1200    2567.7424   -118.91322    2.3233473   -116.58987   -52221.411    4.3435692    4.3435692    4.3435692   -52221.411   -47686.011   -57385.956   -51592.267    2609.6033    20135.034   -8793.4001    81.948355 
    1300    1857.2897   -118.20265    1.6805148   -116.52214    35215.239    4.3145543    4.3145543    4.3145543    35215.239    52712.378   -21736.146    74669.484   -20464.356    -22110.79   -203.56641     80.31706 
    1400    1922.9479   -118.28383    1.7399237   -116.54391    19183.692    4.3108137    4.3108137    4.3108137    19183.692    12905.346     42154.03    2491.7014    9601.1682   -5799.0951   -11011.195    80.108345 
    1500    1594.1103   -118.04858    1.4423845   -116.60619    -18536.26    4.3439184    4.3439184    4.3439184    -18536.26   -63483.163    -14596.46    22470.844    633.50985   -2493.6355    24190.653    81.968121 
    1600    1965.2301   -118.33381    1.7781815   -116.55562   -33461.366    4.3360467    4.3360467    4.3360467   -33461.366    4119.8372   -73700.717   -30803.217    -5210.029    22275.471    30175.577    81.523317 
    1700    1831.2814    -118.1811    1.6569819   -116.52412    63378.391    4.3001338    4.3001338    4.3001338    63378.391    -37547.45    34015.551    193667.07   -4786.3955    2262.0573    6070.2638    79.514423 
    1800    2164.3458   -118.53223    1.9583456   -116.57388    343.79551    4.3138839    4.3138839    4.3138839    343.79551    1348.8403   -27068.457    26751.003    8665.5358    795.55968   -25946.365     80.27963 
    1900    1812.5972   -118.21118    1.6400761   -116.57111   -24623.079    4.3194188    4.3194188    4.3194188   -24623.079   -80990.646   -52826.097    59947.505    9434.6611    -26146.02   -1589.7132    80.589031 
    2000    1467.6953   -117.90391    1.3280015   -116.57591    15394.809    4.3231349    4.3231349    4.3231349    15394.809     2799.297    20681.594    22703.535   -13210.707    17049.384    1550.9046     80.79721 
    2100    1929.4258   -118.30665     1.745785   -116.56086   -41927.136    4.3429206    4.3429206    4.3429206   -41927.136   -43347.464   -40419.361   -42014.584   -2792.6767   -4074.7817    2200.4364    81.911651 
    2200    1621.2409   -117.98728    1.4669328   -116.52035    13678.519    4.3253066    4.3253066    4.3253066    13678.519   -35264.895    83076.676    -6776.224    19251.442    -17126.66   -7941.4078    80.919036 
    2300    2364.8109   -118.66392    2.1397306   -116.52419   -15434.619    4.3046976    4.3046976    4.3046976   -15434.619   -38500.465   -3605.1428   -4198.2505   -16407.775   -3202.9542   -1032.7057     79.76786 
    2400    1747.6989   -118.16994    1.5813547   -116.58859    18416.895    4.3157492    4.3157492    4.3157492    18416.895   -7149.7372    34292.618    28107.804    4755.7635    3555.6222   -8158.3508    80.383814 
    2500    1768.8896   -118.21705    1.6005285   -116.61652   -20774.102    4.3533854    4.3533854    4.3533854   -20774.102   -87624.354    63305.876   -38003.829   -4107.7405    7200.9845    11526.701    82.505203 
    2600    1518.1121   -117.92977    1.3736197   -116.55615   -27173.163    4.3460593    4.3460593    4.3460593   -27173.163   -96667.981    58981.653   -43833.161    29672.128    13725.335   -18918.625    82.089375 
    2700    1903.1755    -118.2121    1.7220332   -116.49007    44577.499    4.2937166    4.2937166    4.2937166    44577.499    7240.8172    96097.163    30394.516   -11442.797   -8340.4482     9327.812    79.158967 
    2800    2118.9246   -118.49498    1.9172475   -116.57773    20877.066    4.3089768    4.3089768    4.3089768    20877.066   -10143.079     72391.75    382.52598   -3070.5323     6795.466    13694.015    80.005982 
    2900    1431.4943   -117.90345    1.2952461    -116.6082    3397.3116    4.3533723    4.3533723    4.3533723    3397.3116   -68532.612    92938.232   -14213.686    -6239.193    8676.9608    20226.794     82.50446 
    3000    2238.1582   -118.55503    2.0251326    -116.5299   -46233.143    4.3555971    4.3555971    4.3555971   -46233.143   -44636.954   -55148.544    -38913.93   -1894.7087    -1437.452   -3272.8796    82.631019 
    3100    1089.8098   -117.48501   0.98608277   -116.49893     55483.22    4.3251863    4.3251863    4.3251863     55483.22   -48955.866    215048.93    356.59231    2458.3789   -21194.669   -6268.0415    80.912281 
    3200    2011.1888   -118.32983    1.8197659   -116.51006   -29208.542    4.3030778    4.3030778    4.3030778   -29208.542   -7836.8303   -11520.549   -68268.247   -3407.8108    41292.073   -30732.334     79.67785 
    3300    2063.1106    -118.3904    1.8667459   -116.52365    20274.601    4.2763543    4.2763543    4.2763543    20274.601   -16436.838      32271.7    44988.939    23793.562   -9572.4689    608.39311    78.202572 
    3400    1762.8499   -118.25076    1.5950637    -116.6557     19858.79    4.3213886    4.3213886    4.3213886     19858.79    613.99085    12867.639    46094.741   -4309.1969    12092.298    657.97008    80.699338 
    3500    1225.2406   -117.67422    1.1086234   -116.56559   -82027.404    4.3756105    4.3756105    4.3756105   -82027.404   -62783.579   -108595.27   -74703.364    7028.2761    18446.696    -36135.56    83.775294 
    3600    1607.6799   -118.00966    1.4546626     -116.555   -35358.657     4.299821     4.299821     4.299821   -35358.657   -43405.357    15582.822   -78253.438    3917.9257    25267.727   -22120.472    79.497069 
    3700     1538.509   -117.78729    1.3920753   -116.39522    153802.13    4.2282333    4.2282333    4.2282333    153802.13    97387.516    185834.26     178184.6   -8419.1899    30537.643    26189.265    75.592173 
    3800    1910.9966   -118.36618    1.7291098   -116.63707    27790.596    4.3053253    4.3053253    4.3053253    27790.596    13446.428    72263.762    -2338.401   -2586.9812   -11762.007    12018.812     79.80276 
    3900    1893.4907   -118.23225    1.7132702   -116.51898   -81444.286    4.3756102    4.3756102    4.3756102   -81444.286    -92013.14   -72878.348    -79441.37   -369.56716   -16138.401   -18940.279    83.775277 
    4000    1906.5355   -118.20978    1.7250734   -116.48471   -27043.378    4.3262256    4.3262256    4.3262256   -27043.378   -11703.461   -70267.803    841.12875   -11389.445    4151.5306   -15061.431    80.970626 
    4100    2266.6854   -118.43462    2.0509446   -116.38368    89921.917    4.2594485    4.2594485    4.2594485    89921.917    138294.45    47992.985    83478.318    12410.916    28719.359    17604.928    77.278752 
    4200    1131.6492   -117.60036      1.02394   -116.57642   -6891.4767    4.3046944    4.3046944    4.3046944   -6891.4767    68953.066   -74955.375   -14672.121   -15220.324   -32292.669   -85767.768    79.767681 
    4300    1885.4422   -118.22082    1.7059877   -116.51483   -50716.017    4.3405345    4.3405345    4.3405345   -50716.017    7944.1859   -83145.575   -76946.661    7205.7945    4034.5243   -24052.645    81.776713 
    4400    1510.2894   -117.83136    1.3665415   -116.46482    16721.671    4.3388159    4.3388159    4.3388159    16721.671    74546.708   -31526.417    7144.7219   -4567.9034    6852.9311    5738.8665    81.679612 
    4500    2191.2762   -118.43162    1.9827127    -116.4489   -45548.622    4.3363842    4.3363842    4.3363842   -45548.622    16091.796   -48192.655   -104545.01   -2292.1856    1383.2007   -23714.939    81.542354 
    4600    1883.0912   -118.15154    1.7038604   -116.44768     12729.07     4.304103     4.304103     4.304103     12729.07    39263.044    -1278.367    202.53143    6756.9519   -2376.7324   -17914.616     79.73481 
    4700    1742.3433   -118.08054    1.5765088   -116.50403   -20693.507    4.3005893    4.3005893    4.3005893   -20693.507   -7977.6756   -62307.663    8204.8179   -16103.708   -7964.0435    14324.058    79.539691 
    4800    1822.2817   -118.18802    1.6488388   -116.53919   -38561.308    4.3243253    4.3243253    4.3243253   -38561.308   -1429.4272   -37749.273   -76505.225    21001.353    16287.562   -38015.411    80.863973 
    4900    1798.7657   -118.13034     1.627561   -116.50277   -21366.102     4.335411     4.335411     4.335411   -21366.102   -37731.311    33638.097   -60005.092    7995.1334   -29211.682    8081.5783     81.48747 
    5000    1135.7445   -117.51317    1.0276455   -116.48553    24285.449    4.3298593    4.3298593    4.3298593    24285.449    95303.728   -10748.017   -11699.365     5459.712    975.31861    25617.683    81.174825 
    5100    2350.3097   -118.60245    2.1266096   -116.47585    3271.6447    4.3086709    4.3086709    4.3086709    3271.6447    24068.868   -21561.737    7307.8033   -4437.4909     5367.339   -12065.398    79.988944 
    5200    1287.9215   -117.68884    1.1653384    -116.5235    51896.656    4.3058621    4.3058621    4.3058621    51896.656    168327.16    44725.948   -57363.141   -25531.165   -42723.076    4457.1714    79.832615 
    5300    1535.9587   -117.94607    1.3897677   -116.55631   -9463.2662    4.3273078    4.3273078    4.3273078   -9463.2662   -34904.682    50720.868   -44205.984     -18256.3   -15228.364    16237.862    81.031402 
    5400    2158.0655   -118.45478    1.9526631   -116.50212   -6850.5718     4.320591     4.320591     4.320591   -6850.5718    11784.972   -26289.172   -6047.5148   -19690.142    14306.724   -18621.154     80.65466 
    5500    1551.4789   -117.91941    1.4038107    -116.5156   -3681.1491    4.3283332    4.3283332    4.3283332   -3681.1491   -25319.556   -3203.2669    17479.375   -11081.805   -29442.088    9365.8838    81.089024 
    5600    1570.2048   -117.92236    1.4207543   -116.50161   -23131.242    4.3358347    4.3358347    4.3358347   -23131.242    5438.8649   -1211.7509    -73620.84    25621.627    -12223.53     6780.648    81.511364 
    5700    2051.2285    -118.3428    1.8559947    -116.4868   -8813.4309    4.3175297    4.3175297    4.3175297   -8813.4309    67872.561   -64977.229   -29335.625    -1002.488   -2139.4253    1553.9411    80.483342 
    5800    1574.5784   -117.93934    1.4247116   -116.51463    58662.408    4.3037597    4.3037597    4.3037597    58662.408    103400.08    23929.403    48657.739    34516.375   -25718.543    10920.727    79.715732 
    5900    1774.7121   -118.15292    1.6057968   -116.54713    5295.8923    4.3236907    4.3236907    4.3236907    5295.8923    91936.908   -33507.849   -42541.383    19879.024   -5691.1005    14136.115    80.828375 
    6000    1306.0647   -117.68619    1.1817548   -116.50443   -43220.426    4.3472603    4.3472603    4.3472603   -43220.426   -55465.335   -41075.991   -33119.952   -18363.066   -9194.1006    51831.311    82.157444 
    6100    1881.3024   -118.13261    1.7022419   -116.43037    22881.412     4.307711     4.307711     4.307711    22881.412    16227.739    46327.254     6089.242    12338.112     9614.041   -5012.0564    79.935499 
    6200     2028.221   -118.29846     1.835177   -116.46328    5175.0502    4.2988193    4.2988193    4.2988193    5175.0502    15500.822   -59154.883    59179.211    9412.2593   -7504.2312   -7392.5919    79.441522 
    6300    1461.6315    -117.8343    1.3225149   -116.51179    -72758.66    4.3314369    4.3314369    4.3314369    -72758.66   -82000.275   -75080.086   -61195.619   -24134.622    16285.141    14059.061    81.263586 
    6400    2008.6284   -118.30478    1.8174492   -116.48733   -4250.8729    4.3031872    4.3031872    4.3031872   -4250.8729   -2531.8758    6653.6298   -16874.373   -28070.695    32185.485   -9522.6487    79.683923 
    6500    1847.9856   -118.17823    1.6720962   -116.50614    31050.304    4.2987138    4.2987138    4.2987138    31050.304    83644.639   -8034.4981    17540.772     12160.13   -15254.222    17027.294    79.435675 
    6600    2009.2375   -118.34417    1.8180003   -116.52617   -36668.519    4.3305973    4.3305973    4.3305973   -36668.519   -21181.811   -45624.542   -43199.204   -14954.356    7443.3477    618.80985    81.216335 
    6700    1391.0772   -117.76785    1.2586759   -116.50918   -1201.0077    4.3125816    4.3125816    4.3125816   -1201.0077    32370.088     -26747.3   -9225.8121   -32411.567    35651.544    -4360.537    80.206948 
    6800    1726.4683   -118.07129    1.5621448   -116.50914     14005.48    4.2891319    4.2891319    4.2891319     14005.48     21776.79    10752.725    9486.9235   -11873.608    12979.138    8164.1538    78.905667 
    6900    2265.9303   -118.58477    2.0502614   -116.53451    19114.936    4.2933348    4.2933348    4.2933348    19114.936    80609.247    9481.0304   -32745.468    15918.286    10944.794    8887.6768    79.137854 
    7000      1689.34   -118.09186    1.5285504   -116.56331   -31009.318    4.3159178    4.3159178    4.3159178   -31009.318   -16214.792   -73808.227   -3004.9349   -38977.435    16195.577    11732.212    80.393235 
    7100     1554.742   -117.93824    1.4067632   -116.53148   -32032.208    4.3216705    4.3216705    4.3216705   -32032.208   -24874.138   -28359.018   -42863.468   -32949.448   -3296.8692   -19299.703    80.715129 
    7200    1899.0219    -118.2289    1.7182749   -116.51063   -9700.4438    4.3304285    4.3304285    4.3304285   -9700.4438   -46960.419   -24279.072     42138.16   -4925.0751    -12188.43    16632.583    81.206841 
    7300    2025.8225   -118.31516    1.8330068   -116.48215   -35405.294    4.3480578    4.3480578    4.3480578   -35405.294   -86068.513   -3441.1563   -16706.212   -8090.6252    11303.707   -2887.5409    82.202673 
    7400    1810.0398   -118.08718     1.637762   -116.44942   -12426.142    4.3331141    4.3331141    4.3331141   -12426.142   -54399.395   -36398.058    53519.025   -5540.2048   -14288.278   -13954.227    81.358021 
    7500    1622.1985     -117.926    1.4677993    -116.4582    21177.235    4.3101308    4.3101308    4.3101308    21177.235   -720.58646    61168.578    3083.7148    8801.8886   -1055.3822    30391.983    80.070282 
    7600    2321.9777   -118.58859    2.1009742   -116.48761   -7391.9974    4.2983288    4.2983288    4.2983288   -7391.9974    46307.364   -46683.309   -21800.048    4603.5836    15239.504   -16366.513    79.414334 
    7700    1496.2551   -117.89455    1.3538431    -116.5407    37273.395    4.2985428    4.2985428    4.2985428    37273.395    50121.233    91253.204   -29554.252   -9303.6142     20086.05   -6095.8361    79.426196 
    7800    1678.8538   -118.08169    1.5190622   -116.56263    23986.244    4.3265536    4.3265536    4.3265536    23986.244    32417.322    2293.2268    37248.184   -18507.825    3011.9758    19349.544    80.989045 
    7900    1794.0227   -118.12911    1.6232694   -116.50584    -72320.03    4.3541661    4.3541661    4.3541661    -72320.03   -71363.786   -98978.949   -46617.356     12623.02    7775.3641   -24891.353    82.549603 
    8000    1627.6581    -117.9242    1.4727392   -116.45146    22435.686    4.3076342    4.3076342    4.3076342    22435.686    777.23423     27649.04    38880.784   -14459.208    21719.915    10741.167    79.931222 
    8100    1746.3136   -118.03907    1.5801012   -116.45897    65816.822    4.2826009    4.2826009    4.2826009    65816.822    7726.1287    125551.63    64172.708   -18384.009   -14682.388    58162.411    78.545772 
    8200    2293.0893   -118.61546    2.0748354   -116.54063   -21085.717     4.318678     4.318678     4.318678   -21085.717   -38011.186    30361.963   -55607.928    18987.646   -25916.338    -7947.417    80.547574 
    8300    1543.9242   -117.90295    1.3969751   -116.50597   -6321.3606    4.3380012    4.3380012    4.3380012   -6321.3606   -30417.176    4647.8404    6805.2533     10825.15      11407.6    -28576.78     81.63361 
    8400    1474.5925   -117.81681    1.3342423   -116.48256    26144.812    4.3079843    4.3079843    4.3079843    26144.812   -60486.111    98657.687     40262.86   -7009.7984   -11063.358   -16626.517     79.95071 
    8500    1888.4207   -118.18754    1.7086827   -116.47886    62207.072    4.2749145    4.2749145    4.2749145    62207.072    39571.633    72893.646    74155.937    16012.061   -20718.325   -2235.7565    78.123607 
    8600     2040.956   -118.40154    1.8466998   -116.55484     15371.66     4.281703     4.281703     4.281703     15371.66    -14307.39      60244.4    177.96849   -9706.7157    28692.171   -3202.3634     78.49638 
    8700    984.65032   -117.48296    0.8909323   -116.59203    3092.0624    4.3063254    4.3063254    4.3063254    3092.0624    1335.5349   -2116.2881     10056.94   -39033.058    22951.386   -16929.066    79.858388 
    8800    1952.8599     -118.311    1.7669887   -116.54401    372.95743    4.3087562    4.3087562    4.3087562    372.95743   -745.05413    39475.822   -37611.895    10430.588    4989.3867   -15107.829    79.993698 
    8900    1862.1066   -118.22337    1.6848732   -116.53849    15255.359    4.3039467    4.3039467    4.3039467    15255.359   -37373.269    117330.37   -34191.019   -10758.929    3335.6346    14548.769    79.726122 
    9000    2153.2946   -118.49187    1.9483462   -116.54353   -39330.302    4.3023856    4.3023856    4.3023856   -39330.302   -65668.333   -42082.633   -10239.939   -54586.953    4048.2287   -1876.1113    79.639401 
    9100    2130.0262   -118.45447    1.9272925   -116.52718    34210.572    4.2736528    4.2736528    4.2736528    34210.572    790.29664    65128.122    36713.297    3397.8443   -12610.804   -20235.717    78.054455 
    9200    1527.0307   -117.96917    1.3816895   -116.58748    18828.944    4.2897115    4.2897115    4.2897115    18828.944    302.46576    41850.762    14333.603    26538.274    5909.4635    20532.659    78.937659 
    9300    2115.0065   -118.47312    1.9137023   -116.55942   -26307.494    4.3095347    4.3095347    4.3095347   -26307.494   -17994.034    10749.195   -71677.644   -12499.327    6400.7215    26474.079    80.037062 
    9400    2055.6884   -118.38425      1.86003   -116.52422    27030.401    4.2916675    4.2916675    4.2916675    27030.401    16273.182    91726.494   -26908.473    23256.385   -4770.8968   -13636.021    79.045692 
    9500    1786.4488   -118.17147    1.6164164   -116.55506   -23260.726    4.2957426    4.2957426    4.2957426   -23260.726   -80547.983   -5842.4758    16608.281     37846.04   -3698.0408   -17270.795    79.271078 
    9600    1521.9991   -117.93148    1.3771368   -116.55435   -4266.1541    4.2892205    4.2892205    4.2892205   -4266.1541   -60377.696    6814.9957    40764.238   -3304.9073    -7099.651   -18639.428    78.910558 
    9700    1412.9674   -117.85514    1.2784826   -116.57666     42894.75    4.2937237    4.2937237    4.2937237     42894.75    23514.394    128074.15   -22904.296    -19229.99    2232.3447   -7980.7628    79.159359 
    9800    2223.5491   -118.57804     2.011914   -116.56612   -56111.044    4.3185232    4.3185232    4.3185232   -56111.044   -25002.408   -60094.437   -83236.287     9878.537   -590.15623   -22006.199    80.538914 
    9900    1762.1568   -118.11403    1.5944365    -116.5196    14714.716    4.2998874    4.2998874    4.2998874    14714.716    3222.6052    54864.821   -13943.278   -3618.8262    5357.3319    13370.437    79.500754 
   10000    2052.9338   -118.36939    1.8575376   -116.51185    6968.2821    4.2951861    4.2951861    4.2951861    6968.2821    29663.846   -3243.1649   -5515.8347   -5743.6694    3994.9453    1144.5577    79.240274 
   10100    1532.6071   -117.93555    1.3867351   -116.54882   -47931.201    4.3362393    4.3362393    4.3362393   -47931.201   -45025.886   -80145.209   -18622.509   -7129.9842   -9439.1591   -19099.877    81.534183 
   10200    1970.5819    -118.2687    1.7830239   -116.48568   -39191.951    4.3391479    4.3391479    4.3391479   -39191.951   -63446.155     5980.759   -60110.458    27210.624     3151.712    1154.3904    81.698365 
   10300    2130.8519   -118.37599    1.9280396   -116.44795   -2662.3451    4.3053746    4.3053746    4.3053746   -2662.3451   -23253.268   -4209.5037    19475.736   -20443.559   -11003.167   -17157.791    79.805504 
   10400    923.28758   -117.30345   0.83541001   -116.46804    60651.505     4.294046     4.294046     4.294046    60651.505    56863.729    84996.635     40094.15   -12738.139    3298.2653   -34376.684     79.17719 
   10500    1597.9226     -117.975     1.445834   -116.52917   -20713.388    4.3091885    4.3091885    4.3091885   -20713.388   -27144.028   -42095.448     7099.312    28762.741     5101.187   -19040.538    80.017777 
   10600    2066.8721   -118.38634    1.8701493   -116.51619    5103.4123    4.2929754    4.2929754    4.2929754    5103.4123   -27477.792   -12846.216    55634.245      10923.2    3619.7108    13850.184     79.11798 
   10700    1912.5533   -118.26107    1.7305185   -116.53055   -34317.986    4.2948577    4.2948577    4.2948577   -34317.986   -53995.873   -58539.469    9581.3841   -27348.777   -5870.5194   -1000.5347    79.222097 
   10800     1031.554   -117.47599   0.93337177   -116.54262   -39165.053    4.3120009    4.3120009    4.3120009   -39165.053   -71443.823   -90248.972    44197.634    35010.685   -4677.8623   -11555.843    80.174552 
   10900    2223.9193   -118.53552     2.012249   -116.52327   -20505.723    4.3089329    4.3089329    4.3089329   -20505.723   -25992.689   -57501.289    21976.808    6331.8642   -17842.848    17370.153    80.003536 
   11000    1981.0843   -118.33265    1.7925267   -116.54013   -32471.637     4.316588     4.316588     4.316588   -32471.637    44659.268   -113220.15   -28854.029   -13308.238    1735.8873   -28481.752    80.430693 
   11100     1578.995   -117.96829    1.4287079   -116.53958   -26286.052    4.3070709    4.3070709    4.3070709   -26286.052    14857.267   -69772.268   -23943.155    12390.184   -36512.076   -22880.846    79.899869 
   11200    1770.6051   -118.12969    1.6020807    -116.5276    40518.555    4.2918456    4.2918456    4.2918456    40518.555    44015.715   -25165.527    102705.48     5073.427   -22729.016    12584.525     79.05553 
   11300    2277.0311   -118.61195    2.0603056   -116.55165   -55468.858    4.3236674    4.3236674    4.3236674   -55468.858   -87795.002   -46852.871   -31758.699   -22833.217   -17873.397   -7418.4046     80.82707 
   11400    1337.0884   -117.71676    1.2098257   -116.50694   -7572.7518      4.32371      4.32371      4.32371   -7572.7518   -71521.326   -33051.653    81854.724   -12339.731    31482.836    -42536.87    80.829458 
   11500    1162.3259   -117.54069    1.0516969   -116.48899    41811.582    4.3044834    4.3044834    4.3044834    41811.582   -32551.219    56396.315    101589.65    6097.7372    1567.9762   -28948.637    79.755952 
   11600     2615.278   -118.85356    2.3663585    -116.4872   -28403.636    4.2993112    4.2993112    4.2993112   -28403.636   -25368.996   -20447.291   -39394.621   -18294.737   -32392.033    33060.445    79.468796 
   11700     2011.395   -118.33805    1.8199524   -116.51809    5493.0399    4.2984383    4.2984383    4.2984383    5493.0399   -26660.595   -38342.856     81482.57    13355.095    15085.014   -4951.3855    79.420402 
   11800    1607.7299   -117.99492    1.4547078   -116.54022   -29831.108    4.3186747    4.3186747    4.3186747   -29831.108   -35621.342    -11026.22   -42845.761   -1601.8477   -18301.549    -20030.75    80.547389 
   11900    1875.8661   -118.20128    1.6973231   -116.50396   -12380.289    4.3095428    4.3095428    4.3095428   -12380.289   -35430.387   -19655.838    17945.357   -8858.8799   -9074.8907     23034.25    80.037512 
   12000    1464.6756   -117.84117    1.3252693    -116.5159    4882.9559    4.2981381    4.2981381    4.2981381    4882.9559   -4880.4876    37604.883   -18075.528    3345.3443     4857.863    42333.606    79.403763 
   12100    2116.1866   -118.44627    1.9147701    -116.5315    3575.5306    4.3016481    4.3016481    4.3016481    3575.5306   -44498.811    23049.676    32175.726    -3260.736   -2786.1851   -1813.1267    79.598454 
   12200    1620.6768   -118.01455    1.4664224   -116.54812    17745.991     4.315467     4.315467     4.315467    17745.991    4905.2377    37496.722    10836.012   -10716.744   -11204.062   -19819.422    80.368043 
   12300    1301.2655   -117.71457    1.1774124   -116.53716    17628.656    4.3204149    4.3204149    4.3204149    17628.656   -32982.294      32646.4    53221.861    16999.343   -3699.4884    16436.766    80.644798 
   12400    1840.2009   -118.18759    1.6650524   -116.52254    29678.173     4.316289     4.316289     4.316289    29678.173    19992.855    18914.978    50126.685    14898.482    23900.244   -7377.8099    80.413976 
   12500    2511.0917   -118.78025    2.2720885   -116.50816    9834.4132    4.2999168    4.2999168    4.2999168    9834.4132   -6552.4141    22436.384     13619.27    5784.8929   -5633.1396   -26551.308    79.502382 
   12600    1182.5932   -117.59801    1.0700352   -116.52798     79169.34    4.2876426    4.2876426    4.2876426     79169.34     104086.3    95017.244     38404.48   -12085.438   -32237.043    17044.003    78.823502 
   12700    1964.8713   -118.32575    1.7778569   -116.54789   -24964.876    4.3143822    4.3143822    4.3143822   -24964.876   -34040.433   -58506.847    17652.651    26718.682     303.8858    6945.8848    80.307452 
   12800    1412.6495   -117.79371     1.278195   -116.51551    25625.136    4.3125874    4.3125874    4.3125874    25625.136    38691.766   -2869.9298    41053.571    6921.3621   -7161.5367   -7562.3766    80.207271 
   12900    1714.2288   -118.03287    1.5510702    -116.4818    22259.358    4.3149942    4.3149942    4.3149942    22259.358     49037.58    31156.196   -13415.703   -19595.985    1820.0263    13781.485    80.341634 
   13000    1873.6768   -118.18125    1.6953421   -116.48591   -36690.458    4.3323896    4.3323896    4.3323896   -36690.458    -20915.99   -61628.456    -27526.93    17180.389   -3699.5901    2666.8605    81.317221 
   13100    1477.3982   -117.82171     1.336781   -116.48493   -16966.273     4.308865     4.308865     4.308865   -16966.273   -86811.369   -24898.992    60811.543    27399.834    7453.9903   -734.75051    79.999755 
   13200    1616.4229   -117.95191    1.4625734   -116.48934    36630.593    4.2795099    4.2795099    4.2795099    36630.593   -12771.157    153864.92   -31201.985    8386.5988    5923.3877    29130.411    78.375824 
   13300    1507.8368   -117.92812    1.3643224   -116.56379    33352.117    4.2938773    4.2938773    4.2938773    33352.117    23276.627    81405.086    -4625.363     3770.243    -21014.19    26926.037    79.167857 
   13400    1927.2253   -118.29903     1.743794   -116.55524   -30436.658    4.3334088    4.3334088    4.3334088   -30436.658   -36175.503   -26217.396   -28917.077     24709.45   -3696.8357   -3387.8201    81.374623 
   13500    1565.0903   -117.91355    1.4161266   -116.49743   -49242.601    4.3424125    4.3424125    4.3424125   -49242.601   -63869.293   -85790.996    1932.4855   -7841.4792    21396.099    23309.471    81.882905 
   13600    1609.8032   -117.92478    1.4565838    -116.4682    14270.461    4.2958921    4.2958921    4.2958921    14270.461    29760.681   -26183.168    39233.869   -9835.5069   -13079.421    3067.7488    79.279355 
   13700    2170.3265   -118.43179     1.963757   -116.46803    47424.949    4.2806772    4.2806772    4.2806772    47424.949    57206.369    100511.97    -15443.49    2922.7959    -14521.87   -15672.931    78.439975 
   13800    2118.3885   -118.43343    1.9167624   -116.51667   -14503.605    4.3145211    4.3145211    4.3145211   -14503.605   -34568.298    56859.377   -65801.892   -20463.313    13746.599    20574.464    80.315207 
   13900     2052.975   -118.37387     1.857575   -116.51629   -46527.546    4.3176192    4.3176192    4.3176192   -46527.546   -18794.938   -65563.763   -55223.938   -10290.672   -4657.4018    43061.417    80.488345 
   14000    1481.0572   -117.84973    1.3400917   -116.50964   -3196.9558     4.304467     4.304467     4.304467   -3196.9558    35946.265    15100.682   -60637.815    7926.9629   -7890.0767     -24429.6    79.755043 
   14100    1993.1637   -118.32677    1.8034564   -116.52332    4939.8242    4.3109778    4.3109778    4.3109778    4939.8242    7202.7275    36778.624   -29161.879    10430.482    9995.3654    2654.0313    80.117494 
   14200    1378.3411   -117.77175     1.247152    -116.5246   -12396.799    4.3335511    4.3335511    4.3335511   -12396.799    27256.075    6690.4243   -71136.896   -18094.944   -10406.165    17434.433    81.382641 
   14300    1527.7775   -117.85627    1.3823652    -116.4739   -4617.1376    4.3126513    4.3126513    4.3126513   -4617.1376    1427.6395    62588.198    -77867.25     11089.24   -13237.653   -3950.7991    80.210833 
   14400    2553.8542   -118.77785    2.3107809   -116.46707   -18011.538    4.3063388    4.3063388    4.3063388   -18011.538    -24577.76    4903.2534   -34360.109    1271.1148    9718.2483   -4235.7579    79.859132 
   14500    1806.1865   -118.12164    1.6342755   -116.48736    650.90983    4.3214021    4.3214021    4.3214021    650.90983    5246.7792   -23964.625    20670.576    11412.661   -5941.6833   -4966.5708    80.700093 
   14600    1541.3719   -117.88242    1.3946657   -116.48775    28961.345     4.311899     4.311899     4.311899    28961.345    29336.157   -2732.3497    60280.227     -7061.22    -32797.09    695.79097    80.168868 
   14700    2135.6721    -118.4168     1.932401    -116.4844   -3814.4015    4.3106761    4.3106761    4.3106761   -3814.4015    4866.5245    3323.4818   -19633.211    -11311.71   -13765.684    3346.4097    80.100674 
   14800    2135.7759   -118.43071    1.9324949   -116.49822   -15991.347    4.3058783    4.3058783    4.3058783   -15991.347    -72599.78    5944.6744    18681.064   -9545.5176    7671.7397    6174.8598    79.833513 
   14900    1027.3617   -117.44053   0.92957845   -116.51095     33378.01    4.2933371    4.2933371    4.2933371     33378.01    -48733.87    104874.23     43993.67   -19060.979   -15913.856   -22716.115    79.137983 
   15000    1529.9767   -117.93025    1.3843551    -116.5459    18098.585    4.3098281    4.3098281    4.3098281    18098.585   -17998.137    28298.082    43995.809   -13218.044   -20638.686    811.51606    80.053411 
   15100    2093.4794   -118.41417    1.8942242   -116.51995   -14282.822    4.3271005    4.3271005    4.3271005   -14282.822   -45031.521    36137.636   -33954.581    16837.613    2368.5133    17547.631    81.019758 
   15200    1658.9245   -118.00286    1.5010298   -116.50183    31143.485    4.3030766    4.3030766    4.3030766    31143.485   -3631.1787    32864.796    64196.838    10986.965   -14741.645    13837.868     79.67778 
   15300    2625.9527   -118.86647    2.3760172   -116.49045   -31494.638    4.2951803    4.2951803    4.2951803   -31494.638   -82979.163    13302.727   -24807.477   -13663.234   -16104.998    16809.595    79.239949 
   15400    1220.3307   -117.65314    1.1041809   -116.54896    46123.932       4.3148       4.3148       4.3148    46123.932    33181.858    106849.73    -1659.795    4245.9617    6753.7844    21501.026    80.330784 
   15500    2366.8548   -118.65623      2.14158   -116.51465   -42900.969    4.3476593    4.3476593    4.3476593   -42900.969   -33383.133   -49466.491   -45853.283    7196.6237    15337.968   -18309.625    82.180073 
   15600    1546.4234    -117.8953    1.3992364   -116.49606   -39467.912    4.3260785    4.3260785    4.3260785   -39467.912   -90892.504    1062.0276    -28573.26    9074.9242    1871.0941   -6651.8185    80.962365 
   15700    841.61599   -117.20971   0.76151184    -116.4482     83372.95    4.2549628    4.2549628    4.2549628     83372.95    26555.686    139571.74    83991.426   -3135.4255    26870.447   -3653.1368    77.034862 
   15800     1995.547   -118.32046    1.8056129   -116.51484    40156.696    4.2620043    4.2620043    4.2620043    40156.696   -15985.478    41282.236    95173.329   -3662.6967    19835.101   -6568.6933    77.417949 
   15900    2031.0624   -118.40496    1.8377479   -116.56721    6845.7873    4.3180196    4.3180196    4.3180196    6845.7873   -79246.187     28941.17    70842.379   -5479.8116   -12538.704   -10906.923    80.510742 
   16000    1246.5946   -117.65962     1.127945   -116.53168   -31217.273    4.3607263    4.3607263    4.3607263   -31217.273   -120406.05    21068.636    5685.5911   -6837.7672    26978.014   -17140.389    82.923284 
   16100     2151.399   -118.40512     1.946631   -116.45849   -72458.228    4.3310566    4.3310566    4.3310566   -72458.228   -89533.345   -67603.389   -60237.949    2095.5026   -36920.949    1228.4629    81.242179 
   16200    1685.4859   -117.91039     1.525063   -116.38533    82580.101    4.2558055    4.2558055    4.2558055    82580.101    55511.866    113373.43    78855.003    39498.504    3593.2113   -9746.6485    77.080641 
   16300      1930.82   -118.24439    1.7470465   -116.49734    42466.515    4.2765516    4.2765516    4.2765516    42466.515     38663.68    86793.174    1942.6895     8908.594    26700.043   -8797.6974      78.2134 
   16400    1872.0078   -118.20089     1.693832   -116.50706   -52374.092    4.3343657    4.3343657    4.3343657   -52374.092   -71847.953   -33000.521   -52273.801    3035.6948   -13418.982    6685.3777    81.428539 
   16500    1466.3953   -117.77204    1.3268253   -116.44521    2398.5343    4.3418301    4.3418301    4.3418301    2398.5343   -31273.047   -16486.665    54955.314    22294.703     11528.73    5805.2427    81.849958 
   16600    2514.2033   -118.69796     2.274904   -116.42306   -12297.301    4.3177731    4.3177731    4.3177731   -12297.301    -21424.67   -11489.473     -3977.76   -4614.6912    7986.6413    13551.819    80.496956 
   16700    1751.5769    -118.0177    1.5848636   -116.43283    34343.315    4.2783409    4.2783409    4.2783409    34343.315   -46063.498    103504.37    45589.074    8945.1252    4543.4009   -20358.911    78.311611 
   16800    1928.3833   -118.26612    1.7448417   -116.52128   -19492.227    4.2826531    4.2826531    4.2826531   -19492.227   -18462.904   -32706.255   -7307.5219     13910.03   -6942.1447   -18627.931    78.548646 
   16900    1534.3906   -117.94961    1.3883488   -116.56126   -37714.451     4.313718     4.313718     4.313718   -37714.451   -16005.262   -37327.762   -59810.331   -15169.996   -5041.0686    21854.444     80.27037 
   17000    1910.7984   -118.26581    1.7289306   -116.53688   -45801.744    4.3182896    4.3182896    4.3182896   -45801.744   -13542.706    -34905.04   -88957.488   -10160.155    11898.008    13461.139    80.525845 
   17100    1980.8842   -118.30866    1.7923456   -116.51632   -17924.439    4.3014674    4.3014674    4.3014674   -17924.439   -5006.2887   -10804.533   -37962.495    32108.778     2189.748   -9575.4209    79.588423 
   17200    1196.6213   -117.59776    1.0827281   -116.51503    27202.431     4.279481     4.279481     4.279481    27202.431     38089.11    1042.5556    42475.627    2896.1094   -17875.648    16191.881    78.374233 
   17300    1236.3304   -117.67953    1.1186577   -116.56087    28279.968    4.2842284    4.2842284    4.2842284    28279.968    14531.862    79215.435    -8907.394   -17119.141   -19923.262    17366.815    78.635353 
   17400    2608.5012   -118.90379    2.3602267   -116.54356   -33523.444    4.3096488    4.3096488    4.3096488   -33523.444    -67956.51    19593.192   -52207.013    731.23385    2631.9691   -11688.177    80.043419 
   17500     2143.993    -118.4638    1.9399299   -116.52387    21648.358     4.301417     4.301417     4.301417    21648.358    777.38427    46029.549    18138.141    6539.2679    8175.2811   -15627.293    79.585628 
   17600      1729.47   -118.10242    1.5648608   -116.53756   -13091.986    4.2911255    4.2911255    4.2911255   -13091.986    -67266.72    53681.136   -25690.373   -8077.8545    -27994.12    9905.9623    79.015747 
   17700     955.0746   -117.42757   0.86417157    -116.5634   -12823.572    4.2764349    4.2764349    4.2764349   -12823.572   -77549.566    16428.087    22650.761   -12678.837   -49892.575    2284.4734    78.206994 
   17800    1455.6955   -117.87924    1.3171439   -116.56209    41132.865    4.2614362    4.2614362    4.2614362    41132.865    10328.621    40170.382    72899.593   -1693.5508   -682.46277   -5653.6153    77.386995 
   17900    2635.9091   -118.97147     2.385026   -116.58644   -32406.885    4.2981225    4.2981225    4.2981225   -32406.885    -49059.92    8536.7492   -56697.484   -7959.8141    10535.104    -10554.99      79.4029 
   18000    2147.5153   -118.48932     1.943117    -116.5462   -20174.211    4.3223915    4.3223915    4.3223915   -20174.211   -8758.6175   -28332.457   -23431.558    3029.6256   -20005.145    2945.1021    80.755533 
   18100    1044.4479   -117.45025    0.9450384   -116.50521    21424.919    4.3204028    4.3204028    4.3204028    21424.919     73090.17   -37727.327    28911.914     26277.61    576.02023   -10808.761    80.644123 
   18200    1630.6419   -117.95178    1.4754391   -116.47634    2319.7176    4.3095616    4.3095616    4.3095616    2319.7176    71382.944   -61751.369   -2672.4218   -20080.888   -7899.2282    291.84576     80.03856 
   18300    2015.7749   -118.30434    1.8239155   -116.48043   -35433.629    4.2959352    4.2959352    4.2959352   -35433.629   -35483.944   -42572.594   -28244.347    10041.433    2869.7616   -8981.8796     79.28174 
   18400    1823.0608   -118.15038    1.6495438   -116.50084   -13429.487    4.2835925    4.2835925    4.2835925   -13429.487   -15477.478   -30713.812    5902.8308    29498.626    21854.555   -24653.011    78.600346 
   18500    1103.5316   -117.53406   0.99849855   -116.53556    43389.818    4.2892178    4.2892178    4.2892178    43389.818   -26409.358    44249.259    112329.55   -35616.966   -18677.689    5787.5852    78.910412 
   18600    1634.4618   -118.02099    1.4788954   -116.54209    3057.9772     4.308187     4.308187     4.308187    3057.9772    -59269.73    32039.124    36404.538   -32574.258   -33662.018    10106.932       79.962 
   18700    3038.7632   -119.24978    2.7495368   -116.50025   -35617.785    4.3071206    4.3071206    4.3071206   -35617.785   -58504.403   -19265.324   -29083.627    9969.5181   -2093.0262   -13590.182    79.902633 
   18800    2166.6085   -118.46636    1.9603929   -116.50597   -13181.615    4.3006555    4.3006555    4.3006555   -13181.615   -56934.031   -21612.913    39002.098   -20842.092   -26198.845   -14082.296    79.543368 
   18900    1038.1047   -117.44628   0.93929898   -116.50698    44218.726     4.293424     4.293424     4.293424    44218.726   -41434.196     63252.04    110838.33   -40182.767   -32857.013    8610.9917    79.142786 
   19000    1532.3257   -117.89956    1.3864805   -116.51308   -12037.701    4.3031685    4.3031685    4.3031685   -12037.701   -21102.708    13303.335    -28313.73    -23009.14    25651.966   -6554.1737    79.682886 
   19100    2085.9809   -118.39215    1.8874394   -116.50471    -27469.79    4.2923509    4.2923509    4.2923509    -27469.79   -11510.036   -16297.792   -54601.541     26382.37    34652.174   -9429.4556    79.083461 
   19200    1502.0369   -117.87876    1.3590746   -116.51968     13415.77    4.2745797    4.2745797    4.2745797     13415.77    27502.867    3971.9503    8772.4926   -6788.5801    -18469.71    5457.5621    78.105253 
   19300    1470.3978   -117.88939    1.3304468   -116.55894   -25190.182    4.2847804    4.2847804    4.2847804   -25190.182   -57320.232   -36890.822    18640.509   -58410.694   -49304.219   -8147.5244    78.665753 
   19400    2294.8126   -118.63582    2.0763946   -116.55942   -29942.487    4.2844488    4.2844488    4.2844488   -29942.487    -28176.34   -24559.832   -37091.287   -15568.376    -3518.373   -755.42575    78.647493 
   19500    2670.6193   -118.96838    2.4164324   -116.55195   -5761.9972    4.2845024    4.2845024    4.2845024   -5761.9972    30812.566   -34145.471   -13953.086    11058.055    19566.212    2449.1887    78.650441 
   19600     1510.294   -117.93429    1.3665458   -116.56775   -23158.255    4.2898599    4.2898599    4.2898599   -23158.255   -26347.021   -3668.9671   -39458.776   -45366.556   -25231.538    9195.8599    78.945852 
   19700    1111.8128   -117.56116    1.0059916   -116.55516    31683.085    4.2687016    4.2687016    4.2687016    31683.085    63737.619    4911.8341    26399.801    -15203.06   -30599.409   -7976.4492    77.783485 
   19800    1693.8448    -118.0917    1.5326264   -116.55908   -101.81909    4.2775616    4.2775616    4.2775616   -101.81909   -14031.055    -30284.77    44010.368    42757.617     9291.622    3446.8999    78.268824 
   19900    2096.1544   -118.43903    1.8966445   -116.54238   -32413.791    4.2940767    4.2940767    4.2940767   -32413.791   -39907.116   -11198.301   -46135.955    10308.849    42974.377   -13118.538    79.178888 
   20000    1646.4776   -118.02103    1.4897675   -116.53127    15482.857     4.289252     4.289252     4.289252    15482.857   -2605.2838    18029.914    31023.939   -12054.287   -38094.014   -8772.7819    78.912297 
   20100    1804.0455   -118.16697    1.6323383   -116.53464   -3107.5831    4.2916739    4.2916739    4.2916739   -3107.5831   -26891.138   -45333.826    62902.214     8325.815   -35659.972   -134.53685    79.046047 
   20200     2116.324   -118.43033    1.9148944   -116.51544   -14434.356    4.2948237    4.2948237    4.2948237   -14434.356   -14953.125    -60190.84    31840.896    19363.237    28801.427    9940.6444    79.220215 
   20300    1517.4143   -117.90078    1.3729884   -116.52779    22558.816    4.3015828    4.3015828    4.3015828    22558.816    59863.535   -17281.613    25094.525   -11205.952    12983.366   -16819.726    79.594828 
   20400    1504.3546   -117.88476    1.3611717   -116.52359    7692.6368    4.3036521    4.3036521    4.3036521    7692.6368    37285.852   -42057.127    27849.185    4548.2043       -29296   -6685.6328    79.709754 
   20500    1989.6134   -118.31727     1.800244   -116.51702   -9634.5499    4.2979944    4.2979944    4.2979944   -9634.5499    13158.642   -60059.662     17997.37    14232.665    1924.8106   -413.08434    79.395802 
   20600     2364.647    -118.6523    2.1395823   -116.51272    6975.8905    4.2841476    4.2841476    4.2841476    6975.8905   -5082.8391    -33705.74     59716.25   -6343.7035    26898.498   -18771.466    78.630904 
   20700    1683.1349   -118.07145    1.5229359   -116.54851   -3644.0659    4.2887139    4.2887139    4.2887139   -3644.0659   -58481.075   -1474.7786    49023.656   -5025.1254   -19484.685    7083.0556    78.882601 
   20800    1517.5458   -117.91203    1.3731073   -116.53892   -16726.611    4.2995492    4.2995492    4.2995492   -16726.611    495.13656    -56543.52    5868.5517    1485.0788   -15874.893    1147.5378    79.481999 
   20900    1958.2076   -118.29925    1.7718274   -116.52742   -6508.2175    4.2961785    4.2961785    4.2961785   -6508.2175    25158.074   -45122.189      439.462    17551.833    17242.781   -22910.342    79.295209 
   21000      1866.71   -118.21627    1.6890384   -116.52723   -27716.156    4.2919527    4.2919527    4.2919527   -27716.156   -69181.966   -12470.684   -1495.8158   -11844.327   -29176.226   -7394.8053    79.061449 
   21100    1648.9505   -118.02581    1.4920051    -116.5338    16092.164    4.2702815    4.2702815    4.2702815    16092.164   -29005.266    18482.895    58798.862   -27624.303   -2196.5712    2373.3523    77.869881 
   21200    1303.7332   -117.74078    1.1796452   -116.56114    32411.767    4.2707314    4.2707314    4.2707314    32411.767   -27287.844    41809.193    82713.951    32417.663    17998.345    -2697.631    77.894498 
   21300    1720.7877   -118.11728    1.5570049   -116.56027   -14978.485     4.299902     4.299902     4.299902   -14978.485   -85401.785   -4927.3989    45393.729    13524.576    4508.4513   -8104.8406    79.501565 
   21400    2032.4371   -118.37054    1.8389918   -116.53154    4179.5346    4.3022711    4.3022711    4.3022711    4179.5346    9115.1385    29763.816   -26340.351   -13633.571   -6562.7098    28036.145    79.633045 
   21500    1857.4397   -118.20981    1.6806504   -116.52916     27993.33    4.2902915    4.2902915    4.2902915     27993.33    22462.041    93663.742   -32145.793    51126.552    15947.721    13708.315    78.969687 
   21600    1936.5321   -118.28166    1.7522149   -116.52944    18762.365    4.2780029    4.2780029    4.2780029    18762.365   -17183.182    73076.091    394.18693    1464.0377    4533.5393   -5051.6229    78.293051 
   21700    1339.9133   -117.76283    1.2123817   -116.55045    13916.417    4.2737222    4.2737222    4.2737222    13916.417   -4136.9019    18565.028    27321.125   -50267.554   -14279.956    -8725.783    78.058262 
   21800     1887.268   -118.25286    1.7076397   -116.54522   -17510.603    4.2892951    4.2892951    4.2892951   -17510.603    6462.9174   -6553.3981   -52441.328    4900.5349    10331.032    3003.3442    78.914675 
   21900    1620.3674   -118.01075    1.4661425   -116.54461   -32274.088    4.2965392    4.2965392    4.2965392   -32274.088   -11945.007   -10505.945   -74371.312    8475.4617    76.783406    19763.068    79.315184 
   22000     1822.109   -118.19182    1.6486825   -116.54314   -2164.8993    4.2819442    4.2819442    4.2819442   -2164.8993   -10734.296    52328.039   -48088.441   -40976.625   -22371.683   -6252.7891    78.509642 
   22100    2164.9453   -118.50003     1.958888   -116.54114     24941.97    4.2734693    4.2734693    4.2734693     24941.97   -607.56433    110217.44   -34783.969   -23544.532    13249.144   -1904.3917    78.044403 
   22200      1394.25   -117.83183    1.2615467   -116.57028    2566.3721    4.2936534    4.2936534    4.2936534    2566.3721    62795.359    1150.8548   -56247.097    18097.777    7668.3915    4665.1271    79.155475 
   22300    1418.9924    -117.8403    1.2839342   -116.55637   -14402.655    4.3089609    4.3089609    4.3089609   -14402.655    66440.154   -22954.623   -86693.497   -14709.953   -11054.964    6759.8802      80.0051 
   22400    2052.0799   -118.38301     1.856765   -116.52625   -12542.814    4.2967062    4.2967062    4.2967062   -12542.814   -12456.638    16081.544   -41253.347   -20222.715    20161.554   -6759.3137    79.324434 
   22500    1692.5839   -118.06416    1.5314855   -116.53267    20840.631    4.2870616    4.2870616    4.2870616    20840.631    27514.005    80200.713   -45192.825     11773.03    17206.438    6909.1676    78.791464 
   22600    1894.9819   -118.25882    1.7146194    -116.5442   -7560.6597    4.2913467    4.2913467    4.2913467   -7560.6597   -8615.2608    41597.913   -55664.632    43452.166   -16155.108   -538.85502    79.027967 
   22700    1680.4598   -118.07158    1.5205153   -116.55106    11913.886    4.2936036    4.2936036    4.2936036    11913.886    32916.666    9926.5968   -7101.6041   -789.04029    20901.506   -18582.227    79.152717 
   22800    2033.0974   -118.37993    1.8395893   -116.54034   -33080.593    4.2970539    4.2970539    4.2970539   -33080.593   -53594.127   -1229.1301   -44418.521   -19660.636    26721.269     -304.955    79.343692 
   22900    1166.3785   -117.60394    1.0553638   -116.54857   -13041.678    4.2849831    4.2849831    4.2849831   -13041.678    -54887.09    10371.901    5390.1545    18986.426   -9792.4209    9725.7678    78.676917 
   23000    1281.2457   -117.71262     1.159298   -116.55332    40042.256    4.2719766    4.2719766    4.2719766    40042.256    94012.345    4802.2311    21312.192    41933.546   -23380.814   -3198.2716    77.962649 
   23100    2270.6589   -118.61772    2.0545399   -116.56319    12290.592    4.2826694    4.2826694    4.2826694    12290.592   -1000.5895     69038.75   -31166.385    2743.3226    3761.1619   -6581.9545     78.54954 
   23200    2425.4311   -118.74771     2.194581   -116.55313   -11881.138     4.294615     4.294615     4.294615   -11881.138   -2195.1047   -7979.4258   -25468.883    -21217.17    3984.3162    8745.9911    79.208669 
   23300    1769.3267   -118.15195     1.600924   -116.55102    -22927.55    4.2910733    4.2910733    4.2910733    -22927.55   -44300.634   -64990.011    40507.995     31465.35   -2611.7641   -1802.5057    79.012865 
   23400    1279.8345   -117.69761    1.1580212   -116.53959    26026.889    4.2735816    4.2735816    4.2735816    26026.889    14863.772    43452.105    19764.791    13546.193    1372.5477   -9594.0698    78.050554 
   23500    1586.9721   -117.98235    1.4359257   -116.54643    3325.4785    4.2889133    4.2889133    4.2889133    3325.4785    45720.047     -199.706   -35543.906   -7138.9435      20984.6   -5602.4707    78.893603 
   23600     1835.919   -118.18978    1.6611781   -116.52861   -7798.1893    4.2930884    4.2930884    4.2930884   -7798.1893   -12154.333   -24238.661    12998.426    26427.931     22455.76    4203.7754    79.124231 
   23700    2403.3956   -118.69503    2.1746429   -116.52039    19853.417    4.2847354    4.2847354    4.2847354    19853.417    80308.385   -32541.267    11793.133      16964.9   -7770.4093     6158.985    78.663275 
   23800    1644.7329   -118.02884    1.4881889   -116.54066   -49600.399    4.3095887    4.3095887    4.3095887   -49600.399   -16828.371   -42554.413   -89418.412    -2393.858   -461.69758     -18529.8    80.040072 
   23900    1298.4549   -117.70021    1.1748693   -116.52534    -26660.99    4.2919474    4.2919474    4.2919474    -26660.99   -39913.985   -14927.496   -25141.489    -10681.73    6173.5239   -6403.2414    79.061157 
   24000    1943.7496    -118.2589    1.7587455   -116.50016    30098.598    4.2728455    4.2728455    4.2728455    30098.598     68833.98    26932.042   -5470.2289    11550.313    19378.833    13775.579    78.010234 
   24100    2023.0133   -118.35555    1.8304649   -116.52509   -37043.201    4.2910955    4.2910955    4.2910955   -37043.201   -19340.207   -51318.896     -40470.5    29708.236   -14524.276    10065.112     79.01409 
   24200    1957.2529   -118.28856    1.7709636    -116.5176    31186.984    4.2831534    4.2831534    4.2831534    31186.984    104098.62   -6557.6697   -3979.9965   -29934.152   -2787.0244    2433.9218    78.576174 
   24300    1879.1039   -118.26002    1.7002527   -116.55977    -17674.45    4.3106865    4.3106865    4.3106865    -17674.45   -16416.402    1356.6779   -37963.626     5222.829    11323.546   -2137.4682    80.101257 
   24400    1714.4044   -118.04769    1.5512292   -116.49646   -44792.678     4.335288     4.335288     4.335288   -44792.678   -18276.534   -73357.355   -42744.145    51153.375   -18609.106    20945.792    81.480535 
   24500    1890.4857   -118.14754    1.7105512   -116.43699   -17332.606    4.3047174    4.3047174    4.3047174   -17332.606   -23269.357   -19103.117   -9625.3431     -6342.74    20676.897   -25215.085    79.768962 
   24600    1470.6826    -117.7863    1.3307045    -116.4556   -14707.821    4.2940413    4.2940413    4.2940413   -14707.821   -55870.836    18541.511   -6794.1381    8283.7771    24154.967   -17516.185    79.176927 
   24700    1628.8557   -117.96349    1.4738228   -116.48967   -44909.267    4.3050585    4.3050585    4.3050585   -44909.267   -91486.915   -52409.303    9168.4162    35528.669   -8799.6364    25598.662    79.787927 
   24800     2195.842   -118.49652     1.986844   -116.50968   -25120.748    4.2903263    4.2903263    4.2903263   -25120.748    2275.1266   -43550.345   -34087.026    10136.481    5493.5494    5904.3433    78.971607 
   24900    2300.7813   -118.60687    2.0817953   -116.52507    19423.448    4.2762961    4.2762961    4.2762961    19423.448    43777.612   -27352.024    41844.754   -6197.4408    35096.641   -12967.234    78.199382 
   25000    1373.6861   -117.81052    1.2429401   -116.56758   -1104.5882    4.2910313    4.2910313    4.2910313   -1104.5882    42938.135   -54204.239    7952.3387    19279.118   -3520.6427    52873.789    79.010541 
   25100    1730.8952   -118.10227    1.5661504   -116.53611   -7728.7397    4.3014184    4.3014184    4.3014184   -7728.7397    39681.148   -48019.911   -14847.456   -4171.9471     15473.99   -3447.9964    79.585703 
   25200    1527.3108   -117.89795    1.3819429   -116.51601    22453.294    4.2974232    4.2974232    4.2974232    22453.294    80826.667   -14543.178    1076.3922    10019.734    22950.458   -8925.8153    79.364153 
   25300    1403.5521   -117.79293    1.2699635   -116.52297   -36511.758    4.2985946    4.2985946    4.2985946   -36511.758   -35805.845   -16004.639   -57724.791   -9194.6164    26922.219    48402.892    79.429068 
   25400    2038.0919   -118.35557    1.8441084   -116.51146    26165.994    4.2773637    4.2773637    4.2773637    26165.994    62956.424    51509.048   -35967.488   -8858.0932    12846.151   -5528.0666    78.257962 
   25500    2357.5672   -118.67183    2.1331764   -116.53865    13320.314    4.2895533    4.2895533    4.2895533    13320.314     7493.086    54925.263   -22457.407    16205.503   -24508.772     9908.011    78.928927 
   25600    1098.5783   -117.52684   0.99401673   -116.53282   -40977.976    4.3291918    4.3291918    4.3291918   -40977.976    -34639.55   -405.13648   -87889.243   -6282.5693    19166.347    43481.166    81.137287 
   25700     1946.721    -118.2201    1.7614341   -116.45867   -20061.193    4.3224473    4.3224473    4.3224473   -20061.193   -38204.227   -17868.858   -4110.4949   -996.33835    8080.9079   -28943.163    80.758666 
   25800    1179.2594   -117.51234    1.0670187   -116.44532    21199.312    4.3084981    4.3084981    4.3084981    21199.312    2191.6957    -13745.93    75152.172    10275.551   -6689.1083    33558.307    79.979321 
   25900    1595.2892   -117.89905    1.4434512    -116.4556    -25929.78    4.3121222    4.3121222    4.3121222    -25929.78   -11986.994   -68078.669    2276.3219   -3102.3775    12975.401    39766.646    80.181317 
   26000    2351.4186   -118.57614    2.1276129   -116.44853    8498.9109    4.2914812    4.2914812    4.2914812    8498.9109      13150.7    44140.491   -31794.457   -17294.191    21694.903   -47424.959    79.035399 
   26100    1672.5214   -118.01479    1.5133325   -116.50146    17181.665     4.294025     4.294025     4.294025    17181.665    83036.615    29759.478   -61251.097   -9665.6535    4261.8851    7836.3882    79.176027 
   26200    2095.4359    -118.3983    1.8959944   -116.50231   -20315.355    4.3200867    4.3200867    4.3200867   -20315.355   -12574.918    19936.933    -68308.08    9717.3518   -2238.2667    31293.865    80.626421 
   26300    1717.2701   -118.03483    1.5538221     -116.481   -10363.422    4.3153885    4.3153885    4.3153885   -10363.422   -26469.652    26731.384   -31351.999   -11032.718   -14640.608   -16555.865     80.36366 
   26400    1496.9724   -117.84549    1.3544921     -116.491   -31919.617    4.2866642    4.2866642    4.2866642   -31919.617     19029.96   -55702.954   -59085.857    8815.6716    916.81028    22868.786    78.769554 
   26500    1813.8901   -118.13713    1.6412459   -116.49588    29036.262    4.2596075    4.2596075    4.2596075    29036.262    45914.922    35246.543    5947.3204    26087.558    23516.747    20908.276    77.287412 
   26600    1749.2055   -118.14393    1.5827179   -116.56121    8164.5506    4.2905843    4.2905843    4.2905843    8164.5506   -60229.057    39951.949    44770.759   -17527.464    -2967.869   -10476.924    78.985856 
   26700    2081.6908   -118.38655    1.8835576   -116.50299   -23173.876    4.3296241    4.3296241    4.3296241   -23173.876   -74031.574   -26866.437    31376.384   -7998.2057   -6435.4731   -13986.188    81.161598 
   26800    2229.3817   -118.46741    2.0171915   -116.45022   -36401.845    4.3301869    4.3301869    4.3301869   -36401.845   -53511.432   -40646.185   -15047.916   -6882.0996    9180.2433    51462.694    81.193248 
   26900    1034.4096   -117.37834   0.93595557   -116.44238   -566.93558    4.3126783    4.3126783    4.3126783   -566.93558   -79392.161    108760.99    -31069.64   -4294.9125    -27439.33   -13021.319    80.212339 
   27000    1567.2354   -117.88191    1.4180675   -116.46384    49617.833    4.2910377    4.2910377    4.2910377    49617.833   -1398.6818    136907.35    13344.831    39882.757   -6683.6169   -26098.955    79.010894 
   27100    2639.2713   -118.89003    2.3880682   -116.50196   -26703.515    4.3098088    4.3098088    4.3098088   -26703.515    -7569.499   -34921.276    -37619.77      3236.18   -482.74064    5357.5897    80.052338 
   27200    1273.5624   -117.65158     1.152346   -116.49924   -16685.062    4.3342339    4.3342339    4.3342339   -16685.062   -35776.312   -48201.765    33922.892    8500.7148   -6583.1577   -19845.604    81.421114 
   27300    1306.7013   -117.63636    1.1823308   -116.45403   -18983.669    4.3315634    4.3315634    4.3315634   -18983.669     1880.507    -38309.79   -20521.725     17052.52   -1730.6961   -211.34802    81.270707 
   27400    2183.1418     -118.415    1.9753526   -116.43964    10390.585     4.304625     4.304625     4.304625    10390.585    39624.328    4503.8949   -12956.468   -4628.7264     13123.69    18199.203    79.763822 
   27500    1816.3021   -118.11147    1.6434283   -116.46804    59112.467    4.2839126    4.2839126    4.2839126    59112.467    122362.83    23190.994    31783.579   -9378.3707    9510.5588   -8410.8102    78.617969 
   27600    1082.8809   -117.50436   0.97981344   -116.52454    18922.737    4.2957874    4.2957874    4.2957874    18922.737    76054.796   -3771.4977   -15515.088    3314.1299   -7206.3512    2451.9548    79.273553 
   27700    1519.1896    -117.9137    1.3745947    -116.5391   -16271.461    4.3098479    4.3098479    4.3098479   -16271.461    21869.918   -68432.587   -2251.7129    3903.3062    12600.492    12092.299    80.054517 
   27800    1991.0416   -118.33346    1.8015362   -116.53192   -16367.683    4.2991526    4.2991526    4.2991526   -16367.683   -50810.255   -42695.985    44403.192   -5550.8853    30464.213   -20200.176    79.460004 
   27900    1797.9303   -118.14796    1.6268051   -116.52115    47287.527    4.2672953    4.2672953    4.2672953    47287.527    13081.796    35433.269    93347.515    7927.7813    -8968.869   -18628.238    77.706633 
   28000    1313.7701   -117.77607    1.1887268   -116.58734    35320.128    4.2940199    4.2940199    4.2940199    35320.128   -14283.704    41008.277     79235.81    -1146.762   -12596.858   -11790.383    79.175744 
   28100     1844.811   -118.19182    1.6692238    -116.5226   -41668.617    4.3274471    4.3274471    4.3274471   -41668.617   -51375.242   -76025.992    2395.3828   -6021.5556    19164.989   -19731.392    81.039231 
   28200    1845.2371   -118.13857    1.6696093   -116.46896   -7590.3929    4.2997902    4.2997902    4.2997902   -7590.3929   -42483.806    19516.259    196.36823    11704.594    29683.194   -20056.984    79.495366 
   28300    1841.9804   -118.13839    1.6666626   -116.47173    25495.648    4.2868028    4.2868028    4.2868028    25495.648   -43044.288    79078.115    40453.116   -11328.447   -16977.248   -8746.5834    78.777196 
   28400      2496.38    -118.7584    2.2587771   -116.49962   -33408.396    4.3018666    4.3018666    4.3018666   -33408.396   -40286.861   -48246.448   -11691.879    -19694.65   -3764.7014    4425.8138    79.610585 
   28500    1256.7817   -117.66352    1.1371625   -116.52636    21501.436    4.3153315    4.3153315    4.3153315    21501.436    31617.173    15397.684     17489.45     7020.284    28570.762   -25089.402    80.360473 
   28600     2150.186   -118.43711    1.9455335   -116.49158   -33516.988    4.3302666    4.3302666    4.3302666   -33516.988   -7705.8418    -49466.37   -43378.751   -6111.5641   -30523.492    14724.365    81.197734 
   28700    1560.5906   -117.87504    1.4120552   -116.46298   -1093.8259    4.3328381    4.3328381    4.3328381   -1093.8259   -6005.4411    -32046.64    34770.604   -7944.0994    15976.328   -4447.6962    81.342474 
   28800    1648.1375   -117.92843    1.4912695   -116.43716   -11548.941    4.3229605    4.3229605    4.3229605   -11548.941   -13985.045   -52073.127    31411.349     -3589.99     26028.55   -20680.192    80.787429 
   28900    2479.1922   -118.65471    2.2432252   -116.41148   -21268.418    4.2988316    4.2988316    4.2988316   -21268.418   -15199.933   -9512.7162   -39092.603   -10681.825   -32211.267    1141.3681    79.442209 
   29000    1418.3825   -117.76129    1.2833823   -116.47791    25978.584     4.293805     4.293805     4.293805    25978.584    52419.022    15872.489    9644.2408    8192.8061    17052.078   -14804.627    79.163858 
   29100    1663.0888   -118.03205    1.5047977   -116.52726     2876.437    4.3139629    4.3139629    4.3139629     2876.437    65708.012    -25714.14   -31364.561    9518.5847    18948.429   -9710.3776    80.284041 
   29200    2435.0411   -118.71322    2.2032763   -116.50994   -46943.496    4.3376126    4.3376126    4.3376126   -46943.496   -48480.769   -39295.311   -53054.407    21153.788   -17396.938    13188.253    81.611675 
   29300    1859.5073   -118.15034    1.6825213   -116.46782     -40022.6    4.3397254    4.3397254    4.3397254     -40022.6   -78222.947   -45108.914    3264.0601    3544.7294    29330.419    10940.964    81.730986 
   29400    1629.2728   -117.90513    1.4742003   -116.43093     13182.82    4.3105421    4.3105421    4.3105421     13182.82   -72437.432    1328.1077    110657.78   -7851.0993     14906.03   -1605.7287    80.093206 
   29500    1402.2175   -117.73708    1.2687559   -116.46832    42418.168    4.2963848    4.2963848    4.2963848    42418.168   -28708.234   -15899.669    171862.41    17797.494   -18744.106    -890.5443    79.306636 
   29600    1369.5376   -117.76891    1.2391864   -116.52972   -2027.9902    4.3133349    4.3133349    4.3133349   -2027.9902   -48820.706   -82029.217    124765.95   -6094.4325   -22474.356   -19785.123    80.248983 
   29700    1510.6414   -117.89338    1.3668601   -116.52652    914.02258    4.3232872    4.3232872    4.3232872    914.02258   -43980.896    523.68311     46199.28   -2497.2381      12136.2   -618.34646    80.805751 
   29800    1765.2907   -118.10645    1.5972721   -116.50917   -20056.811     4.317544     4.317544     4.317544   -20056.811   -100521.53   -12777.547    53128.644    4472.4123   -7499.0927    25081.891    80.484144 
   29900    1543.7031   -117.89373     1.396775   -116.49695    17218.428    4.3021408    4.3021408    4.3021408    17218.428   -28150.508   -56713.089    136518.88   -14726.236   -34260.035    1389.2663    79.625812 
   30000    1940.4991   -118.27293    1.7558044   -116.51712   -7576.9898    4.2962372    4.2962372    4.2962372   -7576.9898    19994.314    -56863.81    14138.526   -1833.6027     181.1129   -60213.764    79.298463 
   30100    2348.3168   -118.64269    2.1248064   -116.51788   -17004.735    4.2947417    4.2947417    4.2947417   -17004.735    -45062.64    42011.381   -47962.945    20789.969    13551.771   -18693.978    79.215678 
   30200    1422.7319   -117.82253    1.2873177   -116.53521    2369.8312    4.2981978    4.2981978    4.2981978    2369.8312   -70551.153    47238.057    30422.589   -37706.768    3094.0405    8173.2515    79.407074 
   30300    1806.6052   -118.15117    1.6346543   -116.51651    10830.198    4.2847724    4.2847724    4.2847724    10830.198   -66202.742     54388.83    44304.505    -17203.57   -2002.0452   -6236.1128    78.665312 
   30400    2230.9269   -118.55431    2.0185895   -116.53572    13634.839    4.2851163    4.2851163    4.2851163    13634.839   -12021.701    54692.598   -1766.3786    5397.2036    23572.716   -23086.153    78.684254 
   30500    1939.3764   -118.30028    1.7547885   -116.54549   -43473.034    4.3016466    4.3016466    4.3016466   -43473.034   -10603.991   -34076.572   -85738.538   -17151.535    6635.4283    24717.265    79.598375 
   30600    2351.2605   -118.64665    2.1274699   -116.51918     8766.412    4.2844991    4.2844991    4.2844991     8766.412   -23496.455    41732.587    8063.1044    2607.1114   -7897.0819    22652.979    78.650262 
   30700    1685.7531   -118.08309    1.5253049   -116.55779    -120.5752    4.2937101    4.2937101    4.2937101    -120.5752   -2708.1216    4268.5562   -1922.1601    35545.236    1120.8214    8239.6964    79.158611 
   30800    1403.7551   -117.82539    1.2701471   -116.55524   -20758.763    4.2994403    4.2994403    4.2994403   -20758.763   -76860.387    34910.667   -20326.567     21148.49    31310.773   -7711.5794    79.475956 
   30900    1777.6575   -118.14006    1.6084618    -116.5316    19272.661    4.2789006    4.2789006    4.2789006    19272.661    -34334.84    71085.512    21067.312   -11273.661    21891.199    7513.5493    78.342347 
   31000    2182.4583   -118.53376    1.9747342   -116.55903    9792.5874    4.2878247    4.2878247    4.2878247    9792.5874    1115.5719    356.84046     27905.35    9558.1515   -8027.4622     7012.453    78.833546 
   31100    1597.5234    -118.0054    1.4454728   -116.55993   -19677.222    4.3136261    4.3136261    4.3136261   -19677.222   -31319.804   -17624.992   -10086.869    7886.1895    185.18887    10589.135    80.265236 
   31200    1531.8474    -117.9038    1.3860477   -116.51775   -16258.889    4.3274234    4.3274234    4.3274234   -16258.889    25127.569   -38048.555   -35855.683    15474.445    19982.424   -1431.6888      81.0379 
   31300     1912.921   -118.19803    1.7308511   -116.46718    2925.4492    4.3269106    4.3269106    4.3269106    2925.4492    82196.404   -39165.999   -34254.058    10998.708   -3823.9067    15532.167    81.009094 
   31400    1521.2499   -117.83291    1.3764589   -116.45645   -25476.135    4.3162141    4.3162141    4.3162141   -25476.135   -54541.946   -14417.871   -7468.5882   -19662.503    907.70841      9021.52     80.40979 
   31500    2060.1393   -118.30895    1.8640573    -116.4449    17706.891    4.2931408    4.2931408    4.2931408    17706.891   -16972.697    35322.093    34771.278    4703.4201   -7466.8351   -6563.3914    79.127124 
   31600    2470.0047   -118.70461    2.2349122    -116.4697   -18002.412    4.2961587    4.2961587    4.2961587   -18002.412   -40196.798   -33147.009    19336.572   -4295.1207    12697.294   -2940.1481    79.294115 
   31700    1745.5927   -118.09622     1.579449   -116.51677   -24843.815    4.2962055    4.2962055    4.2962055   -24843.815    -54472.86   -42807.155     22748.57   -19689.994    18457.905    9744.4646    79.296702 
   31800    1810.4577   -118.16723    1.6381402   -116.52909    8156.2352    4.2984908    4.2984908    4.2984908    8156.2352   -10388.975   -22316.565    57174.246   -9049.4331    9854.7103    5965.2896    79.423314 
   31900    2091.6203   -118.40745     1.892542   -116.51491   -33510.223    4.3104957    4.3104957    4.3104957   -33510.223    -56314.39   -88429.923    44213.645   -439.02165   -15645.574    9522.1868    80.090619 
   32000     1020.643   -117.43844   0.92349928   -116.51494    16769.261    4.2998061    4.2998061    4.2998061    16769.261    9616.1971   -27987.016    68678.601   -18038.591   -17208.178   -1640.7768    79.496244 
   32100    2111.0814   -118.40135    1.9101508    -116.4912    16024.623    4.2826317    4.2826317    4.2826317    16024.623    3605.5173   -2407.0729    46875.425    -17244.11    25672.648    1399.3542    78.547467 
   32200    2057.2813    -118.3733    1.8614713   -116.51183    20289.273    4.2857824    4.2857824    4.2857824    20289.273    11260.377   -40295.026    89902.468    17549.513    7686.7992    619.82121    78.720954 
   32300    1722.8777   -118.10028    1.5588959   -116.54138    18052.005    4.3032759    4.3032759    4.3032759    18052.005    10349.647   -5567.6694    49374.037   -2457.1744   -3257.1057    -4567.471     79.68885 
   32400    1965.9197   -118.29259    1.7788054   -116.51379   -51219.814    4.3224081    4.3224081    4.3224081   -51219.814   -53728.701   -53314.842     -46615.9   -23561.428    16526.985    5432.6062    80.756466 
   32500     1459.484   -117.81991    1.3205718   -116.49934   -13660.317      4.29699      4.29699      4.29699   -13660.317   -49569.196   -13067.245    21655.488     30770.11   -661.32697    727.39742    79.340153 
   32600    1356.4768   -117.72577    1.2273687    -116.4984    41477.569    4.2657179    4.2657179    4.2657179    41477.569    25716.709    63354.366    35361.631    47941.038   -10664.498   -4957.3492    77.620494 
   32700    2486.5898    -118.7789    2.2499187   -116.52899    10455.927     4.273632     4.273632     4.273632    10455.927    31639.383    20703.822   -20975.425   -10916.525   -3118.0407   -6792.4628    78.053316 
   32800    1735.5905   -118.12984    1.5703988   -116.55944    25407.132    4.3012353    4.3012353    4.3012353    25407.132    40739.257    11918.047    23564.093    12496.807    12176.106   -2698.0683    79.575544 
   32900     1323.702   -117.73324    1.1977134   -116.53553   -26726.992    4.3279239    4.3279239    4.3279239   -26726.992     11847.79    -77232.28   -14796.486    34112.582    7821.5537   -148.17371    81.066022 
   33000    1838.1582   -118.17361    1.6632042    -116.5104   -31930.886    4.3024907    4.3024907    4.3024907   -31930.886   -66763.753    24123.114   -53152.019   -10548.839   -43420.573   -4227.7521    79.645239 
   33100    1939.2777   -118.22668    1.7546992   -116.47198    45734.982    4.2625626    4.2625626    4.2625626    45734.982   -29470.892    65865.247    100810.59   -12090.197   -4067.2045    -24041.46    77.448374 
   33200    1715.5997   -118.10091    1.5523107    -116.5486    8600.7346    4.2900733    4.2900733    4.2900733    8600.7346     -44346.9    45500.023    24649.081    12414.449    25127.093   -27232.095    78.957636 
   33300    2122.4752   -118.43543    1.9204601   -116.51497   -25018.703    4.3114945    4.3114945    4.3114945   -25018.703    -70211.24   -3759.4435   -1085.4262     5812.715    277.91398   -2710.3888    80.146308 
   33400    1638.6054   -117.99307    1.4826446   -116.51042   -61767.909    4.3147376    4.3147376    4.3147376   -61767.909   -73378.325    -75661.82   -36263.583    10633.253   -1160.6835    5533.1594      80.3273 
   33500    760.30942   -117.21616   0.68794394   -116.52822    -64282.95    4.2989866    4.2989866    4.2989866    -64282.95   -74405.413   -48845.242   -69598.195    28560.259    40805.183    -28122.31    79.450801 
   33600    2242.3046   -118.52558    2.0288843   -116.49669    28808.494    4.2579958    4.2579958    4.2579958    28808.494    11956.679    -21853.82    96322.623   -7754.8266    74.141268   -5007.2591    77.199711 
   33700    2248.6993   -118.60238    2.0346703   -116.56771   -4155.1977    4.2797569    4.2797569    4.2797569   -4155.1977   -4171.9124   -45942.697    37649.017    19612.302   -6991.0953    23351.776    78.389393 
   33800    1317.5045   -117.74757    1.1921058   -116.55546    2774.8714    4.2986139    4.2986139    4.2986139    2774.8714     3607.106   -50615.296    55332.804    43228.065   -6696.0007    26943.702    79.430137 
   33900    1972.5178   -118.32026    1.7847756   -116.53549   -31178.896    4.2986046    4.2986046    4.2986046   -31178.896   -20408.247   -63151.005   -9977.4363   -10252.574    8151.3807   -7049.4411    79.429623 
   34000    1802.4778   -118.16804    1.6309198   -116.53712   -45161.005    4.3070128    4.3070128    4.3070128   -45161.005   -37904.588   -30651.016    -66927.41    7247.4172    11283.575   -5556.6948    79.896635 
   34100    1805.1676   -118.15256    1.6333536   -116.51921   -9373.5999     4.297359     4.297359     4.297359   -9373.5999   -26538.788    15391.593   -16973.604    37191.837   -13424.768    4133.4439    79.360596 
   34200    1779.9588   -118.12832    1.6105442   -116.51777   -3590.4695    4.2946145    4.2946145    4.2946145   -3590.4695   -7546.1617   -4399.6641    1174.4174   -20158.508    20758.997   -13884.822     79.20864 
   34300    1632.1475   -118.00653    1.4768014   -116.52973   -28497.056    4.3096198    4.3096198    4.3096198   -28497.056    31373.434    -60722.05   -56142.553   -32209.293    12085.123    1383.7457    80.041805 
   34400    1963.0736   -118.28677    1.7762302   -116.51054   -2404.8729    4.3050337    4.3050337    4.3050337   -2404.8729    50079.628   -31186.468   -26107.779     17395.48    1095.4235    9173.7134    79.786545 
   34500    2138.8544   -118.44099    1.9352804   -116.50571     -2673.25    4.2893522    4.2893522    4.2893522     -2673.25    10330.823   -59381.016    41030.443   -31010.421    11257.905   -11961.157    78.917827 
   34600    1784.4509   -118.14349    1.6146087   -116.52889    1885.6566    4.2831625    4.2831625    4.2831625    1885.6566    2212.1356   -86984.352    90429.186   -54182.549   -2591.6794    8422.7102    78.576675 
   34700    1907.9086   -118.27225    1.7263158   -116.54593   -2390.2153    4.2963773    4.2963773    4.2963773   -2390.2153    3893.3096   -20225.093    9161.1373    16269.822   -4292.9841    17105.081    79.306219 
   34800    1879.1528   -118.23487    1.7002969   -116.53457   -48742.846    4.3190207    4.3190207    4.3190207   -48742.846   -52142.104   -86713.031   -7373.4024   -42598.715   -20952.195    6003.9771     80.56675 
   34900     1537.794   -117.89139    1.3914283   -116.49997   -18064.291    4.3091885    4.3091885    4.3091885   -18064.291   -44414.917   -48544.579    38766.624   -39308.826     6301.045   -13.820989    80.017776 
   35000    1324.9492   -117.67565    1.1988418   -116.47681    12596.719    4.2853133    4.2853133    4.2853133    12596.719   -10958.843    28719.319     20029.68    20283.682   -10626.179    12831.049    78.695106 
   35100    1982.2549   -118.28808    1.7935859    -116.4945    17413.907    4.2829465    4.2829465    4.2829465    17413.907    69624.768    8070.5558   -25453.602   -19512.203   -34653.022    5109.8873    78.564788 
   35200    2769.0165   -119.01556    2.5054644   -116.51009    19527.861     4.293845     4.293845     4.293845    19527.861    64456.786   -10249.897    4376.6945    6044.7305    14596.491   -12186.956    79.166072 
[...]
   91200    2062.0621   -118.40873    1.8657971   -116.54294      18901.2    4.2865978    4.2865978    4.2865978      18901.2   -43480.589    56124.669    44059.521    7314.7475   -4893.2717     5995.968    78.765894 
   91300    1356.5842   -117.78041    1.2274659   -116.55294    32022.461     4.288419     4.288419     4.288419    32022.461   -26987.667     100599.1    22455.955   -11768.476   -4623.6365     12495.92    78.866329 
   91400    1890.8282    -118.2609    1.7108611   -116.55004   -21597.001    4.2988381    4.2988381    4.2988381   -21597.001   -30200.576   -42650.817    8060.3896   -145.56963    14731.195    3868.7339    79.442564 
   91500    1956.3087   -118.30953    1.7701092   -116.53942   -18617.887    4.2952064    4.2952064    4.2952064   -18617.887   -19083.575    -41502.56    4732.4747     7312.661      8558.08   -13971.176    79.241394 
   91600    2180.4643   -118.50577    1.9729299   -116.53284     6395.013    4.2759713    4.2759713    4.2759713     6395.013    -42489.74    29522.218    32152.561   -4505.7757    5016.4007   -18454.329    78.181561 
   91700    1787.2092   -118.18749    1.6171045   -116.57038    17819.007    4.2912805    4.2912805    4.2912805    17819.007   -55853.816    105060.19     4250.652    7246.0637    23072.519   -10301.155    79.024307 
   91800     1856.647   -118.22575    1.6799333   -116.54582   -27498.689    4.3174734    4.3174734    4.3174734   -27498.689    -68285.84   -1423.9121   -12786.314    2199.7599    14251.579    30623.694    80.480194 
   91900    1701.7726   -118.04957    1.5397996   -116.50977   -5752.5177    4.3057057    4.3057057    4.3057057   -5752.5177   -57254.062    28224.932    11771.577   -12593.944     12240.38    24102.323    79.823914 
   92000    1303.3954   -117.69049    1.1793395   -116.51115    -11033.65    4.2855041    4.2855041    4.2855041    -11033.65   -80213.042    49432.229   -2320.1379    2782.7633    35999.989    20449.965    78.705622 
   92100    1710.9666   -118.08303    1.5481186   -116.53491      3815.96     4.274856     4.274856     4.274856      3815.96   -82695.424    26492.576    67650.728   -2210.4133    14092.616   -4479.2766    78.120404 
   92200    2589.4774   -118.90282    2.3430136   -116.55981   -7115.2068    4.2894847    4.2894847    4.2894847   -7115.2068   -59697.284    10667.076    27684.587   -18961.254    3589.9805   -15192.064    78.925141 
   92300    2060.6998   -118.42405    1.8645645   -116.55948   -20817.773    4.3131621    4.3131621    4.3131621   -20817.773    -58113.12    481.83562   -4822.0363      24785.4    18122.151   -21797.273     80.23934 
   92400    1045.6823   -117.46826   0.94615529   -116.52211     3667.583     4.314822     4.314822     4.314822     3667.583   -49315.706    69949.333    -9630.879    6562.4644   -9059.9953   -6345.6735    80.332014 
   92500    1340.4761   -117.69512    1.2128909   -116.48223    17950.042    4.2997198    4.2997198    4.2997198    17950.042   -54728.708    73810.524    34768.309   -93.747001   -539.89314    13506.478     79.49146 
   92600    1719.7795   -118.04657    1.5560927   -116.49048   -1117.9629    4.2887466    4.2887466    4.2887466   -1117.9629   -42919.649   -40996.723    80562.483    31907.539    11433.668    4847.9032    78.884405 
   92700    2009.1387   -118.32012    1.8179109   -116.50221   -2769.3552    4.2887868    4.2887868    4.2887868   -2769.3552    -41069.75   -13039.841    45801.526   -18918.951     8807.755    4071.0893    78.886622 
   92800    2245.1656   -118.55759     2.031473   -116.52612   -49147.341    4.3098207    4.3098207    4.3098207   -49147.341   -81026.844   -28675.865   -37739.313    5497.8651    30285.519     -15786.4    80.052998 
   92900    1420.3034   -117.80598    1.2851204   -116.52086   -24936.541    4.3003082    4.3003082    4.3003082   -24936.541   -31682.593    -1312.222   -41814.809    26669.329    17743.732    42626.947    79.524097 
   93000    1391.9567   -117.77163    1.2594717   -116.51216    1676.0393     4.266686     4.266686     4.266686    1676.0393    -4571.886    4904.2651    4695.7389    6955.6191    14373.772      42435.6    77.673353 
   93100    2108.4794   -118.46162    1.9077964   -116.55383    3013.4449    4.2713182    4.2713182    4.2713182    3013.4449   -47169.537    26583.434    29626.438   -16360.426    17262.206   -42045.246     77.92661 
   93200    1739.4628   -118.13878    1.5739025   -116.56488   -17728.765    4.3016502    4.3016502    4.3016502   -17728.765   -41508.867    8037.9743   -19715.403   -16319.533    5169.4789    6493.1763    79.598571 
   93300    1411.8565   -117.81425    1.2774775   -116.53678   -7535.8888    4.3102795    4.3102795    4.3102795   -7535.8888   -23430.619   -38164.708    38987.661   -130.56377   -4226.7792    48817.861    80.078567 
   93400    2069.2761   -118.37301    1.8723245   -116.50069    13368.115    4.2955915    4.2955915    4.2955915    13368.115   -42938.412    44588.121    38454.635   -5074.5986    10221.876    2382.8849    79.262709 
   93500    1944.8294   -118.26479    1.7597226   -116.50507    10363.138    4.2858253    4.2858253    4.2858253    10363.138   -36622.456    -14282.75     81994.62    -5126.591    5625.8019    22952.376    78.723316 
   93600    1201.0711   -117.62458    1.0867544   -116.53782    12154.835    4.2946883    4.2946883    4.2946883    12154.835   -29245.564    49717.238    15992.831   -9650.3238    273.96145    42706.391    79.212722 
   93700    1904.0206   -118.24827    1.7227979   -116.52547   -5265.3835     4.304386     4.304386     4.304386   -5265.3835   -49333.977   -5663.3608    39201.187   -3519.7786    19694.497     -15509.3     79.75054 
   93800    1737.1267   -118.08934    1.5717887   -116.51755   -21765.782    4.3055711    4.3055711    4.3055711   -21765.782    -50222.87   -18095.711    3021.2334    22856.509     8994.479       -17091    79.816431 
   93900    1476.6933     -117.838    1.3361432   -116.50186   -746.02769    4.2902183    4.2902183    4.2902183   -746.02769   -729.82812   -22531.797    21023.542   -3413.1901   -852.16711    33094.337     78.96564 
   94000    2248.6416   -118.54446    2.0346182   -116.50984    18315.869     4.283546     4.283546     4.283546    18315.869   -21276.844    89948.245   -13723.793    77.176151    19829.133   -14549.761    78.597785 
   94100    2353.1181   -118.65612    2.1291507   -116.52697    7375.4525     4.277427     4.277427     4.277427    7375.4525   -20862.769    35622.194    7366.9331    2068.1913    10694.969    5136.5186    78.261436 
   94200    1807.1522   -118.19573    1.6351493   -116.56058    45717.031    4.2811168    4.2811168    4.2811168    45717.031    18986.511    81041.811    37122.771    9352.1031    -5068.888    28750.888    78.464141 
   94300    1626.0137   -118.01524    1.4712514   -116.54399    -31684.37    4.3130548    4.3130548    4.3130548    -31684.37    -31833.74   -26572.686   -36646.684   -648.56406    12175.871    2760.7421    80.233351 
   94400    1859.3547   -118.19694    1.6823832   -116.51455   -10904.558     4.295547     4.295547     4.295547   -10904.558   -25326.845    4297.6507    -11684.48     16314.47    8976.4531   -14567.268    79.260248 
   94500    1732.6362   -118.08011    1.5677256   -116.51238    15151.183    4.2754724    4.2754724    4.2754724    15151.183    1698.4897    60059.358   -16304.299    1399.0319   -13289.594    23053.258    78.154201 
   94600    1840.3157   -118.21239    1.6651563   -116.54724   -13608.299    4.2961279    4.2961279    4.2961279   -13608.299   -14536.182   -5074.7711   -21213.943   -6488.1821   -7237.4915    43161.745    79.292406 
   94700    2033.8139   -118.35726    1.8402375   -116.51703   -19275.146     4.308302     4.308302     4.308302   -19275.146   -38604.656   -13607.032   -5613.7505    24300.895    17216.702   -19166.893    79.968401 
   94800    2011.4741   -118.32012     1.820024   -116.50009   -20651.792    4.2961153    4.2961153    4.2961153   -20651.792   -7225.1137   -18795.824   -35934.437    5678.9273    6109.4726    20448.554    79.291711 
   94900    1569.3022   -117.92754    1.4199376    -116.5076   -26650.534    4.2947641    4.2947641    4.2947641   -26650.534    19508.224   -38257.989   -61201.836    3813.3614   -10373.942    46645.808    79.216917 
   95000    1532.8773   -117.90455    1.3869796   -116.51757    33161.509    4.2805105    4.2805105    4.2805105    33161.509    97460.278    12180.699   -10156.451      -8228.4    11140.183   -13160.091    78.430812 
   95100    1592.8594   -117.99092    1.4412527   -116.54966   -5174.5114    4.2988621    4.2988621    4.2988621   -5174.5114   -7953.8033   -23187.347    15617.616   -7751.2385    28503.112    2071.3946    79.443898 
   95200    2045.7894   -118.36616    1.8510733   -116.51509   -35151.397    4.3128108    4.3128108    4.3128108   -35151.397   -14630.001   -59680.289     -31143.9   -9899.6582   -15002.438    39307.741    80.219736 
   95300    2060.3712   -118.34881    1.8642672   -116.48454    22023.737    4.2891689    4.2891689    4.2891689    22023.737     35106.28    6838.1935    24126.736    12102.123   -27468.632   -10214.878    78.907711 
   95400    1577.5203    -117.9354    1.4273735   -116.50803    7768.6525    4.2866033    4.2866033    4.2866033    7768.6525   -15583.722    55958.985   -17069.305   -4730.0123    41952.346   -7473.4923    78.766197 
   95500    1760.3951   -118.11378    1.5928425   -116.52094   -10343.868    4.2879371    4.2879371    4.2879371   -10343.868   -9120.6496   -22245.343    334.38756   -3929.1405     24278.69    15901.986    78.839747 
   95600    1531.4819   -117.92109     1.385717   -116.53537    33712.983    4.2816233    4.2816233    4.2816233    33712.983    3894.1492    65309.272    31935.527    14245.777    -44977.66    14492.297    78.491993 
   95700    2174.9597   -118.50092    1.9679492   -116.53297    -14131.58    4.2887639    4.2887639    4.2887639    -14131.58   -55684.638    31842.491   -18552.594   -125.48151   -587.06351   -3462.7353    78.885362 
   95800    1897.1127    -118.2401    1.7165475   -116.52355    9578.7375    4.2883834    4.2883834    4.2883834    9578.7375    27796.955   -4235.9544    5175.2122    9828.6334    33334.534     2624.669    78.864365 
   95900     1264.643   -117.68148    1.1442755    -116.5372     31831.14    4.2868024    4.2868024    4.2868024     31831.14    68208.726    24926.046    2358.6478    13663.868   -14387.491    4437.4605    78.777175 
   96000     2249.544   -118.55215    2.0354347   -116.51671    -25239.87    4.3087247    4.3087247    4.3087247    -25239.87   -69495.719    15871.683   -22095.574   -498.09065   -24042.102   -5213.5195    79.991944 
   96100    1878.2249   -118.18515    1.6994573   -116.48569    9982.5348    4.3220735    4.3220735    4.3220735    9982.5348    12397.092   -27494.479    45044.991    9961.2709   -13933.397    24745.138    80.737715 
   96200     2139.524   -118.39489    1.9358863     -116.459   -19259.897    4.3208217    4.3208217    4.3208217   -19259.897   -41990.438   -44162.613     28373.36   -11504.656    3399.6845     3513.618    80.667579 
   96300    1309.6072   -117.63996    1.1849601     -116.455    7144.1336    4.3318439    4.3318439    4.3318439    7144.1336    51774.868    -17182.24   -13160.228   -1993.1344   -7735.7623   -22283.713    81.286493 
   96400    1251.2204   -117.56391    1.1321306   -116.43178    8219.5189    4.3379377    4.3379377    4.3379377    8219.5189     18285.01    1061.7884    5311.7581    7137.1026   -10500.203    657.46511    81.630026 
   96500    1630.3746   -117.86344    1.4751972   -116.38824   -22641.844    4.3367451    4.3367451    4.3367451   -22641.844   -80368.865   -13956.996     26400.33    15017.101   -10881.717       1301.7     81.56272 
   96600    1157.1715   -117.42865    1.0470331   -116.38161    26661.126    4.3255114    4.3255114    4.3255114    26661.126     21951.69   -22817.088    80848.777    18381.614   -40216.172    15661.621    80.930531 
   96700    2499.1339   -118.64582    2.2612689   -116.38455   -57615.155    4.3216023    4.3216023    4.3216023   -57615.155    -69353.88   -25193.703   -78297.883   -15365.447     14157.34   -29434.644     80.71131 
   96800    1488.4538   -117.77782    1.3467843   -116.43104    31197.323    4.3274913    4.3274913    4.3274913    31197.323     48079.75    56786.709   -11274.492    38147.409   -35313.747    16256.726    81.041711 
   96900    2346.1762   -118.55362    2.1228696   -116.43075   -11422.593    4.3300332    4.3300332    4.3300332   -11422.593    34650.264    5773.1454   -74691.188    12074.382    5810.6118   -10066.277    81.184604 
   97000    1986.4579   -118.22471    1.7973888   -116.42732    20959.991    4.3238781    4.3238781    4.3238781    20959.991    64878.594    18316.256   -20314.877    8632.2752    5671.3269    7032.1293    80.838884 
   97100    1577.9686   -117.86649    1.4277792   -116.43871    22373.587    4.3248966    4.3248966    4.3248966    22373.587    34312.383    65248.794   -32440.415    28281.622   -19523.208   -3596.1524    80.896027 
   97200    1922.1126   -118.18653    1.7391679   -116.44736   -54006.893    4.3314952    4.3314952    4.3314952   -54006.893   -68153.109   -52621.251    -41246.32    -2148.795   -18552.741   -29303.552    81.266868 
   97300    2122.1523   -118.35924     1.920168   -116.43907   -9951.6171    4.3085631    4.3085631    4.3085631   -9951.6171   -45359.798   -16270.211    31775.158   -960.73999   -3812.6179    4169.7981    79.982942 
   97400    1337.9811   -117.67852    1.2106334   -116.46789     56587.63    4.2895948    4.2895948    4.2895948     56587.63    67014.517    36603.443    66144.931   -8225.1766   -23415.319    18128.614     78.93122 
   97500    1343.1528   -117.73617    1.2153129   -116.52086   -3.6397068     4.308383     4.308383     4.308383   -3.6397068    27054.464     4215.048   -31280.431     3657.536   -5931.5068   -39191.199    79.972911 
   97600    2063.3323   -118.38578    1.8669464   -116.51883   -14647.712    4.2964474    4.2964474    4.2964474   -14647.712    16613.526    12717.196   -73273.858   -3226.9029    2262.6778   -28467.195      79.3101 
   97700    2373.3165   -118.65513    2.1474266    -116.5077    30308.561    4.2677484    4.2677484    4.2677484    30308.561    69891.629     46206.53   -25172.475    -13488.23    6819.0768    13905.001    77.731387 
   97800    1776.3927   -118.17823    1.6073174   -116.57091   -42639.229    4.2903772    4.2903772    4.2903772   -42639.229   -43601.217   -11335.122   -72981.347    1496.7724   -11596.961   -3980.6048    78.974417 
   97900    1212.6197   -117.65211    1.0972038   -116.55491   -3234.7632    4.3173116    4.3173116    4.3173116   -3234.7632   -54224.528    6768.6382      37751.6    14607.438     1580.583   -3486.6228    80.471144 
   98000    2056.4266   -118.36756     1.860698   -116.50686    -48480.34    4.3376047    4.3376047    4.3376047    -48480.34   -75315.609   -25704.126   -44421.284    14316.458   -9894.8374    2909.9061     81.61123 
   98100    1850.0094    -118.1463    1.6739274   -116.47238   -70628.888    4.3231188    4.3231188    4.3231188   -70628.888   -115223.77   -5686.0463   -90976.851   -4150.7892   -17654.165   -2728.8852    80.796307 
   98200    1457.3001   -117.78133    1.3185958   -116.46273    29770.102     4.261614     4.261614     4.261614    29770.102    21524.284    98506.851   -30720.829    -19425.44    31680.835   -15972.308     77.39668 
   98300    1821.3374   -118.18062    1.6479843   -116.53264    48248.491    4.2605291    4.2605291    4.2605291    48248.491    84694.772    27883.957    32166.744   -400.94364    18908.511   -20621.872    77.337585 
   98400    1807.2585   -118.19583    1.6352455   -116.56058   -25091.196    4.3141327    4.3141327    4.3141327   -25091.196    -42049.74   -40623.209     7399.361   -3873.3994    13688.354     13941.18    80.293518 
   98500    2028.2303   -118.34685    1.8351854   -116.51167   -13687.854    4.3157737    4.3157737    4.3157737   -13687.854   -51247.317    28510.878   -18327.122    16023.895   -8160.4377   -3237.8238     80.38518 
   98600    1667.6028   -117.99965     1.508882   -116.49077    30085.877    4.2958349    4.2958349    4.2958349    30085.877    22624.025    66393.355    1240.2522    11794.128   -3515.3533   -30799.454    79.276187 
   98700    1440.8272   -117.80549    1.3036907    -116.5018    34094.917    4.2873706    4.2873706    4.2873706    34094.917    42522.921    35086.866    24674.965   -9253.7849    12858.234    15494.015    78.808501 
   98800    2120.0816   -118.42765    1.9182944   -116.50935    15644.604    4.2864396    4.2864396    4.2864396    15644.604   -12608.772      53144.7    6397.8852   -11936.816   -4086.6763    31383.958    78.757174 
   98900    2286.6412   -118.61375     2.069001   -116.54475   -13999.167     4.313688     4.313688     4.313688   -13999.167   -3232.8025   -707.76796   -38056.932    15079.024   -1636.7439   -7597.0877    80.268694 
   99000    1615.4827   -117.97569    1.4617227   -116.51397    -20452.01    4.3342615    4.3342615    4.3342615    -20452.01    25413.085   -29582.555    -57186.56    18965.552   -13605.702   -14579.416    81.422669 
   99100    2142.5716   -118.40199    1.9386439   -116.46335   -50028.281    4.3130151    4.3130151    4.3130151   -50028.281   -53368.383   -36865.662   -59850.799   -5092.1215   -13686.434    33108.242    80.231137 
   99200    1875.5939   -118.14398    1.6970768    -116.4469    13832.221    4.2843979    4.2843979    4.2843979    13832.221   -14715.808    5811.1983    50401.272    8874.8066    7139.1139    4771.6601    78.644685 
   99300    1318.5707   -117.70287    1.1930705    -116.5098     28649.85    4.2938673    4.2938673    4.2938673     28649.85      43553.7    60336.358    -17940.51    26762.428   -17826.949     1719.436    79.167305 
   99400    1682.7727   -118.03938    1.5226081   -116.51678    297.59616    4.3183797    4.3183797    4.3183797    297.59616    66143.664    4996.3469   -70247.223   -476.79459   -11434.173     16514.37    80.530888 
   99500    2293.4275   -118.55514    2.0751414      -116.48   -15236.748    4.3178925    4.3178925    4.3178925   -15236.748   -32490.588   -22612.953    9393.2974   -8264.7648    9708.2714    5828.5816    80.503635 
   99600    2593.6901   -118.82621    2.3468253   -116.47938   -22762.288    4.2945181    4.2945181    4.2945181   -22762.288   -8532.8179   -32657.844   -27096.203    8254.1075    -11402.97    9988.0252    79.203305 
   99700    1115.0566   -117.51109    1.0089266   -116.50216    63186.279    4.2663351    4.2663351    4.2663351    63186.279    27397.803    98890.771    63270.263   -19102.943    5906.7389     6078.062    77.654191 
   99800    1312.9188   -117.74424    1.1879565   -116.55628    5762.3524    4.2884542    4.2884542    4.2884542    5762.3524   -3276.2942    6235.1212     14328.23    -25702.54   -428.21107   -30532.417     78.86827 
   99900    2007.6835   -118.33853    1.8165942   -116.52194   -18079.231    4.3266792    4.3266792    4.3266792   -18079.231   -34655.998    25386.737   -44968.431   -3791.3121    -118.0313   -17781.689    80.996098 
  100000    1926.9892   -118.22518    1.7435803    -116.4816     855.0895    4.3254102    4.3254102    4.3254102     855.0895      20083.1    6671.8632   -24189.695    -21607.43    12591.016    15539.132    80.924852 
Loop time of 221.975 on 1 procs for 100000 steps with 8 atoms

Pair  time (%) = 70.743 (31.8698)
Kspce time (%) = 58.1727 (26.2069)
Neigh time (%) = 1.76942 (0.797129)
Comm  time (%) = 11.0795 (4.99132)
Outpt time (%) = 0.76151 (0.343062)
Other time (%) = 79.4487 (35.7918)

Nlocal:    8 ave 8 max 8 min
Histogram: 1 0 0 0 0 0 0 0 0 0
Nghost:    2147 ave 2147 max 2147 min
Histogram: 1 0 0 0 0 0 0 0 0 0
Neighs:    2173 ave 2173 max 2173 min
Histogram: 1 0 0 0 0 0 0 0 0 0

Total # of neighbors = 2173
Ave neighs/atom = 271.625
Neighbor list builds = 2754
Dangerous builds = 0
seeds:4315284
