# ['Ni']

28 atoms
1 atom types

    0.0000     2.4821 xlo xhi
    0.0000     4.2992 ylo yhi
    0.0000    28.3731 zlo zhi

    0.0000     0.0000     0.0000 xy xz yz

Atoms

1 1     0.0000     0.0000     0.0000
2 1     1.2411     2.1496     0.0000
3 1     1.2411     0.7165     2.0267
4 1     0.0000     2.8661     2.0267
5 1     0.0000     1.4331     4.0533
6 1     1.2411     3.5826     4.0533
7 1     0.0000     0.0000     6.0800
8 1     1.2411     2.1496     6.0800
9 1     1.2411     0.7165     8.1066
10 1     0.0000     2.8661     8.1066
11 1     0.0000     1.4331    10.1333
12 1     1.2411     3.5826    10.1333
13 1     0.0000     0.0000    12.1599
14 1     1.2411     2.1496    12.1599
15 1     0.0000     1.4331    14.1866
16 1     1.2411     3.5826    14.1866
17 1     0.0000     0.0000    16.2132
18 1     1.2411     2.1496    16.2132
19 1     1.2411     0.7165    18.2399
20 1     0.0000     2.8661    18.2399
21 1     0.0000     1.4331    20.2665
22 1     1.2411     3.5826    20.2665
23 1     0.0000     0.0000    22.2932
24 1     1.2411     2.1496    22.2932
25 1     1.2411     0.7165    24.3198
26 1     0.0000     2.8661    24.3198
27 1     0.0000     1.4331    26.3465
28 1     1.2411     3.5826    26.3465
