# ['Ni']

10 atoms
1 atom types

    0.0000     2.9487 xlo xhi
    0.0000     2.1108 ylo yhi
    0.0000    21.1079 zlo zhi

    0.0000     0.0000     0.0000 xy xz yz

Atoms

1 1     0.0000     0.0000     0.0000
2 1     1.4743     1.0554     1.0554
3 1     0.0000     0.0000     2.1108
4 1     1.4743     1.0554     3.1662
5 1     0.0000     0.0000     4.2216
6 1     1.4743     1.0554     5.2770
7 1     0.0000     0.0000     6.3324
8 1     1.4743     1.0554     7.3878
9 1     0.0000     0.0000     8.4432
10 1     1.4743     1.0554     9.4986
