LAMMPS (11 Aug 2017)
include init.mod
# ---- init.mod file
variable up equal 1.0e-6
units metal
dimension 3
boundary p p p
atom_style atomic
atom_modify map array
variable cfac equal 1.0e-4
variable cunits string GPa
# ---- define minimization parameters
variable etol equal 0.0
variable ftol equal 1.0e-10
variable maxiter equal 100
variable maxeval equal 1000
variable dmax equal 1.0e-2
# --- read data structure
read_data lammps.structure
  triclinic box = (0 0 0) to (4.05 4.05 4.05) with tilt (0 -0 0)
  1 by 1 by 1 MPI processor grid
  reading atoms ...
  4 atoms
include potential.mod
mass 1 26.982

group Al type 1
4 atoms in group Al

pair_style eam/alloy
pair_coeff * * /home/sullberg/repos/pypospack/examples/Al__eam__born_exp_fs/pareto_optimization_3.5NN/rank_0/Al_fcc.lmps_elastic/Al.eam.alloy Al

neighbor 1.0 bin
neigh_modify every 1 delay 0 check yes
thermo	1
thermo_style custom step temp pe press pxx pyy pzz pxy pxz pyz lx ly lz vol
thermo_modify norm no
# ---- Compute initial state
fix 3 all box/relax aniso 0.0
minimize ${etol} ${ftol} ${maxiter} ${maxeval}
minimize 0 ${ftol} ${maxiter} ${maxeval}
minimize 0 1e-10 ${maxiter} ${maxeval}
minimize 0 1e-10 100 ${maxeval}
minimize 0 1e-10 100 1000
Neighbor list info ...
  update every 1 steps, delay 0 steps, check yes
  max neighbors/atom: 2000, page size: 100000
  master list distance cutoff = 6.34397
  ghost atom cutoff = 6.34397
  binsize = 3.17199, bins = 2 2 2
  1 neighbor lists, perpetual/occasional/extra = 1 0 0
  (1) pair eam/alloy, perpetual
      attributes: half, newton on
      pair build: half/bin/newton/tri
      stencil: half/bin/3d/newton/tri
      bin: standard
Per MPI rank memory allocation (min/avg/max) = 4.086 | 4.086 | 4.086 Mbytes
Step Temp PotEng Press Pxx Pyy Pzz Pxy Pxz Pyz Lx Ly Lz Volume 
       0            0   -9.1585333   -103611.18   -103611.18   -103611.18   -103611.18 -7.2798896e-12 -8.7023967e-12 -1.1714765e-11         4.05         4.05         4.05    66.430125 
       1            0   -9.1598216   -103564.93   -103564.93   -103564.93   -103564.93 -1.339232e-12 -1.7326314e-11 -1.129977e-11     4.049595     4.049595     4.049595    66.410198 
       2            0   -9.1611092   -103518.52   -103518.52   -103518.52   -103518.52 2.9304491e-12 -2.0931779e-12 8.3727118e-13      4.04919      4.04919      4.04919    66.390275 
       3            0   -9.1623959   -103471.98   -103471.98   -103471.98   -103471.98 5.778905e-12 -5.5276482e-12 -1.2395332e-11     4.048785     4.048785     4.048785    66.370356 
       4            0   -9.1636817   -103425.28   -103425.28   -103425.28   -103425.28 3.6862049e-12 3.1835406e-12 -2.6808763e-12      4.04838      4.04838      4.04838    66.350441 
       5            0   -9.1649668   -103378.44   -103378.44   -103378.44   -103378.44 5.3633621e-12 1.6760507e-11 1.0056304e-11     4.047975     4.047975     4.047975     66.33053 
       6            0    -9.166251   -103331.46   -103331.46   -103331.46   -103331.46 2.5148307e-12 -1.777147e-11 -7.3768368e-12      4.04757      4.04757      4.04757    66.310623 
       7            0   -9.1675343   -103284.33   -103284.33   -103284.33   -103284.33 8.7206974e-12 1.643516e-11 1.2158665e-11     4.047165     4.047165     4.047165    66.290719 
       8            0   -9.1688168   -103237.05   -103237.05   -103237.05   -103237.05 4.8649262e-12 -1.5517437e-11 -8.3039258e-12      4.04676      4.04676      4.04676     66.27082 
       9            0   -9.1700985   -103189.63   -103189.63   -103189.63   -103189.63 -1.3424516e-12 8.3903227e-14 -1.065571e-11     4.046355     4.046355     4.046355    66.250925 
      10            0   -9.1713793   -103142.06   -103142.06   -103142.06   -103142.06 3.7767791e-12 1.2001765e-11 2.291246e-11      4.04595      4.04595      4.04595    66.231034 
      11            0   -9.1726593   -103094.34   -103094.34   -103094.34   -103094.34 -3.8618672e-12 -2.9383772e-12 -1.4691886e-11     4.045545     4.045545     4.045545    66.211147 
      12            0   -9.1739384   -103046.47   -103046.47   -103046.47   -103046.47 -9.2376738e-12 -1.4528342e-11 -2.7713021e-12      4.04514      4.04514      4.04514    66.191263 
      13            0   -9.1752167   -102998.46   -102998.46   -102998.46   -102998.46 -4.2002041e-13 -7.5603674e-13 5.7962817e-12     4.044735     4.044735     4.044735    66.171384 
      14            0   -9.1764941    -102950.3    -102950.3    -102950.3    -102950.3 3.3611728e-12 -1.7730187e-11 -1.5713483e-11      4.04433      4.04433      4.04433    66.151509 
      15            0   -9.1777706   -102901.99   -102901.99   -102901.99   -102901.99 8.4895116e-12 -4.3708376e-12 1.3028458e-11     4.043925     4.043925     4.043925    66.131638 
      16            0   -9.1790463   -102853.53   -102853.53   -102853.53   -102853.53 1.1771176e-12 6.8104662e-12 -2.2701554e-12      4.04352      4.04352      4.04352     66.11177 
      17            0   -9.1803212   -102804.92   -102804.92   -102804.92   -102804.92 -1.0513137e-11 -3.364204e-12 1.0092612e-12     4.043115     4.043115     4.043115    66.091907 
      18            0   -9.1815952   -102756.17   -102756.17   -102756.17   -102756.17 7.7399948e-12 -3.2810848e-12 -4.2065189e-12      4.04271      4.04271      4.04271    66.072048 
      19            0   -9.1828683   -102707.26   -102707.26   -102707.26   -102707.26 3.7028494e-12 2.9454484e-12 -9.0046565e-12     4.042305     4.042305     4.042305    66.052192 
      20            0   -9.1841406   -102658.21   -102658.21   -102658.21   -102658.21 -2.4412481e-12 -3.9565055e-12 -9.9333542e-12       4.0419       4.0419       4.0419    66.032341 
      21            0    -9.185412   -102609.01   -102609.01   -102609.01   -102609.01 1.5493955e-11 -1.4315067e-12 4.9681704e-12     4.041495     4.041495     4.041495    66.012493 
      22            0   -9.1866825   -102559.66   -102559.66   -102559.66   -102559.66 3.4534955e-12 -5.3065907e-12 -1.3140129e-11      4.04109      4.04109      4.04109     65.99265 
      23            0   -9.1879522   -102510.15   -102510.15   -102510.15   -102510.15 -5.9822419e-12 8.4256928e-12 1.2638539e-12     4.040685     4.040685     4.040685    65.972811 
      24            0    -9.189221    -102460.5    -102460.5    -102460.5    -102460.5 1.7699276e-12 6.3211702e-12 -1.1125259e-11      4.04028      4.04028      4.04028    65.952975 
      25            0   -9.1904889    -102410.7    -102410.7    -102410.7    -102410.7 -9.2738381e-13 -3.54092e-12 7.5876857e-13     4.039875     4.039875     4.039875    65.933144 
      26            0    -9.191756   -102360.75   -102360.75   -102360.75   -102360.75 1.3493277e-12 2.6986554e-12 -1.0963287e-12      4.03947      4.03947      4.03947    65.913316 
      27            0   -9.1930222   -102310.64   -102310.64   -102310.64   -102310.64 5.1458594e-12 2.0077288e-11 1.4087845e-11     4.039065     4.039065     4.039065    65.893493 
      28            0   -9.1942875   -102260.39   -102260.39   -102260.39   -102260.39 -3.2065818e-12 -1.1729339e-11 -4.6411053e-12      4.03866      4.03866      4.03866    65.873673 
      29            0   -9.1955519   -102209.98   -102209.98   -102209.98   -102209.98 5.9086386e-12 -4.7269109e-12 1.0129095e-12     4.038255     4.038255     4.038255    65.853857 
      30            0   -9.1968155   -102159.42   -102159.42   -102159.42   -102159.42 8.4434525e-14 1.5198214e-12 -2.1952976e-12      4.03785      4.03785      4.03785    65.834046 
      31            0   -9.1980781   -102108.71   -102108.71   -102108.71   -102108.71 -2.618258e-12 -6.0811154e-12 -1.7989967e-11     4.037445     4.037445     4.037445    65.814238 
      32            0   -9.1993399   -102057.85   -102057.85   -102057.85   -102057.85 4.0552972e-12 -6.4208872e-12 -5.9139751e-12      4.03704      4.03704      4.03704    65.794434 
      33            0   -9.2006009   -102006.84   -102006.84   -102006.84   -102006.84 -4.9016259e-12 -1.7493734e-11 -2.8733669e-12     4.036635     4.036635     4.036635    65.774635 
      34            0   -9.2018609   -101955.67   -101955.67   -101955.67   -101955.67 3.3814493e-12 -9.0453769e-12 4.9031015e-12      4.03623      4.03623      4.03623    65.754839 
      35            0     -9.20312   -101904.35   -101904.35   -101904.35   -101904.35 2.1986038e-12 1.657409e-11 1.8349886e-11     4.035825     4.035825     4.035825    65.735047 
      36            0   -9.2043783   -101852.88   -101852.88   -101852.88   -101852.88 -1.3533944e-11 -1.1926788e-11 -1.0488806e-11      4.03542      4.03542      4.03542    65.715259 
      37            0   -9.2056357   -101801.26   -101801.26   -101801.26   -101801.26 1.2099605e-11 9.6458388e-12 1.3199569e-11     4.035015     4.035015     4.035015    65.695476 
      38            0   -9.2068922   -101749.48   -101749.48   -101749.48   -101749.48 7.6174294e-13 1.0495125e-11 1.0156573e-12      4.03461      4.03461      4.03461    65.675696 
      39            0   -9.2081477   -101697.54   -101697.54   -101697.54   -101697.54 -1.5239448e-12 -2.4552443e-11 -1.3207521e-11     4.034205     4.034205     4.034205     65.65592 
      40            0   -9.2094024   -101645.46   -101645.46   -101645.46   -101645.46 1.2788054e-11 2.8794294e-12 -2.540673e-12       4.0338       4.0338       4.0338    65.636148 
      41            0   -9.2106562   -101593.22   -101593.22   -101593.22   -101593.22 -2.20258e-12 8.3020323e-12 6.8618838e-12     4.033395     4.033395     4.033395     65.61638 
      42            0   -9.2119091   -101540.82   -101540.82   -101540.82   -101540.82 -6.6097309e-12 -1.6948028e-12 2.6269443e-12      4.03299      4.03299      4.03299    65.596616 
      43            0   -9.2131611   -101488.27   -101488.27   -101488.27   -101488.27 1.3562508e-12 6.8660196e-12 1.1867194e-12     4.032585     4.032585     4.032585    65.576856 
      44            0   -9.2144122   -101435.57   -101435.57   -101435.57   -101435.57 1.7806156e-12 -1.1022858e-12 1.1785979e-11      4.03218      4.03218      4.03218      65.5571 
      45            0   -9.2156624   -101382.71   -101382.71   -101382.71   -101382.71 1.577592e-11 1.2807333e-11 1.5097386e-11     4.031775     4.031775     4.031775    65.537348 
      46            0   -9.2169117    -101329.7    -101329.7    -101329.7    -101329.7 2.9694818e-12 1.5271621e-12 7.5509681e-12      4.03137      4.03137      4.03137      65.5176 
      47            0   -9.2181601   -101276.53   -101276.53   -101276.53   -101276.53 -1.0523621e-11 -1.4172942e-11 -6.7045652e-12     4.030965     4.030965     4.030965    65.497856 
      48            0   -9.2194076    -101223.2    -101223.2    -101223.2    -101223.2 1.2734025e-11 2.3091032e-11 2.2496777e-11      4.03056      4.03056      4.03056    65.478116 
      49            0   -9.2206542   -101169.72   -101169.72   -101169.72   -101169.72 6.8784467e-12 1.1379159e-11 7.4728804e-12     4.030155     4.030155     4.030155    65.458379 
      50            0   -9.2218998   -101116.08   -101116.08   -101116.08   -101116.08 -1.4950268e-11 -1.9622226e-11 -1.1297645e-11      4.02975      4.02975      4.02975    65.438647 
      51            0   -9.2231446   -101062.29   -101062.29   -101062.29   -101062.29 -1.5294657e-12 1.9203292e-11 1.8268618e-11     4.029345     4.029345     4.029345    65.418919 
      52            0   -9.2243884   -101008.33   -101008.33   -101008.33   -101008.33 1.6999189e-12 4.2497973e-12 -3.7398216e-12      4.02894      4.02894      4.02894    65.399195 
      53            0   -9.2256314   -100954.23   -100954.23   -100954.23   -100954.23 9.777482e-12 1.7089338e-11 1.1477914e-11     4.028535     4.028535     4.028535    65.379474 
      54            0   -9.2268734   -100899.96   -100899.96   -100899.96   -100899.96 1.0205668e-12 -1.0971093e-11 -1.1226234e-11      4.02813      4.02813      4.02813    65.359758 
      55            0   -9.2281145   -100845.54   -100845.54   -100845.54   -100845.54 -2.1268222e-12 -1.2165423e-11 3.7432071e-12     4.027725     4.027725     4.027725    65.340045 
      56            0   -9.2293546   -100790.96   -100790.96   -100790.96   -100790.96 1.0126728e-11 2.3402103e-11 2.238092e-11      4.02732      4.02732      4.02732    65.320337 
      57            0   -9.2305939   -100736.22   -100736.22   -100736.22   -100736.22 3.7454663e-12 -1.7876089e-12 -4.000839e-12     4.026915     4.026915     4.026915    65.300633 
      58            0   -9.2318322   -100681.32   -100681.32   -100681.32   -100681.32 -1.0473441e-11 -3.7465966e-12 -9.4516415e-12      4.02651      4.02651      4.02651    65.280932 
      59            0   -9.2330696   -100626.26   -100626.26   -100626.26   -100626.26  1.36281e-12 2.4700931e-12 3.832903e-12     4.026105     4.026105     4.026105    65.261235 
      60            0   -9.2343061   -100571.05   -100571.05   -100571.05   -100571.05 -9.3721466e-13 3.4932546e-12 -2.1300333e-12       4.0257       4.0257       4.0257    65.241543 
      61            0   -9.2355416   -100515.68   -100515.68   -100515.68   -100515.68 -4.943169e-12 -1.5085188e-11 -6.477256e-12     4.025295     4.025295     4.025295    65.221854 
      62            0   -9.2367762   -100460.14   -100460.14   -100460.14   -100460.14 1.0571345e-11 2.5575835e-13 -6.5644642e-12      4.02489      4.02489      4.02489     65.20217 
      63            0   -9.2380099   -100404.45   -100404.45   -100404.45   -100404.45 -1.7055705e-13 1.0489258e-11 4.0080906e-12     4.024485     4.024485     4.024485    65.182489 
      64            0   -9.2392427    -100348.6    -100348.6    -100348.6    -100348.6 3.6680838e-12 1.0748339e-11 -6.8243419e-13      4.02408      4.02408      4.02408    65.162812 
      65            0   -9.2404745   -100292.59   -100292.59   -100292.59   -100292.59 9.4716339e-12 6.3144226e-12 1.1007575e-11     4.023675     4.023675     4.023675    65.143139 
      66            0   -9.2417054   -100236.42   -100236.42   -100236.42   -100236.42 -5.29206e-12 -1.0242697e-11 -4.2677903e-12      4.02327      4.02327      4.02327    65.123471 
      67            0   -9.2429353   -100180.09   -100180.09   -100180.09   -100180.09 -1.7076318e-12 -4.9521322e-12 -4.1836979e-12     4.022865     4.022865     4.022865    65.103806 
      68            0   -9.2441643   -100123.59   -100123.59   -100123.59   -100123.59 1.7081476e-12 -1.0334293e-11 -4.7828134e-12      4.02246      4.02246      4.02246    65.084145 
      69            0   -9.2453924   -100066.94   -100066.94   -100066.94   -100066.94 -5.7240233e-12 -8.6287516e-12 -1.2302379e-11     4.022055     4.022055     4.022055    65.064488 
      70            0   -9.2466195   -100010.12   -100010.12   -100010.12   -100010.12 6.9221788e-12 4.0165729e-12 -9.7423257e-12      4.02165      4.02165      4.02165    65.044835 
      71            0   -9.2478456   -99953.148   -99953.148   -99953.148   -99953.148 -5.9839375e-13 -2.4876083e-11 -9.2323607e-12     4.021245     4.021245     4.021245    65.025186 
      72            0   -9.2490709    -99896.01    -99896.01    -99896.01    -99896.01 -8.6365762e-12 -1.8384791e-11 -1.7615195e-11      4.02084      4.02084      4.02084    65.005541 
      73            0   -9.2502951   -99838.711   -99838.711   -99838.711   -99838.711 2.3094855e-12 1.2402792e-11 1.8390347e-11     4.020435     4.020435     4.020435      64.9859 
      74            0   -9.2515185   -99781.249   -99781.249   -99781.249   -99781.249 3.850306e-12 2.652433e-12 -1.7112471e-12      4.02003      4.02003      4.02003    64.966262 
      75            0   -9.2527409   -99723.624   -99723.624   -99723.624   -99723.624 2.5676466e-12 -4.279411e-13 7.018234e-12     4.019625     4.019625     4.019625    64.946629 
      76            0   -9.2539623   -99665.837   -99665.837   -99665.837   -99665.837 -5.393688e-12 -1.652352e-11 -1.5924222e-11      4.01922      4.01922      4.01922       64.927 
      77            0   -9.2551827   -99607.887   -99607.887   -99607.887   -99607.887 2.9973994e-12 -9.420398e-13 -8.3070782e-12     4.018815     4.018815     4.018815    64.907375 
      78            0   -9.2564022   -99549.774   -99549.774   -99549.774   -99549.774 6.0822773e-12 6.339275e-12 8.9949172e-12      4.01841      4.01841      4.01841    64.887753 
      79            0   -9.2576208   -99491.497   -99491.497   -99491.497   -99491.497 -2.39937e-12 4.5416646e-12 5.998425e-13     4.018005     4.018005     4.018005    64.868136 
      80            0   -9.2588384   -99433.057   -99433.057   -99433.057   -99433.057 -6.9431339e-12 -8.5717703e-13 -1.380055e-11       4.0176       4.0176       4.0176    64.848523 
      81            0    -9.260055   -99374.453   -99374.453   -99374.453   -99374.453 4.2014379e-12 7.7169268e-12 -2.315078e-12     4.017195     4.017195     4.017195    64.828913 
      82            0   -9.2612707   -99315.684   -99315.684   -99315.684   -99315.684 -3.0019349e-12 -1.4237748e-11 -1.3294283e-11      4.01679      4.01679      4.01679    64.809308 
      83            0   -9.2624854   -99256.752   -99256.752   -99256.752   -99256.752 4.1181849e-12 1.9561378e-11 2.5824451e-11     4.016385     4.016385     4.016385    64.789706 
      84            0   -9.2636991   -99197.654   -99197.654   -99197.654   -99197.654 1.0298577e-12 1.2873222e-12 5.0634671e-12      4.01598      4.01598      4.01598    64.770108 
      85            0   -9.2649119   -99138.392   -99138.392   -99138.392   -99138.392 -8.5847447e-13 3.6055928e-12 -4.807457e-12     4.015575     4.015575     4.015575    64.750515 
      86            0   -9.2661237   -99078.964   -99078.964   -99078.964   -99078.964 6.6122539e-12 1.0476558e-11 1.5457217e-12      4.01517      4.01517      4.01517    64.730925 
      87            0   -9.2673345   -99019.371   -99019.371   -99019.371   -99019.371 1.6320889e-12 -3.4359767e-13 4.4667697e-12     4.014765     4.014765     4.014765    64.711339 
      88            0   -9.2685444   -98959.613   -98959.613   -98959.613   -98959.613 -1.8903592e-12 -1.8989518e-11 -2.6722805e-11      4.01436      4.01436      4.01436    64.691757 
      89            0   -9.2697532   -98899.688   -98899.688   -98899.688   -98899.688 9.1968031e-12 3.5240087e-12 7.0480173e-12     4.013955     4.013955     4.013955     64.67218 
      90            0   -9.2709611   -98839.597   -98839.597   -98839.597   -98839.597 1.9774814e-12 -4.9007148e-12 -1.0317294e-12      4.01355      4.01355      4.01355    64.652606 
      91            0    -9.272168    -98779.34    -98779.34    -98779.34    -98779.34 -8.3423381e-12 -1.505061e-11 -7.3962998e-12     4.013145     4.013145     4.013145    64.633036 
      92            0    -9.273374   -98718.916   -98718.916   -98718.916   -98718.916 8.0867757e-12 1.6689729e-11 9.3772187e-12      4.01274      4.01274      4.01274     64.61347 
      93            0   -9.2745789   -98658.325   -98658.325   -98658.325   -98658.325 -4.4748903e-12 1.6006338e-11 1.4973671e-11     4.012335     4.012335     4.012335    64.593908 
      94            0   -9.2757829   -98597.567   -98597.567   -98597.567   -98597.567 1.3514819e-11 1.3342655e-11 1.6011186e-11      4.01193      4.01193      4.01193     64.57435 
      95            0   -9.2769859   -98536.641   -98536.641   -98536.641   -98536.641 -8.1802336e-12 -9.9884957e-12 -2.9276625e-12     4.011525     4.011525     4.011525    64.554795 
      96            0   -9.2781879   -98475.548   -98475.548   -98475.548   -98475.548 -1.7485163e-11 -2.127505e-11 -1.6709959e-11      4.01112      4.01112      4.01112    64.535245 
      97            0   -9.2793889   -98414.287   -98414.287   -98414.287   -98414.287 1.2665506e-11 2.2660055e-11 7.4097517e-12     4.010715     4.010715     4.010715    64.515699 
      98            0   -9.2805889   -98352.857   -98352.857   -98352.857   -98352.857 -3.9645564e-12 9.135717e-12 9.8252051e-12      4.01031      4.01031      4.01031    64.496157 
      99            0    -9.281788   -98291.259   -98291.259   -98291.259   -98291.259 -8.4487884e-12 6.3796974e-12 -4.3968185e-12     4.009905     4.009905     4.009905    64.476618 
     100            0    -9.282986   -98229.492   -98229.492   -98229.492   -98229.492 5.9504395e-12 1.233207e-11 1.4660503e-11       4.0095       4.0095       4.0095    64.457084 
Loop time of 0.00231504 on 1 procs for 100 steps with 4 atoms

100.0% CPU use with 1 MPI tasks x no OpenMP threads

Minimization stats:
  Stopping criterion = max iterations
  Energy initial, next-to-last, final = 
        -9.15853325578     -9.28178795775     -9.28298599055
  Force two-norm initial, final = 7.44084 6.91397
  Force max component initial, final = 4.29597 3.99178
  Final line search alpha, max atom move = 2.50307e-05 9.9917e-05
  Iterations, force evaluations = 100 100

MPI task timing breakdown:
Section |  min time  |  avg time  |  max time  |%varavg| %total
---------------------------------------------------------------
Pair    | 0.00085807 | 0.00085807 | 0.00085807 |   0.0 | 37.06
Neigh   | 0          | 0          | 0          |   0.0 |  0.00
Comm    | 0.00016546 | 0.00016546 | 0.00016546 |   0.0 |  7.15
Output  | 0.00071216 | 0.00071216 | 0.00071216 |   0.0 | 30.76
Modify  | 0          | 0          | 0          |   0.0 |  0.00
Other   |            | 0.0005794  |            |       | 25.03

Nlocal:    4 ave 4 max 4 min
Histogram: 1 0 0 0 0 0 0 0 0 0
Nghost:    360 ave 360 max 360 min
Histogram: 1 0 0 0 0 0 0 0 0 0
Neighs:    108 ave 108 max 108 min
Histogram: 1 0 0 0 0 0 0 0 0 0

Total # of neighbors = 108
Ave neighs/atom = 27
Neighbor list builds = 0
Dangerous builds = 0

variable tmp equal pxx
variable pxx0 equal ${tmp}
variable pxx0 equal -98229.4920112373
variable tmp equal pyy
variable pyy0 equal ${tmp}
variable pyy0 equal -98229.4920112373
variable tmp equal pzz
variable pzz0 equal ${tmp}
variable pzz0 equal -98229.4920112373
variable tmp equal pyz
variable pyz0 equal ${tmp}
variable pyz0 equal 1.46605031921987e-11
variable tmp equal pxz
variable pxz0 equal ${tmp}
variable pxz0 equal 1.23320703322612e-11
variable tmp equal pxy
variable pxy0 equal ${tmp}
variable pxy0 equal 5.95043953095123e-12

variable tmp equal lx
variable lx0 equal ${tmp}
variable lx0 equal 4.00949999999997
variable tmp equal ly
variable ly0 equal ${tmp}
variable ly0 equal 4.00949999999997
variable tmp equal lz
variable lz0 equal ${tmp}
variable lz0 equal 4.00949999999997

 # ---- define the derivatives w.r.t. strain components
variable d1 equal -(v_pxx1-${pxx0})/(v_delta/v_len0)*${cfac}
variable d1 equal -(v_pxx1--98229.4920112373)/(v_delta/v_len0)*${cfac}
variable d1 equal -(v_pxx1--98229.4920112373)/(v_delta/v_len0)*0.0001
variable d2 equal -(v_pyy1-${pyy0})/(v_delta/v_len0)*${cfac}
variable d2 equal -(v_pyy1--98229.4920112373)/(v_delta/v_len0)*${cfac}
variable d2 equal -(v_pyy1--98229.4920112373)/(v_delta/v_len0)*0.0001
variable d3 equal -(v_pzz1-${pzz0})/(v_delta/v_len0)*${cfac}
variable d3 equal -(v_pzz1--98229.4920112373)/(v_delta/v_len0)*${cfac}
variable d3 equal -(v_pzz1--98229.4920112373)/(v_delta/v_len0)*0.0001
variable d4 equal -(v_pyz1-${pyz0})/(v_delta/v_len0)*${cfac}
variable d4 equal -(v_pyz1-1.46605031921987e-11)/(v_delta/v_len0)*${cfac}
variable d4 equal -(v_pyz1-1.46605031921987e-11)/(v_delta/v_len0)*0.0001
variable d5 equal -(v_pxz1-${pxz0})/(v_delta/v_len0)*${cfac}
variable d5 equal -(v_pxz1-1.23320703322612e-11)/(v_delta/v_len0)*${cfac}
variable d5 equal -(v_pxz1-1.23320703322612e-11)/(v_delta/v_len0)*0.0001
variable d6 equal -(v_pxy1-${pxy0})/(v_delta/v_len0)*${cfac}
variable d6 equal -(v_pxy1-5.95043953095123e-12)/(v_delta/v_len0)*${cfac}
variable d6 equal -(v_pxy1-5.95043953095123e-12)/(v_delta/v_len0)*0.0001

# ---- write restart files
unfix 3
write_restart restart.equil
# ---- uxx Perturbation
variable dir equal 1
include displace.mod
# NOTE: This script should not need to be
# modified. See in.elastic for more info.
# Find which reference length to use

if "${dir} == 1" then    "variable len0 equal ${lx0}"
variable len0 equal ${lx0}
variable len0 equal 4.00949999999997
if "${dir} == 2" then    "variable len0 equal ${ly0}"
if "${dir} == 3" then    "variable len0 equal ${lz0}"
if "${dir} == 4" then    "variable len0 equal ${lz0}"
if "${dir} == 5" then    "variable len0 equal ${lz0}"
if "${dir} == 6" then    "variable len0 equal ${ly0}"

# Reset box and simulation parameters

clear
read_restart restart.equil remap
  triclinic box = (0.02025 0.02025 0.02025) to (4.02975 4.02975 4.02975) with tilt (0 -0 0)
  1 by 1 by 1 MPI processor grid
  4 atoms
include potential.mod
mass 1 26.982

group Al type 1
4 atoms in group Al

pair_style eam/alloy
pair_coeff * * /home/sullberg/repos/pypospack/examples/Al__eam__born_exp_fs/pareto_optimization_3.5NN/rank_0/Al_fcc.lmps_elastic/Al.eam.alloy Al

neighbor 1.0 bin
neigh_modify every 1 delay 0 check yes
thermo	1
thermo_style custom step temp pe press pxx pyy pzz pxy pxz pyz lx ly lz vol
thermo_modify norm no

# Negative deformation

variable delta equal -${up}*${len0}
variable delta equal -1e-06*${len0}
variable delta equal -1e-06*4.00949999999997
if "${dir} == 1" then    "change_box all x delta 0 ${delta} remap units box"
change_box all x delta 0 ${delta} remap units box
change_box all x delta 0 -4.00949999999997e-06 remap units box
  triclinic box = (0.02025 0.02025 0.02025) to (4.02975 4.02975 4.02975) with tilt (0 -0 0)
if "${dir} == 2" then    "change_box all y delta 0 ${delta} remap units box"
if "${dir} == 3" then    "change_box all z delta 0 ${delta} remap units box"
if "${dir} == 4" then    "change_box all yz delta ${delta} remap units box"
if "${dir} == 5" then    "change_box all xz delta ${delta} remap units box"
if "${dir} == 6" then    "change_box all xy delta ${delta} remap units box"

# Relax atoms positions

minimize ${etol} ${ftol} ${maxiter} ${maxeval}
minimize 0 ${ftol} ${maxiter} ${maxeval}
minimize 0 1e-10 ${maxiter} ${maxeval}
minimize 0 1e-10 100 ${maxeval}
minimize 0 1e-10 100 1000
Neighbor list info ...
  update every 1 steps, delay 0 steps, check yes
  max neighbors/atom: 2000, page size: 100000
  master list distance cutoff = 6.34397
  ghost atom cutoff = 6.34397
  binsize = 3.17199, bins = 2 2 2
  1 neighbor lists, perpetual/occasional/extra = 1 0 0
  (1) pair eam/alloy, perpetual
      attributes: half, newton on
      pair build: half/bin/newton/tri
      stencil: half/bin/3d/newton/tri
      bin: standard
Per MPI rank memory allocation (min/avg/max) = 4.086 | 4.086 | 4.086 Mbytes
Step Temp PotEng Press Pxx Pyy Pzz Pxy Pxz Pyz Lx Ly Lz Volume 
     100            0   -9.2829899   -98229.288   -98229.217   -98229.324   -98229.324 5.1743004e-13 2.9321036e-12 1.8110051e-12     4.009496       4.0095       4.0095    64.457019 
     101            0   -9.2829899   -98229.288   -98229.217   -98229.324   -98229.324 4.311917e-13 3.0183419e-12 2.5009119e-12     4.009496       4.0095       4.0095    64.457019 
Loop time of 4.79221e-05 on 1 procs for 1 steps with 4 atoms

87.6% CPU use with 1 MPI tasks x no OpenMP threads

Minimization stats:
  Stopping criterion = quadratic factors are zero
  Energy initial, next-to-last, final = 
        -9.28298994241     -9.28298994241     -9.28298994241
  Force two-norm initial, final = 9.30384e-17 9.30384e-17
  Force max component initial, final = 5.55112e-17 5.55112e-17
  Final line search alpha, max atom move = 1 5.55112e-17
  Iterations, force evaluations = 1 2

MPI task timing breakdown:
Section |  min time  |  avg time  |  max time  |%varavg| %total
---------------------------------------------------------------
Pair    | 2.8133e-05 | 2.8133e-05 | 2.8133e-05 |   0.0 | 58.71
Neigh   | 0          | 0          | 0          |   0.0 |  0.00
Comm    | 5.722e-06  | 5.722e-06  | 5.722e-06  |   0.0 | 11.94
Output  | 0          | 0          | 0          |   0.0 |  0.00
Modify  | 0          | 0          | 0          |   0.0 |  0.00
Other   |            | 1.407e-05  |            |       | 29.35

Nlocal:    4 ave 4 max 4 min
Histogram: 1 0 0 0 0 0 0 0 0 0
Nghost:    360 ave 360 max 360 min
Histogram: 1 0 0 0 0 0 0 0 0 0
Neighs:    156 ave 156 max 156 min
Histogram: 1 0 0 0 0 0 0 0 0 0

Total # of neighbors = 156
Ave neighs/atom = 39
Neighbor list builds = 0
Dangerous builds = 0

# Obtain new stress tensor

variable tmp equal pxx
variable pxx1 equal ${tmp}
variable pxx1 equal -98229.2165134117
variable tmp equal pyy
variable pyy1 equal ${tmp}
variable pyy1 equal -98229.3235945391
variable tmp equal pzz
variable pzz1 equal ${tmp}
variable pzz1 equal -98229.3235945391
variable tmp equal pxy
variable pxy1 equal ${tmp}
variable pxy1 equal 4.31191701550486e-13
variable tmp equal pxz
variable pxz1 equal ${tmp}
variable pxz1 equal 3.0183419108534e-12
variable tmp equal pyz
variable pyz1 equal ${tmp}
variable pyz1 equal 2.50091186899282e-12

# Compute elastic constant from pressure tensor

variable C1neg equal ${d1}
variable C1neg equal 27.5497825597995
variable C2neg equal ${d2}
variable C2neg equal 16.8416698186775
variable C3neg equal ${d3}
variable C3neg equal 16.8416698186775
variable C4neg equal ${d4}
variable C4neg equal -1.21595913232059e-09
variable C5neg equal ${d5}
variable C5neg equal -9.3137284214078e-10
variable C6neg equal ${d6}
variable C6neg equal -5.51924782940074e-10

# Reset box and simulation parameters

clear
read_restart restart.equil remap
  triclinic box = (0.02025 0.02025 0.02025) to (4.02975 4.02975 4.02975) with tilt (0 -0 0)
  1 by 1 by 1 MPI processor grid
  4 atoms
include potential.mod
mass 1 26.982

group Al type 1
4 atoms in group Al

pair_style eam/alloy
pair_coeff * * /home/sullberg/repos/pypospack/examples/Al__eam__born_exp_fs/pareto_optimization_3.5NN/rank_0/Al_fcc.lmps_elastic/Al.eam.alloy Al

neighbor 1.0 bin
neigh_modify every 1 delay 0 check yes
thermo	1
thermo_style custom step temp pe press pxx pyy pzz pxy pxz pyz lx ly lz vol
thermo_modify norm no

# Positive deformation

variable delta equal ${up}*${len0}
variable delta equal 1e-06*${len0}
variable delta equal 1e-06*4.00949999999997
if "${dir} == 1" then    "change_box all x delta 0 ${delta} remap units box"
change_box all x delta 0 ${delta} remap units box
change_box all x delta 0 4.00949999999997e-06 remap units box
  triclinic box = (0.02025 0.02025 0.02025) to (4.02975 4.02975 4.02975) with tilt (0 -0 0)
if "${dir} == 2" then    "change_box all y delta 0 ${delta} remap units box"
if "${dir} == 3" then    "change_box all z delta 0 ${delta} remap units box"
if "${dir} == 4" then    "change_box all yz delta ${delta} remap units box"
if "${dir} == 5" then    "change_box all xz delta ${delta} remap units box"
if "${dir} == 6" then    "change_box all xy delta ${delta} remap units box"

# Relax atoms positions

minimize ${etol} ${ftol} ${maxiter} ${maxeval}
minimize 0 ${ftol} ${maxiter} ${maxeval}
minimize 0 1e-10 ${maxiter} ${maxeval}
minimize 0 1e-10 100 ${maxeval}
minimize 0 1e-10 100 1000
Neighbor list info ...
  update every 1 steps, delay 0 steps, check yes
  max neighbors/atom: 2000, page size: 100000
  master list distance cutoff = 6.34397
  ghost atom cutoff = 6.34397
  binsize = 3.17199, bins = 2 2 2
  1 neighbor lists, perpetual/occasional/extra = 1 0 0
  (1) pair eam/alloy, perpetual
      attributes: half, newton on
      pair build: half/bin/newton/tri
      stencil: half/bin/3d/newton/tri
      bin: standard
Per MPI rank memory allocation (min/avg/max) = 4.086 | 4.086 | 4.086 Mbytes
Step Temp PotEng Press Pxx Pyy Pzz Pxy Pxz Pyz Lx Ly Lz Volume 
     100            0    -9.282982   -98229.696   -98229.768    -98229.66    -98229.66 -3.3632885e-12 3.9669557e-12 -5.1742901e-13     4.009504       4.0095       4.0095    64.457148 
     101            0    -9.282982   -98229.696   -98229.768    -98229.66    -98229.66 -3.4495267e-12 4.0531939e-12 2.587145e-13     4.009504       4.0095       4.0095    64.457148 
Loop time of 4.88758e-05 on 1 procs for 1 steps with 4 atoms

88.0% CPU use with 1 MPI tasks x no OpenMP threads

Minimization stats:
  Stopping criterion = quadratic factors are zero
  Energy initial, next-to-last, final = 
        -9.28298203868     -9.28298203868     -9.28298203868
  Force two-norm initial, final = 5.63852e-17 5.63852e-17
  Force max component initial, final = 2.77556e-17 2.77556e-17
  Final line search alpha, max atom move = 1 2.77556e-17
  Iterations, force evaluations = 1 2

MPI task timing breakdown:
Section |  min time  |  avg time  |  max time  |%varavg| %total
---------------------------------------------------------------
Pair    | 2.9087e-05 | 2.9087e-05 | 2.9087e-05 |   0.0 | 59.51
Neigh   | 0          | 0          | 0          |   0.0 |  0.00
Comm    | 6.9141e-06 | 6.9141e-06 | 6.9141e-06 |   0.0 | 14.15
Output  | 0          | 0          | 0          |   0.0 |  0.00
Modify  | 0          | 0          | 0          |   0.0 |  0.00
Other   |            | 1.287e-05  |            |       | 26.34

Nlocal:    4 ave 4 max 4 min
Histogram: 1 0 0 0 0 0 0 0 0 0
Nghost:    360 ave 360 max 360 min
Histogram: 1 0 0 0 0 0 0 0 0 0
Neighs:    156 ave 156 max 156 min
Histogram: 1 0 0 0 0 0 0 0 0 0

Total # of neighbors = 156
Ave neighs/atom = 39
Neighbor list builds = 0
Dangerous builds = 0

# Obtain new stress tensor

variable tmp equal pe
variable e1 equal ${tmp}
variable e1 equal -9.28298203868247
variable tmp equal press
variable p1 equal ${tmp}
variable p1 equal -98229.696119378
variable tmp equal pxx
variable pxx1 equal ${tmp}
variable pxx1 equal -98229.7675066116
variable tmp equal pyy
variable pyy1 equal ${tmp}
variable pyy1 equal -98229.6604257612
variable tmp equal pzz
variable pzz1 equal ${tmp}
variable pzz1 equal -98229.6604257612
variable tmp equal pxy
variable pxy1 equal ${tmp}
variable pxy1 equal -3.44952671334356e-12
variable tmp equal pxz
variable pxz1 equal ${tmp}
variable pxz1 equal 4.05319388817869e-12
variable tmp equal pyz
variable pyz1 equal ${tmp}
variable pyz1 equal 2.58714503500767e-13

# Compute elastic constant from pressure tensor

variable C1pos equal ${d1}
variable C1pos equal 27.5495374313323
variable C2pos equal ${d2}
variable C2pos equal 16.8414523912361
variable C3pos equal ${d3}
variable C3pos equal 16.8414523912361
variable C4pos equal ${d4}
variable C4pos equal 1.44017886886979e-09
variable C5pos equal ${d5}
variable C5pos equal 8.27887644408251e-10
variable C6pos equal ${d6}
variable C6pos equal 9.39996624429479e-10

# Combine positive and negative

variable C1${dir} equal 0.5*(${C1neg}+${C1pos})
variable C11 equal 0.5*(${C1neg}+${C1pos})
variable C11 equal 0.5*(27.5497825597995+${C1pos})
variable C11 equal 0.5*(27.5497825597995+27.5495374313323)
variable C2${dir} equal 0.5*(${C2neg}+${C2pos})
variable C21 equal 0.5*(${C2neg}+${C2pos})
variable C21 equal 0.5*(16.8416698186775+${C2pos})
variable C21 equal 0.5*(16.8416698186775+16.8414523912361)
variable C3${dir} equal 0.5*(${C3neg}+${C3pos})
variable C31 equal 0.5*(${C3neg}+${C3pos})
variable C31 equal 0.5*(16.8416698186775+${C3pos})
variable C31 equal 0.5*(16.8416698186775+16.8414523912361)
variable C4${dir} equal 0.5*(${C4neg}+${C4pos})
variable C41 equal 0.5*(${C4neg}+${C4pos})
variable C41 equal 0.5*(-1.21595913232059e-09+${C4pos})
variable C41 equal 0.5*(-1.21595913232059e-09+1.44017886886979e-09)
variable C5${dir} equal 0.5*(${C5neg}+${C5pos})
variable C51 equal 0.5*(${C5neg}+${C5pos})
variable C51 equal 0.5*(-9.3137284214078e-10+${C5pos})
variable C51 equal 0.5*(-9.3137284214078e-10+8.27887644408251e-10)
variable C6${dir} equal 0.5*(${C6neg}+${C6pos})
variable C61 equal 0.5*(${C6neg}+${C6pos})
variable C61 equal 0.5*(-5.51924782940074e-10+${C6pos})
variable C61 equal 0.5*(-5.51924782940074e-10+9.39996624429479e-10)

# Delete dir to make sure it is not reused

variable dir delete
# ---- uyy Perturbation
variable dir equal 2
include displace.mod
# NOTE: This script should not need to be
# modified. See in.elastic for more info.
# Find which reference length to use

if "${dir} == 1" then    "variable len0 equal ${lx0}"
if "${dir} == 2" then    "variable len0 equal ${ly0}"
variable len0 equal ${ly0}
variable len0 equal 4.00949999999997
if "${dir} == 3" then    "variable len0 equal ${lz0}"
if "${dir} == 4" then    "variable len0 equal ${lz0}"
if "${dir} == 5" then    "variable len0 equal ${lz0}"
if "${dir} == 6" then    "variable len0 equal ${ly0}"

# Reset box and simulation parameters

clear
read_restart restart.equil remap
  triclinic box = (0.02025 0.02025 0.02025) to (4.02975 4.02975 4.02975) with tilt (0 -0 0)
  1 by 1 by 1 MPI processor grid
  4 atoms
include potential.mod
mass 1 26.982

group Al type 1
4 atoms in group Al

pair_style eam/alloy
pair_coeff * * /home/sullberg/repos/pypospack/examples/Al__eam__born_exp_fs/pareto_optimization_3.5NN/rank_0/Al_fcc.lmps_elastic/Al.eam.alloy Al

neighbor 1.0 bin
neigh_modify every 1 delay 0 check yes
thermo	1
thermo_style custom step temp pe press pxx pyy pzz pxy pxz pyz lx ly lz vol
thermo_modify norm no

# Negative deformation

variable delta equal -${up}*${len0}
variable delta equal -1e-06*${len0}
variable delta equal -1e-06*4.00949999999997
if "${dir} == 1" then    "change_box all x delta 0 ${delta} remap units box"
if "${dir} == 2" then    "change_box all y delta 0 ${delta} remap units box"
change_box all y delta 0 ${delta} remap units box
change_box all y delta 0 -4.00949999999997e-06 remap units box
  triclinic box = (0.02025 0.02025 0.02025) to (4.02975 4.02975 4.02975) with tilt (0 -0 0)
if "${dir} == 3" then    "change_box all z delta 0 ${delta} remap units box"
if "${dir} == 4" then    "change_box all yz delta ${delta} remap units box"
if "${dir} == 5" then    "change_box all xz delta ${delta} remap units box"
if "${dir} == 6" then    "change_box all xy delta ${delta} remap units box"

# Relax atoms positions

minimize ${etol} ${ftol} ${maxiter} ${maxeval}
minimize 0 ${ftol} ${maxiter} ${maxeval}
minimize 0 1e-10 ${maxiter} ${maxeval}
minimize 0 1e-10 100 ${maxeval}
minimize 0 1e-10 100 1000
Neighbor list info ...
  update every 1 steps, delay 0 steps, check yes
  max neighbors/atom: 2000, page size: 100000
  master list distance cutoff = 6.34397
  ghost atom cutoff = 6.34397
  binsize = 3.17199, bins = 2 2 2
  1 neighbor lists, perpetual/occasional/extra = 1 0 0
  (1) pair eam/alloy, perpetual
      attributes: half, newton on
      pair build: half/bin/newton/tri
      stencil: half/bin/3d/newton/tri
      bin: standard
Per MPI rank memory allocation (min/avg/max) = 4.086 | 4.086 | 4.086 Mbytes
Step Temp PotEng Press Pxx Pyy Pzz Pxy Pxz Pyz Lx Ly Lz Volume 
     100            0   -9.2829899   -98229.288   -98229.324   -98229.217   -98229.324 -7.7614506e-13 5.0018237e-12 -1.2849513e-11       4.0095     4.009496       4.0095    64.457019 
     101            0   -9.2829899   -98229.288   -98229.324   -98229.217   -98229.324 -7.7614506e-13 6.3816372e-12 -1.2677036e-11       4.0095     4.009496       4.0095    64.457019 
Loop time of 5.50747e-05 on 1 procs for 1 steps with 4 atoms

101.7% CPU use with 1 MPI tasks x no OpenMP threads

Minimization stats:
  Stopping criterion = quadratic factors are zero
  Energy initial, next-to-last, final = 
        -9.28298994241     -9.28298994241     -9.28298994241
  Force two-norm initial, final = 9.38997e-17 9.38997e-17
  Force max component initial, final = 5.55112e-17 5.55112e-17
  Final line search alpha, max atom move = 1 5.55112e-17
  Iterations, force evaluations = 1 2

MPI task timing breakdown:
Section |  min time  |  avg time  |  max time  |%varavg| %total
---------------------------------------------------------------
Pair    | 3.6001e-05 | 3.6001e-05 | 3.6001e-05 |   0.0 | 65.37
Neigh   | 0          | 0          | 0          |   0.0 |  0.00
Comm    | 4.0531e-06 | 4.0531e-06 | 4.0531e-06 |   0.0 |  7.36
Output  | 0          | 0          | 0          |   0.0 |  0.00
Modify  | 0          | 0          | 0          |   0.0 |  0.00
Other   |            | 1.502e-05  |            |       | 27.27

Nlocal:    4 ave 4 max 4 min
Histogram: 1 0 0 0 0 0 0 0 0 0
Nghost:    360 ave 360 max 360 min
Histogram: 1 0 0 0 0 0 0 0 0 0
Neighs:    156 ave 156 max 156 min
Histogram: 1 0 0 0 0 0 0 0 0 0

Total # of neighbors = 156
Ave neighs/atom = 39
Neighbor list builds = 0
Dangerous builds = 0

# Obtain new stress tensor

variable tmp equal pxx
variable pxx1 equal ${tmp}
variable pxx1 equal -98229.3235945392
variable tmp equal pyy
variable pyy1 equal ${tmp}
variable pyy1 equal -98229.2165134117
variable tmp equal pzz
variable pzz1 equal ${tmp}
variable pzz1 equal -98229.3235945391
variable tmp equal pxy
variable pxy1 equal ${tmp}
variable pxy1 equal -7.76145062790875e-13
variable tmp equal pxz
variable pxz1 equal ${tmp}
variable pxz1 equal 6.38163718294719e-12
variable tmp equal pyz
variable pyz1 equal ${tmp}
variable pyz1 equal -1.26770360255843e-11

# Compute elastic constant from pressure tensor

variable C1neg equal ${d1}
variable C1neg equal 16.8416698099463
variable C2neg equal ${d2}
variable C2neg equal 27.5497825597995
variable C3neg equal ${d3}
variable C3neg equal 16.8416698186775
variable C4neg equal ${d4}
variable C4neg equal -2.7337539217783e-09
variable C5neg equal ${d5}
variable C5neg equal -5.95043314931401e-10
variable C6neg equal ${d6}
variable C6neg equal -6.72658459374211e-10

# Reset box and simulation parameters

clear
read_restart restart.equil remap
  triclinic box = (0.02025 0.02025 0.02025) to (4.02975 4.02975 4.02975) with tilt (0 -0 0)
  1 by 1 by 1 MPI processor grid
  4 atoms
include potential.mod
mass 1 26.982

group Al type 1
4 atoms in group Al

pair_style eam/alloy
pair_coeff * * /home/sullberg/repos/pypospack/examples/Al__eam__born_exp_fs/pareto_optimization_3.5NN/rank_0/Al_fcc.lmps_elastic/Al.eam.alloy Al

neighbor 1.0 bin
neigh_modify every 1 delay 0 check yes
thermo	1
thermo_style custom step temp pe press pxx pyy pzz pxy pxz pyz lx ly lz vol
thermo_modify norm no

# Positive deformation

variable delta equal ${up}*${len0}
variable delta equal 1e-06*${len0}
variable delta equal 1e-06*4.00949999999997
if "${dir} == 1" then    "change_box all x delta 0 ${delta} remap units box"
if "${dir} == 2" then    "change_box all y delta 0 ${delta} remap units box"
change_box all y delta 0 ${delta} remap units box
change_box all y delta 0 4.00949999999997e-06 remap units box
  triclinic box = (0.02025 0.02025 0.02025) to (4.02975 4.02975 4.02975) with tilt (0 -0 0)
if "${dir} == 3" then    "change_box all z delta 0 ${delta} remap units box"
if "${dir} == 4" then    "change_box all yz delta ${delta} remap units box"
if "${dir} == 5" then    "change_box all xz delta ${delta} remap units box"
if "${dir} == 6" then    "change_box all xy delta ${delta} remap units box"

# Relax atoms positions

minimize ${etol} ${ftol} ${maxiter} ${maxeval}
minimize 0 ${ftol} ${maxiter} ${maxeval}
minimize 0 1e-10 ${maxiter} ${maxeval}
minimize 0 1e-10 100 ${maxeval}
minimize 0 1e-10 100 1000
Neighbor list info ...
  update every 1 steps, delay 0 steps, check yes
  max neighbors/atom: 2000, page size: 100000
  master list distance cutoff = 6.34397
  ghost atom cutoff = 6.34397
  binsize = 3.17199, bins = 2 2 2
  1 neighbor lists, perpetual/occasional/extra = 1 0 0
  (1) pair eam/alloy, perpetual
      attributes: half, newton on
      pair build: half/bin/newton/tri
      stencil: half/bin/3d/newton/tri
      bin: standard
Per MPI rank memory allocation (min/avg/max) = 4.086 | 4.086 | 4.086 Mbytes
Step Temp PotEng Press Pxx Pyy Pzz Pxy Pxz Pyz Lx Ly Lz Volume 
     100            0    -9.282982   -98229.696    -98229.66   -98229.768    -98229.66 -1.8110015e-12 -9.4861985e-13 1.4660489e-11       4.0095     4.009504       4.0095    64.457148 
     101            0    -9.282982   -98229.696    -98229.66   -98229.768    -98229.66 -1.8972397e-12 -1.7247634e-13 1.5695347e-11       4.0095     4.009504       4.0095    64.457148 
Loop time of 4.69685e-05 on 1 procs for 1 steps with 4 atoms

91.6% CPU use with 1 MPI tasks x no OpenMP threads

Minimization stats:
  Stopping criterion = quadratic factors are zero
  Energy initial, next-to-last, final = 
        -9.28298203868     -9.28298203868     -9.28298203868
  Force two-norm initial, final = 1.23348e-16 1.23348e-16
  Force max component initial, final = 6.93889e-17 6.93889e-17
  Final line search alpha, max atom move = 1 6.93889e-17
  Iterations, force evaluations = 1 2

MPI task timing breakdown:
Section |  min time  |  avg time  |  max time  |%varavg| %total
---------------------------------------------------------------
Pair    | 2.9087e-05 | 2.9087e-05 | 2.9087e-05 |   0.0 | 61.93
Neigh   | 0          | 0          | 0          |   0.0 |  0.00
Comm    | 5.9605e-06 | 5.9605e-06 | 5.9605e-06 |   0.0 | 12.69
Output  | 0          | 0          | 0          |   0.0 |  0.00
Modify  | 0          | 0          | 0          |   0.0 |  0.00
Other   |            | 1.192e-05  |            |       | 25.38

Nlocal:    4 ave 4 max 4 min
Histogram: 1 0 0 0 0 0 0 0 0 0
Nghost:    360 ave 360 max 360 min
Histogram: 1 0 0 0 0 0 0 0 0 0
Neighs:    156 ave 156 max 156 min
Histogram: 1 0 0 0 0 0 0 0 0 0

Total # of neighbors = 156
Ave neighs/atom = 39
Neighbor list builds = 0
Dangerous builds = 0

# Obtain new stress tensor

variable tmp equal pe
variable e1 equal ${tmp}
variable e1 equal -9.28298203868247
variable tmp equal press
variable p1 equal ${tmp}
variable p1 equal -98229.696119378
variable tmp equal pxx
variable pxx1 equal ${tmp}
variable pxx1 equal -98229.6604257612
variable tmp equal pyy
variable pyy1 equal ${tmp}
variable pyy1 equal -98229.7675066116
variable tmp equal pzz
variable pzz1 equal ${tmp}
variable pzz1 equal -98229.6604257612
variable tmp equal pxy
variable pxy1 equal ${tmp}
variable pxy1 equal -1.89723969233896e-12
variable tmp equal pxz
variable pxz1 equal ${tmp}
variable pxz1 equal -1.72476335667178e-13
variable tmp equal pyz
variable pyz1 equal ${tmp}
variable pyz1 equal 1.56953465457132e-11

# Compute elastic constant from pressure tensor

variable C1pos equal ${d1}
variable C1pos equal 16.8414523912361
variable C2pos equal ${d2}
variable C2pos equal 27.5495374313323
variable C3pos equal ${d3}
variable C3pos equal 16.8414523912361
variable C4pos equal ${d4}
variable C4pos equal -1.0348433535145e-10
variable C5pos equal ${d5}
variable C5pos equal 1.25045466679284e-09
variable C6pos equal ${d6}
variable C6pos equal 7.84767922329019e-10

# Combine positive and negative

variable C1${dir} equal 0.5*(${C1neg}+${C1pos})
variable C12 equal 0.5*(${C1neg}+${C1pos})
variable C12 equal 0.5*(16.8416698099463+${C1pos})
variable C12 equal 0.5*(16.8416698099463+16.8414523912361)
variable C2${dir} equal 0.5*(${C2neg}+${C2pos})
variable C22 equal 0.5*(${C2neg}+${C2pos})
variable C22 equal 0.5*(27.5497825597995+${C2pos})
variable C22 equal 0.5*(27.5497825597995+27.5495374313323)
variable C3${dir} equal 0.5*(${C3neg}+${C3pos})
variable C32 equal 0.5*(${C3neg}+${C3pos})
variable C32 equal 0.5*(16.8416698186775+${C3pos})
variable C32 equal 0.5*(16.8416698186775+16.8414523912361)
variable C4${dir} equal 0.5*(${C4neg}+${C4pos})
variable C42 equal 0.5*(${C4neg}+${C4pos})
variable C42 equal 0.5*(-2.7337539217783e-09+${C4pos})
variable C42 equal 0.5*(-2.7337539217783e-09+-1.0348433535145e-10)
variable C5${dir} equal 0.5*(${C5neg}+${C5pos})
variable C52 equal 0.5*(${C5neg}+${C5pos})
variable C52 equal 0.5*(-5.95043314931401e-10+${C5pos})
variable C52 equal 0.5*(-5.95043314931401e-10+1.25045466679284e-09)
variable C6${dir} equal 0.5*(${C6neg}+${C6pos})
variable C62 equal 0.5*(${C6neg}+${C6pos})
variable C62 equal 0.5*(-6.72658459374211e-10+${C6pos})
variable C62 equal 0.5*(-6.72658459374211e-10+7.84767922329019e-10)

# Delete dir to make sure it is not reused

variable dir delete
# ---- uzz Perturbation
variable dir equal 3
include displace.mod
# NOTE: This script should not need to be
# modified. See in.elastic for more info.
# Find which reference length to use

if "${dir} == 1" then    "variable len0 equal ${lx0}"
if "${dir} == 2" then    "variable len0 equal ${ly0}"
if "${dir} == 3" then    "variable len0 equal ${lz0}"
variable len0 equal ${lz0}
variable len0 equal 4.00949999999997
if "${dir} == 4" then    "variable len0 equal ${lz0}"
if "${dir} == 5" then    "variable len0 equal ${lz0}"
if "${dir} == 6" then    "variable len0 equal ${ly0}"

# Reset box and simulation parameters

clear
read_restart restart.equil remap
  triclinic box = (0.02025 0.02025 0.02025) to (4.02975 4.02975 4.02975) with tilt (0 -0 0)
  1 by 1 by 1 MPI processor grid
  4 atoms
include potential.mod
mass 1 26.982

group Al type 1
4 atoms in group Al

pair_style eam/alloy
pair_coeff * * /home/sullberg/repos/pypospack/examples/Al__eam__born_exp_fs/pareto_optimization_3.5NN/rank_0/Al_fcc.lmps_elastic/Al.eam.alloy Al

neighbor 1.0 bin
neigh_modify every 1 delay 0 check yes
thermo	1
thermo_style custom step temp pe press pxx pyy pzz pxy pxz pyz lx ly lz vol
thermo_modify norm no

# Negative deformation

variable delta equal -${up}*${len0}
variable delta equal -1e-06*${len0}
variable delta equal -1e-06*4.00949999999997
if "${dir} == 1" then    "change_box all x delta 0 ${delta} remap units box"
if "${dir} == 2" then    "change_box all y delta 0 ${delta} remap units box"
if "${dir} == 3" then    "change_box all z delta 0 ${delta} remap units box"
change_box all z delta 0 ${delta} remap units box
change_box all z delta 0 -4.00949999999997e-06 remap units box
  triclinic box = (0.02025 0.02025 0.02025) to (4.02975 4.02975 4.02975) with tilt (0 -0 0)
if "${dir} == 4" then    "change_box all yz delta ${delta} remap units box"
if "${dir} == 5" then    "change_box all xz delta ${delta} remap units box"
if "${dir} == 6" then    "change_box all xy delta ${delta} remap units box"

# Relax atoms positions

minimize ${etol} ${ftol} ${maxiter} ${maxeval}
minimize 0 ${ftol} ${maxiter} ${maxeval}
minimize 0 1e-10 ${maxiter} ${maxeval}
minimize 0 1e-10 100 ${maxeval}
minimize 0 1e-10 100 1000
Neighbor list info ...
  update every 1 steps, delay 0 steps, check yes
  max neighbors/atom: 2000, page size: 100000
  master list distance cutoff = 6.34397
  ghost atom cutoff = 6.34397
  binsize = 3.17199, bins = 2 2 2
  1 neighbor lists, perpetual/occasional/extra = 1 0 0
  (1) pair eam/alloy, perpetual
      attributes: half, newton on
      pair build: half/bin/newton/tri
      stencil: half/bin/3d/newton/tri
      bin: standard
Per MPI rank memory allocation (min/avg/max) = 4.086 | 4.086 | 4.086 Mbytes
Step Temp PotEng Press Pxx Pyy Pzz Pxy Pxz Pyz Lx Ly Lz Volume 
     100            0   -9.2829899   -98229.288   -98229.324   -98229.324   -98229.217 -3.4495336e-12 -2.8458652e-12 3.8807253e-12       4.0095       4.0095     4.009496    64.457019 
     101            0   -9.2829899   -98229.288   -98229.324   -98229.324   -98229.217 -2.0697202e-12 -2.8458652e-12 3.9669637e-12       4.0095       4.0095     4.009496    64.457019 
Loop time of 5.48363e-05 on 1 procs for 1 steps with 4 atoms

100.3% CPU use with 1 MPI tasks x no OpenMP threads

Minimization stats:
  Stopping criterion = quadratic factors are zero
  Energy initial, next-to-last, final = 
        -9.28298994241     -9.28298994241     -9.28298994241
  Force two-norm initial, final = 1.89017e-16 1.89017e-16
  Force max component initial, final = 9.71445e-17 9.71445e-17
  Final line search alpha, max atom move = 1 9.71445e-17
  Iterations, force evaluations = 1 2

MPI task timing breakdown:
Section |  min time  |  avg time  |  max time  |%varavg| %total
---------------------------------------------------------------
Pair    | 2.7895e-05 | 2.7895e-05 | 2.7895e-05 |   0.0 | 50.87
Neigh   | 0          | 0          | 0          |   0.0 |  0.00
Comm    | 6.1989e-06 | 6.1989e-06 | 6.1989e-06 |   0.0 | 11.30
Output  | 0          | 0          | 0          |   0.0 |  0.00
Modify  | 0          | 0          | 0          |   0.0 |  0.00
Other   |            | 2.074e-05  |            |       | 37.83

Nlocal:    4 ave 4 max 4 min
Histogram: 1 0 0 0 0 0 0 0 0 0
Nghost:    360 ave 360 max 360 min
Histogram: 1 0 0 0 0 0 0 0 0 0
Neighs:    156 ave 156 max 156 min
Histogram: 1 0 0 0 0 0 0 0 0 0

Total # of neighbors = 156
Ave neighs/atom = 39
Neighbor list builds = 0
Dangerous builds = 0

# Obtain new stress tensor

variable tmp equal pxx
variable pxx1 equal ${tmp}
variable pxx1 equal -98229.3235945391
variable tmp equal pyy
variable pyy1 equal ${tmp}
variable pyy1 equal -98229.3235945392
variable tmp equal pzz
variable pzz1 equal ${tmp}
variable pzz1 equal -98229.2165134117
variable tmp equal pxy
variable pxy1 equal ${tmp}
variable pxy1 equal -2.06972016744233e-12
variable tmp equal pxz
variable pxz1 equal ${tmp}
variable pxz1 equal -2.84586523023321e-12
variable tmp equal pyz
variable pyz1 equal ${tmp}
variable pyz1 equal 3.96696365426447e-12

# Compute elastic constant from pressure tensor

variable C1neg equal ${d1}
variable C1neg equal 16.8416698186775
variable C2neg equal ${d2}
variable C2neg equal 16.8416698099463
variable C3neg equal ${d3}
variable C3neg equal 27.5497825597995
variable C4neg equal ${d4}
variable C4neg equal -1.06935395379342e-09
variable C5neg equal ${d5}
variable C5neg equal -1.51779355624944e-09
variable C6neg equal ${d6}
variable C6neg equal -8.02015969839356e-10

# Reset box and simulation parameters

clear
read_restart restart.equil remap
  triclinic box = (0.02025 0.02025 0.02025) to (4.02975 4.02975 4.02975) with tilt (0 -0 0)
  1 by 1 by 1 MPI processor grid
  4 atoms
include potential.mod
mass 1 26.982

group Al type 1
4 atoms in group Al

pair_style eam/alloy
pair_coeff * * /home/sullberg/repos/pypospack/examples/Al__eam__born_exp_fs/pareto_optimization_3.5NN/rank_0/Al_fcc.lmps_elastic/Al.eam.alloy Al

neighbor 1.0 bin
neigh_modify every 1 delay 0 check yes
thermo	1
thermo_style custom step temp pe press pxx pyy pzz pxy pxz pyz lx ly lz vol
thermo_modify norm no

# Positive deformation

variable delta equal ${up}*${len0}
variable delta equal 1e-06*${len0}
variable delta equal 1e-06*4.00949999999997
if "${dir} == 1" then    "change_box all x delta 0 ${delta} remap units box"
if "${dir} == 2" then    "change_box all y delta 0 ${delta} remap units box"
if "${dir} == 3" then    "change_box all z delta 0 ${delta} remap units box"
change_box all z delta 0 ${delta} remap units box
change_box all z delta 0 4.00949999999997e-06 remap units box
  triclinic box = (0.02025 0.02025 0.02025) to (4.02975 4.02975 4.02975) with tilt (0 -0 0)
if "${dir} == 4" then    "change_box all yz delta ${delta} remap units box"
if "${dir} == 5" then    "change_box all xz delta ${delta} remap units box"
if "${dir} == 6" then    "change_box all xy delta ${delta} remap units box"

# Relax atoms positions

minimize ${etol} ${ftol} ${maxiter} ${maxeval}
minimize 0 ${ftol} ${maxiter} ${maxeval}
minimize 0 1e-10 ${maxiter} ${maxeval}
minimize 0 1e-10 100 ${maxeval}
minimize 0 1e-10 100 1000
Neighbor list info ...
  update every 1 steps, delay 0 steps, check yes
  max neighbors/atom: 2000, page size: 100000
  master list distance cutoff = 6.34397
  ghost atom cutoff = 6.34397
  binsize = 3.17199, bins = 2 2 2
  1 neighbor lists, perpetual/occasional/extra = 1 0 0
  (1) pair eam/alloy, perpetual
      attributes: half, newton on
      pair build: half/bin/newton/tri
      stencil: half/bin/3d/newton/tri
      bin: standard
Per MPI rank memory allocation (min/avg/max) = 4.086 | 4.086 | 4.086 Mbytes
Step Temp PotEng Press Pxx Pyy Pzz Pxy Pxz Pyz Lx Ly Lz Volume 
     100            0    -9.282982   -98229.696    -98229.66    -98229.66   -98229.768 -6.8990534e-13 -1.034858e-12 9.4861985e-13       4.0095       4.0095     4.009504    64.457148 
     101            0    -9.282982   -98229.696    -98229.66    -98229.66   -98229.768 -7.7614351e-13 1.8110015e-12 1.7247634e-12       4.0095       4.0095     4.009504    64.457148 
Loop time of 4.50611e-05 on 1 procs for 1 steps with 4 atoms

104.3% CPU use with 1 MPI tasks x no OpenMP threads

Minimization stats:
  Stopping criterion = quadratic factors are zero
  Energy initial, next-to-last, final = 
        -9.28298203868     -9.28298203868     -9.28298203868
  Force two-norm initial, final = 6.82631e-17 6.82631e-17
  Force max component initial, final = 5.11743e-17 5.11743e-17
  Final line search alpha, max atom move = 1 5.11743e-17
  Iterations, force evaluations = 1 2

MPI task timing breakdown:
Section |  min time  |  avg time  |  max time  |%varavg| %total
---------------------------------------------------------------
Pair    | 2.7895e-05 | 2.7895e-05 | 2.7895e-05 |   0.0 | 61.90
Neigh   | 0          | 0          | 0          |   0.0 |  0.00
Comm    | 5.2452e-06 | 5.2452e-06 | 5.2452e-06 |   0.0 | 11.64
Output  | 0          | 0          | 0          |   0.0 |  0.00
Modify  | 0          | 0          | 0          |   0.0 |  0.00
Other   |            | 1.192e-05  |            |       | 26.46

Nlocal:    4 ave 4 max 4 min
Histogram: 1 0 0 0 0 0 0 0 0 0
Nghost:    360 ave 360 max 360 min
Histogram: 1 0 0 0 0 0 0 0 0 0
Neighs:    156 ave 156 max 156 min
Histogram: 1 0 0 0 0 0 0 0 0 0

Total # of neighbors = 156
Ave neighs/atom = 39
Neighbor list builds = 0
Dangerous builds = 0

# Obtain new stress tensor

variable tmp equal pe
variable e1 equal ${tmp}
variable e1 equal -9.28298203868247
variable tmp equal press
variable p1 equal ${tmp}
variable p1 equal -98229.696119378
variable tmp equal pxx
variable pxx1 equal ${tmp}
variable pxx1 equal -98229.6604257612
variable tmp equal pyy
variable pyy1 equal ${tmp}
variable pyy1 equal -98229.6604257612
variable tmp equal pzz
variable pzz1 equal ${tmp}
variable pzz1 equal -98229.7675066115
variable tmp equal pxy
variable pxy1 equal ${tmp}
variable pxy1 equal -7.76143510502302e-13
variable tmp equal pxz
variable pxz1 equal ${tmp}
variable pxz1 equal 1.81100152450537e-12
variable tmp equal pyz
variable pyz1 equal ${tmp}
variable pyz1 equal 1.72476335667178e-12

# Compute elastic constant from pressure tensor

variable C1pos equal ${d1}
variable C1pos equal 16.8414523912361
variable C2pos equal ${d2}
variable C2pos equal 16.8414523912361
variable C3pos equal ${d3}
variable C3pos equal 27.5495374211459
variable C4pos equal ${d4}
variable C4pos equal 1.29357398355269e-09
variable C5pos equal ${d5}
variable C5pos equal 1.05210688077558e-09
variable C6pos equal ${d6}
variable C6pos equal 6.72658304145353e-10

# Combine positive and negative

variable C1${dir} equal 0.5*(${C1neg}+${C1pos})
variable C13 equal 0.5*(${C1neg}+${C1pos})
variable C13 equal 0.5*(16.8416698186775+${C1pos})
variable C13 equal 0.5*(16.8416698186775+16.8414523912361)
variable C2${dir} equal 0.5*(${C2neg}+${C2pos})
variable C23 equal 0.5*(${C2neg}+${C2pos})
variable C23 equal 0.5*(16.8416698099463+${C2pos})
variable C23 equal 0.5*(16.8416698099463+16.8414523912361)
variable C3${dir} equal 0.5*(${C3neg}+${C3pos})
variable C33 equal 0.5*(${C3neg}+${C3pos})
variable C33 equal 0.5*(27.5497825597995+${C3pos})
variable C33 equal 0.5*(27.5497825597995+27.5495374211459)
variable C4${dir} equal 0.5*(${C4neg}+${C4pos})
variable C43 equal 0.5*(${C4neg}+${C4pos})
variable C43 equal 0.5*(-1.06935395379342e-09+${C4pos})
variable C43 equal 0.5*(-1.06935395379342e-09+1.29357398355269e-09)
variable C5${dir} equal 0.5*(${C5neg}+${C5pos})
variable C53 equal 0.5*(${C5neg}+${C5pos})
variable C53 equal 0.5*(-1.51779355624944e-09+${C5pos})
variable C53 equal 0.5*(-1.51779355624944e-09+1.05210688077558e-09)
variable C6${dir} equal 0.5*(${C6neg}+${C6pos})
variable C63 equal 0.5*(${C6neg}+${C6pos})
variable C63 equal 0.5*(-8.02015969839356e-10+${C6pos})
variable C63 equal 0.5*(-8.02015969839356e-10+6.72658304145353e-10)

# Delete dir to make sure it is not reused

variable dir delete
# ---- uyz Perturbation
variable dir equal 4
include displace.mod
# NOTE: This script should not need to be
# modified. See in.elastic for more info.
# Find which reference length to use

if "${dir} == 1" then    "variable len0 equal ${lx0}"
if "${dir} == 2" then    "variable len0 equal ${ly0}"
if "${dir} == 3" then    "variable len0 equal ${lz0}"
if "${dir} == 4" then    "variable len0 equal ${lz0}"
variable len0 equal ${lz0}
variable len0 equal 4.00949999999997
if "${dir} == 5" then    "variable len0 equal ${lz0}"
if "${dir} == 6" then    "variable len0 equal ${ly0}"

# Reset box and simulation parameters

clear
read_restart restart.equil remap
  triclinic box = (0.02025 0.02025 0.02025) to (4.02975 4.02975 4.02975) with tilt (0 -0 0)
  1 by 1 by 1 MPI processor grid
  4 atoms
include potential.mod
mass 1 26.982

group Al type 1
4 atoms in group Al

pair_style eam/alloy
pair_coeff * * /home/sullberg/repos/pypospack/examples/Al__eam__born_exp_fs/pareto_optimization_3.5NN/rank_0/Al_fcc.lmps_elastic/Al.eam.alloy Al

neighbor 1.0 bin
neigh_modify every 1 delay 0 check yes
thermo	1
thermo_style custom step temp pe press pxx pyy pzz pxy pxz pyz lx ly lz vol
thermo_modify norm no

# Negative deformation

variable delta equal -${up}*${len0}
variable delta equal -1e-06*${len0}
variable delta equal -1e-06*4.00949999999997
if "${dir} == 1" then    "change_box all x delta 0 ${delta} remap units box"
if "${dir} == 2" then    "change_box all y delta 0 ${delta} remap units box"
if "${dir} == 3" then    "change_box all z delta 0 ${delta} remap units box"
if "${dir} == 4" then    "change_box all yz delta ${delta} remap units box"
change_box all yz delta ${delta} remap units box
change_box all yz delta -4.00949999999997e-06 remap units box
  triclinic box = (0.02025 0.02025 0.02025) to (4.02975 4.02975 4.02975) with tilt (0 -0 -4.0095e-06)
if "${dir} == 5" then    "change_box all xz delta ${delta} remap units box"
if "${dir} == 6" then    "change_box all xy delta ${delta} remap units box"

# Relax atoms positions

minimize ${etol} ${ftol} ${maxiter} ${maxeval}
minimize 0 ${ftol} ${maxiter} ${maxeval}
minimize 0 1e-10 ${maxiter} ${maxeval}
minimize 0 1e-10 100 ${maxeval}
minimize 0 1e-10 100 1000
Neighbor list info ...
  update every 1 steps, delay 0 steps, check yes
  max neighbors/atom: 2000, page size: 100000
  master list distance cutoff = 6.34397
  ghost atom cutoff = 6.34397
  binsize = 3.17199, bins = 2 2 2
  1 neighbor lists, perpetual/occasional/extra = 1 0 0
  (1) pair eam/alloy, perpetual
      attributes: half, newton on
      pair build: half/bin/newton/tri
      stencil: half/bin/3d/newton/tri
      bin: standard
Per MPI rank memory allocation (min/avg/max) = 4.086 | 4.086 | 4.086 Mbytes
Step Temp PotEng Press Pxx Pyy Pzz Pxy Pxz Pyz Lx Ly Lz Volume 
     100            0    -9.282986   -98229.492   -98229.492   -98229.492   -98229.492 -5.6917248e-12 -3.7944832e-12   0.15557748       4.0095       4.0095       4.0095    64.457084 
     101            0    -9.282986   -98229.492   -98229.492   -98229.492   -98229.492 -7.4164899e-12 2.5871476e-13   0.15557748       4.0095       4.0095       4.0095    64.457084 
Loop time of 4.60148e-05 on 1 procs for 1 steps with 4 atoms

93.4% CPU use with 1 MPI tasks x no OpenMP threads

Minimization stats:
  Stopping criterion = quadratic factors are zero
  Energy initial, next-to-last, final = 
        -9.28298599055     -9.28298599055     -9.28298599055
  Force two-norm initial, final = 2.08475e-16 3.74521e-16
  Force max component initial, final = 1.27936e-16 2.11636e-16
  Final line search alpha, max atom move = 1 2.11636e-16
  Iterations, force evaluations = 1 2

MPI task timing breakdown:
Section |  min time  |  avg time  |  max time  |%varavg| %total
---------------------------------------------------------------
Pair    | 2.7657e-05 | 2.7657e-05 | 2.7657e-05 |   0.0 | 60.10
Neigh   | 0          | 0          | 0          |   0.0 |  0.00
Comm    | 6.4373e-06 | 6.4373e-06 | 6.4373e-06 |   0.0 | 13.99
Output  | 0          | 0          | 0          |   0.0 |  0.00
Modify  | 0          | 0          | 0          |   0.0 |  0.00
Other   |            | 1.192e-05  |            |       | 25.91

Nlocal:    4 ave 4 max 4 min
Histogram: 1 0 0 0 0 0 0 0 0 0
Nghost:    360 ave 360 max 360 min
Histogram: 1 0 0 0 0 0 0 0 0 0
Neighs:    156 ave 156 max 156 min
Histogram: 1 0 0 0 0 0 0 0 0 0

Total # of neighbors = 156
Ave neighs/atom = 39
Neighbor list builds = 0
Dangerous builds = 0

# Obtain new stress tensor

variable tmp equal pxx
variable pxx1 equal ${tmp}
variable pxx1 equal -98229.4920112841
variable tmp equal pyy
variable pyy1 equal ${tmp}
variable pyy1 equal -98229.492010776
variable tmp equal pzz
variable pzz1 equal ${tmp}
variable pzz1 equal -98229.4920105184
variable tmp equal pxy
variable pxy1 equal ${tmp}
variable pxy1 equal -7.41648985017109e-12
variable tmp equal pxz
variable pxz1 equal ${tmp}
variable pxz1 equal 2.58714762215271e-13
variable tmp equal pyz
variable pyz1 equal ${tmp}
variable pyz1 equal 0.155577475762043

# Compute elastic constant from pressure tensor

variable C1neg equal ${d1}
variable C1neg equal -4.68135112896562e-06
variable C2neg equal ${d2}
variable C2neg equal 4.61295712739229e-05
variable C3neg equal ${d3}
variable C3neg equal 7.18893716111779e-05
variable C4neg equal ${d4}
variable C4neg equal 15.5577475747383
variable C5neg equal ${d5}
variable C5neg equal -1.20733555700459e-09
variable C6neg equal ${d6}
variable C6neg equal -1.33669293811223e-09

# Reset box and simulation parameters

clear
read_restart restart.equil remap
  triclinic box = (0.02025 0.02025 0.02025) to (4.02975 4.02975 4.02975) with tilt (0 -0 0)
  1 by 1 by 1 MPI processor grid
  4 atoms
include potential.mod
mass 1 26.982

group Al type 1
4 atoms in group Al

pair_style eam/alloy
pair_coeff * * /home/sullberg/repos/pypospack/examples/Al__eam__born_exp_fs/pareto_optimization_3.5NN/rank_0/Al_fcc.lmps_elastic/Al.eam.alloy Al

neighbor 1.0 bin
neigh_modify every 1 delay 0 check yes
thermo	1
thermo_style custom step temp pe press pxx pyy pzz pxy pxz pyz lx ly lz vol
thermo_modify norm no

# Positive deformation

variable delta equal ${up}*${len0}
variable delta equal 1e-06*${len0}
variable delta equal 1e-06*4.00949999999997
if "${dir} == 1" then    "change_box all x delta 0 ${delta} remap units box"
if "${dir} == 2" then    "change_box all y delta 0 ${delta} remap units box"
if "${dir} == 3" then    "change_box all z delta 0 ${delta} remap units box"
if "${dir} == 4" then    "change_box all yz delta ${delta} remap units box"
change_box all yz delta ${delta} remap units box
change_box all yz delta 4.00949999999997e-06 remap units box
  triclinic box = (0.02025 0.02025 0.02025) to (4.02975 4.02975 4.02975) with tilt (0 -0 4.0095e-06)
if "${dir} == 5" then    "change_box all xz delta ${delta} remap units box"
if "${dir} == 6" then    "change_box all xy delta ${delta} remap units box"

# Relax atoms positions

minimize ${etol} ${ftol} ${maxiter} ${maxeval}
minimize 0 ${ftol} ${maxiter} ${maxeval}
minimize 0 1e-10 ${maxiter} ${maxeval}
minimize 0 1e-10 100 ${maxeval}
minimize 0 1e-10 100 1000
Neighbor list info ...
  update every 1 steps, delay 0 steps, check yes
  max neighbors/atom: 2000, page size: 100000
  master list distance cutoff = 6.34397
  ghost atom cutoff = 6.34397
  binsize = 3.17199, bins = 2 2 2
  1 neighbor lists, perpetual/occasional/extra = 1 0 0
  (1) pair eam/alloy, perpetual
      attributes: half, newton on
      pair build: half/bin/newton/tri
      stencil: half/bin/3d/newton/tri
      bin: standard
Per MPI rank memory allocation (min/avg/max) = 4.086 | 4.086 | 4.086 Mbytes
Step Temp PotEng Press Pxx Pyy Pzz Pxy Pxz Pyz Lx Ly Lz Volume 
     100            0    -9.282986   -98229.492   -98229.492   -98229.492   -98229.492 5.9504395e-12 9.0550167e-12  -0.15557748       4.0095       4.0095       4.0095    64.457084 
     101            0    -9.282986   -98229.492   -98229.492   -98229.492   -98229.492 5.6054865e-12 1.3884359e-11  -0.15557748       4.0095       4.0095       4.0095    64.457084 
Loop time of 5.60284e-05 on 1 procs for 1 steps with 4 atoms

99.9% CPU use with 1 MPI tasks x no OpenMP threads

Minimization stats:
  Stopping criterion = quadratic factors are zero
  Energy initial, next-to-last, final = 
        -9.28298599055     -9.28298599055     -9.28298599055
  Force two-norm initial, final = 2.4872e-15 2.69445e-15
  Force max component initial, final = 2.04003e-15 2.17881e-15
  Final line search alpha, max atom move = 1 2.17881e-15
  Iterations, force evaluations = 1 2

MPI task timing breakdown:
Section |  min time  |  avg time  |  max time  |%varavg| %total
---------------------------------------------------------------
Pair    | 2.8133e-05 | 2.8133e-05 | 2.8133e-05 |   0.0 | 50.21
Neigh   | 0          | 0          | 0          |   0.0 |  0.00
Comm    | 5.0068e-06 | 5.0068e-06 | 5.0068e-06 |   0.0 |  8.94
Output  | 0          | 0          | 0          |   0.0 |  0.00
Modify  | 0          | 0          | 0          |   0.0 |  0.00
Other   |            | 2.289e-05  |            |       | 40.85

Nlocal:    4 ave 4 max 4 min
Histogram: 1 0 0 0 0 0 0 0 0 0
Nghost:    360 ave 360 max 360 min
Histogram: 1 0 0 0 0 0 0 0 0 0
Neighs:    156 ave 156 max 156 min
Histogram: 1 0 0 0 0 0 0 0 0 0

Total # of neighbors = 156
Ave neighs/atom = 39
Neighbor list builds = 0
Dangerous builds = 0

# Obtain new stress tensor

variable tmp equal pe
variable e1 equal ${tmp}
variable e1 equal -9.28298599055076
variable tmp equal press
variable p1 equal ${tmp}
variable p1 equal -98229.4920108595
variable tmp equal pxx
variable pxx1 equal ${tmp}
variable pxx1 equal -98229.492011284
variable tmp equal pyy
variable pyy1 equal ${tmp}
variable pyy1 equal -98229.492010776
variable tmp equal pzz
variable pzz1 equal ${tmp}
variable pzz1 equal -98229.4920105184
variable tmp equal pxy
variable pxy1 equal ${tmp}
variable pxy1 equal 5.6054865146642e-12
variable tmp equal pxz
variable pxz1 equal ${tmp}
variable pxz1 equal 1.38843589055529e-11
variable tmp equal pyz
variable pyz1 equal ${tmp}
variable pyz1 equal -0.155577475745485

# Compute elastic constant from pressure tensor

variable C1pos equal ${d1}
variable C1pos equal 4.67116478830576e-06
variable C2pos equal ${d2}
variable C2pos equal -4.61295712739229e-05
variable C3pos equal ${d3}
variable C3pos equal -7.18893716111779e-05
variable C4pos equal ${d4}
variable C4pos equal 15.5577475760146
variable C5pos equal ${d5}
variable C5pos equal -1.5522885732917e-10
variable C6pos equal ${d6}
variable C6pos equal 3.4495301628703e-11

# Combine positive and negative

variable C1${dir} equal 0.5*(${C1neg}+${C1pos})
variable C14 equal 0.5*(${C1neg}+${C1pos})
variable C14 equal 0.5*(-4.68135112896562e-06+${C1pos})
variable C14 equal 0.5*(-4.68135112896562e-06+4.67116478830576e-06)
variable C2${dir} equal 0.5*(${C2neg}+${C2pos})
variable C24 equal 0.5*(${C2neg}+${C2pos})
variable C24 equal 0.5*(4.61295712739229e-05+${C2pos})
variable C24 equal 0.5*(4.61295712739229e-05+-4.61295712739229e-05)
variable C3${dir} equal 0.5*(${C3neg}+${C3pos})
variable C34 equal 0.5*(${C3neg}+${C3pos})
variable C34 equal 0.5*(7.18893716111779e-05+${C3pos})
variable C34 equal 0.5*(7.18893716111779e-05+-7.18893716111779e-05)
variable C4${dir} equal 0.5*(${C4neg}+${C4pos})
variable C44 equal 0.5*(${C4neg}+${C4pos})
variable C44 equal 0.5*(15.5577475747383+${C4pos})
variable C44 equal 0.5*(15.5577475747383+15.5577475760146)
variable C5${dir} equal 0.5*(${C5neg}+${C5pos})
variable C54 equal 0.5*(${C5neg}+${C5pos})
variable C54 equal 0.5*(-1.20733555700459e-09+${C5pos})
variable C54 equal 0.5*(-1.20733555700459e-09+-1.5522885732917e-10)
variable C6${dir} equal 0.5*(${C6neg}+${C6pos})
variable C64 equal 0.5*(${C6neg}+${C6pos})
variable C64 equal 0.5*(-1.33669293811223e-09+${C6pos})
variable C64 equal 0.5*(-1.33669293811223e-09+3.4495301628703e-11)

# Delete dir to make sure it is not reused

variable dir delete
# ---- uxz Perturbation
variable dir equal 5
include displace.mod
# NOTE: This script should not need to be
# modified. See in.elastic for more info.
# Find which reference length to use

if "${dir} == 1" then    "variable len0 equal ${lx0}"
if "${dir} == 2" then    "variable len0 equal ${ly0}"
if "${dir} == 3" then    "variable len0 equal ${lz0}"
if "${dir} == 4" then    "variable len0 equal ${lz0}"
if "${dir} == 5" then    "variable len0 equal ${lz0}"
variable len0 equal ${lz0}
variable len0 equal 4.00949999999997
if "${dir} == 6" then    "variable len0 equal ${ly0}"

# Reset box and simulation parameters

clear
read_restart restart.equil remap
  triclinic box = (0.02025 0.02025 0.02025) to (4.02975 4.02975 4.02975) with tilt (0 -0 0)
  1 by 1 by 1 MPI processor grid
  4 atoms
include potential.mod
mass 1 26.982

group Al type 1
4 atoms in group Al

pair_style eam/alloy
pair_coeff * * /home/sullberg/repos/pypospack/examples/Al__eam__born_exp_fs/pareto_optimization_3.5NN/rank_0/Al_fcc.lmps_elastic/Al.eam.alloy Al

neighbor 1.0 bin
neigh_modify every 1 delay 0 check yes
thermo	1
thermo_style custom step temp pe press pxx pyy pzz pxy pxz pyz lx ly lz vol
thermo_modify norm no

# Negative deformation

variable delta equal -${up}*${len0}
variable delta equal -1e-06*${len0}
variable delta equal -1e-06*4.00949999999997
if "${dir} == 1" then    "change_box all x delta 0 ${delta} remap units box"
if "${dir} == 2" then    "change_box all y delta 0 ${delta} remap units box"
if "${dir} == 3" then    "change_box all z delta 0 ${delta} remap units box"
if "${dir} == 4" then    "change_box all yz delta ${delta} remap units box"
if "${dir} == 5" then    "change_box all xz delta ${delta} remap units box"
change_box all xz delta ${delta} remap units box
change_box all xz delta -4.00949999999997e-06 remap units box
  triclinic box = (0.02025 0.02025 0.02025) to (4.02975 4.02975 4.02975) with tilt (0 -4.0095e-06 0)
if "${dir} == 6" then    "change_box all xy delta ${delta} remap units box"

# Relax atoms positions

minimize ${etol} ${ftol} ${maxiter} ${maxeval}
minimize 0 ${ftol} ${maxiter} ${maxeval}
minimize 0 1e-10 ${maxiter} ${maxeval}
minimize 0 1e-10 100 ${maxeval}
minimize 0 1e-10 100 1000
Neighbor list info ...
  update every 1 steps, delay 0 steps, check yes
  max neighbors/atom: 2000, page size: 100000
  master list distance cutoff = 6.34397
  ghost atom cutoff = 6.34397
  binsize = 3.17199, bins = 2 2 2
  1 neighbor lists, perpetual/occasional/extra = 1 0 0
  (1) pair eam/alloy, perpetual
      attributes: half, newton on
      pair build: half/bin/newton/tri
      stencil: half/bin/3d/newton/tri
      bin: standard
Per MPI rank memory allocation (min/avg/max) = 4.086 | 4.086 | 4.086 Mbytes
Step Temp PotEng Press Pxx Pyy Pzz Pxy Pxz Pyz Lx Ly Lz Volume 
     100            0    -9.282986   -98229.492   -98229.492   -98229.492   -98229.492 -9.6586845e-12   0.15557748 -8.1926341e-12       4.0095       4.0095       4.0095    64.457084 
     101            0    -9.282986   -98229.492   -98229.492   -98229.492   -98229.492 -1.4660503e-12   0.15557748 -2.5009094e-12       4.0095       4.0095       4.0095    64.457084 
Loop time of 4.60148e-05 on 1 procs for 1 steps with 4 atoms

100.0% CPU use with 1 MPI tasks x no OpenMP threads

Minimization stats:
  Stopping criterion = quadratic factors are zero
  Energy initial, next-to-last, final = 
        -9.28298599055     -9.28298599055     -9.28298599055
  Force two-norm initial, final = 1.57793e-16 3.98979e-16
  Force max component initial, final = 8.32667e-17 2.13371e-16
  Final line search alpha, max atom move = 1 2.13371e-16
  Iterations, force evaluations = 1 2

MPI task timing breakdown:
Section |  min time  |  avg time  |  max time  |%varavg| %total
---------------------------------------------------------------
Pair    | 2.8133e-05 | 2.8133e-05 | 2.8133e-05 |   0.0 | 61.14
Neigh   | 0          | 0          | 0          |   0.0 |  0.00
Comm    | 5.722e-06  | 5.722e-06  | 5.722e-06  |   0.0 | 12.44
Output  | 0          | 0          | 0          |   0.0 |  0.00
Modify  | 0          | 0          | 0          |   0.0 |  0.00
Other   |            | 1.216e-05  |            |       | 26.42

Nlocal:    4 ave 4 max 4 min
Histogram: 1 0 0 0 0 0 0 0 0 0
Nghost:    360 ave 360 max 360 min
Histogram: 1 0 0 0 0 0 0 0 0 0
Neighs:    156 ave 156 max 156 min
Histogram: 1 0 0 0 0 0 0 0 0 0

Total # of neighbors = 156
Ave neighs/atom = 39
Neighbor list builds = 0
Dangerous builds = 0

# Obtain new stress tensor

variable tmp equal pxx
variable pxx1 equal ${tmp}
variable pxx1 equal -98229.492010776
variable tmp equal pyy
variable pyy1 equal ${tmp}
variable pyy1 equal -98229.4920112841
variable tmp equal pzz
variable pzz1 equal ${tmp}
variable pzz1 equal -98229.4920105184
variable tmp equal pxy
variable pxy1 equal ${tmp}
variable pxy1 equal -1.46605031921987e-12
variable tmp equal pxz
variable pxz1 equal ${tmp}
variable pxz1 equal 0.155577475748676
variable tmp equal pyz
variable pyz1 equal ${tmp}
variable pyz1 equal -2.50090936808095e-12

# Compute elastic constant from pressure tensor

variable C1neg equal ${d1}
variable C1neg equal 4.61295712739229e-05
variable C2neg equal ${d2}
variable C2neg equal -4.68135112896562e-06
variable C3neg equal ${d3}
variable C3neg equal 7.18893716111779e-05
variable C4neg equal ${d4}
variable C4neg equal -1.71614125602797e-09
variable C5neg equal ${d5}
variable C5neg equal 15.5577475736344
variable C6neg equal ${d6}
variable C6neg equal -7.4164898501711e-10

# Reset box and simulation parameters

clear
read_restart restart.equil remap
  triclinic box = (0.02025 0.02025 0.02025) to (4.02975 4.02975 4.02975) with tilt (0 -0 0)
  1 by 1 by 1 MPI processor grid
  4 atoms
include potential.mod
mass 1 26.982

group Al type 1
4 atoms in group Al

pair_style eam/alloy
pair_coeff * * /home/sullberg/repos/pypospack/examples/Al__eam__born_exp_fs/pareto_optimization_3.5NN/rank_0/Al_fcc.lmps_elastic/Al.eam.alloy Al

neighbor 1.0 bin
neigh_modify every 1 delay 0 check yes
thermo	1
thermo_style custom step temp pe press pxx pyy pzz pxy pxz pyz lx ly lz vol
thermo_modify norm no

# Positive deformation

variable delta equal ${up}*${len0}
variable delta equal 1e-06*${len0}
variable delta equal 1e-06*4.00949999999997
if "${dir} == 1" then    "change_box all x delta 0 ${delta} remap units box"
if "${dir} == 2" then    "change_box all y delta 0 ${delta} remap units box"
if "${dir} == 3" then    "change_box all z delta 0 ${delta} remap units box"
if "${dir} == 4" then    "change_box all yz delta ${delta} remap units box"
if "${dir} == 5" then    "change_box all xz delta ${delta} remap units box"
change_box all xz delta ${delta} remap units box
change_box all xz delta 4.00949999999997e-06 remap units box
  triclinic box = (0.02025 0.02025 0.02025) to (4.02975 4.02975 4.02975) with tilt (0 4.0095e-06 0)
if "${dir} == 6" then    "change_box all xy delta ${delta} remap units box"

# Relax atoms positions

minimize ${etol} ${ftol} ${maxiter} ${maxeval}
minimize 0 ${ftol} ${maxiter} ${maxeval}
minimize 0 1e-10 ${maxiter} ${maxeval}
minimize 0 1e-10 100 ${maxeval}
minimize 0 1e-10 100 1000
Neighbor list info ...
  update every 1 steps, delay 0 steps, check yes
  max neighbors/atom: 2000, page size: 100000
  master list distance cutoff = 6.34397
  ghost atom cutoff = 6.34397
  binsize = 3.17199, bins = 2 2 2
  1 neighbor lists, perpetual/occasional/extra = 1 0 0
  (1) pair eam/alloy, perpetual
      attributes: half, newton on
      pair build: half/bin/newton/tri
      stencil: half/bin/3d/newton/tri
      bin: standard
Per MPI rank memory allocation (min/avg/max) = 4.086 | 4.086 | 4.086 Mbytes
Step Temp PotEng Press Pxx Pyy Pzz Pxy Pxz Pyz Lx Ly Lz Volume 
     100            0    -9.282986   -98229.492   -98229.492   -98229.492   -98229.492 -4.398151e-12  -0.15557748 3.6220067e-12       4.0095       4.0095       4.0095    64.457084 
     101            0    -9.282986   -98229.492   -98229.492   -98229.492   -98229.492 3.7082449e-12  -0.15557748 4.3119127e-12       4.0095       4.0095       4.0095    64.457084 
Loop time of 4.60148e-05 on 1 procs for 1 steps with 4 atoms

100.0% CPU use with 1 MPI tasks x no OpenMP threads

Minimization stats:
  Stopping criterion = quadratic factors are zero
  Energy initial, next-to-last, final = 
        -9.28298599055     -9.28298599055     -9.28298599055
  Force two-norm initial, final = 2.40162e-15 2.7483e-15
  Force max component initial, final = 1.97065e-15 2.22045e-15
  Final line search alpha, max atom move = 1 2.22045e-15
  Iterations, force evaluations = 1 2

MPI task timing breakdown:
Section |  min time  |  avg time  |  max time  |%varavg| %total
---------------------------------------------------------------
Pair    | 2.8133e-05 | 2.8133e-05 | 2.8133e-05 |   0.0 | 61.14
Neigh   | 0          | 0          | 0          |   0.0 |  0.00
Comm    | 5.9605e-06 | 5.9605e-06 | 5.9605e-06 |   0.0 | 12.95
Output  | 0          | 0          | 0          |   0.0 |  0.00
Modify  | 0          | 0          | 0          |   0.0 |  0.00
Other   |            | 1.192e-05  |            |       | 25.91

Nlocal:    4 ave 4 max 4 min
Histogram: 1 0 0 0 0 0 0 0 0 0
Nghost:    360 ave 360 max 360 min
Histogram: 1 0 0 0 0 0 0 0 0 0
Neighs:    156 ave 156 max 156 min
Histogram: 1 0 0 0 0 0 0 0 0 0

Total # of neighbors = 156
Ave neighs/atom = 39
Neighbor list builds = 0
Dangerous builds = 0

# Obtain new stress tensor

variable tmp equal pe
variable e1 equal ${tmp}
variable e1 equal -9.28298599055076
variable tmp equal press
variable p1 equal ${tmp}
variable p1 equal -98229.4920108595
variable tmp equal pxx
variable pxx1 equal ${tmp}
variable pxx1 equal -98229.492010776
variable tmp equal pyy
variable pyy1 equal ${tmp}
variable pyy1 equal -98229.4920112841
variable tmp equal pzz
variable pzz1 equal ${tmp}
variable pzz1 equal -98229.4920105184
variable tmp equal pxy
variable pxy1 equal ${tmp}
variable pxy1 equal 3.70824492508555e-12
variable tmp equal pxz
variable pxz1 equal ${tmp}
variable pxz1 equal -0.155577475735482
variable tmp equal pyz
variable pyz1 equal ${tmp}
variable pyz1 equal 4.31191270358784e-12

# Compute elastic constant from pressure tensor

variable C1pos equal ${d1}
variable C1pos equal -4.61295712739229e-05
variable C2pos equal ${d2}
variable C2pos equal 4.68135112896562e-06
variable C3pos equal ${d3}
variable C3pos equal -7.18893716111779e-05
variable C4pos equal ${d4}
variable C4pos equal 1.03485904886109e-09
variable C5pos equal ${d5}
variable C5pos equal 15.5577475747814
variable C6pos equal ${d6}
variable C6pos equal 2.24219460586568e-10

# Combine positive and negative

variable C1${dir} equal 0.5*(${C1neg}+${C1pos})
variable C15 equal 0.5*(${C1neg}+${C1pos})
variable C15 equal 0.5*(4.61295712739229e-05+${C1pos})
variable C15 equal 0.5*(4.61295712739229e-05+-4.61295712739229e-05)
variable C2${dir} equal 0.5*(${C2neg}+${C2pos})
variable C25 equal 0.5*(${C2neg}+${C2pos})
variable C25 equal 0.5*(-4.68135112896562e-06+${C2pos})
variable C25 equal 0.5*(-4.68135112896562e-06+4.68135112896562e-06)
variable C3${dir} equal 0.5*(${C3neg}+${C3pos})
variable C35 equal 0.5*(${C3neg}+${C3pos})
variable C35 equal 0.5*(7.18893716111779e-05+${C3pos})
variable C35 equal 0.5*(7.18893716111779e-05+-7.18893716111779e-05)
variable C4${dir} equal 0.5*(${C4neg}+${C4pos})
variable C45 equal 0.5*(${C4neg}+${C4pos})
variable C45 equal 0.5*(-1.71614125602797e-09+${C4pos})
variable C45 equal 0.5*(-1.71614125602797e-09+1.03485904886109e-09)
variable C5${dir} equal 0.5*(${C5neg}+${C5pos})
variable C55 equal 0.5*(${C5neg}+${C5pos})
variable C55 equal 0.5*(15.5577475736344+${C5pos})
variable C55 equal 0.5*(15.5577475736344+15.5577475747814)
variable C6${dir} equal 0.5*(${C6neg}+${C6pos})
variable C65 equal 0.5*(${C6neg}+${C6pos})
variable C65 equal 0.5*(-7.4164898501711e-10+${C6pos})
variable C65 equal 0.5*(-7.4164898501711e-10+2.24219460586568e-10)

# Delete dir to make sure it is not reused

variable dir delete
# ---- uxy Perturbation
variable dir equal 6
include displace.mod
# NOTE: This script should not need to be
# modified. See in.elastic for more info.
# Find which reference length to use

if "${dir} == 1" then    "variable len0 equal ${lx0}"
if "${dir} == 2" then    "variable len0 equal ${ly0}"
if "${dir} == 3" then    "variable len0 equal ${lz0}"
if "${dir} == 4" then    "variable len0 equal ${lz0}"
if "${dir} == 5" then    "variable len0 equal ${lz0}"
if "${dir} == 6" then    "variable len0 equal ${ly0}"
variable len0 equal ${ly0}
variable len0 equal 4.00949999999997

# Reset box and simulation parameters

clear
read_restart restart.equil remap
  triclinic box = (0.02025 0.02025 0.02025) to (4.02975 4.02975 4.02975) with tilt (0 -0 0)
  1 by 1 by 1 MPI processor grid
  4 atoms
include potential.mod
mass 1 26.982

group Al type 1
4 atoms in group Al

pair_style eam/alloy
pair_coeff * * /home/sullberg/repos/pypospack/examples/Al__eam__born_exp_fs/pareto_optimization_3.5NN/rank_0/Al_fcc.lmps_elastic/Al.eam.alloy Al

neighbor 1.0 bin
neigh_modify every 1 delay 0 check yes
thermo	1
thermo_style custom step temp pe press pxx pyy pzz pxy pxz pyz lx ly lz vol
thermo_modify norm no

# Negative deformation

variable delta equal -${up}*${len0}
variable delta equal -1e-06*${len0}
variable delta equal -1e-06*4.00949999999997
if "${dir} == 1" then    "change_box all x delta 0 ${delta} remap units box"
if "${dir} == 2" then    "change_box all y delta 0 ${delta} remap units box"
if "${dir} == 3" then    "change_box all z delta 0 ${delta} remap units box"
if "${dir} == 4" then    "change_box all yz delta ${delta} remap units box"
if "${dir} == 5" then    "change_box all xz delta ${delta} remap units box"
if "${dir} == 6" then    "change_box all xy delta ${delta} remap units box"
change_box all xy delta ${delta} remap units box
change_box all xy delta -4.00949999999997e-06 remap units box
  triclinic box = (0.02025 0.02025 0.02025) to (4.02975 4.02975 4.02975) with tilt (-4.0095e-06 -0 0)

# Relax atoms positions

minimize ${etol} ${ftol} ${maxiter} ${maxeval}
minimize 0 ${ftol} ${maxiter} ${maxeval}
minimize 0 1e-10 ${maxiter} ${maxeval}
minimize 0 1e-10 100 ${maxeval}
minimize 0 1e-10 100 1000
Neighbor list info ...
  update every 1 steps, delay 0 steps, check yes
  max neighbors/atom: 2000, page size: 100000
  master list distance cutoff = 6.34397
  ghost atom cutoff = 6.34397
  binsize = 3.17199, bins = 2 2 2
  1 neighbor lists, perpetual/occasional/extra = 1 0 0
  (1) pair eam/alloy, perpetual
      attributes: half, newton on
      pair build: half/bin/newton/tri
      stencil: half/bin/3d/newton/tri
      bin: standard
Per MPI rank memory allocation (min/avg/max) = 4.086 | 4.086 | 4.086 Mbytes
Step Temp PotEng Press Pxx Pyy Pzz Pxy Pxz Pyz Lx Ly Lz Volume 
     100            0    -9.282986   -98229.492   -98229.492   -98229.492   -98229.492   0.15557748 -6.8990603e-13 5.088057e-12       4.0095       4.0095       4.0095    64.457084 
     101            0    -9.282986   -98229.492   -98229.492   -98229.492   -98229.492   0.15557748 2.3284329e-12 3.9669597e-12       4.0095       4.0095       4.0095    64.457084 
Loop time of 4.69685e-05 on 1 procs for 1 steps with 4 atoms

102.2% CPU use with 1 MPI tasks x no OpenMP threads

Minimization stats:
  Stopping criterion = quadratic factors are zero
  Energy initial, next-to-last, final = 
        -9.28298599055     -9.28298599055     -9.28298599055
  Force two-norm initial, final = 2.01086e-16 4.9729e-16
  Force max component initial, final = 1.11022e-16 2.84495e-16
  Final line search alpha, max atom move = 1 2.84495e-16
  Iterations, force evaluations = 1 2

MPI task timing breakdown:
Section |  min time  |  avg time  |  max time  |%varavg| %total
---------------------------------------------------------------
Pair    | 2.7895e-05 | 2.7895e-05 | 2.7895e-05 |   0.0 | 59.39
Neigh   | 0          | 0          | 0          |   0.0 |  0.00
Comm    | 6.1989e-06 | 6.1989e-06 | 6.1989e-06 |   0.0 | 13.20
Output  | 0          | 0          | 0          |   0.0 |  0.00
Modify  | 0          | 0          | 0          |   0.0 |  0.00
Other   |            | 1.287e-05  |            |       | 27.41

Nlocal:    4 ave 4 max 4 min
Histogram: 1 0 0 0 0 0 0 0 0 0
Nghost:    360 ave 360 max 360 min
Histogram: 1 0 0 0 0 0 0 0 0 0
Neighs:    156 ave 156 max 156 min
Histogram: 1 0 0 0 0 0 0 0 0 0

Total # of neighbors = 156
Ave neighs/atom = 39
Neighbor list builds = 0
Dangerous builds = 0

# Obtain new stress tensor

variable tmp equal pxx
variable pxx1 equal ${tmp}
variable pxx1 equal -98229.492010776
variable tmp equal pyy
variable pyy1 equal ${tmp}
variable pyy1 equal -98229.4920105184
variable tmp equal pzz
variable pzz1 equal ${tmp}
variable pzz1 equal -98229.4920112841
variable tmp equal pxy
variable pxy1 equal ${tmp}
variable pxy1 equal 0.155577475743933
variable tmp equal pxz
variable pxz1 equal ${tmp}
variable pxz1 equal 2.32843285993744e-12
variable tmp equal pyz
variable pyz1 equal ${tmp}
variable pyz1 equal 3.96695968730082e-12

# Compute elastic constant from pressure tensor

variable C1neg equal ${d1}
variable C1neg equal 4.61295712739229e-05
variable C2neg equal ${d2}
variable C2neg equal 7.18893716111779e-05
variable C3neg equal ${d3}
variable C3neg equal -4.68135112896562e-06
variable C4neg equal ${d4}
variable C4neg equal -1.06935435048979e-09
variable C5neg equal ${d5}
variable C5neg equal -1.00036374723238e-09
variable C6neg equal ${d6}
variable C6neg equal 15.5577475737983

# Reset box and simulation parameters

clear
read_restart restart.equil remap
  triclinic box = (0.02025 0.02025 0.02025) to (4.02975 4.02975 4.02975) with tilt (0 -0 0)
  1 by 1 by 1 MPI processor grid
  4 atoms
include potential.mod
mass 1 26.982

group Al type 1
4 atoms in group Al

pair_style eam/alloy
pair_coeff * * /home/sullberg/repos/pypospack/examples/Al__eam__born_exp_fs/pareto_optimization_3.5NN/rank_0/Al_fcc.lmps_elastic/Al.eam.alloy Al

neighbor 1.0 bin
neigh_modify every 1 delay 0 check yes
thermo	1
thermo_style custom step temp pe press pxx pyy pzz pxy pxz pyz lx ly lz vol
thermo_modify norm no

# Positive deformation

variable delta equal ${up}*${len0}
variable delta equal 1e-06*${len0}
variable delta equal 1e-06*4.00949999999997
if "${dir} == 1" then    "change_box all x delta 0 ${delta} remap units box"
if "${dir} == 2" then    "change_box all y delta 0 ${delta} remap units box"
if "${dir} == 3" then    "change_box all z delta 0 ${delta} remap units box"
if "${dir} == 4" then    "change_box all yz delta ${delta} remap units box"
if "${dir} == 5" then    "change_box all xz delta ${delta} remap units box"
if "${dir} == 6" then    "change_box all xy delta ${delta} remap units box"
change_box all xy delta ${delta} remap units box
change_box all xy delta 4.00949999999997e-06 remap units box
  triclinic box = (0.02025 0.02025 0.02025) to (4.02975 4.02975 4.02975) with tilt (4.0095e-06 -0 0)

# Relax atoms positions

minimize ${etol} ${ftol} ${maxiter} ${maxeval}
minimize 0 ${ftol} ${maxiter} ${maxeval}
minimize 0 1e-10 ${maxiter} ${maxeval}
minimize 0 1e-10 100 ${maxeval}
minimize 0 1e-10 100 1000
Neighbor list info ...
  update every 1 steps, delay 0 steps, check yes
  max neighbors/atom: 2000, page size: 100000
  master list distance cutoff = 6.34397
  ghost atom cutoff = 6.34397
  binsize = 3.17199, bins = 2 2 2
  1 neighbor lists, perpetual/occasional/extra = 1 0 0
  (1) pair eam/alloy, perpetual
      attributes: half, newton on
      pair build: half/bin/newton/tri
      stencil: half/bin/3d/newton/tri
      bin: standard
Per MPI rank memory allocation (min/avg/max) = 4.086 | 4.086 | 4.086 Mbytes
Step Temp PotEng Press Pxx Pyy Pzz Pxy Pxz Pyz Lx Ly Lz Volume 
     100            0    -9.282986   -98229.492   -98229.492   -98229.492   -98229.492  -0.15557748 -2.7596241e-12 5.1742952e-13       4.0095       4.0095       4.0095    64.457084 
     101            0    -9.282986   -98229.492   -98229.492   -98229.492   -98229.492  -0.15557748 1.0952258e-11 3.0183389e-12       4.0095       4.0095       4.0095    64.457084 
Loop time of 4.60148e-05 on 1 procs for 1 steps with 4 atoms

102.1% CPU use with 1 MPI tasks x no OpenMP threads

Minimization stats:
  Stopping criterion = quadratic factors are zero
  Energy initial, next-to-last, final = 
        -9.28298599055     -9.28298599055     -9.28298599055
  Force two-norm initial, final = 2.48884e-15 2.73119e-15
  Force max component initial, final = 2.04003e-15 2.2482e-15
  Final line search alpha, max atom move = 1 2.2482e-15
  Iterations, force evaluations = 1 2

MPI task timing breakdown:
Section |  min time  |  avg time  |  max time  |%varavg| %total
---------------------------------------------------------------
Pair    | 2.8133e-05 | 2.8133e-05 | 2.8133e-05 |   0.0 | 61.14
Neigh   | 0          | 0          | 0          |   0.0 |  0.00
Comm    | 5.722e-06  | 5.722e-06  | 5.722e-06  |   0.0 | 12.44
Output  | 0          | 0          | 0          |   0.0 |  0.00
Modify  | 0          | 0          | 0          |   0.0 |  0.00
Other   |            | 1.216e-05  |            |       | 26.42

Nlocal:    4 ave 4 max 4 min
Histogram: 1 0 0 0 0 0 0 0 0 0
Nghost:    360 ave 360 max 360 min
Histogram: 1 0 0 0 0 0 0 0 0 0
Neighs:    156 ave 156 max 156 min
Histogram: 1 0 0 0 0 0 0 0 0 0

Total # of neighbors = 156
Ave neighs/atom = 39
Neighbor list builds = 0
Dangerous builds = 0

# Obtain new stress tensor

variable tmp equal pe
variable e1 equal ${tmp}
variable e1 equal -9.28298599055076
variable tmp equal press
variable p1 equal ${tmp}
variable p1 equal -98229.4920108595
variable tmp equal pxx
variable pxx1 equal ${tmp}
variable pxx1 equal -98229.492010776
variable tmp equal pyy
variable pyy1 equal ${tmp}
variable pyy1 equal -98229.4920105184
variable tmp equal pzz
variable pzz1 equal ${tmp}
variable pzz1 equal -98229.4920112841
variable tmp equal pxy
variable pxy1 equal ${tmp}
variable pxy1 equal -0.155577475752039
variable tmp equal pxz
variable pxz1 equal ${tmp}
variable pxz1 equal 1.09522582671131e-11
variable tmp equal pyz
variable pyz1 equal ${tmp}
variable pyz1 equal 3.01833889251149e-12

# Compute elastic constant from pressure tensor

variable C1pos equal ${d1}
variable C1pos equal -4.61295712739229e-05
variable C2pos equal ${d2}
variable C2pos equal -7.18893716111779e-05
variable C3pos equal ${d3}
variable C3pos equal 4.68135112896562e-06
variable C4pos equal ${d4}
variable C4pos equal 1.16421642996872e-09
variable C5pos equal ${d5}
variable C5pos equal 1.3798120651481e-10
variable C6pos equal ${d6}
variable C6pos equal 15.5577475757989

# Combine positive and negative

variable C1${dir} equal 0.5*(${C1neg}+${C1pos})
variable C16 equal 0.5*(${C1neg}+${C1pos})
variable C16 equal 0.5*(4.61295712739229e-05+${C1pos})
variable C16 equal 0.5*(4.61295712739229e-05+-4.61295712739229e-05)
variable C2${dir} equal 0.5*(${C2neg}+${C2pos})
variable C26 equal 0.5*(${C2neg}+${C2pos})
variable C26 equal 0.5*(7.18893716111779e-05+${C2pos})
variable C26 equal 0.5*(7.18893716111779e-05+-7.18893716111779e-05)
variable C3${dir} equal 0.5*(${C3neg}+${C3pos})
variable C36 equal 0.5*(${C3neg}+${C3pos})
variable C36 equal 0.5*(-4.68135112896562e-06+${C3pos})
variable C36 equal 0.5*(-4.68135112896562e-06+4.68135112896562e-06)
variable C4${dir} equal 0.5*(${C4neg}+${C4pos})
variable C46 equal 0.5*(${C4neg}+${C4pos})
variable C46 equal 0.5*(-1.06935435048979e-09+${C4pos})
variable C46 equal 0.5*(-1.06935435048979e-09+1.16421642996872e-09)
variable C5${dir} equal 0.5*(${C5neg}+${C5pos})
variable C56 equal 0.5*(${C5neg}+${C5pos})
variable C56 equal 0.5*(-1.00036374723238e-09+${C5pos})
variable C56 equal 0.5*(-1.00036374723238e-09+1.3798120651481e-10)
variable C6${dir} equal 0.5*(${C6neg}+${C6pos})
variable C66 equal 0.5*(${C6neg}+${C6pos})
variable C66 equal 0.5*(15.5577475737983+${C6pos})
variable C66 equal 0.5*(15.5577475737983+15.5577475757989)

# Delete dir to make sure it is not reused

variable dir delete

# ---- Output final values
variable C11all equal ${C11}
variable C11all equal 27.5496599955659
variable C22all equal ${C22}
variable C22all equal 27.5496599955659
variable C33all equal ${C33}
variable C33all equal 27.5496599904727
variable C12all equal 0.5*(${C12}+${C21})
variable C12all equal 0.5*(16.8415611005912+${C21})
variable C12all equal 0.5*(16.8415611005912+16.8415611049568)
variable C13all equal 0.5*(${C13}+${C31})
variable C13all equal 0.5*(16.8415611049568+${C31})
variable C13all equal 0.5*(16.8415611049568+16.8415611049568)
variable C23all equal 0.5*(${C23}+${C32})
variable C23all equal 0.5*(16.8415611005912+${C32})
variable C23all equal 0.5*(16.8415611005912+16.8415611049568)
variable C44all equal ${C44}
variable C44all equal 15.5577475753764
variable C55all equal ${C55}
variable C55all equal 15.5577475742079
variable C66all equal ${C66}
variable C66all equal 15.5577475747986
variable C14all equal 0.5*(${C14}+${C41})
variable C14all equal 0.5*(-5.09317032992967e-09+${C41})
variable C14all equal 0.5*(-5.09317032992967e-09+1.121098682746e-10)
variable C15all equal 0.5*(${C15}+${C51})
variable C15all equal 0.5*(0+${C51})
variable C15all equal 0.5*(0+-5.17425988662645e-11)
variable C16all equal 0.5*(${C16}+${C61})
variable C16all equal 0.5*(0+${C61})
variable C16all equal 0.5*(0+1.94035920744703e-10)
variable C24all equal 0.5*(${C24}+${C42})
variable C24all equal 0.5*(0+${C42})
variable C24all equal 0.5*(0+-1.41861912856487e-09)
variable C25all equal 0.5*(${C25}+${C52})
variable C25all equal 0.5*(0+${C52})
variable C25all equal 0.5*(0+3.27705675930719e-10)
variable C26all equal 0.5*(${C26}+${C62})
variable C26all equal 0.5*(0+${C62})
variable C26all equal 0.5*(0+5.6054731477404e-11)
variable C34all equal 0.5*(${C34}+${C43})
variable C34all equal 0.5*(0+${C43})
variable C34all equal 0.5*(0+1.12110014879635e-10)
variable C35all equal 0.5*(${C35}+${C53})
variable C35all equal 0.5*(0+${C53})
variable C35all equal 0.5*(0+-2.3284333773693e-10)
variable C36all equal 0.5*(${C36}+${C63})
variable C36all equal 0.5*(0+${C63})
variable C36all equal 0.5*(0+-6.46788328470015e-11)
variable C45all equal 0.5*(${C45}+${C54})
variable C45all equal 0.5*(-3.4064110358344e-10+${C54})
variable C45all equal 0.5*(-3.4064110358344e-10+-6.8128220716688e-10)
variable C46all equal 0.5*(${C46}+${C64})
variable C46all equal 0.5*(4.7431039739465e-11+${C64})
variable C46all equal 0.5*(4.7431039739465e-11+-6.51098818241764e-10)
variable C56all equal 0.5*(${C56}+${C65})
variable C56all equal 0.5*(-4.31191270358785e-10+${C65})
variable C56all equal 0.5*(-4.31191270358785e-10+-2.58714762215271e-10)

print "c11 = ${C11all} ${cunits}"
c11 = 27.5496599955659 GPa
print "c22 = ${C22all} ${cunits}"
c22 = 27.5496599955659 GPa
print "c33 = ${C33all} ${cunits}"
c33 = 27.5496599904727 GPa
print "c12 = ${C12all} ${cunits}"
c12 = 16.841561102774 GPa
print "c13 = ${C13all} ${cunits}"
c13 = 16.8415611049568 GPa
print "c23 = ${C23all} ${cunits}"
c23 = 16.841561102774 GPa
print "c44 = ${C44all} ${cunits}"
c44 = 15.5577475753764 GPa
print "c55 = ${C55all} ${cunits}"
c55 = 15.5577475742079 GPa
print "c66 = ${C66all} ${cunits}"
c66 = 15.5577475747986 GPa
print "c14 = ${C14all} ${cunits}"
c14 = -2.49053023082754e-09 GPa
print "c15 = ${C15all} ${cunits}"
c15 = -2.58712994331323e-11 GPa
print "c16 = ${C16all} ${cunits}"
c16 = 9.70179603723515e-11 GPa
print "c24 = ${C24all} ${cunits}"
c24 = -7.09309564282435e-10 GPa
print "c25 = ${C25all} ${cunits}"
c25 = 1.63852837965359e-10 GPa
print "c26 = ${C26all} ${cunits}"
c26 = 2.8027365738702e-11 GPa
print "c34 = ${C34all} ${cunits}"
c34 = 5.60550074398175e-11 GPa
print "c35 = ${C35all} ${cunits}"
c35 = -1.16421668868465e-10 GPa
print "c36 = ${C36all} ${cunits}"
c36 = -3.23394164235008e-11 GPa
print "c45 = ${C45all} ${cunits}"
c45 = -5.1096165537516e-10 GPa
print "c46 = ${C46all} ${cunits}"
c46 = -3.0183388925115e-10 GPa
print "c56 = ${C56all} ${cunits}"
c56 = -3.44953016287028e-10 GPa
print "lammps_sim_done"
lammps_sim_done
Total wall time: 0:00:00
