LAMMPS (11 Aug 2017)
Reading data file ...
  triclinic box = (0 0 0) to (4.8791 4.8791 4.8791) with tilt (0 0 0)
  1 by 1 by 1 MPI processor grid
  reading atoms ...
  8 atoms
8 atoms in group Ni
Neighbor list info ...
  update every 1 steps, delay 0 steps, check yes
  max neighbors/atom: 2000, page size: 100000
  master list distance cutoff = 11
  ghost atom cutoff = 11
  binsize = 5.5, bins = 1 1 1
  1 neighbor lists, perpetual/occasional/extra = 1 0 0
  (1) pair eam/alloy, perpetual
      attributes: half, newton on
      pair build: half/bin/newton/tri
      stencil: half/bin/3d/newton/tri
      bin: standard
Setting up cg style minimization ...
  Unit style    : metal
  Current step  : 0
WARNING: Energy due to 3 extra global DOFs will be included in minimizer energies
Per MPI rank memory allocation (min/avg/max) = 4.276 | 4.276 | 4.276 Mbytes
Step PotEng Xhi Xlo Yhi Ylo Zhi Xy Xz Yz Press Pxx Pyy Pzz Pxy Pxz Pyz c_eatoms 
       0   -35.795453       4.8791            0       4.8791            0       4.8791            0            0            0   -123377.37   -123377.37   -123377.37   -123377.37    3.8873177    3.8873177    3.8873177   -35.795453 
      10   -36.036546    4.8547045    0.0243955    4.8547045    0.0243955    4.8547045            0            0            0   -99857.328   -99857.328   -99857.328   -99857.328    3.3221547    3.3221547    3.3221547   -36.036546 
      20   -36.219043     4.830309     0.048791     4.830309     0.048791     4.830309            0            0            0   -72310.976   -72310.976   -72310.976   -72310.976    2.6850959    2.6850959    2.6850959   -36.219043 
      30   -36.336232    4.8059135    0.0731865    4.8059135    0.0731865    4.8059135            0            0            0   -40159.837   -40159.837   -40159.837   -40159.837    1.9683974    1.9683974    1.9683974   -36.336232 
      40   -36.380827     4.781518     0.097582     4.781518     0.097582     4.781518            0            0            0   -2867.5318   -2867.5318   -2867.5318   -2867.5318    1.1687137    1.1687137    1.1687137   -36.380827 
      50    -36.43289    4.7876691  0.091430893    4.7876691  0.091430893    4.7876691            0            0            0       4686.4       4686.4       4686.4       4686.4    6586.1169    6586.1169    6586.1169    -36.43289 
      60   -36.460338    4.7939909  0.085109115    4.7939909  0.085109117    4.7939909            0            0            0    -11.41804   -11.418024   -11.418049   -11.418048    9336.2692    9336.2692    9336.2693   -36.460338 
      70   -36.460378     4.793915  0.085185027    4.7939145  0.085185477    4.7939145            0            0            0   0.87197026   0.87669313    0.8694473   0.86977034    9359.4843    9359.4837    9359.4979   -36.460378 
      80   -36.460429    4.8027257  0.076374309    4.7888465  0.090253455     4.789465            0            0            0    524.97673    666.40359    449.45168    459.07491    9092.8589    9073.2969    9506.1046   -36.460429 
      90   -36.461047    4.8191574   0.05994256    4.7812593  0.097840658    4.7829506            0            0            0   -444.35203   -47.330059   -656.31078   -629.41525    9067.9463    9012.1032    10208.906   -36.461047 
     100   -36.462455    4.8374315  0.041668493    4.7705628   0.10853719    4.7735587            0            0            0    1194.6277    1880.2269    828.56736    875.08881    8481.8393     8383.529    10405.257   -36.462455 
     110   -36.464769    4.8589024  0.020197553    4.7619168   0.11718324    4.7662869            0            0            0   -659.31061     362.1558   -1204.6511   -1135.4366    8577.9589     8426.026    11420.809   -36.464769 
     120   -36.468552    4.8828678 -0.0037677888     4.749611   0.12948899    4.7556621            0            0            0    609.60676     1984.794   -124.84801   -31.125687    8033.3469    7822.1042    11771.425   -36.468552 
     130   -36.473236    4.9072633 -0.028163289    4.7388845   0.14021548    4.7465929            0            0            0    455.14957    2191.7536   -472.54383   -353.76102    7782.6957    7505.9719    12425.894   -36.473236 
     140   -36.478796    4.9316588 -0.052558789    4.7286101   0.15048988    4.7379849            0            0            0    281.22673     2372.706   -836.33886   -692.68695    7551.0978    7205.4031    13055.679   -36.478796 
     150    -36.48519    4.9560543 -0.076954289    4.7185775   0.16052254    4.7296386            0            0            0    299.90554    2732.9672   -1000.6593    -832.5913     7300.165     6883.173    13602.902    -36.48519 
     160   -36.492342    4.9804498  -0.10134979    4.7088791   0.17022094    4.7216435            0            0            0    383.61644    3145.2357   -1093.2457   -901.14071    7054.1954    6563.4173    14098.637   -36.492342 
     170   -36.500184    5.0048453  -0.12574529    4.6995458   0.17955422    4.7140302            0            0            0    474.46978    3552.1804   -1172.3079   -956.46312    6823.1702    6255.9096    14559.185   -36.500184 
     180   -36.508659    5.0292408  -0.15014079     4.690561   0.18853904    4.7067844            0            0            0    571.09254    3951.7067   -1238.8738   -999.55526    6606.6957    5960.2901     14985.72   -36.508659 
     190   -36.517718    5.0536363  -0.17453629    4.6819098   0.19719017    4.6998939            0            0            0    672.53356    4342.1687   -1293.5673   -1031.0008    6404.2825    5676.0908    15379.287   -36.517718 
     200   -36.527313    5.0780318  -0.19893179    4.6735783   0.20552168    4.6933472            0            0            0    777.60117    4721.7956   -1337.3141    -1051.678    6215.4675    5402.8481    15741.085   -36.527313 
     210   -36.537401    5.1024273  -0.22332729    4.6655538   0.21354618    4.6871346            0            0            0    885.33072    5089.1035   -1370.8415   -1062.2698    6039.7395    5140.0366    16072.251   -36.537401 
     220   -36.547943    5.1268228  -0.24772279    4.6578231   0.22127693    4.6812459            0            0            0    994.90201    5442.8565     -1394.79   -1063.3604    5876.5795       4887.1    16373.967   -36.547943 
     230   -36.558902    5.1512183  -0.27211829    4.6503764   0.22872364    4.6756746            0            0            0    1105.9583    5782.2349   -1409.3123   -1055.0479    5725.3757    4643.3956    16647.124   -36.558902 
     240   -36.570241    5.1756138  -0.29651379    4.6432067   0.23589326    4.6704171            0            0            0    1217.7306    6106.1116   -1415.0236   -1037.8962    5585.5835     4408.328    16892.699   -36.570241 
     250   -36.581928    5.2000093  -0.32090929    4.6363088   0.24279117    4.6654713            0            0            0    1329.5225    6413.4975   -1412.5083   -1012.4217    5456.6553    4181.2913    17111.617   -36.581928 
     260   -36.593933    5.2244048  -0.34530479    4.6296734   0.24942656    4.6608323            0            0            0    1439.7478    6702.7737   -1403.3772   -980.15323    5338.2369    3961.8116    17305.408   -36.593933 
     270   -36.606227    5.2488003  -0.36970029    4.6232906   0.25580935    4.6564944            0            0            0    1547.6055    6973.1146   -1388.4512   -941.84694     5229.889    3749.3136    17475.349   -36.606227 
     280   -36.618787    5.2731958  -0.39409579    4.6171479   0.26195208      4.65245            0            0            0    1652.4594    7223.9614   -1368.4393   -898.14378    5131.2101    3543.2212    17622.792   -36.618787 
     290   -36.631588    5.2975913  -0.41849129    4.6112363   0.26786369    4.6486952            0            0            0    1753.5965    7454.7325   -1344.1604   -849.78271    5041.8143    3342.9578    17748.997   -36.631588 
     300    -36.64461    5.3219868  -0.44288679     4.605544   0.27355599     4.645224            0            0            0    1850.6122    7665.2352   -1316.1726   -797.22599    4961.3366    3147.9333     17855.23    -36.64461 
     310   -36.657833    5.3463823  -0.46728229    4.6000613   0.27903865    4.6420327            0            0            0    1942.2449    7854.6043   -1285.9799   -741.88977    4889.5564    2957.6461     17943.09   -36.657833 
     320    -36.67124    5.3707778  -0.49167779    4.5947764   0.28432363    4.6391161            0            0            0    2030.1909    8024.5335   -1251.9143   -682.04649    4825.8987    2771.3113    18012.843    -36.67124 
     330   -36.684812    5.3951733  -0.51607329    4.5896885   0.28941147      4.63648            0            0            0    2114.7807    8175.3653   -1213.6855   -617.33785    4769.9154    2588.2723    18064.834   -36.684812 
     340    -36.69853    5.4195688  -0.54046879    4.5848037   0.29429628    4.6341368            0            0            0    2197.2379    8308.1686   -1170.0551   -546.39967    4721.0053    2407.7953    18098.645    -36.69853 
     350   -36.712379    5.4439643  -0.56486429    4.5801194   0.29898062    4.6320919            0            0            0    2273.3555    8419.8742   -1125.8701   -473.93751    4679.4499    2229.6784    18117.046   -36.712379 
     360   -36.726347    5.4683598  -0.58925979    4.5756227   0.30347727    4.6303421            0            0            0    2341.6933    8509.8799   -1083.0396   -401.76035    4645.2866    2053.4675    18121.902   -36.726347 
     370   -36.740429    5.4927553  -0.61365529     4.571294   0.30780602    4.6288783            0            0            0    2402.8259    8579.3064   -1041.3131   -329.51559    4618.4104    1878.5447    18114.324   -36.740429 
     380   -36.754615    5.5171508  -0.63805079    4.5671223   0.31197771    4.6277009            0            0            0     2457.603    8629.3678   -1000.0857   -256.47302    4598.6395     1704.247    18094.823   -36.754615 
     390   -36.768902    5.5415463  -0.66244629    4.5630994   0.31600058    4.6268135            0            0            0    2507.1337    8661.4527   -958.46669   -181.58487     4585.765    1529.8961    18063.595   -36.768902 
     400   -36.783284    5.5659418  -0.68684179    4.5592162    0.3198838    4.6262203            0            0            0    2549.8071    8674.9138   -918.61588   -106.87669    4580.0139    1355.0116    18022.354   -36.783284 
     410   -36.797759    5.5903373  -0.71123729     4.555467   0.32363304    4.6259298            0            0            0    2588.8183    8672.6133   -877.22554   -28.932917    4580.9494    1178.7769    17969.889   -36.797759 
     420   -36.812324    5.6147328  -0.73563279      4.55186   0.32724005    4.6259647            0            0            0    2627.0178    8656.9193   -831.29172    55.425972     4588.061    1000.4403    17904.444   -36.812324 
     430   -36.826978    5.6391283  -0.76002829     4.548405   0.33069496    4.6263506            0            0            0    2659.2113    8624.4141   -787.00943    140.22913    4601.9969    819.72379    17828.845   -36.826978 
     440   -36.841728    5.6635238  -0.78442379    4.5450839   0.33401612    4.6270898            0            0            0    2682.8734    8574.0731   -747.75778    222.30488    4623.4186    636.12362    17745.685   -36.841728 
     450   -36.856588    5.6879193  -0.80881929    4.5418682   0.33723184    4.6281776            0            0            0    2697.3104    8506.3048   -714.87706    300.50358    4652.9232    448.95459    17656.904   -36.856588 
     460   -36.871577    5.7123148  -0.83321479    4.5387388    0.3403612    4.6296201            0            0            0    2707.3585    8425.1983   -683.25992    380.13716    4690.2432    257.25185    17560.594   -36.871577 
     470   -36.886711    5.7367103  -0.85761029    4.5356939    0.3434061    4.6314412            0            0            0    2715.7691    8333.0159    -650.0341    464.32562    4735.2299    60.198318    17455.184   -36.886711 
     480   -36.902013    5.7611058  -0.88200579      4.53274   0.34635999    4.6336758            0            0            0    2720.2774    8228.5113   -618.10994    550.43089    4788.4282   -142.84367    17341.789   -36.902013 
     490   -36.917514    5.7855013  -0.90640129    4.5298696    0.3492304    4.6363494            0            0            0    2721.6809    8112.6403   -586.90668    639.30919    4850.1448   -352.67555    17220.188   -36.917514 
     500   -36.933253    5.8098968  -0.93079679    4.5270815    0.3520185    4.6394971            0            0            0    2720.9389    7986.3357   -555.59699    732.07786    4920.6096   -570.09632    17089.701   -36.933253 
     510   -36.949277    5.8342923  -0.95519229    4.5243801    0.3547199    4.6431631            0            0            0    2717.5915    7849.5304   -525.00701    828.25118    5000.2618   -795.89624    16950.271   -36.949277 
     520   -36.965648    5.8586878  -0.97958779    4.5217562   0.35734375    4.6473853            0            0            0    2710.2725    7701.6696   -497.09939     926.2473    5089.9374   -1030.9728    16802.976   -36.965648 
     530   -36.982444    5.8830833   -1.0039833    4.5191972   0.35990278    4.6522043            0            0            0    2699.4129    7543.2963   -471.68124    1026.6237    5190.2671    -1276.308    16647.808   -36.982444 
     540   -36.999762    5.9074788   -1.0283788    4.5167017   0.36239832    4.6576776            0            0            0    2688.4153    7376.5648   -444.90048    1133.5817    5301.2028   -1532.8041    16482.181   -36.999762 
     550   -37.017717    5.9318743   -1.0527743     4.514281   0.36481899    4.6638807            0            0            0    2678.0579    7201.7829   -415.94258    1248.3333     5422.956   -1801.2636    16304.657   -37.017717 
     560   -37.036451    5.9562698   -1.0771698    4.5119536   0.36714643    4.6709041            0            0            0    2668.7248    7018.8682   -384.39161    1371.6978    5555.6861   -2082.4073    16113.737   -37.036451 
     570    -37.05614    5.9806653   -1.1015653    4.5097463   0.36935366    4.6788553            0            0            0    2662.0078    6828.2925   -348.26478    1505.9957    5699.0662   -2376.7053    15906.705    -37.05614 
     580   -37.077003    6.0050608   -1.1259608     4.507693   0.37140696     4.687859            0            0            0    2657.2795    6629.1206   -308.21662    1650.9345    5852.9886   -2684.5006    15682.156   -37.077003 
     590    -37.09931    6.0294563   -1.1503563    4.5058322   0.37326779    4.6980576            0            0            0    2655.7954    6421.3468    -262.5096    1808.5489    6016.7472   -3005.8066     15437.17    -37.09931 
     600   -37.123393    6.0538518   -1.1747518     4.504234   0.37486603    4.7096338            0            0            0     2661.628    6206.2679   -205.67468    1984.2908    6188.0126   -3339.5769    15165.603   -37.123393 
     610   -37.149658    6.0782473   -1.1991473    4.5030011   0.37609892    4.7228122            0            0            0    2673.8864    5982.3166   -138.16608    2177.5087    6364.4085   -3684.0435    14863.952   -37.149658 
     620   -37.178603    6.1026428   -1.2235428     4.502253   0.37684703    4.7378487            0            0            0    2696.3461    5750.3591   -54.528799     2393.208    6541.6574   -4036.0471    14524.807   -37.178603 
     630   -37.210818    6.1270383   -1.2479383    4.5021879   0.37691208    4.7550779            0            0            0    2731.4734    5510.4593    49.498581    2634.4624    6713.1338   -4390.0052     14139.31   -37.210818 
     640   -37.247011    6.1514338   -1.2723338    4.5030306    0.3760694    4.7748708            0            0            0    2779.5946    5262.0607    175.71466    2901.0084    6870.7624   -4738.2697    13700.163   -37.247011 
     650   -37.287977    6.1758293   -1.2967293    4.5051176   0.37398237    4.7976904            0            0            0    2844.3561    5006.7558    330.39944    3195.9132    7001.7913   -5068.7381    13194.642   -37.287977 
     660   -37.331124    6.1985141   -1.3194141    4.5085345   0.37056549    4.8220859            0            0            0    2922.5941    4765.3927    505.33868     3497.051    7085.5791   -5345.8398    12653.043   -37.331124 
     670   -37.373706    6.2184842   -1.3393842    4.5130678   0.36603222    4.8464814            0            0            0    3000.6364    4548.8773    678.96183    3774.0701    7117.7427   -5553.0625    12115.411   -37.373706 
     680   -37.415762    6.2363384   -1.3572384      4.51861   0.36049002    4.8708769            0            0            0    3083.8001    4357.2393    858.45562    4035.7053    7100.9431   -5696.2181    11575.965   -37.415762 
     690   -37.457269    6.2525151   -1.3734151    4.5250745   0.35402555    4.8952724            0            0            0    3163.3603    4184.3859    1033.0116    4272.6833    7042.4106   -5783.4795    11041.448   -37.457269 
     700   -37.498169    6.2673437   -1.3882437    4.5323888   0.34671125    4.9196679            0            0            0    3238.3142    4028.1456    1201.4376    4485.3593    6946.9923   -5821.0664     10512.52   -37.498169 
     710   -37.538427    6.2810849   -1.4019849    4.5404724   0.33862757    4.9440634            0            0            0    3309.9379    3887.6815    1365.4325    4676.6996    6818.6537   -5814.3928     9988.623   -37.538427 
     720   -37.577954    6.2939349   -1.4148349    4.5492783   0.32982167    4.9684589            0            0            0    3373.9828    3759.6005    1519.5521    4842.7958     6663.056    -5769.677    9473.6452   -37.577954 
     730    -37.61671    6.3060572   -1.4269572    4.5587397   0.32036032    4.9928544            0            0            0    3430.0521    3642.4454    1663.2949    4984.4159    6484.5691    -5692.229    8968.9286    -37.61671 
     740    -37.65462    6.3175785   -1.4384785    4.5688176   0.31028236    5.0172499            0            0            0    3477.3934    3534.6359    1795.6486    5101.8956    6287.1741    -5586.746    8475.6725    -37.65462 
     750   -37.691653    6.3286067   -1.4495067    4.5794569   0.29964305    5.0416454            0            0            0     3514.192    3434.1266    1914.2668    5194.1826    6075.4417   -5458.3981    7996.6374   -37.691653 
     760    -37.72776    6.3392275   -1.4601275    4.5906219   0.28847814    5.0660409            0            0            0    3543.3138    3341.2008    2022.7993    5265.9413    5851.2534   -5310.0227    7529.9117    -37.72776 
     770   -37.762907    6.3495136   -1.4704136    4.6022733   0.27682666    5.0904364            0            0            0    3559.5222    3252.2926    2114.4401     5311.834    5620.2513   -5147.3719    7081.3324   -37.762907 
     780   -37.797064    6.3595252   -1.4804252    4.6143801    0.2647199    5.1148319            0            0            0    3569.1452    3169.4386    2197.3153    5340.6816    5382.0904   -4971.2715    6645.6854   -37.797064 
     790   -37.830214    6.3693136   -1.4902136    4.6269084   0.25219163    5.1392274            0            0            0    3565.9277    3088.7171    2263.2688    5345.7973    5142.5487   -4787.4366    6229.8572   -37.830214 
     800   -37.862345    6.3789223   -1.4998223    4.6398292   0.23927077    5.1636229            0            0            0    3554.7137    3011.5636    2318.5152    5334.0624    4901.5002   -4596.6595    5829.9512   -37.862345 
     810   -37.893443    6.3883879   -1.5092879    4.6531196   0.22598044    5.1880184            0            0            0    3533.6515    2936.3033    2360.5895    5304.0618    4661.9755   -4402.2342    5448.4208   -37.893443 
     820   -37.923519    6.3977431   -1.5186431     4.666748   0.21235201    5.2124139            0            0            0     3503.817    2862.6966    2390.8133    5257.9409    4425.3726    -4206.064    5084.9809   -37.923519 
     830   -37.952557    6.4070137   -1.5279137    4.6807033   0.19839666    5.2368094            0            0            0    3466.6886    2790.7928    2411.0276    5198.2455    4192.4244   -4009.3589    4738.5384   -37.952557 
     840   -37.980582    6.4162251   -1.5371251    4.6949543   0.18414565    5.2612049            0            0            0    3420.4666    2719.1101     2418.799    5123.4907    3965.7435   -3814.9138    4411.6109   -37.980582 
     850   -38.007594    6.4253969   -1.5462969    4.7094887   0.16961135    5.2856004            0            0            0    3368.8502    2648.8612    2418.8783    5038.8112    3744.4525   -3622.4559    4100.7538   -38.007594 
     860   -38.033607    6.4345472   -1.5554472    4.7242886   0.15481144    5.3099959            0            0            0    3310.1994    2578.7808    2409.0254     4942.792    3530.6153   -3434.1852    3808.0216   -38.033607 
     870   -38.058647    6.4436927   -1.5645927    4.7393313    0.1397687    5.3343914            0            0            0    3244.4442    2508.3929    2389.0491    4835.8906    3325.3192   -3251.4353    3533.9004   -38.058647 
     880   -38.082725    6.4528464   -1.5737464    4.7546096   0.12449043    5.3587869            0            0            0    3177.8079    2440.2503    2367.0636    4726.1099    3125.5726   -3071.9403    3271.9374   -38.082725 
     890    -38.10586    6.4620205   -1.5829205    4.7701092   0.10899084    5.3831824            0            0            0    3101.9869    2370.1172    2332.0114    4603.8322    2937.0908   -2900.9394    3031.1187    -38.10586 
     900   -38.128088    6.4712272   -1.5921272    4.7858078  0.093292172    5.4075779            0            0            0    3025.7767    2301.8156    2295.4408    4480.0737    2755.1397   -2734.5981    2802.2813   -38.128088 
     910   -38.149415    6.4804743   -1.6013743    4.8017081  0.077391871    5.4319734            0            0            0    2946.1777    2233.7005    2253.2975    4351.5351    2581.8903   -2575.0015    2588.4899   -38.149415 
     920   -38.169876    6.4897716   -1.6106716    4.8177906  0.061309428    5.4563689            0            0            0    2863.1487    2165.5233    2205.4471    4218.4759    2417.7895   -2422.7445    2389.8876   -38.169876 
     930   -38.189499    6.4991271   -1.6200271    4.8340431  0.045056873    5.4807644            0            0            0    2777.3935    2097.4232    2152.7442    4082.0133    2262.6823   -2277.8609    2205.6797   -38.189499 
     940   -38.208311    6.5085479   -1.6294479    4.8504551  0.028644903    5.5051599            0            0            0    2692.0937    2030.7159     2099.365    3946.2001    2114.7129   -2138.8661    2032.2589   -38.208311 
     950   -38.226324    6.5180383   -1.6389383    4.8670314  0.012068586    5.5295554            0            0            0    2606.7655    1965.0495    2044.6165    3810.6306    1974.2124   -2006.1549    1869.8588   -38.226324 
     960   -38.243574    6.5276053   -1.6485053    4.8837545 -0.0046545477    5.5539509            0            0            0     2517.778     1898.633    1983.5696    3671.1313    1843.6729   -1882.0396    1722.4735   -38.243574 
     970   -38.260095    6.5372551   -1.6581551    4.9006089 -0.021508862    5.5783464            0            0            0    2430.0915    1833.6519     1922.833    3533.7896    1719.8894   -1763.7887     1584.398   -38.260095 
     980     -38.2759    6.5469904   -1.6678904    4.9176019 -0.038501868    5.6027419            0            0            0    2344.4917    1770.3909    1863.4372    3399.6471    1602.2111   -1650.8889    1454.3652     -38.2759 
     990   -38.291015    6.5568153   -1.6777153    4.9347273 -0.055627307    5.6271374            0            0            0    2257.5494    1707.2197    1800.7193    3264.7093    1492.8514   -1545.3627    1336.0338   -38.291015 
    1000   -38.305476    6.5667355   -1.6876355    4.9519668 -0.072866758    5.6515329            0            0            0    2170.6472    1644.7157    1736.5105    3130.7156    1390.8382   -1446.4121    1227.6658   -38.305476 
    1010   -38.319307    6.5767543   -1.6976543    4.9693168  -0.09021684    5.6759284            0            0            0    2086.5525    1584.0924    1674.5381    3001.0271    1294.1453   -1352.2806    1125.7623   -38.319307 
    1020   -38.332522     6.586873    -1.707773    4.9867837  -0.10768372    5.7003239            0            0            0    2004.3756     1524.914    1613.5892    2874.6236    1203.1657   -1263.3458    1030.9671   -38.332522 
    1030   -38.345147    6.5970948   -1.7179948    5.0043616  -0.12526163    5.7247194            0            0            0    1922.8194    1466.5714    1551.8915    2749.9952    1118.6134   -1180.2737    944.49753   -38.345147 
    1040   -38.357211    6.6074238   -1.7283238    5.0220385  -0.14293848    5.7491149            0            0            0    1842.4337    1409.2921    1490.1845    2627.8243    1039.9473   -1102.6106     865.4568   -38.357211 
    1050   -38.368737    6.6178625   -1.7387625    5.0398094  -0.16070942    5.7735104            0            0            0    1764.1397    1353.4725     1429.728    2509.2185    966.32732   -1029.6276    792.45237   -38.368737 
    1060   -38.379744    6.6284124   -1.7493124    5.0576758  -0.17857578    5.7979059            0            0            0    1688.6194    1299.4026    1371.4667    2394.9889    897.04887   -960.70804    724.33183   -38.379744 
    1070   -38.390251    6.6390751   -1.7599751    5.0756378  -0.19653783    5.8223014            0            0            0    1615.0872    1246.7241    1314.3387    2284.1987    832.42994   -896.14647    661.69212   -38.390251 
    1080    -38.40028    6.6498526   -1.7707526    5.0936917  -0.21459169    5.8466969            0            0            0    1543.4019     1195.368    1258.1636    2176.6741    772.35111    -835.8448    604.39834    -38.40028 
    1090   -38.409851    6.6607473   -1.7816473    5.1118314  -0.23273139    5.8710924            0            0            0    1473.7086    1145.3933    1203.1607    2072.5718    716.49421   -779.52639    551.98352   -38.409851 
    1100   -38.418986    6.6717611   -1.7926611    5.1300542  -0.25095422    5.8954879            0            0            0    1406.2779    1096.9178    1149.7244    1972.1914    664.44682   -726.82526    503.82135   -38.418986 
    1110   -38.427701    6.6828954   -1.8037954    5.1483583  -0.26925833    5.9198834            0            0            0     1341.162     1049.956    1097.9566    1875.5735    615.94539   -677.50818    459.54439   -38.427701 
    1120   -38.436015    6.6941514   -1.8150514    5.1667432   -0.2876432    5.9442789            0            0            0    1278.3564    1004.5022    1047.8802    1782.6868    570.76923   -631.37822    418.85923   -38.436015 
    1130   -38.443946    6.7055306   -1.8264306    5.1852064  -0.30610644    5.9686744            0            0            0    1217.7532    960.50521    999.37683    1693.3776    528.77964   -588.30962    381.61153   -38.443946 
    1140   -38.451508     6.717034    -1.837934    5.2037465  -0.32464652    5.9930699            0            0            0    1159.4034    917.98426    952.55046    1607.6755    489.72675   -548.07657    347.46097   -38.451508 
    1150   -38.458719    6.7286628   -1.8495628    5.2223622  -0.34326221    6.0174654            0            0            0    1103.2636    876.91743    907.37691    1525.4966    453.43278   -510.51677    316.18898   -38.458719 
    1160   -38.465594     6.740418    -1.861318    5.2410524  -0.36195244    6.0418609            0            0            0    1049.4143     837.3347    864.00649    1446.9016    419.63818   -475.39377     287.4346   -38.465594 
    1170   -38.472147       6.7523      -1.8732    5.2598179  -0.38071788    6.0662564            0            0            0    997.74473    799.18422    822.32294     1371.727    388.22317   -442.59612    261.07524   -38.472147 
    1180   -38.478393    6.7643098   -1.8852098    5.2786575  -0.39955752    6.0906519            0            0            0     948.1653    762.42326    782.23883    1299.8338    359.06236   -412.00675    236.97749   -38.478393 
    1190   -38.484344    6.7764482   -1.8973482    5.2975704  -0.41847038    6.1150474            0            0            0    900.63635    727.02973    743.73869    1231.1406    332.00122   -383.48272    214.95529   -38.484344 
    1200   -38.490014    6.7887158   -1.9096158    5.3165556  -0.43745562    6.1394429            0            0            0    855.11245    692.97779    706.79934    1165.5602    306.89496   -356.88901     194.8382   -38.490014 
    1210   -38.495416    6.8011133   -1.9220133    5.3356125  -0.45651245    6.1638384            0            0            0    811.50543    660.22393    671.33714    1102.9552    283.63699   -332.12463    176.51812   -38.495416 
    1220   -38.500562    6.8136416   -1.9345416    5.3547391  -0.47563913    6.1882339            0            0            0    769.78078    628.74635    637.34474    1043.2513    262.08963   -309.06084    159.83196   -38.500562 
    1230   -38.505463    6.8263012   -1.9472012    5.3739353  -0.49483532    6.2126294            0            0            0    729.92381     598.5312    604.84174     986.3985    242.10547   -287.55997     144.5954   -38.505463 
    1240   -38.510131    6.8390926   -1.9599926    5.3932009   -0.5141009    6.2370249            0            0            0    691.87719    569.55153    573.78459    932.29545    223.57682   -267.51989    130.68995   -38.510131 
    1250   -38.514576    6.8520162   -1.9729162    5.4125358   -0.5334358    6.2614204            0            0            0    655.57903    541.76832    544.12859    880.84017    206.40267   -248.84478     118.0053   -38.514576 
    1260   -38.518808    6.8650721   -1.9859721      5.43194  -0.55284001    6.2858159            0            0            0    620.96857    515.14663    515.82893    831.93017    190.48878   -231.44459    106.44092   -38.518808 
    1270   -38.522838    6.8782608   -1.9991608    5.4514137  -0.57231372    6.3102114            0            0            0    587.98609    489.65189    488.84208    785.46432    175.74731   -215.23446    95.905126   -38.522838 
    1280   -38.526673    6.8915823   -2.0124823     5.470957  -0.59185705    6.3346069            0            0            0    556.58157    465.25273      463.134    741.35797    162.08691   -200.12746    86.297061   -38.526673 
    1290   -38.530322    6.9050364   -2.0259364     5.490571  -0.61147104    6.3590024            0            0            0    526.70865    441.92004    438.67741     699.5285    149.42062   -186.04121    77.520925   -38.530322 
    1300   -38.533796    6.9186232   -2.0395232     5.510256  -0.63115604    6.3833979            0            0            0    498.27474    419.60527    415.37914    659.83982    137.70202   -172.92889    69.547262   -38.533796 
    1310     -38.5371    6.9323427   -2.0532427    5.5300122  -0.65091223    6.4077934            0            0            0    471.22661    398.27456    393.19972    622.20555    126.86399   -160.72557    62.309778     -38.5371 
    1320   -38.540243    6.9461948   -2.0670948    5.5498397  -0.67073971    6.4321889            0            0            0     445.5067    377.89546    372.09178    586.53288     116.8414   -149.36781    55.741279   -38.540243 
    1330   -38.543234    6.9601795   -2.0810795    5.5697386  -0.69063862    6.4565844            0            0            0    421.06166    358.43542    352.01405    552.73551     107.5754   -138.79738     49.78338   -38.543234 
    1340   -38.546077    6.9742966   -2.0951966    5.5897092  -0.71060915    6.4809799            0            0            0    397.83873    339.86147    332.92532    520.72941    99.010823   -128.96082    44.382939   -38.546077 
    1350   -38.548782    6.9885461   -2.1094461    5.6097515  -0.73065151    6.5053754            0            0            0    375.78675    322.14153    314.78546    490.43328     91.09694   -119.80858    39.491779   -38.548782 
    1360   -38.551353    7.0029277   -2.1238277     5.629866  -0.75076598    6.5297709            0            0            0    354.85522    305.24388    297.55491    461.76687     83.78611   -111.29322     35.06479   -38.551353 
    1370   -38.553798    7.0174412   -2.1383412    5.6500529  -0.77095294    6.5541664            0            0            0    334.99537    289.13721    281.19522    434.65367    77.034009   -103.37124    31.061911   -38.553798 
    1380   -38.556122    7.0320863   -2.1529863    5.6703127  -0.79121273    6.5785619            0            0            0    316.15958    273.79126    265.66747       409.02    70.799662   -96.002007    27.445013   -38.556122 
    1390    -38.55833    7.0468626   -2.1677626    5.6906455  -0.81154552    6.6029574            0            0            0    298.30413    259.17802    250.93454    384.79984    65.045646   -89.148194    24.180889    -38.55833 
    1400   -38.560429    7.0617695   -2.1826695    5.7110515   -0.8319515    6.6273529            0            0            0    281.38585    245.26815    236.96683    361.92257    59.732865    -82.77167    21.232307   -38.560429 
    1410   -38.562423    7.0768067   -2.1977067    5.7315311  -0.85243108    6.6517484            0            0            0    265.34862    232.02828    223.71085    340.30674    54.838012   -76.847658    18.587057   -38.562423 
    1420   -38.564318    7.0919738   -2.2128738    5.7520844  -0.87298436    6.6761439            0            0            0    250.16162    219.43495    211.14944    319.90048    50.322573   -71.338559    16.205623   -38.564318 
    1430   -38.566118    7.1072703   -2.2281703    5.7727119  -0.89361186    6.7005394            0            0            0    235.78393    207.46095    199.24849    300.64234    46.159068   -66.215876      14.0643   -38.566118 
    1440   -38.567827    7.1226957   -2.2435957     5.793414  -0.91431402    6.7249349            0            0            0    222.17689    196.08024    187.97677    282.47365     42.32162    -61.45323     12.14129   -38.567827 
    1450    -38.56945    7.1382492   -2.2591492    5.8141913  -0.93509133    6.7493304            0            0            0    209.30322     185.2675    177.30403    265.33812    38.785945   -57.025861    10.416797    -38.56945 
    1460   -38.570991    7.1539303   -2.2748303    5.8350443  -0.95594426    6.7737259            0            0            0    197.12739    174.99865    167.20145    249.18206    35.529062    -52.91026    8.8726184   -38.570991 
    1470   -38.572455    7.1697384   -2.2906384    5.8559733  -0.97687332    6.7981214            0            0            0    185.61563    165.24987    157.64227    233.95477    32.529926   -49.084638     7.491639   -38.572455 
    1480   -38.573843    7.1856727   -2.3065727    5.8769789  -0.99787891    6.8225169            0            0            0    174.74895    156.00318    148.61968    219.62398    29.759121   -45.519991    6.2408222   -38.573843 
    1490   -38.575162    7.2017339   -2.3226339    5.8980583   -1.0189583    6.8469124            0            0            0    165.25278    147.51828    141.22744    207.01262    26.644405   -41.711715    4.1264064   -38.575162 
    1500   -38.576417    7.2179738   -2.3388738    5.9191003   -1.0400003    6.8713079            0            0            0     182.7427    149.28002    173.40374    225.54433    4.4198437   -21.188971   -32.082281   -38.576417 
    1510   -38.577603     7.234279    -2.355179    5.9403407   -1.0612407    6.8957034            0            0            0    172.30069    140.88827    163.93425    212.07956    3.2031879   -19.170757   -31.326987   -38.577603 
    1520   -38.578729     7.250715    -2.371615     5.961644    -1.082544    6.9200989            0            0            0    165.75303    134.15881    159.89856    203.20171  -0.31161934   -15.188373   -34.855032   -38.578729 
    1530   -38.579796    7.2672615   -2.3881615    5.9830475   -1.1039475    6.9444944            0            0            0    154.92467    126.06761    149.18525    189.52115  -0.18227562   -14.446542   -32.109473   -38.579796 
    1540   -38.580807    7.2839235   -2.4048235    6.0045038   -1.1254038    6.9688734            0            0            0    147.04657    119.27227    142.54048    179.32697   -1.7193829   -12.290973   -32.503096   -38.580807 
    1550   -38.581765     7.300684    -2.421584    6.0261196   -1.1470196    6.9932689            0            0            0    125.85375    107.81043    115.76209    153.98872    6.9184496   -19.068148   -14.962625   -38.581765 
    1560   -38.582676    7.3176771   -2.4385771    6.0475957   -1.1684957    7.0176644            0            0            0    150.30905    113.19071    156.77318    180.96325   -17.351743    2.8536094   -56.139687   -38.582676 
    1570   -38.583465    7.3334561   -2.4543561    6.0674723   -1.1883723    7.0401629            0            0            0    174.38545    118.81113     196.7456    207.59961   -40.480182    23.653354   -95.627849   -38.583465 
    1580   -38.584117    7.3469088   -2.4678088    6.0854897   -1.2063897    7.0597329            0            0            0    53.048819    72.217484    18.599238    68.329735    43.521895   -49.039564    55.500403   -38.584117 
    1590   -38.584724    7.3600567   -2.4809567    6.1013951   -1.2222951    7.0780131            0            0            0    144.72846    103.09754    158.71729    172.37056   -27.444312    13.259051   -69.790093   -38.584724 
    1600   -38.585296    7.3733214   -2.4942214    6.1190645   -1.2399645    7.0971078            0            0            0    29.667465    59.229822   -10.788409    40.560981    52.480941   -55.819281    74.061715   -38.585296 
    1610   -38.585847     7.386123    -2.507023    6.1345201   -1.2554201    7.1147423            0            0            0    114.20907    87.664388    118.54398    136.41883   -12.741042    1.3433969   -41.271991   -38.585847 
    1620   -38.586343    7.3984583   -2.5193583     6.150086    -1.270986    7.1319704            0            0            0    107.52273    83.307664    110.94435    128.31618   -11.160273   0.36161047   -37.466014   -38.586343 
    1630   -38.586852    7.4121854   -2.5330854    6.1680548   -1.2889548     7.151359            0            0            0    17.076325    48.712053   -22.388699     24.90562    51.299844   -53.438811    75.135275   -38.586852 
    1640   -38.587369    7.4259954   -2.5468954     6.184826    -1.305726    7.1701968            0            0            0    82.875305    70.567642    78.813461    99.244811  -0.12026896   -8.3896185    -15.38807   -38.587369 
    1650    -38.58786    7.4403106   -2.5612106    6.2027751   -1.3236751    7.1898925            0            0            0    73.800502     64.99384    67.821901    88.585765     3.574393   -11.218802    -8.563331    -38.58786 
    1660   -38.588341    7.4545069   -2.5754069    6.2205036   -1.3414036     7.209314            0            0            0    73.533087    63.367383    69.423149    87.808729   0.48209367   -8.1236372    -12.59936   -38.588341 
    1670   -38.588844    7.4704802   -2.5913802    6.2405067   -1.3614067    7.2310998            0            0            0    59.785323    56.317575    51.241062    71.797332    7.4346193   -13.762679   0.44560863   -38.588844 
    1680   -38.589247     7.483895    -2.604795    6.2571865   -1.3780865    7.2492622            0            0            0    58.947247    54.466519    51.858882    70.516339    5.4952403   -11.754736   -2.2600414   -38.589247 
    1690    -38.58967    7.4990698   -2.6199698    6.2759427   -1.3968427    7.2696737            0            0            0    66.674399    55.678027    65.349693    78.995478   -2.9479332   -4.0383671   -16.358071    -38.58967 
    1700   -38.590065    7.5133113   -2.6342113    6.2939006   -1.4148006    7.2889174            0            0            0    31.505643    41.601321    14.125841    38.789768    20.309986   -23.867331    25.895059   -38.590065 
    1710   -38.590414    7.5271751   -2.6480751    6.3108936   -1.4317936    7.3073554            0            0            0    46.397366    45.577365    38.133683    55.481051     7.212273   -12.197093    3.1582649   -38.590414 
    1720   -38.590776    7.5414454   -2.6623454    6.3285246   -1.4494246     7.326331            0            0            0    45.413772    43.717793    38.558899    53.964626    5.8532024   -10.835963    1.1559497   -38.590776 
    1730   -38.591066    7.5538727   -2.6747727    6.3439701   -1.4648701    7.3428343            0            0            0    31.223592    37.566346    18.389733    37.714696     14.40452   -17.967596    17.000686   -38.591066 
    1740   -38.591439    7.5702714   -2.6911714    6.3640168   -1.4849168    7.3643872            0            0            0    47.369826    41.910838    44.400215    55.798424   0.39624814   -5.5327763   -7.4237076   -38.591439 
    1750   -38.591735    7.5840089   -2.7049089    6.3809262   -1.5018262    7.3824231            0            0            0    44.650167    39.721372    41.802702    52.426427   0.67222426   -5.5983369   -6.5504897   -38.591735 
    1760   -38.592009    7.5977285   -2.7186285    6.3978858   -1.5187858    7.4004014            0            0            0    31.861832    34.249026     23.38952     37.94695    8.2634339   -11.813615    7.6694099   -38.592009 
    1770   -38.592305    7.6127586   -2.7336586    6.4162841   -1.5371841    7.4199513            0            0            0    35.015097    34.095145     29.78263    41.167514    4.3195797   -8.2804345   0.90436294   -38.592305 
    1780   -38.592563    7.6264832   -2.7473832    6.4331157   -1.5540157    7.4377487            0            0            0    32.867729    32.446188    27.456182    38.700816    4.3545069   -8.0305936    1.4727436   -38.592563 
    1790   -38.592814    7.6406874   -2.7615874     6.450603    -1.571503      7.45614            0            0            0    21.311114    27.442043    10.933552    25.557748    11.300743   -13.775526    14.365813   -38.592814 
    1800   -38.593093    7.6570314   -2.7779314    6.4704439   -1.5913439    7.4771081            0            0            0    34.073849    30.733525    31.855158    39.632863   0.49959661   -4.3650064   -4.7597582   -38.593093 
    1810   -38.593333    7.6717486   -2.7926486    6.4884315   -1.6093315    7.4959679            0            0            0    31.663708    29.026582    29.120339    36.844204   0.89286399   -4.4748156   -3.6480658   -38.593333 
    1820    -38.59355    7.6858818   -2.8067818    6.5056892   -1.6265892    7.5140077            0            0            0    28.542748    27.082764    25.354816    33.190664    1.9602179   -5.2314965   -1.4374976    -38.59355 
    1830   -38.593807    7.7041409   -2.8250409    6.5281595   -1.6490595    7.5373138            0            0            0    5.0311011    17.978122   -9.6616021    6.7767833    17.530098   -18.265689    27.072176   -38.593807 
    1840   -38.594033    7.7200705   -2.8409705    6.5473248   -1.6682248    7.5573762            0            0            0    25.427022     24.11231    22.761966    29.406788    1.5609101    -4.519245   -1.4987993   -38.594033 
    1850   -38.594246    7.7364866   -2.8573866     6.567275    -1.688175    7.5780644            0            0            0    25.088366    23.232196    23.042143    28.990759   0.60954021   -3.4887266   -2.8487688   -38.594246 
    1860    -38.59446     7.753716    -2.874616    6.5882092   -1.7091092     7.599707            0            0            0    23.120664    21.665032    21.101732    26.595227   0.92676697   -3.6448916   -2.0723522    -38.59446 
    1870   -38.594626    7.7686915   -2.8895915    6.6067769   -1.7276769    7.6186102            0            0            0   -14.745199    8.0558582      -36.638   -15.653455    27.418907    -25.97532    46.065798   -38.594626 
    1880   -38.594824    7.7853072   -2.9062072    6.6266056   -1.7475056    7.6391642            0            0            0    14.364256    17.314055    9.0784927    16.700219    5.3392829   -7.0772905    6.4112349   -38.594824 
    1890   -38.594995    7.8013265   -2.9222265    6.6458894   -1.7667894      7.65899            0            0            0    23.908219    19.926846    24.554777    27.243035   -2.4662489  -0.32263518   -7.4804309   -38.594995 
    1900   -38.595109    7.8132986   -2.9341986    6.6606147   -1.7815147    7.6739007            0            0            0    1.6975632    11.914441   -9.3441988    2.5224477    12.982907   -13.295128    20.634888   -38.595109 
    1910   -38.595231    7.8257367   -2.9466367    6.6756959   -1.7965959    7.6892563            0            0            0   -1.8901838    10.161875   -14.233599   -1.5988275    14.995234   -14.954633    24.338946   -38.595231 
    1920   -38.595332    7.8357394   -2.9566394    6.6875255   -1.8084255    7.7014369            0            0            0    21.153837    17.699042    21.745942    24.016528   -2.2065931  -0.28403341   -6.6001855   -38.595332 
    1930   -38.595432    7.8472972   -2.9681972    6.7017019   -1.8226019    7.7157162            0            0            0    2.2260949    10.883965   -7.1930464    2.9873664    10.957549   -11.318516    17.362774   -38.595432 
    1940   -38.595548    7.8604161   -2.9813161    6.7175623   -1.8384623    7.7317814            0            0            0   0.70426066     9.884416   -8.9690792    1.1974452    11.507264   -11.727927    18.431708   -38.595548 
    1950    -38.59564    7.8708342   -2.9917342    6.7299265   -1.8508265    7.7444012            0            0            0     18.55035    15.644418    19.019524    20.987107   -1.8769327  -0.32752549   -5.6425034    -38.59564 
    1960   -38.595723     7.881624    -3.002524    6.7431952   -1.8640952    7.7576591            0            0            0   -2.7876006    8.0890999   -13.777985   -2.6739167    13.129788   -12.917497    21.629276   -38.595723 
    1970   -38.595816    7.8935836   -3.0144836     6.757534    -1.878434    7.7721543            0            0            0    3.6449989    9.8639932   -3.2829333    4.3539369    8.0340256    -8.582188     12.44993   -38.595816 
    1980   -38.595897    7.9034428   -3.0243428    6.7692733   -1.8901733    7.7840396            0            0            0    16.505888    13.977796    16.930508     18.60936   -1.6702549  -0.30874434    -4.982126   -38.595897 
    1990   -38.595969    7.9136993   -3.0345993    6.7818169   -1.9027169    7.7965345            0            0            0    1.3676762    8.5920974   -6.3490788      1.86001     8.910116   -9.1527243    14.275107   -38.595969 
    2000   -38.596049    7.9247621   -3.0456621    6.7950754   -1.9159754    7.8098615            0            0            0    7.0665885    10.187014    2.9250478    8.0877036    4.4203559    -5.337437    6.1882619   -38.596049 
    2010    -38.59612     7.934754    -3.055654    6.8070267   -1.9279267    7.8218637            0            0            0    13.990031    12.289568    13.941562    15.738964  -0.93742417  -0.75709089   -3.4124468    -38.59612 
    2020   -38.596193    7.9461207   -3.0670207    6.8209145   -1.9418145     7.835627            0            0            0   -2.1258138    6.5800716   -10.888972   -2.0685411    10.357794   -10.193388    17.132962   -38.596193 
    2030   -38.596268    7.9583325   -3.0792325    6.8356126   -1.9565126    7.8502813            0            0            0   -2.6846243    6.0601045   -11.356332   -2.7576457    10.409747    -10.20592    17.258798   -38.596268 
    2040   -38.596362    7.9729096   -3.0938096    6.8531395   -1.9740395    7.8677299            0            0            0   -0.1526611      6.62348   -7.1435076  0.062044228    8.1269691    -8.183536    13.266988   -38.596362 
    2050   -38.596463    7.9905609   -3.1114609     6.874494    -1.995394    7.8888777            0            0            0   -8.8521362      3.32715   -20.351298   -9.5322602    13.930528   -12.963351    23.893324   -38.596463 
    2060   -38.596553    8.0065983   -3.1274983    6.8933477   -2.0142477    7.9077649            0            0            0    24.819942    14.281963    32.706057    27.471808   -10.836019    7.8575647   -20.922198   -38.596553 
    2070   -38.596631    8.0210926   -3.1419926    6.9109353   -2.0318353    7.9250476            0            0            0     12.86496    10.021053    14.243759    14.330067   -2.5636361    1.0031663   -5.8123815   -38.596631 
    2080   -38.596686    8.0323745   -3.1532745    6.9246433   -2.0455433    7.9384736            0            0            0    1.4071988    5.9739744   -3.4876425    1.7352644    5.4610611   -5.6664765    8.7835983   -38.596686 
    2090   -38.596746    8.0436419   -3.1645419    6.9381373   -2.0590373    7.9517684            0            0            0    5.5400587    7.1268153     3.279721    6.2136398    2.2312125   -2.9478276    2.9536633   -38.596746 
    2100   -38.596798    8.0545507   -3.1754507    6.9511933   -2.0720933    7.9646121            0            0            0    9.5134964    8.2701289    9.7046457    10.565715  -0.88025074  -0.30323624   -2.6350756   -38.596798 
    2110   -38.596846    8.0658796   -3.1867796    6.9648859   -2.0857859    7.9779878            0            0            0    3.3221098     6.033387     0.128233    3.8047094    3.3539953   -3.7785965    5.1047523   -38.596846 
    2120   -38.596898    8.0768326   -3.1977326    6.9780337   -2.0989337    7.9908568            0            0            0    4.5385378     6.238537    2.3013707    5.0757057    2.2649903   -2.8602065    3.1561068   -38.596898 
    2130   -38.596947    8.0881749   -3.2090749    6.9916107   -2.1125107    8.0041431            0            0            0    8.1878647    7.2855365    8.2088902    9.0691673  -0.59415717  -0.43202489   -1.9788793   -38.596947 
    2140   -38.596984     8.097625    -3.218525    7.0030669   -2.1239669    8.0152593            0            0            0   0.52459652    4.6055863   -3.7252584   0.69346172    4.7639696   -4.8588427    7.7897182   -38.596984 
    2150   -38.597028    8.1081425   -3.2290425    7.0156421   -2.1365421    8.0275323            0            0            0     4.899384    5.8891175    3.3712142    5.4378203     1.424148   -2.0611949    1.7477571   -38.597028 
    2160   -38.597067    8.1180817   -3.2389817    7.0275548   -2.1484548    8.0391245            0            0            0     6.851136    6.4037689    6.5738968    7.5757422  -0.15837131  -0.70663629    -1.088076   -38.597067 
    2170   -38.597111     8.130484    -3.251384    7.0426171   -2.1635171    8.0536578            0            0            0   -4.9170654     2.352911   -11.801946   -5.3021611    8.1167728   -7.5610929    14.024959   -38.597111 
    2180   -38.597159    8.1430529   -3.2639529    7.0575561   -2.1784561    8.0682095            0            0            0    6.5170294    5.9635608    6.4087224    7.1788049   -0.3237825  -0.50503141   -1.3004597   -38.597159 
    2190    -38.59719    8.1527035   -3.2736035    7.0693082   -2.1902082     8.079491            0            0            0   -4.9242479    2.0246633   -11.543069   -5.2543383    7.8307021    -7.238219    13.444595    -38.59719 
    2200   -38.597229    8.1635874   -3.2844874    7.0822006   -2.2031006    8.0920308            0            0            0    7.9408058    6.1967546     8.941413    8.6842498   -1.6770024   0.65985926   -3.6519507   -38.597229 
    2210   -38.597264    8.1743094   -3.2952094      7.09513     -2.21603    8.1044703            0            0            0    4.6809167    4.9874534    3.9228219    5.1324746      0.53323   -1.1469825   0.37401398   -38.597264 
    2220   -38.597303      8.18762     -3.30852    7.1110139   -2.2319139      8.11981            0            0            0    11.844061    7.2424394    15.439776    12.849969   -4.8676958    3.3385448   -9.2828635   -38.597303 
    2230   -38.597341    8.1989975   -3.3198975    7.1248231   -2.2457231    8.1330038            0            0            0    2.5086929    3.9739854   0.75409679    2.7979966    1.8069664    -2.130665    2.6731441   -38.597341 
    2240   -38.597376    8.2108257   -3.3317257    7.1389904   -2.2598904    8.1466119            0            0            0     5.558767    4.8743962    5.7255635    6.0763413  -0.56327384   -0.1524493   -1.5526792   -38.597376 
    2250   -38.597408    8.2222704   -3.3431704    7.1527708   -2.2736708    8.1597901            0            0            0    3.6664105    4.1422364    2.8553303    4.0016646   0.65925025   -1.1457965    0.7117941   -38.597408 
    2260   -38.597441    8.2347154   -3.3556154    7.1676112   -2.2885112    8.1740286            0            0            0    11.224607    6.5163081     14.96801    12.189503   -4.9453271     3.511927   -9.4273013   -38.597441 
    2270   -38.597482    8.2500865   -3.3709865    7.1860996   -2.3069996    8.1916681            0            0            0     10.50695    6.1096517    13.965345    11.445853   -4.5585922    3.2351918   -8.7791824   -38.597482 
    2280   -38.597521    8.2654525   -3.3863525    7.2046469   -2.3255469    8.2092882            0            0            0    5.5916486    4.3734231    6.3227836    6.0787392    -1.187277   0.46498338   -2.5802982   -38.597521 
    2290   -38.597563    8.2836017   -3.4045017    7.2264646   -2.3473646    8.2300267            0            0            0    6.0916479    4.3647699    7.2604949    6.6496789   -1.6951794   0.92771224   -3.5406571   -38.597563 
    2300    -38.59759    8.2967095   -3.4176095    7.2420942   -2.3629942    8.2449104            0            0            0    14.854036    7.1849263    21.355222    16.021961   -8.2051797    6.2795102   -15.187616    -38.59759 
    2310   -38.597616    8.3085137   -3.4294137    7.2566848   -2.3775848    8.2585211            0            0            0   -10.875225   -1.3760462   -19.536043   -11.713587    10.314143   -8.9333701    18.346646   -38.597616 
    2320   -38.597643    8.3199548   -3.4408548    7.2702797   -2.3911797    8.2714428            0            0            0   0.20696844    2.1713889   -1.8065996     0.256116    2.2199249   -2.2494144    3.6577633   -38.597643 
    2330   -38.597665    8.3320104   -3.4529104    7.2847363   -2.4056363    8.2850999            0            0            0    2.9094976    3.0166213    2.6245293    3.0873423   0.11462533  -0.52908939 -0.011209142   -38.597665 
    2340   -38.597693    8.3465732   -3.4674732    7.3024559   -2.4233559    8.3016889            0            0            0   -9.2516271   -1.0897046   -16.711026   -9.9541512    8.8255102   -7.6421935     15.71924   -38.597693 
    2350   -38.597713    8.3560018   -3.4769018    7.3136421   -2.4345421    8.3122772            0            0            0    1.1076709    2.2324354  -0.12192885    1.2125062    1.2834315   -1.4304097    2.0213689   -38.597713 
    2360   -38.597738    8.3695049   -3.4904049    7.3298964   -2.4507964    8.3275288            0            0            0    1.0963401     2.158032 -0.042929298    1.1739176    1.1797708   -1.3364139    1.8879065   -38.597738 
    2370   -38.597762    8.3837308   -3.5046308     7.347029    -2.467929    8.3435791            0            0            0   0.91814491    2.0077682  -0.24801138   0.99467794    1.2233028   -1.3492276    1.9562143   -38.597762 
    2380   -38.597784    8.3976182   -3.5185182    7.3637362   -2.4846362    8.3592175            0            0            0    2.0830822    2.3334923    1.6638997    2.2518546   0.27415827  -0.54706203    0.2897605   -38.597784 
    2390   -38.597804    8.4103901   -3.5312901     7.379063    -2.499963    8.3735513            0            0            0    5.7214838    3.4501245     7.559639    6.1546878   -2.4304993    1.6814763   -4.6084288   -38.597804 
    2400   -38.597822    8.4220215   -3.5429215    7.3931367   -2.5140367    8.3866421            0            0            0    1.8627199    2.0768217     1.507656    2.0036818   0.33427135  -0.58323257   0.31408043   -38.597822 
    2410   -38.597835    8.4306476   -3.5515476    7.4035908   -2.5244908    8.3963447            0            0            0   -1.5442997   0.94865194   -3.9178265   -1.6637245    2.7208449   -2.5279101    4.7101559   -38.597835 
    2420   -38.597853    8.4431581   -3.5640581    7.4185789   -2.5394789    8.4103189            0            0            0    4.0483677    2.7297539    5.0652099    4.3501392   -1.3987979   0.86674055   -2.7278492   -38.597853 
    2430   -38.597867    8.4521606   -3.5730606    7.4294703   -2.5503703    8.4204108            0            0            0    1.8274419    1.9541539    1.5686168    1.9595551     0.164741  -0.40911273   0.10117284   -38.597867 
    2440   -38.597883    8.4645985   -3.5854985     7.444371    -2.565271    8.4342712            0            0            0    7.5513759    3.7555431     10.80843    8.0901547   -4.0262452    3.0269726   -7.5062637   -38.597883 
    2450   -38.597899    8.4768225   -3.5977225    7.4591432   -2.5800432    8.4479302            0            0            0    6.0389651    3.2070316    8.4323921    6.4774715   -2.9882474    2.1930019   -5.6264146   -38.597899 
    2460   -38.597915    8.4902794   -3.6111794    7.4754625   -2.5963625    8.4629732            0            0            0    1.6524337    1.7316537    1.4997877    1.7258596  0.098238549  -0.33998579  0.031340263   -38.597915 
    2470   -38.597926    8.4995746   -3.6204746    7.4867587   -2.6076587    8.4733571            0            0            0   -2.4989255   0.35362305   -5.2028814   -2.6475182    3.0625437   -2.7191665    5.3907344   -38.597926 
    2480   -38.597938    8.5092242   -3.6301242    7.4984002   -2.6193002    8.4840886            0            0            0   -1.5613066   0.62003226   -3.6641681    -1.639784    2.3462068    -2.124373    4.0912436   -38.597938 
    2490    -38.59795    8.5196371   -3.6405371    7.5110192   -2.6319192    8.4956802            0            0            0   -3.3662491 -6.0142316e-05   -6.5093477   -3.5893396    3.5972827   -3.1446728    6.3897335    -38.59795 
    2500    -38.59796    8.5287149   -3.6496149    7.5219104   -2.6428104    8.5057221            0            0            0    1.5787296    1.5622543    1.4937042    1.6802301 -0.0035173655  -0.20985817  -0.15126229    -38.59796 
    2510   -38.597973    8.5403177   -3.6612177    7.5359423   -2.6568423    8.5185923            0            0            0    1.8893036    1.6211296     2.035903     2.010878  -0.27162972  0.016736605  -0.63396485   -38.597973 
    2520   -38.597986    8.5530881   -3.6739881    7.5513975   -2.6722975    8.5327468            0            0            0    2.0663999    1.6348266    2.3681162    2.1962568  -0.44688044   0.16695257  -0.94526463   -38.597986 
    2530   -38.597999    8.5665435   -3.6874435    7.5676601   -2.6885601     8.547625            0            0            0    4.0027532    2.2081041    5.5294747    4.2706808   -1.8806601     1.345598   -3.5685857   -38.597999 
    2540   -38.598011    8.5791106   -3.7000106    7.5828506   -2.7037506    8.5615012            0            0            0    6.2454229    2.8936959    9.1992066    6.6433662   -3.5444913     2.699036   -6.5752053   -38.598011 
    2550    -38.59802    8.5886246   -3.7095246    7.5945301   -2.7154301    8.5720738            0            0            0   -1.5247363   0.36997317     -3.32245   -1.6217322    2.0191297   -1.8094956    3.5559258    -38.59802 
    2560   -38.598032    8.6035534   -3.7244534    7.6124751   -2.7333751    8.5884694            0            0            0    7.7660054    3.2962185    11.739847    8.2619509   -4.7034246    3.6525947    -8.705494   -38.598032 
    2570    -38.59804    8.6114177   -3.7323177    7.6221452   -2.7430452    8.5971952            0            0            0    1.1362368    1.1553044    1.0436221    1.2097838  0.037638844  -0.18822104 -0.052431866    -38.59804 
    2580   -38.598049      8.62318     -3.74408    7.6363809   -2.7572809    8.6101257            0            0            0    3.9763346    2.0458786    5.6808442     4.202281   -2.0566174    1.5066473   -3.8223831   -38.598049 
    2590   -38.598057    8.6329937   -3.7538937    7.6484402   -2.7693402    8.6209866            0            0            0   -3.1128738  -0.25014515   -5.7749943   -3.3134819    3.0206409   -2.5955703    5.4194358   -38.598057 
    2600   -38.598063    8.6407815   -3.7616815    7.6578353   -2.7787353    8.6295148            0            0            0   0.98260039    1.0345513   0.87558731    1.0376625  0.059474456     -0.19294  0.012705292   -38.598063 
    2610   -38.598071    8.6508398   -3.7717398    7.6700347   -2.7909347    8.6405484            0            0            0    2.9894128    1.6615876    4.1600751    3.1465758   -1.4239542    1.0054704   -2.6539536   -38.598071 
    2620   -38.598076    8.6579702   -3.7788702    7.6788083   -2.7997083    8.6484207            0            0            0   -2.0225753  0.031723942   -3.9570455   -2.1424043     2.179197   -1.8962195     3.873575   -38.598076 
    2630   -38.598085    8.6706161   -3.7915161    7.6941395   -2.8150395    8.6622655            0            0            0     1.670686     1.178327    2.0617207    1.7720104  -0.50489541   0.27955738   -1.0210994   -38.598085 
    2640   -38.598094    8.6845736   -3.8054736    7.7112109   -2.8321109    8.6775969            0            0            0   -1.6396722  0.077187411   -3.2909164   -1.7052877    1.8624058   -1.6164334    3.2492419   -38.598094 
    2650     -38.5981    8.6944283   -3.8153283    7.7230765   -2.8439765     8.688319            0            0            0    6.5100859    2.6600182    9.9741878    6.8960517   -4.0307899    3.1368337   -7.4610277     -38.5981 
    2660   -38.598106    8.7015151   -3.8224151    7.7317835   -2.8526835    8.6961028            0            0            0    3.3388216    1.6487797    4.8456249    3.5220601   -1.7826229    1.3189858   -3.3221355   -38.598106 
    2670   -38.598115     8.716886    -3.837786    7.7506157   -2.8715157    8.7129533            0            0            0  -0.17271026   0.52098764  -0.82129522   -0.2178232   0.68504394  -0.67409089    1.2382884   -38.598115 
    2680   -38.598122    8.7275379   -3.8484379    7.7636451   -2.8845451    8.7245988            0            0            0  -0.82442326   0.27289315   -1.8738296  -0.87233328     1.158322   -1.0397041    2.0398805   -38.598122 
    2690   -38.598127    8.7366405   -3.8575405    7.7746767   -2.8955767      8.73449            0            0            0    4.1906058    1.8514567    6.3099117     4.410449   -2.4682187    1.8803008   -4.5583661   -38.598127 
    2700   -38.598133    8.7460271   -3.8669271    7.7862264   -2.9071264     8.744762            0            0            0   0.84172687   0.76975325   0.87274489   0.88268248  -0.07631578 -0.039822606  -0.20261865   -38.598133 
    2710   -38.598142    8.7633763   -3.8842763    7.8073831   -2.9282831    8.7636424            0            0            0    5.0282444     2.070198    7.7309649    5.2835702   -3.1206717    2.4101731   -5.7376892   -38.598142 
    2720   -38.598148    8.7748547   -3.8957547    7.8215409   -2.9424409     8.776199            0            0            0    0.2710541   0.54170236 -0.0085477947   0.28000772   0.28158241  -0.31810302   0.45863588   -38.598148 
    2730   -38.598153    8.7841784   -3.9050784    7.8329218   -2.9538218    8.7863189            0            0            0    2.9655295    1.3823403    4.4051816    3.1090667   -1.6731946    1.2524449   -3.0953265   -38.598153 
    2740   -38.598158    8.7943424   -3.9152424    7.8454433   -2.9663433    8.7973943            0            0            0   0.58158564   0.60533118   0.52757964   0.61184609  0.032126134  -0.11009337 -0.0053976595   -38.598158 
    2750   -38.598164    8.8081759   -3.9290759    7.8623787   -2.9832787    8.8124089            0            0            0    3.1443609    1.3910799    4.7344614    3.3075415   -1.8257401    1.3847584   -3.4010559   -38.598164 
    2760   -38.598168    8.8174167   -3.9383167     7.873786    -2.994686    8.8224699            0            0            0   0.71259661   0.61859319   0.77670604   0.74249061  -0.10294752  0.002802193   -0.2331317   -38.598168 
    2770   -38.598173     8.829455    -3.950355    7.8885617   -3.0094617    8.8355198            0            0            0    2.3997407     1.135721    3.5544234    2.5090778     -1.33354   0.99044126   -2.4709427   -38.598173 
    2780   -38.598178    8.8414003   -3.9623003    7.9032443   -3.0241443    8.8484606            0            0            0    3.8930802     1.592054    6.0171889    4.0699976   -2.4242826    1.8647772    -4.453176   -38.598178 
    2790   -38.598181    8.8486601   -3.9695601     7.912329    -3.033229    8.8563889            0            0            0   -2.5383327  -0.44794759   -4.5052784   -2.6617723    2.1902035   -1.8223985    3.9499521   -38.598181 
    2800   -38.598186    8.8594524   -3.9803524    7.9255965   -3.0464965    8.8680557            0            0            0  0.056229569   0.36202447  -0.24209814  0.048762372   0.30624579  -0.31517246   0.53242061   -38.598186 
    2810    -38.59819    8.8695718   -3.9904718    7.9381382   -3.0590382     8.879033            0            0            0   -1.9683395  -0.29325958   -3.5499568   -2.0618021    1.7549548   -1.4677384    3.1579011    -38.59819 
    2820   -38.598194    8.8807856   -4.0016856    7.9519736   -3.0728736    8.8911478            0            0            0  -0.16130728    0.2628376  -0.57438134  -0.17237811   0.44350906  -0.41785648   0.76914812   -38.598194 
    2830   -38.598196    8.8868173   -4.0077173    7.9594328   -3.0803328    8.8976642            0            0            0   0.36677392   0.42463682   0.29816448   0.37752047  0.054637115  -0.10657579  0.067202184   -38.598196 
    2840   -38.598198    8.8925886   -4.0134886    7.9665417   -3.0874417    8.9038818            0            0            0    2.4177652    1.0588402    3.6725513    2.5219042   -1.4204935    1.0716992   -2.6313446   -38.598198 
    2850     -38.5982    8.8992355   -4.0201355    7.9748389   -3.0957389    8.9110887            0            0            0  -0.15968534   0.23908464  -0.55106441  -0.16707624   0.42612565  -0.39896119   0.72871615     -38.5982 
    2860   -38.598206    8.9150656   -4.0359656    7.9944821   -3.1153821    8.9281897            0            0            0 -0.017809148   0.27185619  -0.30318688 -0.022096753   0.30257511  -0.29773841   0.51646974   -38.598206 
    2870   -38.598208    8.9232933   -4.0441933      8.00469     -3.12559    8.9370589            0            0            0    1.0339996   0.59292078    1.4343092    1.0747687  -0.46027225   0.31143839  -0.87521058   -38.598208 
    2880   -38.598212    8.9341618   -4.0550618    8.0182583   -3.1391583    8.9488033            0            0            0   -0.9060623 -0.023262914   -1.7466799  -0.94824413   0.91929202  -0.78473453    1.6470924   -38.598212 
    2890   -38.598214    8.9420211   -4.0629211    8.0280237   -3.1489237    8.9572651            0            0            0   0.37880342   0.37301884   0.37422712   0.38916432  -0.01167954 -0.042698875 -0.047078185   -38.598214 
    2900   -38.598217    8.9502851   -4.0711851    8.0383317   -3.1592317    8.9661722            0            0            0   0.31966535     0.346725   0.28443612   0.32783494  0.023436664 -0.069025484  0.016903388   -38.598217 
    2910    -38.59822    8.9629565   -4.0838565    8.0541367   -3.1750367    8.9798201            0            0            0   0.87032534   0.50857553     1.202798   0.89960243  -0.38394715   0.25666028  -0.72292652    -38.59822 
    2920   -38.598222    8.9698555   -4.0907555    8.0627772   -3.1836772    8.9872612            0            0            0  -0.10708004   0.19542619  -0.40320009  -0.11346621   0.31381436   -0.2952874   0.54454153   -38.598222 
    2930   -38.598225    8.9793914   -4.1002914    8.0747197   -3.1956197     8.997531            0            0            0    -0.667518   0.01699083    -1.312305  -0.70723984   0.70127221  -0.60559639    1.2685829   -38.598225 
    2940   -38.598227    8.9892226   -4.1101226    8.0870095   -3.2079095    9.0081001            0            0            0   0.33002292   0.32287703   0.34353655   0.32365517  -0.02569505 -0.029011532 -0.048640533   -38.598227 
    2950   -38.598229    8.9968067   -4.1177067    8.0964884   -3.2173884    9.0162417            0            0            0    1.7473965   0.75426919    2.6772171    1.8107032   -1.0404803   0.78324128   -1.9195406   -38.598229 
    2960   -38.598233    9.0106371   -4.1315371    8.1138688   -3.2347688    9.0311269            0            0            0   0.55261347    0.3711231   0.71799311    0.5687242   -0.1941973   0.11334498  -0.37382604   -38.598233 
    2970   -38.598236    9.0226362   -4.1435362    8.1289582   -3.2498582    9.0440239            0            0            0   0.31203913    0.2876694   0.33003306   0.31841493 -0.030653057 -0.014847254 -0.073932226   -38.598236 
    2980   -38.598238    9.0320081   -4.1529081    8.1407678   -3.2616678    9.0540943            0            0            0  -0.15330769    0.1333002  -0.44029818  -0.15292508   0.30169683  -0.27237693   0.51979238   -38.598238 
    2990    -38.59824    9.0432992   -4.1641992    8.1549484   -3.2758484    9.0661981            0            0            0    1.9959317   0.79967417    3.1320744    2.0560466   -1.2557888   0.95520502   -2.2995847    -38.59824 
    3000   -38.598241    9.0484177   -4.1693177    8.1614146   -3.2823146     9.071693            0            0            0    1.7999007   0.73410942    2.8093518    1.8562409   -1.1167155   0.84702777   -2.0502008   -38.598241 
    3010   -38.598243    9.0562288   -4.1771288    8.1713191   -3.2922191    9.0800907            0            0            0   0.20589211   0.23230025   0.17647023   0.20890585  0.022961833 -0.052559811   0.02555414   -38.598243 
    3020   -38.598245    9.0651954   -4.1860954    8.1826404   -3.3035404    9.0896995            0            0            0    1.0884141   0.50105786    1.6395056    1.1246789  -0.61487986   0.45412763   -1.1394786   -38.598245 
    3030   -38.598246    9.0711119   -4.1920119     8.190141    -3.311041    9.0960489            0            0            0   0.67210456   0.36963281   0.96653307   0.68014782  -0.32443573     0.219305  -0.59716295   -38.598246 
    3040   -38.598248    9.0812554   -4.2021554    8.2030005   -3.3239005    9.1069269            0            0            0   0.48520093   0.30418605   0.65430729   0.49710946    -0.192868   0.12082812  -0.36612744   -38.598248 
    3050    -38.59825    9.0914184   -4.2123184     8.215885    -3.336785    9.1178136            0            0            0    1.1259076   0.49734014    1.7218586    1.1585241   -0.6582363   0.48927633   -1.2142553    -38.59825 
    3060   -38.598251    9.0968283   -4.2177283    8.2227509   -3.3436509    9.1236051            0            0            0    1.5998814   0.64189153    2.5132995     1.644453   -1.0023071   0.76000155   -1.8384678   -38.598251 
    3070   -38.598252    9.1020257   -4.2229257    8.2293947   -3.3502947    9.1291879            0            0            0   0.19312791   0.20154314   0.18042783   0.19741276 0.0056686586 -0.032781485 -0.0050461731   -38.598252 
    3080   -38.598253    9.1065139   -4.2274139    8.2350996   -3.3559996    9.1339915            0            0            0   0.57926248   0.31938195   0.82508891   0.59331657  -0.27462597   0.18777292  -0.51349849   -38.598253 
    3090   -38.598254     9.113415    -4.234315     8.243884    -3.364784    9.1413796            0            0            0   0.91161992   0.41904028    1.3812606    0.9345589  -0.51714498   0.37909172  -0.95406357   -38.598254 
    3100   -38.598255    9.1204076   -4.2413076    8.2527969   -3.3736969     9.148865            0            0            0    1.1542384     0.490649    1.7881445    1.1839215  -0.69488286   0.51957202   -1.2774619   -38.598255 
    3110   -38.598256    9.1275778   -4.2484778    8.2619482   -3.3828482    9.1565398            0            0            0    1.3835601   0.55864762    2.1756545    1.4163781  -0.86426741    0.6521321   -1.5824968   -38.598256 
    3120   -38.598258    9.1361888   -4.2570888    8.2730183   -3.3939183     9.165787            0            0            0   -1.1545831  -0.23233893   -2.0384955   -1.1929149   0.95317769  -0.77637149    1.7277227   -38.598258 
    3130   -38.598259    9.1446955   -4.2655955    8.2838821   -3.4047821    9.1748811            0            0            0   0.22907007   0.19192519   0.26383391   0.23145111 -0.042938569 0.0085853027 -0.088598172   -38.598259 
    3140    -38.59826    9.1529763   -4.2738763    8.2945098   -3.4154098    9.1837502            0            0            0  0.058430175   0.13752242 -0.0091157544  0.046883863  0.071542917 -0.084350157   0.13090745    -38.59826 
    3150   -38.598262    9.1629573   -4.2838573    8.3073214   -3.4282214    9.1944338            0            0            0   0.53046879   0.27857703   0.78090659   0.53192276  -0.27100814   0.18569678  -0.49414557   -38.598262 
    3160   -38.598263    9.1679287   -4.2888287    8.3137255   -3.4346255    9.1997613            0            0            0   0.21771391   0.17805252   0.25588931   0.21919992 -0.045470834  0.012410526 -0.091842081   -38.598263 
    3170   -38.598264     9.178519    -4.299419     8.327347    -3.448247     9.211093            0            0            0    1.2474976   0.49222377     1.977093    1.2731761  -0.78956232   0.59632922   -1.4447932   -38.598264 
    3180   -38.598265    9.1859928   -4.3068928      8.33703     -3.45793    9.2191135            0            0            0  -0.13054832  0.062437334  -0.31877036  -0.13531193   0.19773651  -0.17582483   0.34923531   -38.598265 
    3190   -38.598267    9.1961913   -4.3170913     8.350206    -3.471106    9.2300352            0            0            0   0.23755328   0.17235518   0.29997952   0.24032515 -0.071036044  0.035101601  -0.13838943   -38.598267 
    3200   -38.598268    9.2054132   -4.3263132    8.3621637   -3.4830637    9.2399169            0            0            0   0.19125909   0.15475465   0.22709605   0.19192657 -0.041858077  0.012549645 -0.083786493   -38.598268 
    3210   -38.598268    9.2102597   -4.3311597     8.368453    -3.489353    9.2451078            0            0            0   0.43985309    0.2286649   0.64041113   0.45048323  -0.22021544   0.15428218  -0.41318095   -38.598268 
    3220   -38.598269    9.2202083   -4.3411083     8.381414    -3.502314    9.2557802            0            0            0  -0.45997329 -0.053536517  -0.86172966  -0.46465368   0.42370802  -0.34696081   0.75428448   -38.598269 
    3230   -38.598271    9.2285358   -4.3494358    8.3922473   -3.5131473    9.2647014            0            0            0   0.11342169   0.12385076   0.10991895   0.10649534 0.0027496324 -0.022993966 0.0051736451   -38.598271 
    3240   -38.598271    9.2357299   -4.3566299    8.4016434   -3.5225434     9.272415            0            0            0   0.13741969   0.12693384   0.14757016   0.13775505 -0.013800981 -0.0068822865 -0.032926844   -38.598271 
    3250   -38.598272     9.242642    -4.363542    8.4106819   -3.5315819    9.2798259            0            0            0   0.33546383   0.18551712   0.48073147   0.34014291  -0.15811871   0.10646044  -0.29577216   -38.598272 
    3260   -38.598273    9.2532216   -4.3741216    8.4245466   -3.5454466    9.2911743            0            0            0   0.38556539   0.19430673   0.56879398   0.39359547  -0.19407543   0.13574471   -0.3691018   -38.598273 
    3270   -38.598274    9.2578544   -4.3787544    8.4306384   -3.5515384    9.2961468            0            0            0    0.2974909   0.17127659   0.42203394   0.29916217  -0.13864081  0.091652345   -0.2533638   -38.598274 
    3280   -38.598275    9.2674177   -4.3883177    8.4432327   -3.5641327    9.3064154            0            0            0  -0.11750419  0.039053596  -0.26862827  -0.12293791   0.15773761  -0.13895305    0.2825032   -38.598275 
    3290   -38.598276    9.2747439   -4.3956439    8.4528738   -3.5737738    9.3142711            0            0            0   0.68279584   0.28180845    1.0727183   0.69386077  -0.41722517   0.31049886  -0.76720202   -38.598276 
    3300   -38.598276    9.2829776   -4.4038776     8.463792    -3.584692    9.3231228            0            0            0  -0.60172418  -0.11398129     -1.06876  -0.62243125   0.49860225  -0.40663886   0.90843134   -38.598276 
    3310   -38.598277    9.2910325   -4.4119325    8.4744174   -3.5953174    9.3317478            0            0            0    1.2044726   0.43652841    1.9485709    1.2283186  -0.79462382   0.60693974   -1.4577906   -38.598277 
    3320   -38.598278    9.2966912   -4.4175912    8.4819451   -3.6028451    9.3378299            0            0            0   0.46661441   0.20918101   0.71856213   0.47210011  -0.26893158     0.195293  -0.49548183   -38.598278 
    3330   -38.598278    9.3029977   -4.4238977    8.4903676   -3.6112676    9.3446175            0            0            0   -1.1998449  -0.30280819   -2.0701565   -1.2265701   0.92253497  -0.73398599    1.6786367   -38.598278 
    3340   -38.598279    9.3102416   -4.4311416    8.4999773   -3.6208773    9.3523783            0            0            0  0.098143968  0.092518291   0.10431125  0.097602364 -0.0083516642 -0.0069238404 -0.020826957   -38.598279 
    3350   -38.598279    9.3139516   -4.4348516    8.5049203   -3.6258203    9.3563588            0            0            0   0.26993783   0.14417937   0.39369881    0.2719353  -0.13252561  0.089785582  -0.24675085   -38.598279 
    3360    -38.59828    9.3214041   -4.4423041    8.5148743   -3.6357743    9.3643609            0            0            0  0.071428452  0.081492133  0.062469018  0.070324204  0.007840704 -0.019071083 0.0090662681    -38.59828 
    3370   -38.598281    9.3285788   -4.4494788    8.5244459   -3.6453459    9.3720509            0            0            0    1.1511868   0.40996769    1.8779424    1.1656503   -0.7678784   0.58406148   -1.4034976   -38.598281 
    3380   -38.598281    9.3350763   -4.4559763    8.5331797   -3.6540797    9.3790389            0            0            0  0.087241697  0.082976547  0.092149079  0.086599466 -0.0068658539 -0.0069391589 -0.017531256   -38.598281 
    3390   -38.598282    9.3420106   -4.4629106     8.542488    -3.663388    9.3864845            0            0            0  0.090249991  0.082254945  0.098965354  0.089529675 -0.010722978 -0.0037021265 -0.024312998   -38.598282 
    3400   -38.598282    9.3512334   -4.4721334    8.5548943   -3.6757943    9.3963889            0            0            0  0.065185107  0.072499585  0.057985379  0.065070356 0.0052515408 -0.015308206  0.004438137   -38.598282 
    3410   -38.598283     9.355598    -4.476498    8.5607838   -3.6816838     9.401078            0            0            0 -0.053669166  0.035212436  -0.13960584 -0.056614091  0.089149503  -0.08081251   0.15816054   -38.598283 
[...]
    4230   -38.598299     9.840965    -4.961865    9.2596637   -4.3805637    9.9325674            0            0            0  0.025001402     0.011118  0.039288683  0.024597523 -0.015507351 0.0090876767   -0.0283168   -38.598299 
    4240   -38.598299    9.8433353   -4.9642353    9.2634899   -4.3843899    9.9354858            0            0            0  0.000468478 0.0038258501 -0.0030241675 0.00060375145 0.0019570443 -0.0040393631 0.0035053896   -38.598299 
    4250   -38.598299    9.8473411   -4.9682411    9.2699718   -4.3908718     9.940427            0            0            0 0.0071327844 0.0056866426 0.0085670358 0.0071446749 -0.0028580015 -0.0003818675 -0.0052695097   -38.598299 
    4260   -38.598299    9.8511048   -4.9720048    9.2760897   -4.3969897    9.9450855            0            0            0 -0.00044132456 0.0033805213 -0.0043977541 -0.00030674088 0.0024543936 -0.0043719185 0.0044965903   -38.598299 
    4270   -38.598299    9.8528248   -4.9737248     9.278901    -4.399801     9.947223            0            0            0 -0.069747083 -0.016840582  -0.12474343 -0.067657237  0.051716126 -0.041207482  0.094500672   -38.598299 
    4280   -38.598299    9.8565815   -4.9774815    9.2850493   -4.4059493    9.9518973            0            0            0 0.0070842545 0.0054505726 0.0087169697 0.0070852213 -0.0029842069 -0.00023507618 -0.0054393818   -38.598299 
    4290   -38.598299     9.859991    -4.980891    9.2906518   -4.4115518    9.9561523            0            0            0  0.018188833 0.0086097988  0.027987191   0.01796951 -0.010925616 0.0057661626 -0.019977025   -38.598299 
    4300   -38.598299    9.8623187   -4.9832187    9.2944975   -4.4153975    9.9590689            0            0            0 -0.069402907 -0.017024255  -0.12298967 -0.068194792  0.051189593 -0.041135569  0.094040573   -38.598299 
    4310   -38.598299    9.8673003   -4.9882003    9.3027287   -4.4236287    9.9653123            0            0            0 0.0053712447 0.0047070442 0.0059498827 0.0054568071 -0.0019395964 -0.00093587381 -0.0034876109   -38.598299 
    4320   -38.598299     9.869419    -4.990319    9.3062596   -4.4271596    9.9679852            0            0            0 0.0079815759 0.0054204864  0.010549266 0.0079749758 -0.0038358426 0.00048745524 -0.0069247632   -38.598299 
    4330   -38.598299    9.8722411   -4.9931411    9.3109745   -4.4318745    9.9715521            0            0            0 0.0028979721   0.00388414 0.0016757573  0.003134019 -0.00025253035 -0.002133165 -0.00041282366   -38.598299 
    4340   -38.598299    9.8772088   -4.9981088    9.3192766   -4.4401766    9.9778324            0            0            0 -0.0054112759 0.0013193612 -0.012027531 -0.0055256575 0.0054918453 -0.0066542365   0.01041848   -38.598299 
    4350   -38.598299    9.8813943   -5.0022943    9.3262722   -4.4471722    9.9831243            0            0            0  0.021452066 0.0090815326  0.034050876  0.021223791 -0.013575526 0.0079089815 -0.024753168   -38.598299 
    4360   -38.598299    9.8884442   -5.0093442    9.3382496   -4.4591496    9.9921521            0            0            0   0.12754189  0.039798692   0.21748926   0.12533771 -0.088899596  0.064716957  -0.16305371   -38.598299 
    4370   -38.598299    9.8933141   -5.0142141    9.3465343   -4.4674343    9.9983935            0            0            0 -0.046442758 -0.010918062 -0.082961607 -0.045448604  0.034362517 -0.028171925  0.063396864   -38.598299 
    4380   -38.598299    9.8969085   -5.0178085    9.3527417   -4.4736417    10.003056            0            0            0 0.0047512237 0.0038918268 0.0055347912  0.004827053 -0.0019678871 -0.00075861961 -0.0033565068   -38.598299 
    4390   -38.598299     9.900564    -5.021464    9.3591086   -4.4800086    10.007829            0            0            0 0.0052808205   0.00397276 0.0065411333 0.0053285683  -0.00240275 -0.00041895731 -0.0041205061   -38.598299 
    4400   -38.598299    9.9037923   -5.0246923    9.3647671   -4.4856671    10.012065            0            0            0 0.0042365315 0.0036055184 0.0048007919 0.0043032843 -0.0017115598 -0.00092281815 -0.0028299874   -38.598299 
    4410   -38.598299    9.9081322   -5.0290322    9.3724181   -4.4933181    10.017786            0            0            0 0.0055098438 0.0038934182 0.0070799054 0.0055562077 -0.0026803435 -0.00016813766 -0.0045804297   -38.598299 
    4420   -38.598299    9.9134044   -5.0343044    9.3817878   -4.5026878     10.02478            0            0            0 0.0040414237 0.0033610114 0.0046503485 0.0041129113 -0.001713063 -0.00087134777 -0.0027796714   -38.598299 
    4430   -38.598299    9.9157068   -5.0366068    9.3859214   -4.5068214    10.027859            0            0            0 0.0054314621 0.0037405298 0.0070676619 0.0054861947 -0.0027490812 -7.2018948e-05 -0.004632882   -38.598299 
    4440   -38.598299    9.9198453   -5.0407453     9.393397    -4.514297    10.033421            0            0            0 0.0062192502 0.0038639143 0.0085469425 0.0062468939 -0.0033413419 0.0003859596 -0.005750629   -38.598299 
    4450   -38.598299    9.9251241   -5.0460241    9.4030009   -4.5239009    10.040556            0            0            0  0.010802061 0.0050926833  0.016571974  0.010741525 -0.0066585095 0.0029101541  -0.01182636   -38.598299 
    4460   -38.598299    9.9257138   -5.0466138    9.4040869   -4.5249869     10.04136            0            0            0 0.00094588615 0.0021473774 -0.00035642829 0.0010467094 0.0003837561 -0.0024136172 0.00097663015   -38.598299 
    4470   -38.598299    9.9278973   -5.0487973    9.4081098   -4.5290098    10.044341            0            0            0 0.0039848559 0.0030615683 0.0048461775 0.0040468219 -0.0018683052 -0.00068756409 -0.0030027149   -38.598299 
    4480   -38.598299    9.9311496   -5.0520496    9.4141366   -4.5350366    10.048802            0            0            0 -0.0036461752 0.00080200937 -0.0083139494 -0.0034265855 0.0034799954 -0.0046927111 0.0068721187   -38.598299 
    4490   -38.598299    9.9338318   -5.0547318    9.4191411   -4.5400411    10.052502            0            0            0  0.054494702  0.017293738  0.092987473  0.053202895 -0.037483792  0.025954955 -0.068903857   -38.598299 
    4500   -38.598299    9.9353602   -5.0562602        9.422      -4.5429    10.054613            0            0            0 0.00039022307 0.0018886823 -0.0012427479 0.00052473478 0.00057109207 -0.0024858969 0.0015320583   -38.598299 
    4510   -38.598299    9.9356615   -5.0565615    9.4225682   -4.5434682    10.055033            0            0            0 0.00071464958 0.0019818926 -0.00068939107 0.00085144725 0.00033445328 -0.0023019396 0.0011029188   -38.598299 
    4520   -38.598299    9.9400129   -5.0609129    9.4307797   -4.5516797    10.061089            0            0            0  0.024648395 0.0085726089  0.041477979  0.023894598 -0.016483453  0.010161945 -0.030127881   -38.598299 
    4530   -38.598299    9.9442304   -5.0651304    9.4387524   -4.5596524    10.066967            0            0            0  0.042878976   0.01394008  0.072606677  0.042090171 -0.029533719  0.020169319 -0.053979468   -38.598299 
    4540   -38.598299    9.9468345   -5.0677345    9.4437711   -4.5646711    10.070657            0            0            0 0.0062182622  0.003392034 0.0089917269 0.0062710257  -0.00370644 0.00081116111 -0.0062750167   -38.598299 
    4550   -38.598299    9.9538854   -5.0747854    9.4574469   -4.5783469    10.080703            0            0            0 -0.0026805426 0.00065315727 -0.0061352128 -0.0025595724 0.0025591833 -0.0039024853  0.005216005   -38.598299 
    4560   -38.598299    9.9587502   -5.0796502    9.4668848   -4.5877848    10.087636            0            0            0 0.0014048548 0.0018370602 0.00084470422    0.0015328 -0.00039665826 -0.001578418 -0.00016823076   -38.598299 
    4570   -38.598299    9.9605365   -5.0814365    9.4703981   -4.5912981    10.090221            0            0            0   0.03082237  0.010530629  0.051235916  0.030700564  -0.02135224  0.014384226  -0.03852219   -38.598299 
    4580     -38.5983    9.9636167   -5.0845167    9.4764544   -4.5973544    10.094676            0            0            0   0.17827755  0.052483101   0.30780217   0.17454737  -0.12514226  0.092140763  -0.23065376     -38.5983 
    4590     -38.5983    9.9665163   -5.0874163    9.4821665   -4.6030665    10.098872            0            0            0 0.0023572144 0.0020450209 0.0025654487 0.0024611734 -0.0011048327 -0.00095108922 -0.0014896869     -38.5983 
    4600     -38.5983    9.9671267   -5.0880267    9.4833682   -4.6042682    10.099755            0            0            0 0.0027196866 0.0021971218 0.0030856327 0.0028763054 -0.0014049521 -0.0006848209 -0.0019657959     -38.5983 
    4610     -38.5983    9.9687302   -5.0896302    9.4865256   -4.6074256    10.102074            0            0            0 0.0037396634 0.0024170785  0.004996083 0.0038058287 -0.0020849028 -0.00019231367 -0.0033135362     -38.5983 
    4620     -38.5983    9.9689042   -5.0898042    9.4868682   -4.6077682    10.102325            0            0            0 0.0047699235 0.0026965399 0.0068165107 0.0047967199 -0.0028009783 0.0003381671 -0.0046580495     -38.5983 
    4630     -38.5983    9.9749337   -5.0958337    9.4987435   -4.6196435    10.111043            0            0            0 0.0079065416 0.0035658646  0.012268015 0.0078857454 -0.0050536915 0.0021132407 -0.008804171     -38.5983 
    4640     -38.5983    9.9795828   -5.1004828    9.5079069   -4.6288069    10.117762            0            0            0 0.0025580834 0.0019847039 0.0030524978 0.0026370485 -0.0012929074 -0.0006649324 -0.0018813334     -38.5983 
    4650     -38.5983    9.9809891   -5.1018891     9.510679    -4.631579    10.119793            0            0            0   0.05097145  0.015702782  0.087361763  0.049849805 -0.035318519  0.024814838 -0.064981393     -38.5983 
    4660     -38.5983    9.9861843   -5.1070843    9.5209269   -4.6418269    10.127301            0            0            0 0.0026300221 0.0019491148 0.0032421067 0.0026988447 -0.001366264 -0.00053929554 -0.0020379319     -38.5983 
    4670     -38.5983    9.9883008   -5.1092008     9.525106    -4.646006    10.130358            0            0            0  -0.02151798 -0.0049382582 -0.038728967 -0.020886716  0.015610618 -0.013239431  0.029410651     -38.5983 
    4680     -38.5983    9.9921446   -5.1130446    9.5326962   -4.6535962    10.135911            0            0            0 0.0034100659 0.0021210216 0.0046561714 0.0034530048 -0.0019339282 -5.2167751e-05 -0.0031098341     -38.5983 
    4690     -38.5983     9.994224    -5.115124    9.5368051   -4.6577051    10.138915            0            0            0 0.0016053009 0.0015961753 0.0015268434 0.0016928841 -0.00067590901 -0.00097083052 -0.00077626176     -38.5983 
    4700     -38.5983    9.9977539   -5.1186539     9.543783    -4.664683    10.144014            0            0            0 0.0035808473 0.0021181516 0.0050163274 0.0036080628 -0.0020665759 0.00010093636 -0.0033838798     -38.5983 
    4710     -38.5983    9.9996475   -5.1205475    9.5475286   -4.6684286    10.146749            0            0            0 0.0024799038 0.0017946138 0.0031111678 0.0025339299 -0.0013022992 -0.00045092351 -0.0019651935     -38.5983 
    4720     -38.5983    10.002795   -5.1236948    9.5537563   -4.6746563    10.151296            0            0            0 -0.0047011996 -0.000281123 -0.0093281545 -0.0044943212 0.0037446369 -0.0042081676 0.0073655377     -38.5983 
    4730     -38.5983    10.005477   -5.1263769    9.5590638   -4.6799638    10.155172            0            0            0 0.00062734795 0.0012283788 -7.2369955e-05 0.00072603495 -2.1887515e-05 -0.0013492997 0.0003981115     -38.5983 
    4740     -38.5983    10.005753   -5.1266526    9.5596101   -4.6805101     10.15557            0            0            0 0.0029262136 0.0018765594 0.0039352248 0.0029668567 -0.0016365566 -0.00013883474 -0.0026002447     -38.5983 
    4750     -38.5983    10.007418   -5.1283175    9.5629084   -4.6838084    10.157976            0            0            0 0.0008312391 0.0013150087 0.00019654159 0.00098216703 -0.0002036896 -0.0011632493 0.00011472594     -38.5983 
    4760     -38.5983     10.00945   -5.1303495    9.5669362   -4.6878362    10.160913            0            0            0 -0.028914086 -0.0071710729 -0.051475719 -0.028095465  0.020714105 -0.016831584   0.03886436     -38.5983 
    4770     -38.5983    10.015599   -5.1364991     9.579122    -4.700022    10.169801            0            0            0  0.087353956   0.02561019   0.15126598  0.085185698 -0.060872571  0.044219736  -0.11271823     -38.5983 
    4780     -38.5983    10.018245   -5.1391449    9.5843696   -4.7052696    10.173627            0            0            0 0.0031729709 0.0018621989 0.0044489997 0.0032077141 -0.001852388 0.00014641759 -0.0030268782     -38.5983 
    4790     -38.5983    10.019272    -5.140172    9.5864114   -4.7073114    10.175113            0            0            0 -0.046710664 -0.012222262 -0.082509414 -0.045400315   0.03313317 -0.025999118  0.061980994     -38.5983 
    4800     -38.5983    10.024595   -5.1454953    9.5969883   -4.7178883    10.182816            0            0            0  -0.02262785 -0.0056532781 -0.040041762  -0.02218851  0.016371186 -0.013552641  0.030552448     -38.5983 
    4810     -38.5983    10.028493    -5.149393    9.6047333   -4.7256333    10.188455            0            0            0 0.0023019472 0.0015281424 0.0030560112 0.0023216881 -0.0012585511 -0.00022029771 -0.0019709045     -38.5983 
    4820     -38.5983    10.032465    -5.153365    9.6126449   -4.7335449    10.194211            0            0            0 0.0021362281 0.0014593899 0.0027759127 0.0021733818 -0.0011546149 -0.00025604999 -0.0017885078     -38.5983 
    4830     -38.5983    10.035102   -5.1560023    9.6179037   -4.7388037    10.198035            0            0            0 0.0012502924 0.0011912616 0.0012378731 0.0013217423 -0.00053677925 -0.00068981491 -0.00065807282     -38.5983 
    4840     -38.5983    10.035207   -5.1561069    9.6181125   -4.7390125    10.198187            0            0            0 0.00061163227 0.0010103747 0.0001239858 0.00070053635 -8.8894746e-05 -0.0010232586 0.00017320191     -38.5983 
    4850     -38.5983    10.035502    -5.156402    9.6187013   -4.7396013    10.198615            0            0            0 0.00033664765 0.00093158457 -0.00033861483 0.0004169732 9.9284716e-05 -0.0011677358 0.00053419455     -38.5983 
    4860     -38.5983    10.037096   -5.1579955    9.6218815   -4.7427815    10.200927            0            0            0 0.0020005197 0.0013898446 0.0025733875 0.0020383269 -0.001070778 -0.00027915469 -0.0016470598     -38.5983 
    4870     -38.5983     10.04046   -5.1613599    9.6285994   -4.7494994    10.205811            0            0            0 0.0022351864 0.0014336305  0.003007625 0.0022643037 -0.001243419 -0.00012217976 -0.0019780456     -38.5983 
    4880     -38.5983    10.041966   -5.1628662    9.6316112   -4.7525112    10.207999            0            0            0 -0.038906194 -0.010210367 -0.068891113 -0.037617103  0.027676324 -0.021646569  0.051562373     -38.5983 
    4890     -38.5983    10.044818   -5.1657184    9.6373114   -4.7582114    10.212142            0            0            0 0.0033070916 0.0017045975 0.0049035203 0.0033131571 -0.0020007776 0.00048232009 -0.0034105151     -38.5983 
    4900     -38.5983    10.046815   -5.1677146    9.6413071   -4.7622071    10.215045            0            0            0 0.00045686848 0.00089359261 -4.5911085e-05 0.00052292391 -1.5039112e-05 -0.00098998098 0.00029558168     -38.5983 
    4910     -38.5983    10.053467   -5.1743668    9.6546302   -4.7755302    10.224724            0            0            0  0.052196351  0.015455286  0.090538445  0.050595322 -0.036390898  0.026116018 -0.067085671     -38.5983 
    4920     -38.5983    10.055032   -5.1759322     9.657774    -4.778674    10.227007            0            0            0  0.010769718 0.0036199023  0.017984358  0.010704894 -0.0071010822 0.0044102183 -0.013294186     -38.5983 
    4930     -38.5983     10.05737     -5.17827    9.6624678   -4.7833678    10.230416            0            0            0  0.019379944 0.0061706342  0.033069607   0.01889959 -0.013325124 0.0090205147 -0.024424956     -38.5983 
    4940     -38.5983    10.061062    -5.181962     9.669896    -4.790796    10.235809            0            0            0 -0.057772884 -0.015857464  -0.10171724 -0.055743944  0.041132198 -0.031473336  0.075861852     -38.5983 
    4950     -38.5983    10.063991   -5.1848906    9.6757906   -4.7966906     10.24009            0            0            0  0.034275213   0.01021758  0.059131224  0.033476833 -0.023651285   0.01680076 -0.043947114     -38.5983 
    4960     -38.5983    10.067785   -5.1886854    9.6834387   -4.8043387    10.245643            0            0            0  0.031693024  0.009334004  0.054633773  0.031111296 -0.021678752  0.015398111 -0.040701397     -38.5983 
    4970     -38.5983    10.070351   -5.1912509    9.6886179   -4.8095179    10.249403            0            0            0 0.0051250205 0.0020451046 0.0082624545 0.0050675025 -0.003313724 0.0016562518 -0.0059616746     -38.5983 
    4980     -38.5983    10.076515   -5.1974155    9.7010816   -4.8219816    10.258454            0            0            0  0.001585871  0.001012249  0.002115914 0.0016294501 -0.00084163921 -0.00014203152 -0.001392251     -38.5983 
    4990     -38.5983    10.078314   -5.1992141    9.7047285   -4.8256285    10.261103            0            0            0 0.0072506177 0.0025969269   0.01203084 0.0071240863 -0.0048190827 0.0028333325 -0.008781079     -38.5983 
    5000     -38.5983    10.080394   -5.2012941    9.7089476   -4.8298476    10.264167            0            0            0 -0.014948756 -0.0037086334 -0.026774053 -0.014363582  0.010807176 -0.0087780842  0.020085826     -38.5983 
Loop time of 0.545509 on 1 procs for 5000 steps with 8 atoms

39.7% CPU use with 1 MPI tasks x no OpenMP threads

Minimization stats:
  Stopping criterion = max iterations
  Energy initial, next-to-last, final = 
        -35.7954531758     -38.5982999273     -38.5982999274
  Force two-norm initial, final = 15.4919 0.000113023
  Force max component initial, final = 8.94426 5.76839e-05
  Final line search alpha, max atom move = 1 5.76839e-05
  Iterations, force evaluations = 5000 7073

MPI task timing breakdown:
Section |  min time  |  avg time  |  max time  |%varavg| %total
---------------------------------------------------------------
Pair    | 0.44246    | 0.44246    | 0.44246    |   0.0 | 81.11
Neigh   | 0.0012074  | 0.0012074  | 0.0012074  |   0.0 |  0.22
Comm    | 0.025844   | 0.025844   | 0.025844   |   0.0 |  4.74
Output  | 0.0056386  | 0.0056386  | 0.0056386  |   0.0 |  1.03
Modify  | 0          | 0          | 0          |   0.0 |  0.00
Other   |            | 0.07036    |            |       | 12.90

Nlocal:    8 ave 8 max 8 min
Histogram: 1 0 0 0 0 0 0 0 0 0
Nghost:    116 ave 116 max 116 min
Histogram: 1 0 0 0 0 0 0 0 0 0
Neighs:    84 ave 84 max 84 min
Histogram: 1 0 0 0 0 0 0 0 0 0

Total # of neighbors = 84
Ave neighs/atom = 10.5
Neighbor list builds = 36
Dangerous builds = 0
pypospack:output_section:begin
tot_energy = -38.5982999273863
num_atoms = 8
a11 = 15.2816882892643
a22 = 14.5387951962431
a33 = 15.649233230621
a12 = 0
a13 = 0
a23 = 0
tot_press = -0.0149487561537861
pxx = -0.0037086333835782
pyy = -0.0267740533705347
pzz = -0.0143635817072453
pxy = 0.0108071757409003
pxz = -0.00877808422374287
pyz = 0.0200858256966196
pypospack:output_section:done
pypospack:lammps_sim:done
Total wall time: 0:00:00
