   2   2   0   0
  0.9563318E+01  0.3001819E-09  0.3001820E-09  0.3001819E-09  0.5000000E-15
  1.000000000000000E-004
  CAR 
 automatically generated by pyflamestk   
     44.11717112    -16.57433343  301      3.68145621      1.00000000
    -16.574  0.0000E+00  0.0000E+00
    -16.372  0.0000E+00  0.0000E+00
    -16.170  0.0000E+00  0.0000E+00
    -15.967  0.0000E+00  0.0000E+00
    -15.765  0.0000E+00  0.0000E+00
    -15.563  0.0000E+00  0.0000E+00
    -15.361  0.0000E+00  0.0000E+00
    -15.158  0.0000E+00  0.0000E+00
    -14.956  0.0000E+00  0.0000E+00
    -14.754  0.0000E+00  0.0000E+00
    -14.551  0.0000E+00  0.0000E+00
    -14.349  0.0000E+00  0.0000E+00
    -14.147  0.0000E+00  0.0000E+00
    -13.944  0.4190E-04  0.8477E-05
    -13.742  0.3031E+00  0.6133E-01
    -13.540  0.1572E-01  0.6451E-01
    -13.337  0.9166E+00  0.2499E+00
    -13.135  0.8081E+00  0.4134E+00
    -12.933  0.9900E+00  0.6137E+00
    -12.731  0.2807E+01  0.1182E+01
    -12.528  0.3371E+01  0.1863E+01
    -12.326  0.6749E+00  0.2000E+01
    -12.124  0.0000E+00  0.2000E+01
    -11.921  0.0000E+00  0.2000E+01
    -11.719  0.0000E+00  0.2000E+01
    -11.517  0.0000E+00  0.2000E+01
    -11.314  0.0000E+00  0.2000E+01
    -11.112  0.0000E+00  0.2000E+01
    -10.910  0.0000E+00  0.2000E+01
    -10.707  0.0000E+00  0.2000E+01
    -10.505  0.0000E+00  0.2000E+01
    -10.303  0.0000E+00  0.2000E+01
    -10.101  0.0000E+00  0.2000E+01
     -9.898  0.0000E+00  0.2000E+01
     -9.696  0.0000E+00  0.2000E+01
     -9.494  0.0000E+00  0.2000E+01
     -9.291  0.0000E+00  0.2000E+01
     -9.089  0.0000E+00  0.2000E+01
     -8.887  0.0000E+00  0.2000E+01
     -8.684  0.0000E+00  0.2000E+01
     -8.482  0.0000E+00  0.2000E+01
     -8.280  0.0000E+00  0.2000E+01
     -8.078  0.0000E+00  0.2000E+01
     -7.875  0.0000E+00  0.2000E+01
     -7.673  0.0000E+00  0.2000E+01
     -7.471  0.0000E+00  0.2000E+01
     -7.268  0.0000E+00  0.2000E+01
     -7.066  0.0000E+00  0.2000E+01
     -6.864  0.0000E+00  0.2000E+01
     -6.661  0.0000E+00  0.2000E+01
     -6.459  0.0000E+00  0.2000E+01
     -6.257  0.0000E+00  0.2000E+01
     -6.054  0.0000E+00  0.2000E+01
     -5.852  0.0000E+00  0.2000E+01
     -5.650  0.0000E+00  0.2000E+01
     -5.448  0.0000E+00  0.2000E+01
     -5.245  0.0000E+00  0.2000E+01
     -5.043  0.0000E+00  0.2000E+01
     -4.841  0.0000E+00  0.2000E+01
     -4.638  0.0000E+00  0.2000E+01
     -4.436  0.0000E+00  0.2000E+01
     -4.234  0.0000E+00  0.2000E+01
     -4.031  0.0000E+00  0.2000E+01
     -3.829  0.0000E+00  0.2000E+01
     -3.627  0.0000E+00  0.2000E+01
     -3.425  0.0000E+00  0.2000E+01
     -3.222  0.0000E+00  0.2000E+01
     -3.020  0.0000E+00  0.2000E+01
     -2.818  0.0000E+00  0.2000E+01
     -2.615  0.0000E+00  0.2000E+01
     -2.413  0.0000E+00  0.2000E+01
     -2.211  0.0000E+00  0.2000E+01
     -2.008  0.0000E+00  0.2000E+01
     -1.806  0.0000E+00  0.2000E+01
     -1.604  0.0000E+00  0.2000E+01
     -1.401  0.0000E+00  0.2000E+01
     -1.199  0.0000E+00  0.2000E+01
     -0.997  0.1407E-07  0.2000E+01
     -0.795  0.5306E+00  0.2107E+01
     -0.592  0.4032E+00  0.2189E+01
     -0.390  0.3281E+00  0.2255E+01
     -0.188  0.2133E+01  0.2687E+01
      0.015  0.1858E+01  0.3063E+01
      0.217  0.2453E+01  0.3559E+01
      0.419  0.9369E+00  0.3748E+01
      0.622  0.7428E-02  0.3750E+01
      0.824  0.2613E-09  0.3750E+01
      1.026  0.5174E+00  0.3855E+01
      1.229  0.2980E+01  0.4457E+01
      1.431  0.2102E+00  0.4500E+01
      1.633  0.5550E-04  0.4500E+01
      1.835  0.2567E+01  0.5019E+01
      2.038  0.2229E+00  0.5064E+01
      2.240  0.2306E+01  0.5531E+01
      2.442  0.2405E+01  0.6018E+01
      2.645  0.4331E+01  0.6894E+01
      2.847  0.1460E+01  0.7189E+01
      3.049  0.2721E+01  0.7740E+01
      3.252  0.6724E+00  0.7876E+01
      3.454  0.6144E+00  0.8000E+01
      3.656  0.5509E-03  0.8000E+01
      3.858  0.0000E+00  0.8000E+01
      4.061  0.0000E+00  0.8000E+01
      4.263  0.0000E+00  0.8000E+01
      4.465  0.0000E+00  0.8000E+01
      4.668  0.0000E+00  0.8000E+01
      4.870  0.0000E+00  0.8000E+01
      5.072  0.0000E+00  0.8000E+01
      5.275  0.0000E+00  0.8000E+01
      5.477  0.0000E+00  0.8000E+01
      5.679  0.0000E+00  0.8000E+01
      5.882  0.0000E+00  0.8000E+01
      6.084  0.0000E+00  0.8000E+01
      6.286  0.0000E+00  0.8000E+01
      6.488  0.0000E+00  0.8000E+01
      6.691  0.0000E+00  0.8000E+01
      6.893  0.0000E+00  0.8000E+01
      7.095  0.0000E+00  0.8000E+01
      7.298  0.0000E+00  0.8000E+01
      7.500  0.0000E+00  0.8000E+01
      7.702  0.0000E+00  0.8000E+01
      7.905  0.0000E+00  0.8000E+01
      8.107  0.0000E+00  0.8000E+01
      8.309  0.0000E+00  0.8000E+01
      8.511  0.5151E-11  0.8000E+01
      8.714  0.5613E-01  0.8011E+01
      8.916  0.2528E+00  0.8062E+01
      9.118  0.2295E-06  0.8062E+01
      9.321  0.0000E+00  0.8062E+01
      9.523  0.0000E+00  0.8062E+01
      9.725  0.0000E+00  0.8062E+01
      9.928  0.0000E+00  0.8062E+01
     10.130  0.5213E-12  0.8063E+01
     10.332  0.7593E-01  0.8078E+01
     10.535  0.8509E+00  0.8250E+01
     10.737  0.6915E-05  0.8250E+01
     10.939  0.1166E-01  0.8252E+01
     11.141  0.3023E+00  0.8314E+01
     11.344  0.9211E+00  0.8500E+01
     11.546  0.6989E-03  0.8500E+01
     11.748  0.5167E-01  0.8510E+01
     11.951  0.8751E+00  0.8687E+01
     12.153  0.1677E-04  0.8688E+01
     12.355  0.4015E+00  0.8769E+01
     12.558  0.5253E+00  0.8875E+01
     12.760  0.1695E+01  0.9218E+01
     12.962  0.7685E+00  0.9373E+01
     13.165  0.5447E+00  0.9484E+01
     13.367  0.6991E+00  0.9625E+01
     13.569  0.1694E-01  0.9628E+01
     13.771  0.9100E+00  0.9813E+01
     13.974  0.1919E+01  0.1020E+02
     14.176  0.8611E+00  0.1037E+02
     14.378  0.3614E-05  0.1038E+02
     14.581  0.0000E+00  0.1038E+02
     14.783  0.7078E-08  0.1038E+02
     14.985  0.1578E+01  0.1069E+02
     15.188  0.2129E+01  0.1112E+02
     15.390  0.3203E+00  0.1119E+02
     15.592  0.1843E+01  0.1156E+02
     15.794  0.3240E+01  0.1222E+02
     15.997  0.4670E+00  0.1231E+02
     16.199  0.1479E-01  0.1232E+02
     16.401  0.1833E+01  0.1269E+02
     16.604  0.6269E-02  0.1269E+02
     16.806  0.0000E+00  0.1269E+02
     17.008  0.3366E-02  0.1269E+02
     17.211  0.1846E+01  0.1306E+02
     17.413  0.1026E+01  0.1327E+02
     17.615  0.2147E+00  0.1331E+02
     17.818  0.8567E-08  0.1331E+02
     18.020  0.6408E-01  0.1333E+02
     18.222  0.8627E+00  0.1350E+02
     18.424  0.1036E-04  0.1350E+02
     18.627  0.4651E-06  0.1350E+02
     18.829  0.7387E+00  0.1365E+02
     19.031  0.1881E+00  0.1369E+02
     19.234  0.2019E-08  0.1369E+02
     19.436  0.2892E+00  0.1375E+02
     19.638  0.1306E+01  0.1401E+02
     19.841  0.2483E+01  0.1451E+02
     20.043  0.1103E+01  0.1474E+02
     20.245  0.7331E+00  0.1488E+02
     20.447  0.2295E+01  0.1535E+02
     20.650  0.1138E+01  0.1558E+02
     20.852  0.2291E+00  0.1563E+02
     21.054  0.8712E+00  0.1580E+02
     21.257  0.6897E+00  0.1594E+02
     21.459  0.7089E+00  0.1608E+02
     21.661  0.5707E+00  0.1620E+02
     21.864  0.1793E+01  0.1656E+02
     22.066  0.3331E-03  0.1656E+02
     22.268  0.4461E+00  0.1665E+02
     22.471  0.4807E+00  0.1675E+02
     22.673  0.6780E+00  0.1689E+02
     22.875  0.1119E+01  0.1711E+02
     23.077  0.9832E+00  0.1731E+02
     23.280  0.1810E+01  0.1768E+02
     23.482  0.4393E-01  0.1769E+02
     23.684  0.2332E+00  0.1773E+02
     23.887  0.8635E+00  0.1791E+02
     24.089  0.4480E+00  0.1800E+02
     24.291  0.2076E+00  0.1804E+02
     24.494  0.2745E+00  0.1810E+02
     24.696  0.1341E+01  0.1837E+02
     24.898  0.3008E-01  0.1838E+02
     25.100  0.9879E+00  0.1857E+02
     25.303  0.2479E+00  0.1862E+02
     25.505  0.2111E+00  0.1867E+02
     25.707  0.2045E+01  0.1908E+02
     25.910  0.5243E+00  0.1919E+02
     26.112  0.4522E-01  0.1920E+02
     26.314  0.1804E+01  0.1956E+02
     26.517  0.4991E-02  0.1956E+02
     26.719  0.2749E+01  0.2012E+02
     26.921  0.3086E-01  0.2013E+02
     27.124  0.8131E+00  0.2029E+02
     27.326  0.9818E+00  0.2049E+02
     27.528  0.3401E+00  0.2056E+02
     27.730  0.2760E-01  0.2056E+02
     27.933  0.0000E+00  0.2056E+02
     28.135  0.0000E+00  0.2056E+02
     28.337  0.0000E+00  0.2056E+02
     28.540  0.0000E+00  0.2056E+02
     28.742  0.2333E-07  0.2056E+02
     28.944  0.3924E+00  0.2064E+02
     29.147  0.2827E+01  0.2121E+02
     29.349  0.1012E+01  0.2142E+02
     29.551  0.1973E+00  0.2146E+02
     29.754  0.8238E+00  0.2162E+02
     29.956  0.3127E-05  0.2163E+02
     30.158  0.4134E+00  0.2171E+02
     30.360  0.2727E+01  0.2226E+02
     30.563  0.1497E+01  0.2256E+02
     30.765  0.9226E+00  0.2275E+02
     30.967  0.6251E-03  0.2275E+02
     31.170  0.1942E-02  0.2275E+02
     31.372  0.1808E+01  0.2312E+02
     31.574  0.4463E-01  0.2313E+02
     31.777  0.1844E+01  0.2350E+02
     31.979  0.2681E+01  0.2404E+02
     32.181  0.1125E+01  0.2427E+02
     32.383  0.1056E+01  0.2448E+02
     32.586  0.3657E+01  0.2522E+02
     32.788  0.1075E+01  0.2544E+02
     32.990  0.2768E+01  0.2600E+02
     33.193  0.7104E+00  0.2614E+02
     33.395  0.4548E+00  0.2623E+02
     33.597  0.2219E+01  0.2668E+02
     33.800  0.1861E-01  0.2669E+02
     34.002  0.0000E+00  0.2669E+02
     34.204  0.0000E+00  0.2669E+02
     34.407  0.0000E+00  0.2669E+02
     34.609  0.0000E+00  0.2669E+02
     34.811  0.2268E-10  0.2669E+02
     35.013  0.1844E+00  0.2672E+02
     35.216  0.2588E+01  0.2725E+02
     35.418  0.8289E-02  0.2725E+02
     35.620  0.4532E+00  0.2734E+02
     35.823  0.3028E+01  0.2795E+02
     36.025  0.3161E+00  0.2802E+02
     36.227  0.8371E+00  0.2819E+02
     36.430  0.1925E-03  0.2819E+02
     36.632  0.1828E+01  0.2856E+02
     36.834  0.9523E+00  0.2875E+02
     37.036  0.1840E+00  0.2879E+02
     37.239  0.4341E+00  0.2887E+02
     37.441  0.5422E+00  0.2898E+02
     37.643  0.1313E+01  0.2925E+02
     37.846  0.9227E+00  0.2944E+02
     38.048  0.7321E+00  0.2959E+02
     38.250  0.1124E+01  0.2981E+02
     38.453  0.8591E+00  0.2999E+02
     38.655  0.6779E-01  0.3000E+02
     38.857  0.9415E-14  0.3000E+02
     39.060  0.5378E-01  0.3001E+02
     39.262  0.3265E+01  0.3067E+02
     39.464  0.6974E+00  0.3081E+02
     39.666  0.2251E-07  0.3081E+02
     39.869  0.0000E+00  0.3081E+02
     40.071  0.5145E-15  0.3081E+02
     40.273  0.1016E-01  0.3081E+02
     40.476  0.9164E+00  0.3100E+02
     40.678  0.2795E-03  0.3100E+02
     40.880  0.0000E+00  0.3100E+02
     41.083  0.1715E-03  0.3100E+02
     41.285  0.1994E+01  0.3140E+02
     41.487  0.2949E+01  0.3200E+02
     41.690  0.2558E-03  0.3200E+02
     41.892  0.0000E+00  0.3200E+02
     42.094  0.0000E+00  0.3200E+02
     42.296  0.0000E+00  0.3200E+02
     42.499  0.0000E+00  0.3200E+02
     42.701  0.0000E+00  0.3200E+02
     42.903  0.0000E+00  0.3200E+02
     43.106  0.0000E+00  0.3200E+02
     43.308  0.0000E+00  0.3200E+02
     43.510  0.0000E+00  0.3200E+02
     43.713  0.0000E+00  0.3200E+02
     43.915  0.0000E+00  0.3200E+02
     44.117  0.0000E+00  0.3200E+02
