# ['Ni']

28 atoms
1 atom types

    0.0000     2.4865 xlo xhi
    0.0000     4.3067 ylo yhi
    0.0000    28.4229 zlo zhi

    0.0000     0.0000     0.0000 xy xz yz

Atoms

1 1     0.0000     0.0000     0.0000
2 1     1.2432     2.1534     0.0000
3 1     1.2432     0.7178     2.0302
4 1     0.0000     2.8712     2.0302
5 1     0.0000     1.4356     4.0604
6 1     1.2432     3.5889     4.0604
7 1     0.0000     0.0000     6.0906
8 1     1.2432     2.1534     6.0906
9 1     1.2432     0.7178     8.1208
10 1     0.0000     2.8712     8.1208
11 1     0.0000     1.4356    10.1510
12 1     1.2432     3.5889    10.1510
13 1     0.0000     0.0000    12.1812
14 1     1.2432     2.1534    12.1812
15 1     0.0000     1.4356    14.2115
16 1     1.2432     3.5889    14.2115
17 1     0.0000     0.0000    16.2417
18 1     1.2432     2.1534    16.2417
19 1     1.2432     0.7178    18.2719
20 1     0.0000     2.8712    18.2719
21 1     0.0000     1.4356    20.3021
22 1     1.2432     3.5889    20.3021
23 1     0.0000     0.0000    22.3323
24 1     1.2432     2.1534    22.3323
25 1     1.2432     0.7178    24.3625
26 1     0.0000     2.8712    24.3625
27 1     0.0000     1.4356    26.3927
28 1     1.2432     3.5889    26.3927
