# ['Ni']

107 atoms
1 atom types

    0.0000    10.5375 xlo xhi
    0.0000    10.5375 ylo yhi
    0.0000    10.5375 zlo zhi

    0.0000    -0.0000    -0.0000 xy xz yz

Atoms

1 1     1.7563     1.7563     0.0000
2 1     1.7563     0.0000     1.7563
3 1     0.0000     1.7563     1.7563
4 1     0.0000     0.0000     3.5125
5 1     1.7563     1.7563     3.5125
6 1     1.7563     0.0000     5.2688
7 1     0.0000     1.7563     5.2688
8 1     0.0000     0.0000     7.0250
9 1     1.7563     1.7563     7.0250
10 1     1.7563     0.0000     8.7813
11 1     0.0000     1.7563     8.7813
12 1     0.0000     3.5125     0.0000
13 1     1.7563     5.2688     0.0000
14 1     1.7563     3.5125     1.7563
15 1     0.0000     5.2688     1.7563
16 1     0.0000     3.5125     3.5125
17 1     1.7563     5.2688     3.5125
18 1     1.7563     3.5125     5.2688
19 1     0.0000     5.2688     5.2688
20 1     0.0000     3.5125     7.0250
21 1     1.7563     5.2688     7.0250
22 1     1.7563     3.5125     8.7813
23 1     0.0000     5.2688     8.7813
24 1     0.0000     7.0250     0.0000
25 1     1.7563     8.7813     0.0000
26 1     1.7563     7.0250     1.7563
27 1     0.0000     8.7813     1.7563
28 1     0.0000     7.0250     3.5125
29 1     1.7563     8.7813     3.5125
30 1     1.7563     7.0250     5.2688
31 1     0.0000     8.7813     5.2688
32 1     0.0000     7.0250     7.0250
33 1     1.7563     8.7813     7.0250
34 1     1.7563     7.0250     8.7813
35 1     0.0000     8.7813     8.7813
36 1     3.5125     0.0000     0.0000
37 1     5.2688     1.7563     0.0000
38 1     5.2688     0.0000     1.7563
39 1     3.5125     1.7563     1.7563
40 1     3.5125     0.0000     3.5125
41 1     5.2688     1.7563     3.5125
42 1     5.2688     0.0000     5.2688
43 1     3.5125     1.7563     5.2688
44 1     3.5125     0.0000     7.0250
45 1     5.2688     1.7563     7.0250
46 1     5.2688     0.0000     8.7813
47 1     3.5125     1.7563     8.7813
48 1     3.5125     3.5125     0.0000
49 1     5.2688     5.2688     0.0000
50 1     5.2688     3.5125     1.7563
51 1     3.5125     5.2688     1.7563
52 1     3.5125     3.5125     3.5125
53 1     5.2688     5.2688     3.5125
54 1     5.2688     3.5125     5.2688
55 1     3.5125     5.2688     5.2688
56 1     3.5125     3.5125     7.0250
57 1     5.2688     5.2688     7.0250
58 1     5.2688     3.5125     8.7813
59 1     3.5125     5.2688     8.7813
60 1     3.5125     7.0250     0.0000
61 1     5.2688     8.7813     0.0000
62 1     5.2688     7.0250     1.7563
63 1     3.5125     8.7813     1.7563
64 1     3.5125     7.0250     3.5125
65 1     5.2688     8.7813     3.5125
66 1     5.2688     7.0250     5.2688
67 1     3.5125     8.7813     5.2688
68 1     3.5125     7.0250     7.0250
69 1     5.2688     8.7813     7.0250
70 1     5.2688     7.0250     8.7813
71 1     3.5125     8.7813     8.7813
72 1     7.0250     0.0000     0.0000
73 1     8.7813     1.7563     0.0000
74 1     8.7813     0.0000     1.7563
75 1     7.0250     1.7563     1.7563
76 1     7.0250     0.0000     3.5125
77 1     8.7813     1.7563     3.5125
78 1     8.7813     0.0000     5.2688
79 1     7.0250     1.7563     5.2688
80 1     7.0250     0.0000     7.0250
81 1     8.7813     1.7563     7.0250
82 1     8.7813     0.0000     8.7813
83 1     7.0250     1.7563     8.7813
84 1     7.0250     3.5125     0.0000
85 1     8.7813     5.2688     0.0000
86 1     8.7813     3.5125     1.7563
87 1     7.0250     5.2688     1.7563
88 1     7.0250     3.5125     3.5125
89 1     8.7813     5.2688     3.5125
90 1     8.7813     3.5125     5.2688
91 1     7.0250     5.2688     5.2688
92 1     7.0250     3.5125     7.0250
93 1     8.7813     5.2688     7.0250
94 1     8.7813     3.5125     8.7813
95 1     7.0250     5.2688     8.7813
96 1     7.0250     7.0250     0.0000
97 1     8.7813     8.7813     0.0000
98 1     8.7813     7.0250     1.7563
99 1     7.0250     8.7813     1.7563
100 1     7.0250     7.0250     3.5125
101 1     8.7813     8.7813     3.5125
102 1     8.7813     7.0250     5.2688
103 1     7.0250     8.7813     5.2688
104 1     7.0250     7.0250     7.0250
105 1     8.7813     8.7813     7.0250
106 1     8.7813     7.0250     8.7813
107 1     7.0250     8.7813     8.7813
