# ['Ni']

28 atoms
1 atom types

    0.0000    12.5171 xlo xhi
    0.0000    21.6803 ylo yhi
    0.0000   143.0826 zlo zhi

    0.0000     0.0000     0.0000 xy xz yz

Atoms

1 1     0.0000     0.0000     0.0000
2 1     6.2586    10.8401     0.0000
3 1     6.2586     3.6134    10.2202
4 1     0.0000    14.4535    10.2202
5 1     0.0000     7.2268    20.4403
6 1     6.2586    18.0669    20.4403
7 1     0.0000     0.0000    30.6606
8 1     6.2586    10.8401    30.6606
9 1     6.2586     3.6134    40.8807
10 1     0.0000    14.4535    40.8807
11 1     0.0000     7.2268    51.1009
12 1     6.2586    18.0669    51.1009
13 1     0.0000     0.0000    61.3210
14 1     6.2586    10.8401    61.3210
15 1     0.0000     7.2268    71.5413
16 1     6.2586    18.0669    71.5413
17 1     0.0000     0.0000    81.7615
18 1     6.2586    10.8401    81.7615
19 1     6.2586     3.6134    91.9816
20 1     0.0000    14.4535    91.9816
21 1     0.0000     7.2268   102.2019
22 1     6.2586    18.0669   102.2019
23 1     0.0000     0.0000   112.4220
24 1     6.2586    10.8401   112.4220
25 1     6.2586     3.6134   122.6422
26 1     0.0000    14.4535   122.6422
27 1     0.0000     7.2268   132.8623
28 1     6.2586    18.0669   132.8623
