LAMMPS data file via write_data, version 17 Nov 2016, timestep = 57

216 atoms
2 atom types

0.0000000000000000e+00 1.2363600000000000e+01 xlo xhi
0.0000000000000000e+00 1.2363600000000000e+01 ylo yhi
0.0000000000000000e+00 1.2363600000000000e+01 zlo zhi
0.0000000000000000e+00 0.0000000000000000e+00 0.0000000000000000e+00 xy xz yz

Masses

1 24.305
2 15.999

Atoms # charge

146 2 -1.7000000000000000e+00 6.1768168944295461e+00 1.0344506604210924e-02 1.0344495531961484e-02 0 0 0
147 2 -1.7000000000000000e+00 6.1699809090882463e+00 2.0918581204832432e+00 2.0918580828388929e+00 0 0 0
148 2 -1.7000000000000000e+00 4.1504480807802020e+00 2.7893778085535902e-02 2.0839437820615152e+00 0 0 0
145 2 -1.7000000000000000e+00 4.1504480895422828e+00 2.0839437971020769e+00 2.7893751640468666e-02 0 0 0
112 2 -1.7000000000000000e+00 3.3369652564677228e-02 3.3369658527918705e-02 2.1678654209303660e+00 0 0 0
40 1 1.7000000000000000e+00 4.1184377172196784e+00 2.0724846843017284e+00 2.0724847284370407e+00 0 0 0
109 2 -1.7000000000000000e+00 3.3369657945187960e-02 2.1678654360430722e+00 3.3369701031810556e-02 0 0 0
110 2 -1.7000000000000000e+00 2.1678654827235024e+00 3.3369680753579711e-02 3.3369691514891074e-02 0 0 0
111 2 -1.7000000000000000e+00 2.0789837134574451e+00 2.0789837350074598e+00 2.0789837199653256e+00 0 0 0
4 1 1.7000000000000000e+00 2.9323548677094583e-02 2.0386307860116113e+00 2.0386307573264739e+00 0 0 0
50 1 1.7000000000000000e+00 6.1711371885372284e+00 4.0916158376857625e+00 2.0268483667532267e+00 0 0 0
158 2 -1.7000000000000000e+00 6.1575960841038739e+00 4.1041891981647431e+00 2.5169248199162188e-02 0 0 0
2 1 1.7000000000000000e+00 2.0386308348735032e+00 2.9323608294524489e-02 2.0386308215211617e+00 0 0 0
51 1 1.7000000000000000e+00 4.1034388528333441e+00 4.1034388513835003e+00 2.7952676097958564e-02 0 0 0
1 1 1.7000000000000000e+00 2.0386308139085259e+00 2.0386307813984734e+00 2.9323608630667155e-02 0 0 0
39 1 1.7000000000000000e+00 4.1294798655943925e+00 3.6041086588590093e-02 3.6041086292699281e-02 0 0 0
37 1 1.7000000000000000e+00 6.1781702415547084e+00 2.0800898088187747e+00 2.3158431544072978e-02 0 0 0
38 1 1.7000000000000000e+00 6.1781702691882749e+00 2.3158462896033072e-02 2.0800898375919012e+00 0 0 0
14 1 1.7000000000000000e+00 2.0724847252140477e+00 4.1184376784600918e+00 2.0724847355793092e+00 0 0 0
5 1 1.7000000000000000e+00 2.0724847001024425e+00 2.0724847052301816e+00 4.1184376997246366e+00 0 0 0
149 2 -1.7000000000000000e+00 4.1284997637712353e+00 2.0840175332211284e+00 4.1284997150294940e+00 0 0 0
150 2 -1.7000000000000000e+00 6.1575960926034057e+00 2.5169242724737143e-02 4.1041892620495934e+00 0 0 0
113 2 -1.7000000000000000e+00 2.7893728059936847e-02 2.0839437840330408e+00 4.1504480590047308e+00 0 0 0
114 2 -1.7000000000000000e+00 2.0839437738784348e+00 2.7893776400467255e-02 4.1504480394805618e+00 0 0 0
19 1 1.7000000000000000e+00 2.7952658796346248e-02 4.1034388213291191e+00 4.1034388541262032e+00 0 0 0
152 2 -1.7000000000000000e+00 4.1041892294862983e+00 2.5169235113154238e-02 6.1575961007876199e+00 0 0 0
151 2 -1.7000000000000000e+00 6.1587616069768520e+00 2.0181548757680532e+00 6.1587616265630709e+00 0 0 0
115 2 -1.7000000000000000e+00 2.0918580910844473e+00 2.0918580888717702e+00 6.1699808918011918e+00 0 0 0
43 1 1.7000000000000000e+00 4.1034388367674248e+00 2.7952739438415183e-02 4.1034388714965573e+00 0 0 0
41 1 1.7000000000000000e+00 6.1711372304520218e+00 2.0268483375725368e+00 4.0916158437100085e+00 0 0 0
128 2 -1.7000000000000000e+00 2.5169226951116785e-02 4.1041891623256630e+00 6.1575961115227287e+00 0 0 0
7 1 1.7000000000000000e+00 3.6041065358006094e-02 3.6041069827963540e-02 4.1294798261837933e+00 0 0 0
116 2 -1.7000000000000000e+00 1.0344493969480947e-02 1.0344508936328253e-02 6.1768168932824929e+00 0 0 0
42 1 1.7000000000000000e+00 6.1284063166158207e+00 1.3655593973185396e-02 6.1284063566813192e+00 0 0 0
44 1 1.7000000000000000e+00 4.0916158038307238e+00 2.0268483635186829e+00 6.1711372504629791e+00 0 0 0
18 1 1.7000000000000000e+00 2.0268483440872842e+00 4.0916157935031521e+00 6.1711372122189623e+00 0 0 0
8 1 1.7000000000000000e+00 2.3158446842782995e-02 2.0800897914875187e+00 6.1781702294760121e+00 0 0 0
6 1 1.7000000000000000e+00 2.0800898213388095e+00 2.3158422279665847e-02 6.1781702543584771e+00 0 0 0
154 2 -1.7000000000000000e+00 6.1164288328143712e+00 6.0743098897385897e-02 8.2498285929150565e+00 0 0 0
153 2 -1.7000000000000000e+00 4.1235475425488115e+00 2.0862907212256543e+00 8.2175284441610863e+00 0 0 0
9 1 1.7000000000000000e+00 2.1065923799875859e+00 2.1065923645390590e+00 8.2383639829986475e+00 0 0 0
47 1 1.7000000000000000e+00 4.1059217204953287e+00 3.9241509153369582e-02 8.2357490227177390e+00 0 0 0
11 1 1.7000000000000000e+00 1.1340567603862224e-01 1.1340558556422264e-01 8.2949207369570281e+00 0 0 0
118 2 -1.7000000000000000e+00 2.1174541856252214e+00 2.1756503343470981e-02 8.1772843679914100e+00 0 0 0
117 2 -1.7000000000000000e+00 2.1756515524691687e-02 2.1174541383848600e+00 8.1772843844625775e+00 0 0 0
23 1 1.7000000000000000e+00 3.9241551204603702e-02 4.1059216475913001e+00 8.2357490270146254e+00 0 0 0
45 1 1.7000000000000000e+00 6.1562581078123131e+00 2.0377630609125101e+00 8.2724959604548420e+00 0 0 0
165 2 -1.7000000000000000e+00 6.1644380425185030e+00 4.1071036979876618e+00 8.1850404252026774e+00 0 0 0
155 2 -1.7000000000000000e+00 6.1722324942835209e+00 2.0779743431293469e+00 1.0301569035647661e+01 0 0 0
156 2 -1.7000000000000000e+00 4.1187629591727966e+00 1.4326553577262502e-02 1.0305620903886410e+01 0 0 0
48 1 1.7000000000000000e+00 4.1195730490925868e+00 2.1099332793480525e+00 1.0319534488211101e+01 0 0 0
119 2 -1.7000000000000000e+00 2.1667756865444163e+00 2.1667756886491545e+00 1.0313841599991125e+01 0 0 0
120 2 -1.7000000000000000e+00 2.8915160436296405e-01 2.8915153411399319e-01 1.0219700312144761e+01 0 0 0
46 1 1.7000000000000000e+00 6.1598363708695958e+00 3.3986989312293867e-02 1.0328620021596555e+01 0 0 0
10 1 1.7000000000000000e+00 2.1347502146950674e+00 9.6177536338542161e-02 1.0365839646557195e+01 0 0 0
132 2 -1.7000000000000000e+00 1.4326541142622164e-02 4.1187629520334657e+00 1.0305620922627179e+01 0 0 0
12 1 1.7000000000000000e+00 9.6177658777127015e-02 2.1347501590399709e+00 1.0365839573659940e+01 0 0 0
58 1 1.7000000000000000e+00 6.1360817845299067e+00 4.0940373966961170e+00 1.0351929263447435e+01 0 0 0
167 2 -1.7000000000000000e+00 4.1176256948879377e+00 4.1176257117894801e+00 1.0304046340591995e+01 0 0 0
22 1 1.7000000000000000e+00 2.1099332946736338e+00 4.1195730349892150e+00 1.0319534585527958e+01 0 0 0
63 1 1.7000000000000000e+00 4.1059216949155957e+00 8.2357490089938636e+00 3.9241607118343388e-02 0 0 0
159 2 -1.7000000000000000e+00 6.1587616132210670e+00 6.1587615891811902e+00 2.0181548720753111e+00 0 0 0
13 1 1.7000000000000000e+00 2.0800898411401363e+00 6.1781702240058483e+00 2.3158481048300927e-02 0 0 0
157 2 -1.7000000000000000e+00 4.1041892137574738e+00 6.1575960716926055e+00 2.5169262116901837e-02 0 0 0
136 2 -1.7000000000000000e+00 2.1756496125538261e-02 8.1772843255062231e+00 2.1174541883268603e+00 0 0 0
52 1 1.7000000000000000e+00 4.0916158356565049e+00 6.1711371913083992e+00 2.0268483694120967e+00 0 0 0
121 2 -1.7000000000000000e+00 1.0344492378666699e-02 6.1768168587409331e+00 1.0344523729642559e-02 0 0 0
122 2 -1.7000000000000000e+00 2.0839438057396080e+00 4.1504480095432967e+00 2.7893771521758360e-02 0 0 0
123 2 -1.7000000000000000e+00 2.0918580875297570e+00 6.1699808477744993e+00 2.0918580970942107e+00 0 0 0
124 2 -1.7000000000000000e+00 2.7893728990579694e-02 4.1504480322113988e+00 2.0839438007478366e+00 0 0 0
171 2 -1.7000000000000000e+00 4.1235475729062685e+00 8.2175283483726496e+00 2.0862907110179907e+00 0 0 0
16 1 1.7000000000000000e+00 2.3158436983769230e-02 6.1781701830553191e+00 2.0800898292260230e+00 0 0 0
49 1 1.7000000000000000e+00 6.1284063229033352e+00 6.1284063158930318e+00 1.3655639968165151e-02 0 0 0
15 1 1.7000000000000000e+00 3.6041068172762064e-02 4.1294798348380866e+00 3.6041106297680293e-02 0 0 0
134 2 -1.7000000000000000e+00 2.1174542158429719e+00 8.1772843056489641e+00 2.1756557303349851e-02 0 0 0
26 1 1.7000000000000000e+00 2.1065923972164153e+00 8.2383639748615618e+00 2.1065924141448078e+00 0 0 0
160 2 -1.7000000000000000e+00 4.1284997475705341e+00 4.1284996941050709e+00 2.0840175643964161e+00 0 0 0
17 1 1.7000000000000000e+00 2.0268483746735053e+00 6.1711371627001510e+00 4.0916158149288213e+00 0 0 0
161 2 -1.7000000000000000e+00 4.1684887987442680e+00 6.1720333151863676e+00 4.1684888570134442e+00 0 0 0
162 2 -1.7000000000000000e+00 6.1720334024038879e+00 4.1684888392909754e+00 4.1684888453628339e+00 0 0 0
125 2 -1.7000000000000000e+00 2.5169213116102832e-02 6.1575960600729429e+00 4.1041892139433465e+00 0 0 0
31 1 1.7000000000000000e+00 3.9241520635728673e-02 8.2357490204773214e+00 4.1059216931739524e+00 0 0 0
138 2 -1.7000000000000000e+00 2.0862906787211148e+00 8.2175283653369195e+00 4.1235475650738618e+00 0 0 0
173 2 -1.7000000000000000e+00 6.1644380582803064e+00 8.1850403158213343e+00 4.1071037369319363e+00 0 0 0
163 2 -1.7000000000000000e+00 4.1684888562932665e+00 4.1684887935042845e+00 6.1720333808729269e+00 0 0 0
127 2 -1.7000000000000000e+00 2.0181548316934834e+00 6.1587615710098040e+00 6.1587615711150177e+00 0 0 0
55 1 1.7000000000000000e+00 4.1350526271103210e+00 4.1350526060898423e+00 4.1350526071077782e+00 0 0 0
20 1 1.7000000000000000e+00 1.3655598135009685e-02 6.1284062951797891e+00 6.1284063350959856e+00 0 0 0
175 2 -1.7000000000000000e+00 4.1071035980888677e+00 8.1850403655271489e+00 6.1644380225857907e+00 0 0 0
67 1 1.7000000000000000e+00 4.1443869718333453e+00 8.2185694635535480e+00 4.1443870672519196e+00 0 0 0
126 2 -1.7000000000000000e+00 2.0840175339430029e+00 4.1284996697983809e+00 4.1284997161532226e+00 0 0 0
56 1 1.7000000000000000e+00 3.8287646972309868e+00 6.1861190881042774e+00 6.1861190759661451e+00 0 0 0
164 2 -1.7000000000000000e+00 4.1071036533655416e+00 6.1644380203778519e+00 8.1850403777962093e+00 0 0 0
21 1 1.7000000000000000e+00 2.0377630468664778e+00 6.1562581098533125e+00 8.2724959154902145e+00 0 0 0
142 2 -1.7000000000000000e+00 2.0608324930270676e+00 8.2298319945093397e+00 8.2298320114637402e+00 0 0 0
59 1 1.7000000000000000e+00 4.1443869502504311e+00 4.1443869797085577e+00 8.2185695088597228e+00 0 0 0
130 2 -1.7000000000000000e+00 2.0862906970990656e+00 4.1235475177011338e+00 8.2175283988173415e+00 0 0 0
177 2 -1.7000000000000000e+00 6.0941229946954270e+00 8.1632736113309043e+00 8.1632736380555286e+00 0 0 0
129 2 -1.7000000000000000e+00 6.0743143820716189e-02 6.1164288542436758e+00 8.2498285956101469e+00 0 0 0
71 1 1.7000000000000000e+00 4.1232637816012110e+00 8.2061160337474437e+00 8.2061160097403452e+00 0 0 0
166 2 -1.7000000000000000e+00 6.0542999011900642e+00 6.0542999367895636e+00 1.0355776870844190e+01 0 0 0
24 1 1.7000000000000000e+00 3.3987050623444634e-02 6.1598363624527757e+00 1.0328619999773201e+01 0 0 0
60 1 1.7000000000000000e+00 4.0940373656944882e+00 6.1360818167604201e+00 1.0351929291679472e+01 0 0 0
131 2 -1.7000000000000000e+00 2.0779743308775083e+00 6.1722324699719522e+00 1.0301569081635757e+01 0 0 0
179 2 -1.7000000000000000e+00 4.1307263145834581e+00 8.2332731806968855e+00 1.0305752835574104e+01 0 0 0
34 1 1.7000000000000000e+00 2.0874311956045224e+00 8.2380758781697647e+00 1.0308915036714792e+01 0 0 0
28 1 1.7000000000000000e+00 9.6177657576098530e-02 1.0365839630503652e+01 2.1347502017752191e+00 0 0 0
25 1 1.7000000000000000e+00 2.1347502492155055e+00 1.0365839591891032e+01 9.6177634017913641e-02 0 0 0
170 2 -1.7000000000000000e+00 6.1722324924555529e+00 1.0301569011267539e+01 2.0779743625528062e+00 0 0 0
168 2 -1.7000000000000000e+00 4.1187629666092525e+00 1.0305620894256563e+01 1.4326576838847107e-02 0 0 0
135 2 -1.7000000000000000e+00 2.1667757211179772e+00 1.0313841583793856e+01 2.1667756793026611e+00 0 0 0
64 1 1.7000000000000000e+00 4.1195731072271560e+00 1.0319534509067884e+01 2.1099333321838336e+00 0 0 0
133 2 -1.7000000000000000e+00 2.8915163270836564e-01 1.0219700289446967e+01 2.8915158695101850e-01 0 0 0
62 1 1.7000000000000000e+00 6.1562580853481439e+00 8.2724958902671837e+00 2.0377630925319998e+00 0 0 0
61 1 1.7000000000000000e+00 6.1598363977481521e+00 1.0328619969095321e+01 3.3987027940551140e-02 0 0 0
27 1 1.7000000000000000e+00 1.1340569737144102e-01 8.2949207277988979e+00 1.1340566503958596e-01 0 0 0
169 2 -1.7000000000000000e+00 6.1164288586155688e+00 8.2498285503219986e+00 6.0743144299653440e-02 0 0 0
29 1 1.7000000000000000e+00 2.1099333199422539e+00 1.0319534518241305e+01 4.1195730822321019e+00 0 0 0
172 2 -1.7000000000000000e+00 4.1176257519905732e+00 1.0304046370687596e+01 4.1176257350819672e+00 0 0 0
65 1 1.7000000000000000e+00 6.1360817565785792e+00 1.0351929316692519e+01 4.0940374080163293e+00 0 0 0
137 2 -1.7000000000000000e+00 1.4326536451668792e-02 1.0305620899598591e+01 4.1187629318140537e+00 0 0 0
139 2 -1.7000000000000000e+00 2.0779743137979181e+00 1.0301569062689182e+01 6.1722324790347498e+00 0 0 0
174 2 -1.7000000000000000e+00 6.0542998495340319e+00 1.0355776900775975e+01 6.0542999007642466e+00 0 0 0
30 1 1.7000000000000000e+00 2.0377630954413548e+00 8.2724959135188385e+00 6.1562580491518837e+00 0 0 0
32 1 1.7000000000000000e+00 3.3987075237859973e-02 1.0328620030027494e+01 6.1598363505528875e+00 0 0 0
68 1 1.7000000000000000e+00 4.0940373558585268e+00 1.0351929315414683e+01 6.1360818173276055e+00 0 0 0
140 2 -1.7000000000000000e+00 6.0743131543916237e-02 8.2498285876617334e+00 6.1164288115937744e+00 0 0 0
69 1 1.7000000000000000e+00 6.0982584847610557e+00 1.0395972299030097e+01 8.2565719459763383e+00 0 0 0
176 2 -1.7000000000000000e+00 4.1307262970073220e+00 1.0305752782395986e+01 8.2332731987672876e+00 0 0 0
33 1 1.7000000000000000e+00 2.0874311697729495e+00 1.0308914979680139e+01 8.2380759047729448e+00 0 0 0
36 1 1.7000000000000000e+00 1.0045545491946244e-01 1.0215498444553582e+01 1.0215498486486220e+01 0 0 0
70 1 1.7000000000000000e+00 6.0982584820520866e+00 8.2565719191261859e+00 1.0395972357968995e+01 0 0 0
72 1 1.7000000000000000e+00 4.0917820449237210e+00 1.0312024554053995e+01 1.0312024540128649e+01 0 0 0
143 2 -1.7000000000000000e+00 2.0643412600768349e+00 1.0291798834795651e+01 1.0291798855728473e+01 0 0 0
73 1 1.7000000000000000e+00 1.0365839563481442e+01 2.1347501911850406e+00 9.6177536656375226e-02 0 0 0
76 1 1.7000000000000000e+00 8.2383639653651475e+00 2.1065924048038691e+00 2.1065923814125624e+00 0 0 0
182 2 -1.7000000000000000e+00 1.0313841496885987e+01 2.1667757163771273e+00 2.1667757336951032e+00 0 0 0
181 2 -1.7000000000000000e+00 1.0219700193336275e+01 2.8915162141872885e-01 2.8915164730243220e-01 0 0 0
193 2 -1.7000000000000000e+00 1.0305620837899815e+01 4.1187629656597444e+00 1.4326567772175686e-02 0 0 0
183 2 -1.7000000000000000e+00 8.1772842817040576e+00 2.1756496067660485e-02 2.1174541755160341e+00 0 0 0
74 1 1.7000000000000000e+00 1.0365839547244716e+01 9.6177520680951825e-02 2.1347502135702672e+00 0 0 0
180 2 -1.7000000000000000e+00 8.1772842756615223e+00 2.1174542010156596e+00 2.1756506718449864e-02 0 0 0
75 1 1.7000000000000000e+00 8.2949206481704820e+00 1.1340561612971035e-01 1.1340561743465545e-01 0 0 0
87 1 1.7000000000000000e+00 8.2357490021368793e+00 4.1059217108265686e+00 3.9241493435602522e-02 0 0 0
86 1 1.7000000000000000e+00 1.0319534466487822e+01 4.1195730668101005e+00 2.1099333320720635e+00 0 0 0
186 2 -1.7000000000000000e+00 1.0301569037191078e+01 2.0779743204239796e+00 6.1722325087292456e+00 0 0 0
77 1 1.7000000000000000e+00 1.0319534487342411e+01 2.1099332747023771e+00 4.1195730775316477e+00 0 0 0
184 2 -1.7000000000000000e+00 8.2175283418548357e+00 2.0862906756128350e+00 4.1235475907498031e+00 0 0 0
185 2 -1.7000000000000000e+00 1.0305620865194465e+01 1.4326554571640946e-02 4.1187629644334027e+00 0 0 0
187 2 -1.7000000000000000e+00 8.2498285713449295e+00 6.0743129269856734e-02 6.1164288882169897e+00 0 0 0
79 1 1.7000000000000000e+00 8.2357489879228059e+00 3.9241516680141857e-02 4.1059217621508344e+00 0 0 0
90 1 1.7000000000000000e+00 1.0351929320390946e+01 4.0940373179381533e+00 6.1360818129297936e+00 0 0 0
78 1 1.7000000000000000e+00 1.0328620033816172e+01 3.3987039947674151e-02 6.1598364043489369e+00 0 0 0
80 1 1.7000000000000000e+00 8.2724959050117182e+00 2.0377630623660985e+00 6.1562581767941644e+00 0 0 0
199 2 -1.7000000000000000e+00 8.1850403746178060e+00 4.1071036547067532e+00 6.1644380768356450e+00 0 0 0
197 2 -1.7000000000000000e+00 1.0304046325004206e+01 4.1176256996690617e+00 4.1176257222967347e+00 0 0 0
81 1 1.7000000000000000e+00 1.0308914979898711e+01 2.0874311876706604e+00 8.2380759099608323e+00 0 0 0
188 2 -1.7000000000000000e+00 8.2298319797173480e+00 2.0608325150540643e+00 8.2298320345513201e+00 0 0 0
54 1 1.7000000000000000e+00 6.1861190256825100e+00 3.8287647239135820e+00 6.1861190761571967e+00 0 0 0
82 1 1.7000000000000000e+00 1.0215498354245501e+01 1.0045539768897233e-01 1.0215498450745359e+01 0 0 0
190 2 -1.7000000000000000e+00 1.0291798784546756e+01 2.0643412164803179e+00 1.0291798868640130e+01 0 0 0
84 1 1.7000000000000000e+00 8.2380758744685263e+00 2.0874312338965781e+00 1.0308914948074801e+01 0 0 0
94 1 1.7000000000000000e+00 1.0312024623493471e+01 4.0917820103110056e+00 1.0312024588399682e+01 0 0 0
85 1 1.7000000000000000e+00 1.0328620012556341e+01 6.1598364256573435e+00 3.3987070102966192e-02 0 0 0
207 2 -1.7000000000000000e+00 8.2298319638152186e+00 8.2298319369121273e+00 2.0608325420174967e+00 0 0 0
194 2 -1.7000000000000000e+00 1.0301569020364258e+01 6.1722324762687792e+00 2.0779743287117975e+00 0 0 0
195 2 -1.7000000000000000e+00 8.2175283576583720e+00 4.1235475651399414e+00 2.0862907006601881e+00 0 0 0
192 2 -1.7000000000000000e+00 8.2498285424512154e+00 6.1164288923448904e+00 6.0743125176289610e-02 0 0 0
88 1 1.7000000000000000e+00 8.2724958932173092e+00 6.1562581509895864e+00 2.0377630681107339e+00 0 0 0
98 1 1.7000000000000000e+00 1.0308914969461078e+01 8.2380758471879840e+00 2.0874311874643272e+00 0 0 0
198 2 -1.7000000000000000e+00 1.0355776942749788e+01 6.0542998607090555e+00 6.0542998546990843e+00 0 0 0
89 1 1.7000000000000000e+00 1.0351929268272352e+01 6.1360817777177967e+00 4.0940373962948780e+00 0 0 0
196 2 -1.7000000000000000e+00 8.1850404258818514e+00 6.1644380241430818e+00 4.1071037015617931e+00 0 0 0
53 1 1.7000000000000000e+00 6.1861190440892191e+00 6.1861190221577669e+00 3.8287647762174561e+00 0 0 0
91 1 1.7000000000000000e+00 8.2185694364124249e+00 4.1443870527021271e+00 4.1443870386350117e+00 0 0 0
103 1 1.7000000000000000e+00 8.2061160570508882e+00 8.2061159834203803e+00 4.1232639245101721e+00 0 0 0
211 2 -1.7000000000000000e+00 8.1632736823341379e+00 8.1632736395861194e+00 6.0941230711894603e+00 0 0 0
209 2 -1.7000000000000000e+00 1.0305752789851841e+01 8.2332731867006608e+00 4.1307263056011427e+00 0 0 0
201 2 -1.7000000000000000e+00 1.0305752811414131e+01 4.1307263102464553e+00 8.2332732153595014e+00 0 0 0
57 1 1.7000000000000000e+00 6.2900491425703384e+00 6.2900491601117876e+00 8.5717292824423961e+00 0 0 0
200 2 -1.7000000000000000e+00 8.1632736350098352e+00 6.0941230949736234e+00 8.1632736574052842e+00 0 0 0
92 1 1.7000000000000000e+00 8.5717293555063527e+00 6.2900491745038893e+00 6.2900491957277174e+00 0 0 0
93 1 1.7000000000000000e+00 1.0395972471872044e+01 6.0982585027999843e+00 8.2565719978292602e+00 0 0 0
213 2 -1.7000000000000000e+00 1.0404194557202315e+01 7.9240333183892924e+00 7.9240333625009631e+00 0 0 0
35 1 1.7000000000000000e+00 1.2339542696994178e+01 8.1568985648051022e+00 8.1568985392810482e+00 -1 0 0
95 1 1.7000000000000000e+00 8.2061160016512975e+00 4.1232638561636614e+00 8.2061160581348496e+00 0 0 0
106 1 1.7000000000000000e+00 1.0406683981305791e+01 8.1708876624537172e+00 1.0406684004450121e+01 0 0 0
202 2 -1.7000000000000000e+00 1.0304276775672752e+01 6.1875647213259590e+00 1.0304276787261159e+01 0 0 0
96 1 1.7000000000000000e+00 8.2565719599646119e+00 6.0982585563812410e+00 1.0395972378946666e+01 0 0 0
203 2 -1.7000000000000000e+00 8.2332731984308367e+00 4.1307263345441214e+00 1.0305752799951607e+01 0 0 0
215 2 -1.7000000000000000e+00 7.9240333695703704e+00 7.9240334522502227e+00 1.0404194514169385e+01 0 0 0
99 1 1.7000000000000000e+00 8.1568984969548346e+00 8.1568985225572490e+00 1.2339542622862970e+01 0 0 -1
100 1 1.7000000000000000e+00 8.2380758061107606e+00 1.0308914977565747e+01 2.0874312460625126e+00 0 0 0
206 2 -1.7000000000000000e+00 1.0291798774225935e+01 1.0291798841812730e+01 2.0643412324703334e+00 0 0 0
97 1 1.7000000000000000e+00 1.0215498294973997e+01 1.0215498363452538e+01 1.0045546677761515e-01 0 0 0
102 1 1.7000000000000000e+00 1.0395972425489834e+01 8.2565719768828991e+00 6.0982585184979259e+00 0 0 0
101 1 1.7000000000000000e+00 1.0312024546033950e+01 1.0312024566883581e+01 4.0917820013964770e+00 0 0 0
208 2 -1.7000000000000000e+00 8.2332731736999634e+00 1.0305752803715523e+01 4.1307263344394887e+00 0 0 0
104 1 1.7000000000000000e+00 8.2565720147224368e+00 1.0395972363141647e+01 6.0982585779261829e+00 0 0 0
66 1 1.7000000000000000e+00 6.2900491667469405e+00 8.5717293035306366e+00 6.2900491247247583e+00 0 0 0
212 2 -1.7000000000000000e+00 7.9240333507066421e+00 1.0404194464145002e+01 7.9240334298467481e+00 0 0 0
107 1 1.7000000000000000e+00 8.5284182606228214e+00 8.5284180679522716e+00 8.5284180949797666e+00 0 0 0
105 1 1.7000000000000000e+00 1.0406684013149931e+01 1.0406683964426080e+01 8.1708876574605629e+00 0 0 0
141 2 -1.7000000000000000e+00 1.2353442631358169e+01 1.0300576755457779e+01 8.2543396771834114e+00 -1 0 0
83 1 1.7000000000000000e+00 8.1568985132582679e+00 1.2339542580587480e+01 8.1568986137105686e+00 0 -1 0
189 2 -1.7000000000000000e+00 1.0300576718505889e+01 1.2353442592140873e+01 8.2543396914988723e+00 0 -1 0
210 2 -1.7000000000000000e+00 1.0304276793721630e+01 1.0304276764842031e+01 6.1875647047373290e+00 0 0 0
214 2 -1.7000000000000000e+00 1.0973005010618591e+01 1.0973005052926254e+01 1.0973005201927901e+01 0 0 0
3 1 1.7000000000000000e+00 1.2039120181204803e+01 1.2039120194514105e+01 1.2039120274007121e+01 -1 -1 -1
108 1 1.7000000000000000e+00 8.1708876739494318e+00 1.0406683828295721e+01 1.0406683873219755e+01 0 0 0
216 2 -1.7000000000000000e+00 9.5880533702986597e+00 9.5880532589538952e+00 9.5880532651144321e+00 0 0 0
178 2 -1.7000000000000000e+00 6.1875646349311779e+00 1.0304276721436279e+01 1.0304276750048908e+01 0 0 0
144 2 -1.7000000000000000e+00 1.2353442629055277e+01 8.2543396702482887e+00 1.0300576798982295e+01 -1 0 0
191 2 -1.7000000000000000e+00 8.2543396138629799e+00 1.2353442552703648e+01 1.0300576708287302e+01 0 -1 0
205 2 -1.7000000000000000e+00 1.0300576680558729e+01 8.2543396272561083e+00 1.2353442647425988e+01 0 0 -1
204 2 -1.7000000000000000e+00 8.2543395977381095e+00 1.0300576672297900e+01 1.2353442604749850e+01 0 0 -1

Velocities

146 0.0000000000000000e+00 0.0000000000000000e+00 0.0000000000000000e+00
147 0.0000000000000000e+00 0.0000000000000000e+00 0.0000000000000000e+00
148 0.0000000000000000e+00 0.0000000000000000e+00 0.0000000000000000e+00
145 0.0000000000000000e+00 0.0000000000000000e+00 0.0000000000000000e+00
112 0.0000000000000000e+00 0.0000000000000000e+00 0.0000000000000000e+00
40 0.0000000000000000e+00 0.0000000000000000e+00 0.0000000000000000e+00
109 0.0000000000000000e+00 0.0000000000000000e+00 0.0000000000000000e+00
110 0.0000000000000000e+00 0.0000000000000000e+00 0.0000000000000000e+00
111 0.0000000000000000e+00 0.0000000000000000e+00 0.0000000000000000e+00
4 0.0000000000000000e+00 0.0000000000000000e+00 0.0000000000000000e+00
50 0.0000000000000000e+00 0.0000000000000000e+00 0.0000000000000000e+00
158 0.0000000000000000e+00 0.0000000000000000e+00 0.0000000000000000e+00
2 0.0000000000000000e+00 0.0000000000000000e+00 0.0000000000000000e+00
51 0.0000000000000000e+00 0.0000000000000000e+00 0.0000000000000000e+00
1 0.0000000000000000e+00 0.0000000000000000e+00 0.0000000000000000e+00
39 0.0000000000000000e+00 0.0000000000000000e+00 0.0000000000000000e+00
37 0.0000000000000000e+00 0.0000000000000000e+00 0.0000000000000000e+00
38 0.0000000000000000e+00 0.0000000000000000e+00 0.0000000000000000e+00
14 0.0000000000000000e+00 0.0000000000000000e+00 0.0000000000000000e+00
5 0.0000000000000000e+00 0.0000000000000000e+00 0.0000000000000000e+00
149 0.0000000000000000e+00 0.0000000000000000e+00 0.0000000000000000e+00
150 0.0000000000000000e+00 0.0000000000000000e+00 0.0000000000000000e+00
113 0.0000000000000000e+00 0.0000000000000000e+00 0.0000000000000000e+00
114 0.0000000000000000e+00 0.0000000000000000e+00 0.0000000000000000e+00
19 0.0000000000000000e+00 0.0000000000000000e+00 0.0000000000000000e+00
152 0.0000000000000000e+00 0.0000000000000000e+00 0.0000000000000000e+00
151 0.0000000000000000e+00 0.0000000000000000e+00 0.0000000000000000e+00
115 0.0000000000000000e+00 0.0000000000000000e+00 0.0000000000000000e+00
43 0.0000000000000000e+00 0.0000000000000000e+00 0.0000000000000000e+00
41 0.0000000000000000e+00 0.0000000000000000e+00 0.0000000000000000e+00
128 0.0000000000000000e+00 0.0000000000000000e+00 0.0000000000000000e+00
7 0.0000000000000000e+00 0.0000000000000000e+00 0.0000000000000000e+00
116 0.0000000000000000e+00 0.0000000000000000e+00 0.0000000000000000e+00
42 0.0000000000000000e+00 0.0000000000000000e+00 0.0000000000000000e+00
44 0.0000000000000000e+00 0.0000000000000000e+00 0.0000000000000000e+00
18 0.0000000000000000e+00 0.0000000000000000e+00 0.0000000000000000e+00
8 0.0000000000000000e+00 0.0000000000000000e+00 0.0000000000000000e+00
6 0.0000000000000000e+00 0.0000000000000000e+00 0.0000000000000000e+00
154 0.0000000000000000e+00 0.0000000000000000e+00 0.0000000000000000e+00
153 0.0000000000000000e+00 0.0000000000000000e+00 0.0000000000000000e+00
9 0.0000000000000000e+00 0.0000000000000000e+00 0.0000000000000000e+00
47 0.0000000000000000e+00 0.0000000000000000e+00 0.0000000000000000e+00
11 0.0000000000000000e+00 0.0000000000000000e+00 0.0000000000000000e+00
118 0.0000000000000000e+00 0.0000000000000000e+00 0.0000000000000000e+00
117 0.0000000000000000e+00 0.0000000000000000e+00 0.0000000000000000e+00
23 0.0000000000000000e+00 0.0000000000000000e+00 0.0000000000000000e+00
45 0.0000000000000000e+00 0.0000000000000000e+00 0.0000000000000000e+00
165 0.0000000000000000e+00 0.0000000000000000e+00 0.0000000000000000e+00
155 0.0000000000000000e+00 0.0000000000000000e+00 0.0000000000000000e+00
156 0.0000000000000000e+00 0.0000000000000000e+00 0.0000000000000000e+00
48 0.0000000000000000e+00 0.0000000000000000e+00 0.0000000000000000e+00
119 0.0000000000000000e+00 0.0000000000000000e+00 0.0000000000000000e+00
120 0.0000000000000000e+00 0.0000000000000000e+00 0.0000000000000000e+00
46 0.0000000000000000e+00 0.0000000000000000e+00 0.0000000000000000e+00
10 0.0000000000000000e+00 0.0000000000000000e+00 0.0000000000000000e+00
132 0.0000000000000000e+00 0.0000000000000000e+00 0.0000000000000000e+00
12 0.0000000000000000e+00 0.0000000000000000e+00 0.0000000000000000e+00
58 0.0000000000000000e+00 0.0000000000000000e+00 0.0000000000000000e+00
167 0.0000000000000000e+00 0.0000000000000000e+00 0.0000000000000000e+00
22 0.0000000000000000e+00 0.0000000000000000e+00 0.0000000000000000e+00
63 0.0000000000000000e+00 0.0000000000000000e+00 0.0000000000000000e+00
159 0.0000000000000000e+00 0.0000000000000000e+00 0.0000000000000000e+00
13 0.0000000000000000e+00 0.0000000000000000e+00 0.0000000000000000e+00
157 0.0000000000000000e+00 0.0000000000000000e+00 0.0000000000000000e+00
136 0.0000000000000000e+00 0.0000000000000000e+00 0.0000000000000000e+00
52 0.0000000000000000e+00 0.0000000000000000e+00 0.0000000000000000e+00
121 0.0000000000000000e+00 0.0000000000000000e+00 0.0000000000000000e+00
122 0.0000000000000000e+00 0.0000000000000000e+00 0.0000000000000000e+00
123 0.0000000000000000e+00 0.0000000000000000e+00 0.0000000000000000e+00
124 0.0000000000000000e+00 0.0000000000000000e+00 0.0000000000000000e+00
171 0.0000000000000000e+00 0.0000000000000000e+00 0.0000000000000000e+00
16 0.0000000000000000e+00 0.0000000000000000e+00 0.0000000000000000e+00
49 0.0000000000000000e+00 0.0000000000000000e+00 0.0000000000000000e+00
15 0.0000000000000000e+00 0.0000000000000000e+00 0.0000000000000000e+00
134 0.0000000000000000e+00 0.0000000000000000e+00 0.0000000000000000e+00
26 0.0000000000000000e+00 0.0000000000000000e+00 0.0000000000000000e+00
160 0.0000000000000000e+00 0.0000000000000000e+00 0.0000000000000000e+00
17 0.0000000000000000e+00 0.0000000000000000e+00 0.0000000000000000e+00
161 0.0000000000000000e+00 0.0000000000000000e+00 0.0000000000000000e+00
162 0.0000000000000000e+00 0.0000000000000000e+00 0.0000000000000000e+00
125 0.0000000000000000e+00 0.0000000000000000e+00 0.0000000000000000e+00
31 0.0000000000000000e+00 0.0000000000000000e+00 0.0000000000000000e+00
138 0.0000000000000000e+00 0.0000000000000000e+00 0.0000000000000000e+00
173 0.0000000000000000e+00 0.0000000000000000e+00 0.0000000000000000e+00
163 0.0000000000000000e+00 0.0000000000000000e+00 0.0000000000000000e+00
127 0.0000000000000000e+00 0.0000000000000000e+00 0.0000000000000000e+00
55 0.0000000000000000e+00 0.0000000000000000e+00 0.0000000000000000e+00
20 0.0000000000000000e+00 0.0000000000000000e+00 0.0000000000000000e+00
175 0.0000000000000000e+00 0.0000000000000000e+00 0.0000000000000000e+00
67 0.0000000000000000e+00 0.0000000000000000e+00 0.0000000000000000e+00
126 0.0000000000000000e+00 0.0000000000000000e+00 0.0000000000000000e+00
56 0.0000000000000000e+00 0.0000000000000000e+00 0.0000000000000000e+00
164 0.0000000000000000e+00 0.0000000000000000e+00 0.0000000000000000e+00
21 0.0000000000000000e+00 0.0000000000000000e+00 0.0000000000000000e+00
142 0.0000000000000000e+00 0.0000000000000000e+00 0.0000000000000000e+00
59 0.0000000000000000e+00 0.0000000000000000e+00 0.0000000000000000e+00
130 0.0000000000000000e+00 0.0000000000000000e+00 0.0000000000000000e+00
177 0.0000000000000000e+00 0.0000000000000000e+00 0.0000000000000000e+00