LAMMPS data file via write_data, version 17 Nov 2016, timestep = 56

216 atoms
2 atom types

0.0000000000000000e+00 1.2363600000000000e+01 xlo xhi
0.0000000000000000e+00 1.2363600000000000e+01 ylo yhi
0.0000000000000000e+00 1.2363600000000000e+01 zlo zhi
0.0000000000000000e+00 0.0000000000000000e+00 0.0000000000000000e+00 xy xz yz

Masses

1 24.305
2 15.999

Atoms # charge

14 1 1.7000000000000000e+00 2.0628758745819460e+00 4.1064738673939347e+00 2.0628758931417153e+00 0 0 0
147 2 -1.7000000000000000e+00 6.1593981812432999e+00 2.0673668597058064e+00 2.0673668803407805e+00 0 0 0
148 2 -1.7000000000000000e+00 4.1077807764555292e+00 1.9079306864815002e-02 2.0602777769372906e+00 0 0 0
145 2 -1.7000000000000000e+00 4.1077807452122501e+00 2.0602777610346008e+00 1.9079294841718598e-02 0 0 0
146 2 -1.7000000000000000e+00 6.1679890003947238e+00 6.4935711609839146e-03 6.4935354775030041e-03 0 0 0
40 1 1.7000000000000000e+00 4.1064738526947560e+00 2.0628758855926459e+00 2.0628758613007570e+00 0 0 0
109 2 -1.7000000000000000e+00 2.9544239482122474e-02 2.0716875585794927e+00 2.9544182871494091e-02 0 0 0
110 2 -1.7000000000000000e+00 2.0716876110397640e+00 2.9544222085550149e-02 2.9544248091892402e-02 0 0 0
111 2 -1.7000000000000000e+00 2.0712494919577464e+00 2.0712495183234965e+00 2.0712494996695758e+00 0 0 0
112 2 -1.7000000000000000e+00 2.9544229689779943e-02 2.9544237576941437e-02 2.0716876175265933e+00 0 0 0
4 1 1.7000000000000000e+00 2.1351578871705915e-02 2.0631235343349830e+00 2.0631235482334915e+00 0 0 0
50 1 1.7000000000000000e+00 6.1622636113280373e+00 4.0775380734479603e+00 2.0194193867975936e+00 0 0 0
160 2 -1.7000000000000000e+00 4.1135629853592901e+00 4.1135629294276104e+00 2.0734662180317418e+00 0 0 0
158 2 -1.7000000000000000e+00 6.1457137538573292e+00 4.0686059782540980e+00 3.3111984353548056e-02 0 0 0
122 2 -1.7000000000000000e+00 2.0602777677867525e+00 4.1077807123385224e+00 1.9079250711790372e-02 0 0 0
124 2 -1.7000000000000000e+00 1.9079283078243438e-02 4.1077806717392722e+00 2.0602777675531421e+00 0 0 0
2 1 1.7000000000000000e+00 2.0631234957994167e+00 2.1351591592864719e-02 2.0631235272295565e+00 0 0 0
38 1 1.7000000000000000e+00 6.1667766556480945e+00 1.3047802731191880e-02 2.0530596806819803e+00 0 0 0
1 1 1.7000000000000000e+00 2.0631234904803879e+00 2.0631235070677789e+00 2.1351652308171470e-02 0 0 0
51 1 1.7000000000000000e+00 4.0922149136438399e+00 4.0922149288897645e+00 2.2245022599623597e-02 0 0 0
3 1 1.7000000000000000e+00 3.8672272700991314e-02 3.8672147887281932e-02 3.8672251814686497e-02 0 0 0
39 1 1.7000000000000000e+00 4.0922071106051545e+00 9.8155162686839117e-03 9.8155031550200330e-03 0 0 0
37 1 1.7000000000000000e+00 6.1667766549360890e+00 2.0530596381555943e+00 1.3047830495294706e-02 0 0 0
15 1 1.7000000000000000e+00 9.8155060700033450e-03 4.0922071354184197e+00 9.8155040009340142e-03 0 0 0
5 1 1.7000000000000000e+00 2.0628759114109911e+00 2.0628758964512386e+00 4.1064738672033050e+00 0 0 0
149 2 -1.7000000000000000e+00 4.1135629231297246e+00 2.0734662484527204e+00 4.1135629314280004e+00 0 0 0
150 2 -1.7000000000000000e+00 6.1457136863934512e+00 3.3112064066458058e-02 4.0686059723678110e+00 0 0 0
113 2 -1.7000000000000000e+00 1.9079349548899407e-02 2.0602777388781055e+00 4.1077807304037961e+00 0 0 0
114 2 -1.7000000000000000e+00 2.0602777656396998e+00 1.9079335710671913e-02 4.1077807632323511e+00 0 0 0
19 1 1.7000000000000000e+00 2.2244925196288907e-02 4.0922149620181969e+00 4.0922148611031544e+00 0 0 0
152 2 -1.7000000000000000e+00 4.0686059528568528e+00 3.3112088653773221e-02 6.1457137452395179e+00 0 0 0
151 2 -1.7000000000000000e+00 6.1456129576241505e+00 2.0163568090000603e+00 6.1456129804439303e+00 0 0 0
115 2 -1.7000000000000000e+00 2.0673668521515642e+00 2.0673668620843015e+00 6.1593981833754992e+00 0 0 0
116 2 -1.7000000000000000e+00 6.4935315189106864e-03 6.4935411161699238e-03 6.1679890229334919e+00 0 0 0
41 1 1.7000000000000000e+00 6.1622635622894828e+00 2.0194193543541932e+00 4.0775380884919663e+00 0 0 0
126 2 -1.7000000000000000e+00 2.0734662396857289e+00 4.1135628904141726e+00 4.1135629258645841e+00 0 0 0
128 2 -1.7000000000000000e+00 3.3112055444471884e-02 4.0686059724457611e+00 6.1457137708024483e+00 0 0 0
7 1 1.7000000000000000e+00 9.8154802322212627e-03 9.8155447106681917e-03 4.0922071157855235e+00 0 0 0
43 1 1.7000000000000000e+00 4.0922149137774477e+00 2.2244953428924338e-02 4.0922149456022341e+00 0 0 0
44 1 1.7000000000000000e+00 4.0775380076078056e+00 2.0194194304143491e+00 6.1622635943675279e+00 0 0 0
6 1 1.7000000000000000e+00 2.0530596695225345e+00 1.3047839450782193e-02 6.1667765797830683e+00 0 0 0
18 1 1.7000000000000000e+00 2.0194193460521452e+00 4.0775380570082884e+00 6.1622635197008204e+00 0 0 0
42 1 1.7000000000000000e+00 6.1345540941739083e+00 2.0002284242398496e-02 6.1345542016839927e+00 0 0 0
8 1 1.7000000000000000e+00 1.3047839584128225e-02 2.0530596465023629e+00 6.1667765638355156e+00 0 0 0
54 1 1.7000000000000000e+00 6.1814526625938395e+00 3.8230514451698978e+00 6.1814526362158722e+00 0 0 0
154 2 -1.7000000000000000e+00 5.9982349319655235e+00 1.3236991116846533e-01 8.2834926151162289e+00 0 0 0
153 2 -1.7000000000000000e+00 4.0810746436360459e+00 2.0968200657495650e+00 8.2231192022652646e+00 0 0 0
9 1 1.7000000000000000e+00 2.0778569594297367e+00 2.0778570282122497e+00 8.2357951121353814e+00 0 0 0
59 1 1.7000000000000000e+00 4.1139968866230472e+00 4.1139969187672039e+00 8.2204270020895152e+00 0 0 0
11 1 1.7000000000000000e+00 1.2261330721862756e-02 1.2261320984354720e-02 8.2612703049486118e+00 0 0 0
47 1 1.7000000000000000e+00 4.0731071589879742e+00 6.3891395793126790e-02 8.2475272850853241e+00 0 0 0
118 2 -1.7000000000000000e+00 2.0773152521849845e+00 1.1160278893749010e-02 8.2233036908867376e+00 0 0 0
117 2 -1.7000000000000000e+00 1.1160254139421700e-02 2.0773152579682672e+00 8.2233037031952705e+00 0 0 0
23 1 1.7000000000000000e+00 6.3891337541774590e-02 4.0731072109806616e+00 8.2475273408707679e+00 0 0 0
45 1 1.7000000000000000e+00 6.1284955713087275e+00 2.0466558198833300e+00 8.2819238260844070e+00 0 0 0
130 2 -1.7000000000000000e+00 2.0968200663753040e+00 4.0810746936678806e+00 8.2231192572718879e+00 0 0 0
165 2 -1.7000000000000000e+00 6.1624502070702016e+00 4.1133437061904994e+00 8.1808035804560006e+00 0 0 0
155 2 -1.7000000000000000e+00 6.1641064151396838e+00 2.0857733230206699e+00 1.0320149814243777e+01 0 0 0
156 2 -1.7000000000000000e+00 4.0802617584725080e+00 1.3573423354057835e-02 1.0331974523414345e+01 0 0 0
48 1 1.7000000000000000e+00 4.0848443549917874e+00 2.0776735864415636e+00 1.0322135519588775e+01 0 0 0
119 2 -1.7000000000000000e+00 2.0868305943218601e+00 2.0868305866752488e+00 1.0310878959436314e+01 0 0 0
120 2 -1.7000000000000000e+00 1.3037856187432920e-01 1.3037848756508136e-01 1.0302276169710579e+01 0 0 0
22 1 1.7000000000000000e+00 2.0776735486058113e+00 4.0848443467780209e+00 1.0322135527422700e+01 0 0 0
132 2 -1.7000000000000000e+00 1.3573415455268830e-02 4.0802617780477792e+00 1.0331974514723459e+01 0 0 0
46 1 1.7000000000000000e+00 6.1555061746330937e+00 2.8767774344546811e-02 1.0317348238187357e+01 0 0 0
10 1 1.7000000000000000e+00 2.0710963901017014e+00 5.0888800436808254e-02 1.0319692751839005e+01 0 0 0
12 1 1.7000000000000000e+00 5.0888676157476782e-02 2.0710963950483703e+00 1.0319692829063300e+01 0 0 0
58 1 1.7000000000000000e+00 6.1252010250337019e+00 4.0734989868767419e+00 1.0382366204080340e+01 0 0 0
167 2 -1.7000000000000000e+00 4.0734619426698631e+00 4.0734619103907708e+00 1.0318090804777187e+01 0 0 0
136 2 -1.7000000000000000e+00 1.1160260752431419e-02 8.2233036767133605e+00 2.0773152680541931e+00 0 0 0
159 2 -1.7000000000000000e+00 6.1456129998210383e+00 6.1456129975460883e+00 2.0163567550739931e+00 0 0 0
16 1 1.7000000000000000e+00 1.3047811255183211e-02 6.1667766079066455e+00 2.0530595905763112e+00 0 0 0
157 2 -1.7000000000000000e+00 4.0686060140329605e+00 6.1457137210264978e+00 3.3112010198892310e-02 0 0 0
134 2 -1.7000000000000000e+00 2.0773152647444584e+00 8.2233037141847625e+00 1.1160205679554183e-02 0 0 0
52 1 1.7000000000000000e+00 4.0775380206833791e+00 6.1622635445592557e+00 2.0194194056932946e+00 0 0 0
121 2 -1.7000000000000000e+00 6.4935777161170567e-03 6.1679890068368630e+00 6.4934526758481988e-03 0 0 0
171 2 -1.7000000000000000e+00 4.0810745804807862e+00 8.2231191993000401e+00 2.0968201970972764e+00 0 0 0
123 2 -1.7000000000000000e+00 2.0673668566242949e+00 6.1593981456355236e+00 2.0673668473052049e+00 0 0 0
26 1 1.7000000000000000e+00 2.0778569881095743e+00 8.2357949815138447e+00 2.0778570249422903e+00 0 0 0
49 1 1.7000000000000000e+00 6.1345540456989118e+00 6.1345539731009966e+00 2.0002359011978471e-02 0 0 0
13 1 1.7000000000000000e+00 2.0530595646466248e+00 6.1667766329476175e+00 1.3047763326861361e-02 0 0 0
17 1 1.7000000000000000e+00 2.0194193595633054e+00 6.1622636032025762e+00 4.0775380681006039e+00 0 0 0
161 2 -1.7000000000000000e+00 4.1552530962804326e+00 6.1625789862469817e+00 4.1552531073876242e+00 0 0 0
162 2 -1.7000000000000000e+00 6.1625789807653479e+00 4.1552530895478856e+00 4.1552531453810992e+00 0 0 0
125 2 -1.7000000000000000e+00 3.3112058709346720e-02 6.1457137011403962e+00 4.0686059602046196e+00 0 0 0
53 1 1.7000000000000000e+00 6.1814526415445501e+00 6.1814526524727231e+00 3.8230514711793231e+00 0 0 0
138 2 -1.7000000000000000e+00 2.0968200538761894e+00 8.2231192491104803e+00 4.0810746333796510e+00 0 0 0
173 2 -1.7000000000000000e+00 6.1624501622572465e+00 8.1808035664461851e+00 4.1133437506718451e+00 0 0 0
163 2 -1.7000000000000000e+00 4.1552530945183621e+00 4.1552531036759062e+00 6.1625789920733602e+00 0 0 0
127 2 -1.7000000000000000e+00 2.0163568726759094e+00 6.1456129403056297e+00 6.1456130350523797e+00 0 0 0
175 2 -1.7000000000000000e+00 4.1133437251527925e+00 8.1808035823429286e+00 6.1624501682934234e+00 0 0 0
67 1 1.7000000000000000e+00 4.1139969100812053e+00 8.2204269864685777e+00 4.1139969222180763e+00 0 0 0
55 1 1.7000000000000000e+00 4.1258557624943961e+00 4.1258557460222978e+00 4.1258557254014638e+00 0 0 0
20 1 1.7000000000000000e+00 2.0002247150513790e-02 6.1345541658797957e+00 6.1345541749106225e+00 0 0 0
56 1 1.7000000000000000e+00 3.8230514108685747e+00 6.1814525962697315e+00 6.1814526124938034e+00 0 0 0
71 1 1.7000000000000000e+00 4.1476168040312444e+00 8.2247159688641158e+00 8.2247159572317194e+00 0 0 0
164 2 -1.7000000000000000e+00 4.1133436906985681e+00 6.1624501737238875e+00 8.1808036414978105e+00 0 0 0
21 1 1.7000000000000000e+00 2.0466558066820268e+00 6.1284955025536583e+00 8.2819239196451093e+00 0 0 0
142 2 -1.7000000000000000e+00 2.0416781257694971e+00 8.2320266007676377e+00 8.2320266650597524e+00 0 0 0
177 2 -1.7000000000000000e+00 6.1661945722936107e+00 8.1635552785152576e+00 8.1635553371523866e+00 0 0 0
129 2 -1.7000000000000000e+00 1.3236986524478245e-01 5.9982350466206524e+00 8.2834926315212556e+00 0 0 0
166 2 -1.7000000000000000e+00 6.0052796615023603e+00 6.0052796547294474e+00 1.0370549996430048e+01 0 0 0
24 1 1.7000000000000000e+00 2.8767758954304081e-02 6.1555062217638383e+00 1.0317348245164771e+01 0 0 0
60 1 1.7000000000000000e+00 4.0734989994954063e+00 6.1252010347169419e+00 1.0382366067297669e+01 0 0 0
131 2 -1.7000000000000000e+00 2.0857733051373608e+00 6.1641063788184169e+00 1.0320149796901820e+01 0 0 0
179 2 -1.7000000000000000e+00 4.1228561097475360e+00 8.2381757927430286e+00 1.0303615117457040e+01 0 0 0
28 1 1.7000000000000000e+00 5.0888758991470565e-02 1.0319692843626475e+01 2.0710964118342869e+00 0 0 0
62 1 1.7000000000000000e+00 6.1284955765261824e+00 8.2819239419000290e+00 2.0466559057786879e+00 0 0 0
170 2 -1.7000000000000000e+00 6.1641064484242714e+00 1.0320149903506872e+01 2.0857733478062794e+00 0 0 0
168 2 -1.7000000000000000e+00 4.0802617532901184e+00 1.0331974574758215e+01 1.3573409831158461e-02 0 0 0
135 2 -1.7000000000000000e+00 2.0868305951347130e+00 1.0310878966255116e+01 2.0868305852185860e+00 0 0 0
64 1 1.7000000000000000e+00 4.0848443321428292e+00 1.0322135491739573e+01 2.0776735781019688e+00 0 0 0
133 2 -1.7000000000000000e+00 1.3037864061334981e-01 1.0302276263876974e+01 1.3037853442458677e-01 0 0 0
169 2 -1.7000000000000000e+00 5.9982356994164014e+00 8.2834923329144203e+00 1.3236911611318586e-01 0 0 0
61 1 1.7000000000000000e+00 6.1555061652102534e+00 1.0317348344763458e+01 2.8767935927148828e-02 0 0 0
27 1 1.7000000000000000e+00 1.2261319242647936e-02 8.2612703820814364e+00 1.2261380714430494e-02 0 0 0
25 1 1.7000000000000000e+00 2.0710963664093853e+00 1.0319692802749209e+01 5.0888815076120621e-02 0 0 0
63 1 1.7000000000000000e+00 4.0731071363031059e+00 8.2475273749089730e+00 6.3891447342375562e-02 0 0 0
29 1 1.7000000000000000e+00 2.0776735254261056e+00 1.0322135436767601e+01 4.0848443303226309e+00 0 0 0
172 2 -1.7000000000000000e+00 4.0734620072091348e+00 1.0318090807208780e+01 4.0734620039281140e+00 0 0 0
31 1 1.7000000000000000e+00 6.3891389235323018e-02 8.2475273086388654e+00 4.0731071654383308e+00 0 0 0
137 2 -1.7000000000000000e+00 1.3573453242964115e-02 1.0331974536888950e+01 4.0802617828143903e+00 0 0 0
65 1 1.7000000000000000e+00 6.1252010375351906e+00 1.0382366188376887e+01 4.0734990780268552e+00 0 0 0
174 2 -1.7000000000000000e+00 6.0052790385300741e+00 1.0370549718744980e+01 6.0052790557509503e+00 0 0 0
139 2 -1.7000000000000000e+00 2.0857732787199526e+00 1.0320149824526592e+01 6.1641064025201526e+00 0 0 0
140 2 -1.7000000000000000e+00 1.3236976292716413e-01 8.2834926057768090e+00 5.9982351329051911e+00 0 0 0
30 1 1.7000000000000000e+00 2.0466558441825473e+00 8.2819238928456684e+00 6.1284956198006979e+00 0 0 0
32 1 1.7000000000000000e+00 2.8767863360887408e-02 1.0317348227099725e+01 6.1555061938064606e+00 0 0 0
68 1 1.7000000000000000e+00 4.0734990419598018e+00 1.0382366108291874e+01 6.1252011161532947e+00 0 0 0
69 1 1.7000000000000000e+00 6.0915025724212537e+00 1.0513215619541507e+01 8.2919044241828299e+00 0 0 0
176 2 -1.7000000000000000e+00 4.1228560330956716e+00 1.0303615062718356e+01 8.2381757704083984e+00 0 0 0
33 1 1.7000000000000000e+00 2.0683352904687093e+00 1.0310451975586799e+01 8.2424089592818781e+00 0 0 0
35 1 1.7000000000000000e+00 7.5299438792096149e-02 8.2587925209529818e+00 8.2587926025851015e+00 0 0 0
34 1 1.7000000000000000e+00 2.0683351812569679e+00 8.2424090028433099e+00 1.0310452077337466e+01 0 0 0
178 2 -1.7000000000000000e+00 6.1707367787573633e+00 1.0303419132479352e+01 1.0303419134562589e+01 0 0 0
72 1 1.7000000000000000e+00 4.0865546846594283e+00 1.0311147512835694e+01 1.0311147559444811e+01 0 0 0
143 2 -1.7000000000000000e+00 2.0512802515631798e+00 1.0300550146019795e+01 1.0300550165719930e+01 0 0 0
70 1 1.7000000000000000e+00 6.0915027789967491e+00 8.2919045814701420e+00 1.0513215535949938e+01 0 0 0
36 1 1.7000000000000000e+00 7.3238096484428389e-02 1.0370485930686140e+01 1.0370485892465643e+01 0 0 0
193 2 -1.7000000000000000e+00 1.0331974556295547e+01 4.0802616778944270e+00 1.3573395010332657e-02 0 0 0
182 2 -1.7000000000000000e+00 1.0310878989696345e+01 2.0868305447385103e+00 2.0868305520152224e+00 0 0 0
86 1 1.7000000000000000e+00 1.0322135460680235e+01 4.0848443891309900e+00 2.0776736239824083e+00 0 0 0
181 2 -1.7000000000000000e+00 1.0302276190957169e+01 1.3037852972785524e-01 1.3037852563266669e-01 0 0 0
180 2 -1.7000000000000000e+00 8.2233036814831539e+00 2.0773152412165308e+00 1.1160270830417681e-02 0 0 0
76 1 1.7000000000000000e+00 8.2357950529667097e+00 2.0778570942737029e+00 2.0778570567870212e+00 0 0 0
183 2 -1.7000000000000000e+00 8.2233036778827024e+00 1.1160206373643990e-02 2.0773153121673724e+00 0 0 0
195 2 -1.7000000000000000e+00 8.2231191492981726e+00 4.0810745360328324e+00 2.0968201426869681e+00 0 0 0
74 1 1.7000000000000000e+00 1.0319692823637808e+01 5.0888748519020623e-02 2.0710964073234663e+00 0 0 0
73 1 1.7000000000000000e+00 1.0319692781190543e+01 2.0710963684737278e+00 5.0888804316265551e-02 0 0 0
75 1 1.7000000000000000e+00 8.2612703458130685e+00 1.2261301650486740e-02 1.2261308897548357e-02 0 0 0
87 1 1.7000000000000000e+00 8.2475273891740386e+00 4.0731071361633147e+00 6.3891333971547337e-02 0 0 0
186 2 -1.7000000000000000e+00 1.0320149795780805e+01 2.0857733245319263e+00 6.1641063730830270e+00 0 0 0
77 1 1.7000000000000000e+00 1.0322135550428245e+01 2.0776736151799091e+00 4.0848443359955260e+00 0 0 0
184 2 -1.7000000000000000e+00 8.2231192061006020e+00 2.0968200677123567e+00 4.0810746730423677e+00 0 0 0
185 2 -1.7000000000000000e+00 1.0331974506051008e+01 1.3573420166180733e-02 4.0802617868378288e+00 0 0 0
91 1 1.7000000000000000e+00 8.2204269197458757e+00 4.1139969741950466e+00 4.1139969812226100e+00 0 0 0
187 2 -1.7000000000000000e+00 8.2834926944242149e+00 1.3236981860286548e-01 5.9982351047686864e+00 0 0 0
197 2 -1.7000000000000000e+00 1.0318090791679177e+01 4.0734619668386278e+00 4.0734619606244751e+00 0 0 0
199 2 -1.7000000000000000e+00 8.1808035576010276e+00 4.1133436493734550e+00 6.1624501870732820e+00 0 0 0
79 1 1.7000000000000000e+00 8.2475273353873533e+00 6.3891411183040078e-02 4.0731071667048866e+00 0 0 0
90 1 1.7000000000000000e+00 1.0382366184873288e+01 4.0734990881656312e+00 6.1252010238653538e+00 0 0 0
80 1 1.7000000000000000e+00 8.2819240151683839e+00 2.0466558355437376e+00 6.1284954967883714e+00 0 0 0
78 1 1.7000000000000000e+00 1.0317348275557848e+01 2.8767931208316784e-02 6.1555061593116482e+00 0 0 0
83 1 1.7000000000000000e+00 8.2587927103764631e+00 7.5299422200959462e-02 8.2587926963184373e+00 0 0 0
188 2 -1.7000000000000000e+00 8.2320266834606350e+00 2.0416781474816044e+00 8.2320266462612892e+00 0 0 0
81 1 1.7000000000000000e+00 1.0310452029495233e+01 2.0683353513869975e+00 8.2424090091095561e+00 0 0 0
82 1 1.7000000000000000e+00 1.0370485795938972e+01 7.3238022284121476e-02 1.0370485905160301e+01 0 0 0
190 2 -1.7000000000000000e+00 1.0300550173759206e+01 2.0512802099035645e+00 1.0300550147216271e+01 0 0 0
84 1 1.7000000000000000e+00 8.2424089983947919e+00 2.0683352317469774e+00 1.0310451967289962e+01 0 0 0
94 1 1.7000000000000000e+00 1.0311147531801204e+01 4.0865547085247398e+00 1.0311147580946008e+01 0 0 0
194 2 -1.7000000000000000e+00 1.0320149848597200e+01 6.1641064057358710e+00 2.0857733178569764e+00 0 0 0
88 1 1.7000000000000000e+00 8.2819239662169757e+00 6.1284954886667409e+00 2.0466559124656234e+00 0 0 0
207 2 -1.7000000000000000e+00 8.2320265833717166e+00 8.2320266589082447e+00 2.0416780265560384e+00 0 0 0
192 2 -1.7000000000000000e+00 8.2834923183012172e+00 5.9982357366579135e+00 1.3236906495237100e-01 0 0 0
85 1 1.7000000000000000e+00 1.0317348267913315e+01 6.1555061993058144e+00 2.8767862521325984e-02 0 0 0
198 2 -1.7000000000000000e+00 1.0370549709141281e+01 6.0052790613405556e+00 6.0052791146481512e+00 0 0 0
89 1 1.7000000000000000e+00 1.0382366148235565e+01 6.1252010896071152e+00 4.0734990347260842e+00 0 0 0
196 2 -1.7000000000000000e+00 8.1808035557640135e+00 6.1624501315502522e+00 4.1133437886882591e+00 0 0 0
211 2 -1.7000000000000000e+00 8.1635553893152544e+00 8.1635553917668577e+00 6.1661946759355253e+00 0 0 0
209 2 -1.7000000000000000e+00 1.0303615095698175e+01 8.2381757645531852e+00 4.1228560308478750e+00 0 0 0
103 1 1.7000000000000000e+00 8.2247160492865081e+00 8.2247160488861493e+00 4.1476167986813577e+00 0 0 0
213 2 -1.7000000000000000e+00 1.0705962308063357e+01 7.8471725958637082e+00 7.8471723459986480e+00 0 0 0
57 1 1.7000000000000000e+00 6.2246117132079606e+00 6.2246116224790766e+00 8.5875044456685448e+00 0 0 0
200 2 -1.7000000000000000e+00 8.1635553346601171e+00 6.1661945570333980e+00 8.1635553523452007e+00 0 0 0
92 1 1.7000000000000000e+00 8.5875045378616903e+00 6.2246116302782646e+00 6.2246114930913548e+00 0 0 0
93 1 1.7000000000000000e+00 1.0513215494466714e+01 6.0915026206550404e+00 8.2919044866354508e+00 0 0 0
107 1 1.7000000000000000e+00 8.1855984072631802e+00 8.1855982592015106e+00 8.1855984975245573e+00 0 0 0
201 2 -1.7000000000000000e+00 1.0303615088120381e+01 4.1228560393837315e+00 8.2381757868216798e+00 0 0 0
95 1 1.7000000000000000e+00 8.2247160448640564e+00 4.1476167284292007e+00 8.2247159250823589e+00 0 0 0
144 2 -1.7000000000000000e+00 1.2360661451973193e+01 8.2315999539664357e+00 1.0304451475921519e+01 -1 0 0
203 2 -1.7000000000000000e+00 8.2381757320394318e+00 4.1228561248895188e+00 1.0303615177707970e+01 0 0 0
96 1 1.7000000000000000e+00 8.2919047032280080e+00 6.0915028055127181e+00 1.0513215533890635e+01 0 0 0
202 2 -1.7000000000000000e+00 1.0303419042241954e+01 6.1707367844721057e+00 1.0303419200993273e+01 0 0 0
215 2 -1.7000000000000000e+00 7.8471703726255564e+00 7.8471704068185781e+00 1.0705964446567863e+01 0 0 0
205 2 -1.7000000000000000e+00 1.0304451475753346e+01 8.2315998665626395e+00 1.2360661490984974e+01 0 0 -1
98 1 1.7000000000000000e+00 1.0310452126586609e+01 8.2424089589745293e+00 2.0683353162649043e+00 0 0 0
206 2 -1.7000000000000000e+00 1.0300550141956425e+01 1.0300550212296679e+01 2.0512801764624400e+00 0 0 0
100 1 1.7000000000000000e+00 8.2424089496530417e+00 1.0310452016225357e+01 2.0683352675774809e+00 0 0 0
99 1 1.7000000000000000e+00 8.2587927431637063e+00 8.2587927215837631e+00 7.5299273892993013e-02 0 0 0
97 1 1.7000000000000000e+00 1.0370485772328756e+01 1.0370485797185102e+01 7.3238084172493362e-02 0 0 0
210 2 -1.7000000000000000e+00 1.0303419094609577e+01 1.0303419157365608e+01 6.1707370743803027e+00 0 0 0
101 1 1.7000000000000000e+00 1.0311147502082552e+01 1.0311147449126727e+01 4.0865546240657897e+00 0 0 0
208 2 -1.7000000000000000e+00 8.2381757641452324e+00 1.0303615103280084e+01 4.1228560889561852e+00 0 0 0
102 1 1.7000000000000000e+00 1.0513215539269710e+01 8.2919044227035439e+00 6.0915025817845851e+00 0 0 0
104 1 1.7000000000000000e+00 8.2919044884026754e+00 1.0513215623660045e+01 6.0915026067984002e+00 0 0 0
66 1 1.7000000000000000e+00 6.2246117096657949e+00 8.5875045297610662e+00 6.2246116110250771e+00 0 0 0
216 2 -1.7000000000000000e+00 9.2347858262832379e+00 9.2347858989580391e+00 9.2347830747499913e+00 0 0 0
189 2 -1.7000000000000000e+00 1.0304451487576209e+01 1.2360661342242162e+01 8.2315999122399024e+00 0 -1 0
212 2 -1.7000000000000000e+00 7.8471725007136008e+00 1.0705962516684334e+01 7.8471722137819109e+00 0 0 0
105 1 1.7000000000000000e+00 1.0327886380731512e+01 1.0327886307828541e+01 8.2508807711674503e+00 0 0 0
141 2 -1.7000000000000000e+00 1.2360661358277138e+01 1.0304451514619849e+01 8.2315999001611164e+00 -1 0 0
191 2 -1.7000000000000000e+00 8.2315999510438953e+00 1.2360661467143393e+01 1.0304451442859500e+01 0 -1 0
106 1 1.7000000000000000e+00 1.0327886456865011e+01 8.2508808790061128e+00 1.0327886588310946e+01 0 0 0
108 1 1.7000000000000000e+00 8.2508804243370069e+00 1.0327886315345044e+01 1.0327886477360162e+01 0 0 0
214 2 -1.7000000000000000e+00 1.0648693985728233e+01 1.0648693925092713e+01 1.0648693721653554e+01 0 0 0
204 2 -1.7000000000000000e+00 8.2315998313184551e+00 1.0304451563573844e+01 1.2360661524719808e+01 0 0 -1

Velocities

14 0.0000000000000000e+00 0.0000000000000000e+00 0.0000000000000000e+00
147 0.0000000000000000e+00 0.0000000000000000e+00 0.0000000000000000e+00
148 0.0000000000000000e+00 0.0000000000000000e+00 0.0000000000000000e+00
145 0.0000000000000000e+00 0.0000000000000000e+00 0.0000000000000000e+00
146 0.0000000000000000e+00 0.0000000000000000e+00 0.0000000000000000e+00
40 0.0000000000000000e+00 0.0000000000000000e+00 0.0000000000000000e+00
109 0.0000000000000000e+00 0.0000000000000000e+00 0.0000000000000000e+00
110 0.0000000000000000e+00 0.0000000000000000e+00 0.0000000000000000e+00
111 0.0000000000000000e+00 0.0000000000000000e+00 0.0000000000000000e+00
112 0.0000000000000000e+00 0.0000000000000000e+00 0.0000000000000000e+00
4 0.0000000000000000e+00 0.0000000000000000e+00 0.0000000000000000e+00
50 0.0000000000000000e+00 0.0000000000000000e+00 0.0000000000000000e+00
160 0.0000000000000000e+00 0.0000000000000000e+00 0.0000000000000000e+00
158 0.0000000000000000e+00 0.0000000000000000e+00 0.0000000000000000e+00
122 0.0000000000000000e+00 0.0000000000000000e+00 0.0000000000000000e+00
124 0.0000000000000000e+00 0.0000000000000000e+00 0.0000000000000000e+00
2 0.0000000000000000e+00 0.0000000000000000e+00 0.0000000000000000e+00
38 0.0000000000000000e+00 0.0000000000000000e+00 0.0000000000000000e+00
1 0.0000000000000000e+00 0.0000000000000000e+00 0.0000000000000000e+00
51 0.0000000000000000e+00 0.0000000000000000e+00 0.0000000000000000e+00
3 0.0000000000000000e+00 0.0000000000000000e+00 0.0000000000000000e+00
39 0.0000000000000000e+00 0.0000000000000000e+00 0.0000000000000000e+00
37 0.0000000000000000e+00 0.0000000000000000e+00 0.0000000000000000e+00
15 0.0000000000000000e+00 0.0000000000000000e+00 0.0000000000000000e+00
5 0.0000000000000000e+00 0.0000000000000000e+00 0.0000000000000000e+00
149 0.0000000000000000e+00 0.0000000000000000e+00 0.0000000000000000e+00
150 0.0000000000000000e+00 0.0000000000000000e+00 0.0000000000000000e+00
113 0.0000000000000000e+00 0.0000000000000000e+00 0.0000000000000000e+00
114 0.0000000000000000e+00 0.0000000000000000e+00 0.0000000000000000e+00
19 0.0000000000000000e+00 0.0000000000000000e+00 0.0000000000000000e+00
152 0.0000000000000000e+00 0.0000000000000000e+00 0.0000000000000000e+00
151 0.0000000000000000e+00 0.0000000000000000e+00 0.0000000000000000e+00
115 0.0000000000000000e+00 0.0000000000000000e+00 0.0000000000000000e+00
116 0.0000000000000000e+00 0.0000000000000000e+00 0.0000000000000000e+00
41 0.0000000000000000e+00 0.0000000000000000e+00 0.0000000000000000e+00
126 0.0000000000000000e+00 0.0000000000000000e+00 0.0000000000000000e+00
128 0.0000000000000000e+00 0.0000000000000000e+00 0.0000000000000000e+00
7 0.0000000000000000e+00 0.0000000000000000e+00 0.0000000000000000e+00
43 0.0000000000000000e+00 0.0000000000000000e+00 0.0000000000000000e+00
44 0.0000000000000000e+00 0.0000000000000000e+00 0.0000000000000000e+00
6 0.0000000000000000e+00 0.0000000000000000e+00 0.0000000000000000e+00
18 0.0000000000000000e+00 0.0000000000000000e+00 0.0000000000000000e+00
42 0.0000000000000000e+00 0.0000000000000000e+00 0.0000000000000000e+00
8 0.0000000000000000e+00 0.0000000000000000e+00 0.0000000000000000e+00
54 0.0000000000000000e+00 0.0000000000000000e+00 0.0000000000000000e+00
154 0.0000000000000000e+00 0.0000000000000000e+00 0.0000000000000000e+00
153 0.0000000000000000e+00 0.0000000000000000e+00 0.0000000000000000e+00
9 0.0000000000000000e+00 0.0000000000000000e+00 0.0000000000000000e+00
59 0.0000000000000000e+00 0.0000000000000000e+00 0.0000000000000000e+00
11 0.0000000000000000e+00 0.0000000000000000e+00 0.0000000000000000e+00
47 0.0000000000000000e+00 0.0000000000000000e+00 0.0000000000000000e+00
118 0.0000000000000000e+00 0.0000000000000000e+00 0.0000000000000000e+00
117 0.0000000000000000e+00 0.0000000000000000e+00 0.0000000000000000e+00
23 0.0000000000000000e+00 0.0000000000000000e+00 0.0000000000000000e+00
45 0.0000000000000000e+00 0.0000000000000000e+00 0.0000000000000000e+00
130 0.0000000000000000e+00 0.0000000000000000e+00 0.0000000000000000e+00
165 0.0000000000000000e+00 0.0000000000000000e+00 0.0000000000000000e+00
155 0.0000000000000000e+00 0.0000000000000000e+00 0.0000000000000000e+00
156 0.0000000000000000e+00 0.0000000000000000e+00 0.0000000000000000e+00
48 0.0000000000000000e+00 0.0000000000000000e+00 0.0000000000000000e+00
119 0.0000000000000000e+00 0.0000000000000000e+00 0.0000000000000000e+00
120 0.0000000000000000e+00 0.0000000000000000e+00 0.0000000000000000e+00
22 0.0000000000000000e+00 0.0000000000000000e+00 0.0000000000000000e+00
132 0.0000000000000000e+00 0.0000000000000000e+00 0.0000000000000000e+00
46 0.0000000000000000e+00 0.0000000000000000e+00 0.0000000000000000e+00
10 0.0000000000000000e+00 0.0000000000000000e+00 0.0000000000000000e+00
12 0.0000000000000000e+00 0.0000000000000000e+00 0.0000000000000000e+00
58 0.0000000000000000e+00 0.0000000000000000e+00 0.0000000000000000e+00
167 0.0000000000000000e+00 0.0000000000000000e+00 0.0000000000000000e+00
136 0.0000000000000000e+00 0.0000000000000000e+00 0.0000000000000000e+00
159 0.0000000000000000e+00 0.0000000000000000e+00 0.0000000000000000e+00
16 0.0000000000000000e+00 0.0000000000000000e+00 0.0000000000000000e+00
157 0.0000000000000000e+00 0.0000000000000000e+00 0.0000000000000000e+00
134 0.0000000000000000e+00 0.0000000000000000e+00 0.0000000000000000e+00
52 0.0000000000000000e+00 0.0000000000000000e+00 0.0000000000000000e+00
121 0.0000000000000000e+00 0.0000000000000000e+00 0.0000000000000000e+00
171 0.0000000000000000e+00 0.0000000000000000e+00 0.0000000000000000e+00
123 0.0000000000000000e+00 0.0000000000000000e+00 0.0000000000000000e+00
26 0.0000000000000000e+00 0.0000000000000000e+00 0.0000000000000000e+00
49 0.0000000000000000e+00 0.0000000000000000e+00 0.0000000000000000e+00
13 0.0000000000000000e+00 0.0000000000000000e+00 0.0000000000000000e+00
17 0.0000000000000000e+00 0.0000000000000000e+00 0.0000000000000000e+00
161 0.0000000000000000e+00 0.0000000000000000e+00 0.0000000000000000e+00
162 0.0000000000000000e+00 0.0000000000000000e+00 0.0000000000000000e+00
125 0.0000000000000000e+00 0.0000000000000000e+00 0.0000000000000000e+00
53 0.0000000000000000e+00 0.0000000000000000e+00 0.0000000000000000e+00
138 0.0000000000000000e+00 0.0000000000000000e+00 0.0000000000000000e+00
173 0.0000000000000000e+00 0.0000000000000000e+00 0.0000000000000000e+00
163 0.0000000000000000e+00 0.0000000000000000e+00 0.0000000000000000e+00
127 0.0000000000000000e+00 0.0000000000000000e+00 0.0000000000000000e+00
175 0.0000000000000000e+00 0.0000000000000000e+00 0.0000000000000000e+00
67 0.0000000000000000e+00 0.0000000000000000e+00 0.0000000000000000e+00
55 0.0000000000000000e+00 0.0000000000000000e+00 0.0000000000000000e+00
20 0.0000000000000000e+00 0.0000000000000000e+00 0.0000000000000000e+00
56 0.0000000000000000e+00 0.0000000000000000e+00 0.0000000000000000e+00
71 0.0000000000000000e+00 0.0000000000000000e+00 0.0000000000000000e+00
164 0.0000000000000000e+00 0.0000000000000000e+00 0.0000000000000000e+00
21 0.0000000000000000e+00 0.0000000000000000e+00 0.0000000000000000e+00