# ['Ni']

107 atoms
1 atom types

    0.0000    10.5473 xlo xhi
    0.0000    10.5473 ylo yhi
    0.0000    10.5473 zlo zhi

    0.0000    -0.0000    -0.0000 xy xz yz

Atoms

1 1     1.7579     1.7579     0.0000
2 1     1.7579     0.0000     1.7579
3 1     0.0000     1.7579     1.7579
4 1     0.0000     0.0000     3.5158
5 1     1.7579     1.7579     3.5158
6 1     1.7579     0.0000     5.2737
7 1     0.0000     1.7579     5.2737
8 1     0.0000     0.0000     7.0316
9 1     1.7579     1.7579     7.0316
10 1     1.7579     0.0000     8.7894
11 1     0.0000     1.7579     8.7894
12 1     0.0000     3.5158     0.0000
13 1     1.7579     5.2737     0.0000
14 1     1.7579     3.5158     1.7579
15 1     0.0000     5.2737     1.7579
16 1     0.0000     3.5158     3.5158
17 1     1.7579     5.2737     3.5158
18 1     1.7579     3.5158     5.2737
19 1     0.0000     5.2737     5.2737
20 1     0.0000     3.5158     7.0316
21 1     1.7579     5.2737     7.0316
22 1     1.7579     3.5158     8.7894
23 1     0.0000     5.2737     8.7894
24 1     0.0000     7.0316     0.0000
25 1     1.7579     8.7894     0.0000
26 1     1.7579     7.0316     1.7579
27 1     0.0000     8.7894     1.7579
28 1     0.0000     7.0316     3.5158
29 1     1.7579     8.7894     3.5158
30 1     1.7579     7.0316     5.2737
31 1     0.0000     8.7894     5.2737
32 1     0.0000     7.0316     7.0316
33 1     1.7579     8.7894     7.0316
34 1     1.7579     7.0316     8.7894
35 1     0.0000     8.7894     8.7894
36 1     3.5158     0.0000     0.0000
37 1     5.2737     1.7579     0.0000
38 1     5.2737     0.0000     1.7579
39 1     3.5158     1.7579     1.7579
40 1     3.5158     0.0000     3.5158
41 1     5.2737     1.7579     3.5158
42 1     5.2737     0.0000     5.2737
43 1     3.5158     1.7579     5.2737
44 1     3.5158     0.0000     7.0316
45 1     5.2737     1.7579     7.0316
46 1     5.2737     0.0000     8.7894
47 1     3.5158     1.7579     8.7894
48 1     3.5158     3.5158     0.0000
49 1     5.2737     5.2737     0.0000
50 1     5.2737     3.5158     1.7579
51 1     3.5158     5.2737     1.7579
52 1     3.5158     3.5158     3.5158
53 1     5.2737     5.2737     3.5158
54 1     5.2737     3.5158     5.2737
55 1     3.5158     5.2737     5.2737
56 1     3.5158     3.5158     7.0316
57 1     5.2737     5.2737     7.0316
58 1     5.2737     3.5158     8.7894
59 1     3.5158     5.2737     8.7894
60 1     3.5158     7.0316     0.0000
61 1     5.2737     8.7894     0.0000
62 1     5.2737     7.0316     1.7579
63 1     3.5158     8.7894     1.7579
64 1     3.5158     7.0316     3.5158
65 1     5.2737     8.7894     3.5158
66 1     5.2737     7.0316     5.2737
67 1     3.5158     8.7894     5.2737
68 1     3.5158     7.0316     7.0316
69 1     5.2737     8.7894     7.0316
70 1     5.2737     7.0316     8.7894
71 1     3.5158     8.7894     8.7894
72 1     7.0316     0.0000     0.0000
73 1     8.7894     1.7579     0.0000
74 1     8.7894     0.0000     1.7579
75 1     7.0316     1.7579     1.7579
76 1     7.0316     0.0000     3.5158
77 1     8.7894     1.7579     3.5158
78 1     8.7894     0.0000     5.2737
79 1     7.0316     1.7579     5.2737
80 1     7.0316     0.0000     7.0316
81 1     8.7894     1.7579     7.0316
82 1     8.7894     0.0000     8.7894
83 1     7.0316     1.7579     8.7894
84 1     7.0316     3.5158     0.0000
85 1     8.7894     5.2737     0.0000
86 1     8.7894     3.5158     1.7579
87 1     7.0316     5.2737     1.7579
88 1     7.0316     3.5158     3.5158
89 1     8.7894     5.2737     3.5158
90 1     8.7894     3.5158     5.2737
91 1     7.0316     5.2737     5.2737
92 1     7.0316     3.5158     7.0316
93 1     8.7894     5.2737     7.0316
94 1     8.7894     3.5158     8.7894
95 1     7.0316     5.2737     8.7894
96 1     7.0316     7.0316     0.0000
97 1     8.7894     8.7894     0.0000
98 1     8.7894     7.0316     1.7579
99 1     7.0316     8.7894     1.7579
100 1     7.0316     7.0316     3.5158
101 1     8.7894     8.7894     3.5158
102 1     8.7894     7.0316     5.2737
103 1     7.0316     8.7894     5.2737
104 1     7.0316     7.0316     7.0316
105 1     8.7894     8.7894     7.0316
106 1     8.7894     7.0316     8.7894
107 1     7.0316     8.7894     8.7894
