LAMMPS (11 Aug 2017)
Reading data file ...
  triclinic box = (0 0 0) to (3.5167 3.5167 3.5167) with tilt (0 -0 0)
  1 by 1 by 1 MPI processor grid
  reading atoms ...
  4 atoms
4 atoms in group Ni
Neighbor list info ...
  update every 1 steps, delay 0 steps, check yes
  max neighbors/atom: 2000, page size: 100000
  master list distance cutoff = 5.64464
  ghost atom cutoff = 5.64464
  binsize = 2.82232, bins = 2 2 2
  1 neighbor lists, perpetual/occasional/extra = 1 0 0
  (1) pair eam/alloy, perpetual
      attributes: half, newton on
      pair build: half/bin/newton/tri
      stencil: half/bin/3d/newton/tri
      bin: standard
Setting up cg style minimization ...
  Unit style    : metal
  Current step  : 0
WARNING: Energy due to 3 extra global DOFs will be included in minimizer energies
Per MPI rank memory allocation (min/avg/max) = 4.211 | 4.211 | 4.211 Mbytes
Step PotEng Xhi Xlo Yhi Ylo Zhi Xy Xz Yz Press Pxx Pyy Pzz Pxy Pxz Pyz c_eatoms 
       0   -17.842674       3.5167            0       3.5167            0       3.5167            0           -0            0    5764.6273    5764.6273    5764.6273    5764.6273 7.0295469e-13 8.3076464e-13 1.5976243e-12   -17.842674 
      10   -17.842865     3.518186 -0.0014859999     3.518186 -0.0014859999     3.518186            0           -0            0    -6.788728    -6.788728    -6.788728    -6.788728 -4.4620258e-13 -1.402351e-12 -1.9122968e-12   -17.842865 
      12   -17.842865     3.518185 -0.0014850414     3.518185 -0.0014850414     3.518185            0           -0            0    9.3678273    9.3678273    9.3678273    9.3678273 3.2515472e-10 3.2808692e-10 2.4445567e-10   -17.842865 
Loop time of 0.000972033 on 1 procs for 12 steps with 4 atoms

99.6% CPU use with 1 MPI tasks x no OpenMP threads

Minimization stats:
  Stopping criterion = linesearch alpha is zero
  Energy initial, next-to-last, final = 
        -17.8426738289     -17.8428645963     -17.8428645963
  Force two-norm initial, final = 0.271132 0.000441195
  Force max component initial, final = 0.156483 0.000254723
  Final line search alpha, max atom move = 0.0625 1.59202e-05
  Iterations, force evaluations = 12 58

MPI task timing breakdown:
Section |  min time  |  avg time  |  max time  |%varavg| %total
---------------------------------------------------------------
Pair    | 0.00052667 | 0.00052667 | 0.00052667 |   0.0 | 54.18
Neigh   | 0          | 0          | 0          |   0.0 |  0.00
Comm    | 0.00010085 | 0.00010085 | 0.00010085 |   0.0 | 10.38
Output  | 1.2875e-05 | 1.2875e-05 | 1.2875e-05 |   0.0 |  1.32
Modify  | 0          | 0          | 0          |   0.0 |  0.00
Other   |            | 0.0003316  |            |       | 34.12

Nlocal:    4 ave 4 max 4 min
Histogram: 1 0 0 0 0 0 0 0 0 0
Nghost:    360 ave 360 max 360 min
Histogram: 1 0 0 0 0 0 0 0 0 0
Neighs:    156 ave 156 max 156 min
Histogram: 1 0 0 0 0 0 0 0 0 0

Total # of neighbors = 156
Ave neighs/atom = 39
Neighbor list builds = 0
Dangerous builds = 0
pypospack:output_section:begin
tot_energy = -17.8428645962664
num_atoms = 4
a11 = 3.51967008270293
a22 = 3.51967008270293
a33 = 3.51967008270293
a12 = 0
a13 = -0
a23 = 0
tot_press = 9.36782729809412
pxx = 9.3678272983162
pyy = 9.36782729774264
pzz = 9.36782729822352
pxy = 3.25154723060797e-10
pxz = 3.28086916211316e-10
pyz = 2.4445566809217e-10
pypospack:output_section:done
pypospack:lammps_sim:done
Total wall time: 0:00:00
