# ['Ni']

28 atoms
1 atom types

    0.0000     2.3421 xlo xhi
    0.0000     4.0567 ylo yhi
    0.0000    26.7729 zlo zhi

    0.0000     0.0000     0.0000 xy xz yz

Atoms

1 1     0.0000     0.0000     0.0000
2 1     1.1711     2.0284     0.0000
3 1     1.1711     0.6761     1.9124
4 1     0.0000     2.7045     1.9124
5 1     0.0000     1.3522     3.8247
6 1     1.1711     3.3806     3.8247
7 1     0.0000     0.0000     5.7371
8 1     1.1711     2.0284     5.7371
9 1     1.1711     0.6761     7.6494
10 1     0.0000     2.7045     7.6494
11 1     0.0000     1.3522     9.5617
12 1     1.1711     3.3806     9.5617
13 1     0.0000     0.0000    11.4741
14 1     1.1711     2.0284    11.4741
15 1     0.0000     1.3522    13.3864
16 1     1.1711     3.3806    13.3864
17 1     0.0000     0.0000    15.2988
18 1     1.1711     2.0284    15.2988
19 1     1.1711     0.6761    17.2111
20 1     0.0000     2.7045    17.2111
21 1     0.0000     1.3522    19.1235
22 1     1.1711     3.3806    19.1235
23 1     0.0000     0.0000    21.0358
24 1     1.1711     2.0284    21.0358
25 1     1.1711     0.6761    22.9482
26 1     0.0000     2.7045    22.9482
27 1     0.0000     1.3522    24.8605
28 1     1.1711     3.3806    24.8605
