# ['Al']

28 atoms
1 atom types

    0.0000     2.6401 xlo xhi
    0.0000     4.5727 ylo yhi
    0.0000    30.1783 zlo zhi

    0.0000     0.0000     0.0000 xy xz yz

Atoms

1 1     0.0000     0.0000     0.0000
2 1     1.3200     2.2864     0.0000
3 1     1.3200     0.7621     2.1556
4 1     0.0000     3.0485     2.1556
5 1     0.0000     1.5242     4.3112
6 1     1.3200     3.8106     4.3112
7 1     0.0000     0.0000     6.4668
8 1     1.3200     2.2864     6.4668
9 1     1.3200     0.7621     8.6224
10 1     0.0000     3.0485     8.6224
11 1     0.0000     1.5242    10.7780
12 1     1.3200     3.8106    10.7780
13 1     0.0000     0.0000    12.9335
14 1     1.3200     2.2864    12.9335
15 1     0.0000     1.5242    15.0891
16 1     1.3200     3.8106    15.0891
17 1     0.0000     0.0000    17.2448
18 1     1.3200     2.2864    17.2448
19 1     1.3200     0.7621    19.4003
20 1     0.0000     3.0485    19.4003
21 1     0.0000     1.5242    21.5559
22 1     1.3200     3.8106    21.5559
23 1     0.0000     0.0000    23.7115
24 1     1.3200     2.2864    23.7115
25 1     1.3200     0.7621    25.8671
26 1     0.0000     3.0485    25.8671
27 1     0.0000     1.5242    28.0227
28 1     1.3200     3.8106    28.0227
