LAMMPS (11 Aug 2017)
Reading data file ...
  triclinic box = (0 0 0) to (11.0992 11.0992 11.0992) with tilt (0 -0 -0)
  1 by 1 by 1 MPI processor grid
  reading atoms ...
  107 atoms
107 atoms in group Ni
Neighbor list info ...
  update every 1 steps, delay 0 steps, check yes
  max neighbors/atom: 2000, page size: 100000
  master list distance cutoff = 5.64464
  ghost atom cutoff = 5.64464
  binsize = 2.82232, bins = 4 4 4
  1 neighbor lists, perpetual/occasional/extra = 1 0 0
  (1) pair eam/alloy, perpetual
      attributes: half, newton on
      pair build: half/bin/newton/tri
      stencil: half/bin/3d/newton/tri
      bin: standard
Setting up cg style minimization ...
  Unit style    : metal
  Current step  : 0
Per MPI rank memory allocation (min/avg/max) = 4.229 | 4.229 | 4.229 Mbytes
Step PotEng Lx Ly Lz Xy Xz Yz Press Pxx Pyy Pzz Pxy Pxz Pyz c_eatoms 
       0   -287.55113      11.0992      11.0992      11.0992            0           -0           -0   -1699.8387   -1699.8387   -1699.8387   -1699.8387 -2.1185312e-07 -2.1185425e-07 -2.1185825e-07   -287.55113 
       1   -287.56649      11.0992      11.0992      11.0992            0           -0           -0   -2108.0614   -2108.0614   -2108.0614   -2108.0614 -3.7659147e-05 -3.7659145e-05 -3.765915e-05   -287.56649 
       2   -287.56973      11.0992      11.0992      11.0992            0           -0           -0   -2153.7647   -2153.7647   -2153.7647   -2153.7647 -5.2003815e-05 -5.2003807e-05 -5.2003807e-05   -287.56973 
       3   -287.57025      11.0992      11.0992      11.0992            0           -0           -0   -2184.7409   -2184.7409   -2184.7409   -2184.7409 -7.0718434e-05 -7.0718421e-05 -7.0718425e-05   -287.57025 
       4   -287.57029      11.0992      11.0992      11.0992            0           -0           -0   -2189.4427   -2189.4427   -2189.4427   -2189.4427 -3.6563839e-05 -3.6563848e-05 -3.656385e-05   -287.57029 
       5    -287.5703      11.0992      11.0992      11.0992            0           -0           -0   -2187.2029   -2187.2029   -2187.2029   -2187.2029 -2.6447008e-05 -2.6447009e-05 -2.6447001e-05    -287.5703 
       6    -287.5703      11.0992      11.0992      11.0992            0           -0           -0   -2186.5299   -2186.5299   -2186.5299   -2186.5299 -1.9951873e-05 -1.9951871e-05 -1.995188e-05    -287.5703 
       7    -287.5703      11.0992      11.0992      11.0992            0           -0           -0   -2186.6256   -2186.6256   -2186.6256   -2186.6256 -1.0149048e-05 -1.014906e-05 -1.0149062e-05    -287.5703 
       8    -287.5703      11.0992      11.0992      11.0992            0           -0           -0   -2186.6003   -2186.6003   -2186.6003   -2186.6003 -4.3232443e-06 -4.3232454e-06 -4.3232406e-06    -287.5703 
       9    -287.5703      11.0992      11.0992      11.0992            0           -0           -0   -2186.5065   -2186.5065   -2186.5065   -2186.5065 -2.7858728e-06 -2.7858752e-06 -2.7858707e-06    -287.5703 
      10    -287.5703      11.0992      11.0992      11.0992            0           -0           -0   -2186.5024   -2186.5024   -2186.5024   -2186.5024 -1.7206024e-06 -1.7206147e-06 -1.7206045e-06    -287.5703 
      11    -287.5703      11.0992      11.0992      11.0992            0           -0           -0   -2186.5005   -2186.5005   -2186.5005   -2186.5005 -1.3178936e-06 -1.3178933e-06 -1.3178937e-06    -287.5703 
      12    -287.5703      11.0992      11.0992      11.0992            0           -0           -0   -2186.4995   -2186.4995   -2186.4995   -2186.4995 -1.0360405e-06 -1.0360496e-06 -1.0360466e-06    -287.5703 
      13    -287.5703      11.0992      11.0992      11.0992            0           -0           -0   -2186.4993   -2186.4993   -2186.4993   -2186.4993 -7.5317052e-07 -7.5317359e-07 -7.5316846e-07    -287.5703 
      14    -287.5703      11.0992      11.0992      11.0992            0           -0           -0   -2186.4995   -2186.4995   -2186.4995   -2186.4995 -4.885739e-07 -4.8857743e-07 -4.8859341e-07    -287.5703 
      15    -287.5703      11.0992      11.0992      11.0992            0           -0           -0   -2186.4997   -2186.4997   -2186.4997   -2186.4997 -1.0763904e-07 -1.0765062e-07 -1.0763706e-07    -287.5703 
      16    -287.5703      11.0992      11.0992      11.0992            0           -0           -0   -2186.4997   -2186.4997   -2186.4997   -2186.4997 6.9175314e-08 6.9184238e-08 6.9181506e-08    -287.5703 
      17    -287.5703      11.0992      11.0992      11.0992            0           -0           -0   -2186.4997   -2186.4997   -2186.4997   -2186.4997 1.0468069e-07 1.0467314e-07 1.0468413e-07    -287.5703 
      18    -287.5703      11.0992      11.0992      11.0992            0           -0           -0   -2186.4996   -2186.4996   -2186.4996   -2186.4996 9.2654241e-08 9.2654396e-08 9.2654095e-08    -287.5703 
      19    -287.5703      11.0992      11.0992      11.0992            0           -0           -0   -2186.4996   -2186.4996   -2186.4996   -2186.4996 6.9480372e-08 6.9485869e-08 6.9472868e-08    -287.5703 
      20    -287.5703      11.0992      11.0992      11.0992            0           -0           -0   -2186.4996   -2186.4996   -2186.4996   -2186.4996 4.0593726e-08 4.0602621e-08 4.0594872e-08    -287.5703 
      21    -287.5703      11.0992      11.0992      11.0992            0           -0           -0   -2186.4996   -2186.4996   -2186.4996   -2186.4996 1.568136e-08 1.5675656e-08 1.5682258e-08    -287.5703 
      22    -287.5703      11.0992      11.0992      11.0992            0           -0           -0   -2186.4996   -2186.4996   -2186.4996   -2186.4996 1.1578033e-08 1.1578046e-08 1.1589388e-08    -287.5703 
      23    -287.5703      11.0992      11.0992      11.0992            0           -0           -0   -2186.4996   -2186.4996   -2186.4996   -2186.4996 7.431582e-09 7.4222886e-09 7.4308136e-09    -287.5703 
      24    -287.5703      11.0992      11.0992      11.0992            0           -0           -0   -2186.4996   -2186.4996   -2186.4996   -2186.4996 5.0105735e-09 5.0045528e-09 5.0104231e-09    -287.5703 
      25    -287.5703      11.0992      11.0992      11.0992            0           -0           -0   -2186.4996   -2186.4996   -2186.4996   -2186.4996 2.3874451e-09 2.3754808e-09 2.3818146e-09    -287.5703 
      26    -287.5703      11.0992      11.0992      11.0992            0           -0           -0   -2186.4996   -2186.4996   -2186.4996   -2186.4996 1.4947723e-09 1.4840114e-09 1.4831983e-09    -287.5703 
      27    -287.5703      11.0992      11.0992      11.0992            0           -0           -0   -2186.4996   -2186.4996   -2186.4996   -2186.4996 7.2445362e-10 7.2787256e-10 7.2799452e-10    -287.5703 
      28    -287.5703      11.0992      11.0992      11.0992            0           -0           -0   -2186.4996   -2186.4996   -2186.4996   -2186.4996 4.8109903e-10 4.7126907e-10 4.748181e-10    -287.5703 
      29    -287.5703      11.0992      11.0992      11.0992            0           -0           -0   -2186.4996   -2186.4996   -2186.4996   -2186.4996 3.5609833e-10 3.5937498e-10 3.6724546e-10    -287.5703 
      30    -287.5703      11.0992      11.0992      11.0992            0           -0           -0   -2186.4996   -2186.4996   -2186.4996   -2186.4996 2.6058345e-10 2.5757511e-10 2.5840444e-10    -287.5703 
      31    -287.5703      11.0992      11.0992      11.0992            0           -0           -0   -2186.4996   -2186.4996   -2186.4996   -2186.4996 2.0341681e-10 2.138769e-10 2.0747401e-10    -287.5703 
      32    -287.5703      11.0992      11.0992      11.0992            0           -0           -0   -2186.4996   -2186.4996   -2186.4996   -2186.4996 1.6785739e-10 1.692396e-10 1.633774e-10    -287.5703 
      33    -287.5703      11.0992      11.0992      11.0992            0           -0           -0   -2186.4996   -2186.4996   -2186.4996   -2186.4996 8.9042876e-11 8.939656e-11 9.2762651e-11    -287.5703 
      34    -287.5703      11.0992      11.0992      11.0992            0           -0           -0   -2186.4996   -2186.4996   -2186.4996   -2186.4996 5.7674807e-11 5.9605837e-11 4.8682301e-11    -287.5703 
      35    -287.5703      11.0992      11.0992      11.0992            0           -0           -0   -2186.4996   -2186.4996   -2186.4996   -2186.4996 1.8151689e-11 1.7139422e-11 1.2935873e-11    -287.5703 
      36    -287.5703      11.0992      11.0992      11.0992            0           -0           -0   -2186.4996   -2186.4996   -2186.4996   -2186.4996 -3.5815539e-12 7.4802033e-13 -6.6671377e-13    -287.5703 
      37    -287.5703      11.0992      11.0992      11.0992            0           -0           -0   -2186.4996   -2186.4996   -2186.4996   -2186.4996 -4.0815892e-12 -7.0167559e-12 4.2767249e-12    -287.5703 
      38    -287.5703      11.0992      11.0992      11.0992            0           -0           -0   -2186.4996   -2186.4996   -2186.4996   -2186.4996 1.0008837e-11 -6.9110574e-14 -8.4030327e-12    -287.5703 
      39    -287.5703      11.0992      11.0992      11.0992            0           -0           -0   -2186.4996   -2186.4996   -2186.4996   -2186.4996 -7.6062284e-12 2.9107748e-12 9.5128672e-12    -287.5703 
      40    -287.5703      11.0992      11.0992      11.0992            0           -0           -0   -2186.4996   -2186.4996   -2186.4996   -2186.4996 -4.6304084e-12 1.8903775e-12 -1.7846789e-12    -287.5703 
      41    -287.5703      11.0992      11.0992      11.0992            0           -0           -0   -2186.4996   -2186.4996   -2186.4996   -2186.4996 2.9107748e-12 1.2061828e-11 6.0573385e-13    -287.5703 
Loop time of 0.080107 on 1 procs for 41 steps with 107 atoms

21.9% CPU use with 1 MPI tasks x no OpenMP threads

Minimization stats:
  Stopping criterion = energy tolerance
  Energy initial, next-to-last, final = 
        -287.551129528     -287.570298449     -287.570298449
  Force two-norm initial, final = 0.315514 2.73849e-14
  Force max component initial, final = 0.0582797 5.16254e-15
  Final line search alpha, max atom move = 1 5.16254e-15
  Iterations, force evaluations = 41 82

MPI task timing breakdown:
Section |  min time  |  avg time  |  max time  |%varavg| %total
---------------------------------------------------------------
Pair    | 0.04193    | 0.04193    | 0.04193    |   0.0 | 52.34
Neigh   | 0          | 0          | 0          |   0.0 |  0.00
Comm    | 0.00041819 | 0.00041819 | 0.00041819 |   0.0 |  0.52
Output  | 0.037439   | 0.037439   | 0.037439   |   0.0 | 46.74
Modify  | 0          | 0          | 0          |   0.0 |  0.00
Other   |            | 0.0003202  |            |       |  0.40

Nlocal:    107 ave 107 max 107 min
Histogram: 1 0 0 0 0 0 0 0 0 0
Nghost:    983 ave 983 max 983 min
Histogram: 1 0 0 0 0 0 0 0 0 0
Neighs:    2862 ave 2862 max 2862 min
Histogram: 1 0 0 0 0 0 0 0 0 0

Total # of neighbors = 2862
Ave neighs/atom = 26.7477
Neighbor list builds = 0
Dangerous builds = 0
pypospack:output_section:begin
tot_energy = -287.570298448986
num_atoms = 107
a11 = 11.0992
a22 = 11.0992
a33 = 11.0992
a12 = 0
a13 = -0
a23 = -0
tot_press = -2186.49961582407
pxx = -2186.49961582407
pyy = -2186.49961582408
pzz = -2186.49961582407
pxy = 2.91077475560861e-12
pxz = 1.20618277931435e-11
pyz = 6.057338527733e-13
pypospack:output_section:done
pypospack:lammps_sim:done
Total wall time: 0:00:00
