# ['Ni']

107 atoms
1 atom types

    0.0000    10.5530 xlo xhi
    0.0000    10.5530 ylo yhi
    0.0000    10.5530 zlo zhi

    0.0000    -0.0000    -0.0000 xy xz yz

Atoms

1 1     1.7588     1.7588     0.0000
2 1     1.7588     0.0000     1.7588
3 1     0.0000     1.7588     1.7588
4 1     0.0000     0.0000     3.5177
5 1     1.7588     1.7588     3.5177
6 1     1.7588     0.0000     5.2765
7 1     0.0000     1.7588     5.2765
8 1     0.0000     0.0000     7.0353
9 1     1.7588     1.7588     7.0353
10 1     1.7588     0.0000     8.7941
11 1     0.0000     1.7588     8.7941
12 1     0.0000     3.5177     0.0000
13 1     1.7588     5.2765     0.0000
14 1     1.7588     3.5177     1.7588
15 1     0.0000     5.2765     1.7588
16 1     0.0000     3.5177     3.5177
17 1     1.7588     5.2765     3.5177
18 1     1.7588     3.5177     5.2765
19 1     0.0000     5.2765     5.2765
20 1     0.0000     3.5177     7.0353
21 1     1.7588     5.2765     7.0353
22 1     1.7588     3.5177     8.7941
23 1     0.0000     5.2765     8.7941
24 1     0.0000     7.0353     0.0000
25 1     1.7588     8.7941     0.0000
26 1     1.7588     7.0353     1.7588
27 1     0.0000     8.7941     1.7588
28 1     0.0000     7.0353     3.5177
29 1     1.7588     8.7941     3.5177
30 1     1.7588     7.0353     5.2765
31 1     0.0000     8.7941     5.2765
32 1     0.0000     7.0353     7.0353
33 1     1.7588     8.7941     7.0353
34 1     1.7588     7.0353     8.7941
35 1     0.0000     8.7941     8.7941
36 1     3.5177     0.0000     0.0000
37 1     5.2765     1.7588     0.0000
38 1     5.2765     0.0000     1.7588
39 1     3.5177     1.7588     1.7588
40 1     3.5177     0.0000     3.5177
41 1     5.2765     1.7588     3.5177
42 1     5.2765     0.0000     5.2765
43 1     3.5177     1.7588     5.2765
44 1     3.5177     0.0000     7.0353
45 1     5.2765     1.7588     7.0353
46 1     5.2765     0.0000     8.7941
47 1     3.5177     1.7588     8.7941
48 1     3.5177     3.5177     0.0000
49 1     5.2765     5.2765     0.0000
50 1     5.2765     3.5177     1.7588
51 1     3.5177     5.2765     1.7588
52 1     3.5177     3.5177     3.5177
53 1     5.2765     5.2765     3.5177
54 1     5.2765     3.5177     5.2765
55 1     3.5177     5.2765     5.2765
56 1     3.5177     3.5177     7.0353
57 1     5.2765     5.2765     7.0353
58 1     5.2765     3.5177     8.7941
59 1     3.5177     5.2765     8.7941
60 1     3.5177     7.0353     0.0000
61 1     5.2765     8.7941     0.0000
62 1     5.2765     7.0353     1.7588
63 1     3.5177     8.7941     1.7588
64 1     3.5177     7.0353     3.5177
65 1     5.2765     8.7941     3.5177
66 1     5.2765     7.0353     5.2765
67 1     3.5177     8.7941     5.2765
68 1     3.5177     7.0353     7.0353
69 1     5.2765     8.7941     7.0353
70 1     5.2765     7.0353     8.7941
71 1     3.5177     8.7941     8.7941
72 1     7.0353     0.0000     0.0000
73 1     8.7941     1.7588     0.0000
74 1     8.7941     0.0000     1.7588
75 1     7.0353     1.7588     1.7588
76 1     7.0353     0.0000     3.5177
77 1     8.7941     1.7588     3.5177
78 1     8.7941     0.0000     5.2765
79 1     7.0353     1.7588     5.2765
80 1     7.0353     0.0000     7.0353
81 1     8.7941     1.7588     7.0353
82 1     8.7941     0.0000     8.7941
83 1     7.0353     1.7588     8.7941
84 1     7.0353     3.5177     0.0000
85 1     8.7941     5.2765     0.0000
86 1     8.7941     3.5177     1.7588
87 1     7.0353     5.2765     1.7588
88 1     7.0353     3.5177     3.5177
89 1     8.7941     5.2765     3.5177
90 1     8.7941     3.5177     5.2765
91 1     7.0353     5.2765     5.2765
92 1     7.0353     3.5177     7.0353
93 1     8.7941     5.2765     7.0353
94 1     8.7941     3.5177     8.7941
95 1     7.0353     5.2765     8.7941
96 1     7.0353     7.0353     0.0000
97 1     8.7941     8.7941     0.0000
98 1     8.7941     7.0353     1.7588
99 1     7.0353     8.7941     1.7588
100 1     7.0353     7.0353     3.5177
101 1     8.7941     8.7941     3.5177
102 1     8.7941     7.0353     5.2765
103 1     7.0353     8.7941     5.2765
104 1     7.0353     7.0353     7.0353
105 1     8.7941     8.7941     7.0353
106 1     8.7941     7.0353     8.7941
107 1     7.0353     8.7941     8.7941
