# ['Ni']

10 atoms
1 atom types

    0.0000     3.2472 xlo xhi
    0.0000     2.3245 ylo yhi
    0.0000    23.2450 zlo zhi

    0.0000     0.0000     0.0000 xy xz yz

Atoms

1 1     0.0000     0.0000     0.0000
2 1     1.6236     1.1623     1.1623
3 1     0.0000     0.0000     2.3245
4 1     1.6236     1.1623     3.4868
5 1     0.0000     0.0000     4.6490
6 1     1.6236     1.1623     5.8113
7 1     0.0000     0.0000     6.9735
8 1     1.6236     1.1623     8.1358
9 1     0.0000     0.0000     9.2980
10 1     1.6236     1.1623    10.4603
