    2    2    1    2
  0.1090254E+02  0.2793739E-09  0.2793739E-09  0.2793739E-09  0.5000000E-15
  1.000000000000000E-004
  CAR 
 automatically generated by pyflamestk   
     20      4     16
 
  0.1250000E+00  0.1250000E+00  0.1250000E+00  0.1250000E+00
    1        1.296940      1.277312   1.000000   1.000000
    2        5.420526      5.721412   1.000000   1.000000
    3        5.420526      5.721412   1.000000   1.000000
    4        6.799010      7.374116   1.000000   1.000000
    5        6.799010      7.374116   1.000000   1.000000
    6        7.467982      8.072737   1.000000   1.000000
    7        7.951687      8.546757   1.000000   1.000003
    8        8.319156      8.777275   1.000000   1.001681
    9        8.319156      8.777275   1.000000   1.001681
   10        8.803529      9.451473   1.002884  -0.019979
   11        8.803529      9.451473   1.002884  -0.019979
   12       17.522509     17.614006   0.000000   0.000000
   13       17.522509     17.614006   0.000000   0.000000
   14       18.523062     18.624286   0.000000   0.000000
   15       27.828938     27.869651   0.000000   0.000000
   16       27.828938     27.869651   0.000000   0.000000
 
  0.3750000E+00  0.1250000E+00  0.1250000E+00  0.3750000E+00
    1        3.477111      3.492889   1.000000   1.000000
    2        5.542784      5.763341   1.000000   1.000000
    3        6.091823      6.443250   1.000000   1.000000
    4        6.648378      7.141432   1.000000   1.000000
    5        6.712447      7.262450   1.000000   1.000000
    6        7.069631      7.610297   1.000000   1.000000
    7        7.839686      8.325502   1.000000   1.000000
    8        7.917007      8.495110   1.000000   1.000000
    9        8.235895      8.846841   1.000000   1.006403
   10        8.697770      9.200951   1.000257   0.738960
   11        8.740391      9.325636   1.000735   0.238898
   12       11.499546     11.755744  -0.000000  -0.000000
   13       20.648702     20.773775   0.000000   0.000000
   14       21.148926     21.265851   0.000000   0.000000
   15       25.283294     25.358552   0.000000   0.000000
   16       26.044955     26.135720   0.000000   0.000000
 
  0.3750000E+00  0.3750000E+00  0.1250000E+00  0.3750000E+00
    1        4.584290      4.782785   1.000000   1.000000
    2        5.184280      5.522847   1.000000   1.000000
    3        6.142362      6.678998   1.000000   1.000000
    4        6.290272      6.816514   1.000000   1.000000
    5        7.077321      7.376640   1.000000   1.000000
    6        7.184850      7.505670   1.000000   1.000000
    7        8.138348      8.655477   1.000000   1.000082
    8        8.283982      8.790807   1.000000   1.002231
    9        8.505233      8.974601   1.000001   1.030703
   10        8.876782      9.473982   1.010352  -0.030876
   11        9.543319     10.087961  -0.031190  -0.000000
   12       12.089644     12.290066  -0.000000  -0.000000
   13       15.930766     16.196544   0.000000   0.000000
   14       19.163955     19.333309   0.000000   0.000000
   15       23.085843     23.172330   0.000000   0.000000
   16       26.891707     26.901552   0.000000   0.000000
 
  0.3750000E+00  0.3750000E+00  0.3750000E+00  0.1250000E+00
    1        5.700820      6.174256   1.000000   1.000000
    2        5.943715      6.206119   1.000000   1.000000
    3        6.024594      6.501540   1.000000   1.000000
    4        6.024594      6.501540   1.000000   1.000000
    5        6.346466      6.738555   1.000000   1.000000
    6        6.346466      6.738555   1.000000   1.000000
    7        8.491214      8.978220   1.000000   1.031403
    8        8.491214      8.978220   1.000000   1.031403
    9        8.498634      8.995736   1.000001   1.034176
   10        8.498634      8.995736   1.000001   1.034176
   11       12.015649     12.399262  -0.000000  -0.000000
   12       15.707470     15.904373   0.000000   0.000000
   13       15.707470     15.904373   0.000000   0.000000
   14       17.949757     18.126285   0.000000   0.000000
   15       20.751012     20.872719   0.000000   0.000000
   16       20.751012     20.872719   0.000000   0.000000
