 running on   16 total cores
 distrk:  each k-point on   16 cores,    1 groups
 distr:  one band on    1 cores,   16 groups
 using from now: INCAR     
 vasp.5.4.1 24Jun15 (build Jun 05 2017 10:38:15) complex                        
  
 POSCAR found type information on POSCAR  Ni
 POSCAR found :  1 types and       2 ions
 scaLAPACK will be used

 ----------------------------------------------------------------------------- 
|                                                                             |
|           W    W    AA    RRRRR   N    N  II  N    N   GGGG   !!!           |
|           W    W   A  A   R    R  NN   N  II  NN   N  G    G  !!!           |
|           W    W  A    A  R    R  N N  N  II  N N  N  G       !!!           |
|           W WW W  AAAAAA  RRRRR   N  N N  II  N  N N  G  GGG   !            |
|           WW  WW  A    A  R   R   N   NN  II  N   NN  G    G                |
|           W    W  A    A  R    R  N    N  II  N    N   GGGG   !!!           |
|                                                                             |
|      For optimal performance we recommend to set                            |
|        NCORE= 4 - approx SQRT( number of cores)                             |
|      NCORE specifies how many cores store one orbital (NPAR=cpu/NCORE).     |
|      This setting can  greatly improve the performance of VASP for DFT.     |
|      The default, NPAR=number of cores might be grossly inefficient         |
|      on modern multi-core architectures or massively parallel machines.     |
|      Do your own testing !!!!                                               |
|      Unfortunately you need to use the default for GW and RPA calculations. |
|      (for HF NCORE is supported but not extensively tested yet)             |
|                                                                             |
 ----------------------------------------------------------------------------- 

 LDA part: xc-table for Pade appr. of Perdew
 POSCAR, INCAR and KPOINTS ok, starting setup
 FFT: planning ...
 WAVECAR not read
 initial charge from wavefunction
 entering main loop
       N       E                     dE             d eps       ncg     rms          rms(c)
DAV:   1    -0.473703349216E+03   -0.47370E+03   -0.14661E+04   256   0.203E+03
DAV:   2    -0.479684488171E+03   -0.59811E+01   -0.60353E+01   448   0.729E+01
DAV:   3    -0.479690611598E+03   -0.61234E-02   -0.61232E-02   256   0.294E+00
DAV:   4    -0.479690687431E+03   -0.75833E-04   -0.75835E-04   432   0.249E-01
DAV:   5    -0.479690687891E+03   -0.46083E-06   -0.46025E-06   256   0.123E-02    0.957E+01
DAV:   6    -0.605485475627E+02    0.41914E+03   -0.32582E+02   384   0.166E+02    0.488E+01
DAV:   7    -0.143326034599E+03   -0.82777E+02   -0.22664E+03   256   0.344E+02    0.791E+01
DAV:   8    -0.268944633662E+02    0.11643E+03   -0.16544E+03   256   0.551E+02    0.320E+01
DAV:   9    -0.107739514451E+02    0.16121E+02   -0.13604E+02   256   0.116E+02    0.350E+00
DAV:  10    -0.161249836796E+02   -0.53510E+01   -0.42175E+01   256   0.734E+01    0.171E+01
DAV:  11    -0.113515400510E+02    0.47734E+01   -0.18347E+01   256   0.430E+01    0.569E+00
DAV:  12    -0.109973938527E+02    0.35415E+00   -0.80133E-01   272   0.960E+00    0.320E+00
DAV:  13    -0.109713451507E+02    0.26049E-01   -0.11623E-02   288   0.108E+00    0.289E+00
DAV:  14    -0.108379563272E+02    0.13339E+00   -0.14312E+00   272   0.131E+01    0.454E-01
DAV:  15    -0.108343778085E+02    0.35785E-02   -0.19676E-02   272   0.161E+00    0.105E-01
DAV:  16    -0.108342142923E+02    0.16352E-03   -0.12177E-03   272   0.388E-01    0.374E-02
DAV:  17    -0.108342625952E+02   -0.48303E-04   -0.27641E-04   272   0.181E-01    0.471E-02
DAV:  18    -0.108342353756E+02    0.27220E-04   -0.50079E-05   272   0.794E-02    0.304E-02
DAV:  19    -0.108342302192E+02    0.51564E-05   -0.47202E-06   128   0.240E-02    0.241E-02
DAV:  20    -0.108342210673E+02    0.91519E-05   -0.45074E-05   304   0.744E-02    0.599E-03
DAV:  21    -0.108342206628E+02    0.40443E-06   -0.25868E-06   128   0.178E-02
   1 F= -.10834221E+02 E0= -.10837470E+02  d E =0.974704E-02  mag=     0.9865
