# ['Ni']

20 atoms
1 atom types

    0.0000     3.5160 xlo xhi
    0.0000     3.5160 ylo yhi
    0.0000    35.1601 zlo zhi

    0.0000    -0.0000     0.0000 xy xz yz

Atoms

1 1     0.0000     0.0000     0.0000
2 1     1.7580     1.7580     0.0000
3 1     1.7580     0.0000     1.7580
4 1     0.0000     1.7580     1.7580
5 1     0.0000     0.0000     3.5160
6 1     1.7580     1.7580     3.5160
7 1     1.7580     0.0000     5.2740
8 1     0.0000     1.7580     5.2740
9 1     0.0000     0.0000     7.0320
10 1     1.7580     1.7580     7.0320
11 1     1.7580     0.0000     8.7900
12 1     0.0000     1.7580     8.7900
13 1     0.0000     0.0000    10.5480
14 1     1.7580     1.7580    10.5480
15 1     1.7580     0.0000    12.3060
16 1     0.0000     1.7580    12.3060
17 1     0.0000     0.0000    14.0640
18 1     1.7580     1.7580    14.0640
19 1     1.7580     0.0000    15.8220
20 1     0.0000     1.7580    15.8220
