LAMMPS (11 Aug 2017)
Reading data file ...
  triclinic box = (0 0 0) to (2.322 2.322 2.322) with tilt (-0 -0 0)
  1 by 1 by 1 MPI processor grid
  reading atoms ...
  1 atoms
1 atoms in group Ni
Neighbor list info ...
  update every 1 steps, delay 0 steps, check yes
  max neighbors/atom: 2000, page size: 100000
  master list distance cutoff = 5.64464
  ghost atom cutoff = 5.64464
  binsize = 2.82232, bins = 1 1 1
  1 neighbor lists, perpetual/occasional/extra = 1 0 0
  (1) pair eam/alloy, perpetual
      attributes: half, newton on
      pair build: half/bin/newton/tri
      stencil: half/bin/3d/newton/tri
      bin: standard
Setting up cg style minimization ...
  Unit style    : metal
  Current step  : 0
WARNING: Energy due to 3 extra global DOFs will be included in minimizer energies
Per MPI rank memory allocation (min/avg/max) = 4.239 | 4.239 | 4.239 Mbytes
Step PotEng Xhi Xlo Yhi Ylo Zhi Xy Xz Yz Press Pxx Pyy Pzz Pxy Pxz Pyz c_eatoms 
       0   -3.8097314        2.322            0        2.322            0        2.322           -0           -0            0   -143462.31   -143462.31   -143462.31   -143462.31            0            0 5.3280122e-12   -3.8097314 
      10    -3.839956      2.31039      0.01161      2.31039      0.01161      2.31039           -0           -0            0   -116002.14   -116002.14   -116002.14   -116002.14 -8.2366552e-12 -2.5243525e-12 -9.8458237e-12    -3.839956 
      20   -3.8626815      2.29878      0.02322      2.29878      0.02322      2.29878           -0           -0            0   -82667.268   -82667.268   -82667.268   -82667.268 -9.4348659e-13 -7.9477689e-12 -2.2868493e-12   -3.8626815 
      30   -3.8767839      2.28717      0.03483      2.28717      0.03483      2.28717           -0           -0            0    -42547.92    -42547.92    -42547.92    -42547.92 8.756716e-12 8.8593338e-12 3.0215231e-12   -3.8767839 
      40   -3.8810706    2.2767693  0.045230742    2.2767693  0.045230742    2.2767693           -0           -0            0 -8.3114487e-05 -8.3114489e-05 -8.3114479e-05 -8.3114493e-05 -2.0008634e-12 -4.1267808e-12 -1.2130234e-11   -3.8810706 
      42   -3.8810706    2.2767693  0.045230742    2.2767693  0.045230742    2.2767693           -0           -0            0 5.5073765e-10 5.5724046e-10 5.6424348e-10 5.3072902e-10 -7.0030219e-12 -1.0805444e-11 -2.8019903e-12   -3.8810706 
Loop time of 0.000426054 on 1 procs for 42 steps with 1 atoms

100.2% CPU use with 1 MPI tasks x no OpenMP threads

Minimization stats:
  Stopping criterion = energy tolerance
  Energy initial, next-to-last, final = 
        -3.80973137594     -3.88107064198     -3.88107064198
  Force two-norm initial, final = 1.94167 6.88727e-15
  Force max component initial, final = 1.12102 4.07218e-15
  Final line search alpha, max atom move = 1 4.07218e-15
  Iterations, force evaluations = 42 46

MPI task timing breakdown:
Section |  min time  |  avg time  |  max time  |%varavg| %total
---------------------------------------------------------------
Pair    | 0.00014424 | 0.00014424 | 0.00014424 |   0.0 | 33.86
Neigh   | 0          | 0          | 0          |   0.0 |  0.00
Comm    | 7.0095e-05 | 7.0095e-05 | 7.0095e-05 |   0.0 | 16.45
Output  | 3.8147e-05 | 3.8147e-05 | 3.8147e-05 |   0.0 |  8.95
Modify  | 0          | 0          | 0          |   0.0 |  0.00
Other   |            | 0.0001736  |            |       | 40.74

Nlocal:    1 ave 1 max 1 min
Histogram: 1 0 0 0 0 0 0 0 0 0
Nghost:    215 ave 215 max 215 min
Histogram: 1 0 0 0 0 0 0 0 0 0
Neighs:    28 ave 28 max 28 min
Histogram: 1 0 0 0 0 0 0 0 0 0

Total # of neighbors = 28
Ave neighs/atom = 28
Neighbor list builds = 0
Dangerous builds = 0
pypospack:output_section:begin
tot_energy = -3.88107064198087
num_atoms = 1
a11 = 2.23153851580815
a22 = 2.23153851580815
a33 = 2.23153851580815
a12 = -0
a13 = -0
a23 = 0
tot_press = 5.5073764948248e-10
pxx = 5.57240455516333e-10
pyy = 5.64243477398944e-10
pzz = 5.30729015532163e-10
pxy = -7.00302188261101e-12
pxz = -1.0805443920435e-11
pyz = -2.80199034030809e-12
pypospack:output_section:done
pypospack:lammps_sim:done
Total wall time: 0:00:00
