   2   2   0   0
  0.9639684E+01  0.3009788E-09  0.3009788E-09  0.3009788E-09  0.5000000E-15
  1.000000000000000E-004
  CAR 
 automatically generated by pyflamestk   
     44.91995809    -16.53056592  301      3.56887631      1.00000000
    -16.531  0.0000E+00  0.0000E+00
    -16.326  0.0000E+00  0.0000E+00
    -16.121  0.0000E+00  0.0000E+00
    -15.916  0.0000E+00  0.0000E+00
    -15.711  0.0000E+00  0.0000E+00
    -15.506  0.0000E+00  0.0000E+00
    -15.302  0.0000E+00  0.0000E+00
    -15.097  0.0000E+00  0.0000E+00
    -14.892  0.0000E+00  0.0000E+00
    -14.687  0.0000E+00  0.0000E+00
    -14.482  0.0000E+00  0.0000E+00
    -14.277  0.0000E+00  0.0000E+00
    -14.073  0.0000E+00  0.0000E+00
    -13.868  0.1293E-05  0.2648E-06
    -13.663  0.5021E-01  0.1028E-01
    -13.458  0.2424E+00  0.5994E-01
    -13.253  0.4081E+00  0.1435E+00
    -13.048  0.5998E+00  0.2664E+00
    -12.844  0.8521E+00  0.4409E+00
    -12.639  0.1358E+01  0.7191E+00
    -12.434  0.2762E+01  0.1285E+01
    -12.229  0.3427E+01  0.1987E+01
    -12.024  0.6472E-01  0.2000E+01
    -11.819  0.0000E+00  0.2000E+01
    -11.615  0.0000E+00  0.2000E+01
    -11.410  0.0000E+00  0.2000E+01
    -11.205  0.0000E+00  0.2000E+01
    -11.000  0.0000E+00  0.2000E+01
    -10.795  0.0000E+00  0.2000E+01
    -10.590  0.0000E+00  0.2000E+01
    -10.386  0.0000E+00  0.2000E+01
    -10.181  0.0000E+00  0.2000E+01
     -9.976  0.0000E+00  0.2000E+01
     -9.771  0.0000E+00  0.2000E+01
     -9.566  0.0000E+00  0.2000E+01
     -9.361  0.0000E+00  0.2000E+01
     -9.157  0.0000E+00  0.2000E+01
     -8.952  0.0000E+00  0.2000E+01
     -8.747  0.0000E+00  0.2000E+01
     -8.542  0.0000E+00  0.2000E+01
     -8.337  0.0000E+00  0.2000E+01
     -8.132  0.0000E+00  0.2000E+01
     -7.927  0.0000E+00  0.2000E+01
     -7.723  0.0000E+00  0.2000E+01
     -7.518  0.0000E+00  0.2000E+01
     -7.313  0.0000E+00  0.2000E+01
     -7.108  0.0000E+00  0.2000E+01
     -6.903  0.0000E+00  0.2000E+01
     -6.698  0.0000E+00  0.2000E+01
     -6.494  0.0000E+00  0.2000E+01
     -6.289  0.0000E+00  0.2000E+01
     -6.084  0.0000E+00  0.2000E+01
     -5.879  0.0000E+00  0.2000E+01
     -5.674  0.0000E+00  0.2000E+01
     -5.469  0.0000E+00  0.2000E+01
     -5.265  0.0000E+00  0.2000E+01
     -5.060  0.0000E+00  0.2000E+01
     -4.855  0.0000E+00  0.2000E+01
     -4.650  0.0000E+00  0.2000E+01
     -4.445  0.0000E+00  0.2000E+01
     -4.240  0.0000E+00  0.2000E+01
     -4.036  0.0000E+00  0.2000E+01
     -3.831  0.0000E+00  0.2000E+01
     -3.626  0.0000E+00  0.2000E+01
     -3.421  0.0000E+00  0.2000E+01
     -3.216  0.0000E+00  0.2000E+01
     -3.011  0.0000E+00  0.2000E+01
     -2.807  0.0000E+00  0.2000E+01
     -2.602  0.0000E+00  0.2000E+01
     -2.397  0.0000E+00  0.2000E+01
     -2.192  0.0000E+00  0.2000E+01
     -1.987  0.0000E+00  0.2000E+01
     -1.782  0.0000E+00  0.2000E+01
     -1.578  0.0000E+00  0.2000E+01
     -1.373  0.7151E-16  0.2000E+01
     -1.168  0.6999E-03  0.2000E+01
     -0.963  0.1699E+00  0.2035E+01
     -0.758  0.4205E+00  0.2121E+01
     -0.553  0.6288E+00  0.2250E+01
     -0.349  0.1221E+01  0.2500E+01
     -0.144  0.2449E+01  0.3002E+01
      0.061  0.1970E+01  0.3405E+01
      0.266  0.9831E+00  0.3606E+01
      0.471  0.4365E+00  0.3696E+01
      0.676  0.6813E+00  0.3835E+01
      0.880  0.7231E+00  0.3983E+01
      1.085  0.1011E+01  0.4191E+01
      1.290  0.8467E+00  0.4364E+01
      1.495  0.1068E+01  0.4583E+01
      1.700  0.1002E+01  0.4788E+01
      1.905  0.1413E+01  0.5077E+01
      2.109  0.2153E+01  0.5518E+01
      2.314  0.2583E+01  0.6048E+01
      2.519  0.2738E+01  0.6608E+01
      2.724  0.2986E+01  0.7220E+01
      2.929  0.2021E+01  0.7634E+01
      3.134  0.1184E+01  0.7877E+01
      3.338  0.5731E+00  0.7994E+01
      3.543  0.2856E-01  0.8000E+01
      3.748  0.0000E+00  0.8000E+01
      3.953  0.0000E+00  0.8000E+01
      4.158  0.0000E+00  0.8000E+01
      4.363  0.0000E+00  0.8000E+01
      4.567  0.0000E+00  0.8000E+01
      4.772  0.0000E+00  0.8000E+01
      4.977  0.0000E+00  0.8000E+01
      5.182  0.0000E+00  0.8000E+01
      5.387  0.0000E+00  0.8000E+01
      5.592  0.0000E+00  0.8000E+01
      5.796  0.0000E+00  0.8000E+01
      6.001  0.0000E+00  0.8000E+01
      6.206  0.0000E+00  0.8000E+01
      6.411  0.0000E+00  0.8000E+01
      6.616  0.0000E+00  0.8000E+01
      6.821  0.0000E+00  0.8000E+01
      7.025  0.0000E+00  0.8000E+01
      7.230  0.0000E+00  0.8000E+01
      7.435  0.0000E+00  0.8000E+01
      7.640  0.4329E-15  0.8000E+01
      7.845  0.5227E-03  0.8000E+01
      8.050  0.1078E-01  0.8002E+01
      8.254  0.3069E-01  0.8009E+01
      8.459  0.1607E-01  0.8012E+01
      8.664  0.2418E-01  0.8017E+01
      8.869  0.4417E-01  0.8026E+01
      9.074  0.7038E-01  0.8040E+01
      9.279  0.3384E-01  0.8047E+01
      9.483  0.9804E-01  0.8067E+01
      9.688  0.9705E-01  0.8087E+01
      9.893  0.9861E-01  0.8107E+01
     10.098  0.9953E-01  0.8128E+01
     10.303  0.1676E+00  0.8162E+01
     10.508  0.1871E+00  0.8200E+01
     10.712  0.8317E-01  0.8217E+01
     10.917  0.3233E+00  0.8284E+01
     11.122  0.3553E+00  0.8356E+01
     11.327  0.4435E+00  0.8447E+01
     11.532  0.3107E+00  0.8511E+01
     11.737  0.6377E+00  0.8642E+01
     11.942  0.3719E+00  0.8718E+01
     12.146  0.4231E+00  0.8804E+01
     12.351  0.5992E+00  0.8927E+01
     12.556  0.4718E+00  0.9024E+01
     12.761  0.6837E+00  0.9164E+01
     12.966  0.8811E+00  0.9344E+01
     13.171  0.9598E+00  0.9541E+01
     13.375  0.9622E+00  0.9738E+01
     13.580  0.9029E+00  0.9923E+01
     13.785  0.5943E+00  0.1004E+02
     13.990  0.6565E+00  0.1018E+02
     14.195  0.5505E+00  0.1029E+02
     14.400  0.7238E+00  0.1044E+02
     14.604  0.6067E+00  0.1056E+02
     14.809  0.1061E+01  0.1078E+02
     15.014  0.1422E+01  0.1107E+02
     15.219  0.1754E+01  0.1143E+02
     15.424  0.1695E+01  0.1178E+02
     15.629  0.1277E+01  0.1204E+02
     15.833  0.9286E+00  0.1223E+02
     16.038  0.8915E+00  0.1241E+02
     16.243  0.9919E+00  0.1262E+02
     16.448  0.4964E+00  0.1272E+02
     16.653  0.7594E+00  0.1287E+02
     16.858  0.2610E+00  0.1293E+02
     17.062  0.5105E+00  0.1303E+02
     17.267  0.6310E+00  0.1316E+02
     17.472  0.2196E+00  0.1321E+02
     17.677  0.3967E+00  0.1329E+02
     17.882  0.3017E+00  0.1335E+02
     18.087  0.4505E+00  0.1344E+02
     18.291  0.3453E+00  0.1351E+02
     18.496  0.1804E+00  0.1355E+02
     18.701  0.4303E+00  0.1364E+02
     18.906  0.3782E+00  0.1372E+02
     19.111  0.4649E+00  0.1381E+02
     19.316  0.6371E+00  0.1394E+02
     19.520  0.1128E+01  0.1417E+02
     19.725  0.1078E+01  0.1439E+02
     19.930  0.1479E+01  0.1470E+02
     20.135  0.1688E+01  0.1504E+02
     20.340  0.1656E+01  0.1538E+02
     20.545  0.1160E+01  0.1562E+02
     20.749  0.1020E+01  0.1583E+02
     20.954  0.5832E+00  0.1595E+02
     21.159  0.4035E+00  0.1603E+02
     21.364  0.7032E+00  0.1617E+02
     21.569  0.8386E+00  0.1635E+02
     21.774  0.7190E+00  0.1649E+02
     21.978  0.9352E+00  0.1668E+02
     22.183  0.5920E+00  0.1681E+02
     22.388  0.7368E+00  0.1696E+02
     22.593  0.7601E+00  0.1711E+02
     22.798  0.5317E+00  0.1722E+02
     23.003  0.5452E+00  0.1733E+02
     23.207  0.6102E+00  0.1746E+02
     23.412  0.5636E+00  0.1757E+02
     23.617  0.7983E+00  0.1774E+02
     23.822  0.5138E+00  0.1784E+02
     24.027  0.5728E+00  0.1796E+02
     24.232  0.5973E+00  0.1808E+02
     24.436  0.9426E+00  0.1827E+02
     24.641  0.8001E+00  0.1844E+02
     24.846  0.6250E+00  0.1857E+02
     25.051  0.8019E+00  0.1873E+02
     25.256  0.1303E+01  0.1900E+02
     25.461  0.8704E+00  0.1918E+02
     25.665  0.5223E+00  0.1928E+02
     25.870  0.5783E+00  0.1940E+02
     26.075  0.8565E+00  0.1958E+02
     26.280  0.5914E+00  0.1970E+02
     26.485  0.6463E+00  0.1983E+02
     26.690  0.3089E+00  0.1989E+02
     26.894  0.7252E+00  0.2004E+02
     27.099  0.4837E+00  0.2014E+02
     27.304  0.5818E+00  0.2026E+02
     27.509  0.3427E+00  0.2033E+02
     27.714  0.3254E+00  0.2040E+02
     27.919  0.8960E+00  0.2058E+02
     28.123  0.5039E+00  0.2068E+02
     28.328  0.5451E+00  0.2080E+02
     28.533  0.3145E+00  0.2086E+02
     28.738  0.7029E+00  0.2100E+02
     28.943  0.7123E+00  0.2115E+02
     29.148  0.6427E+00  0.2128E+02
     29.352  0.5834E+00  0.2140E+02
     29.557  0.6894E+00  0.2154E+02
     29.762  0.1067E+01  0.2176E+02
     29.967  0.8279E+00  0.2193E+02
     30.172  0.1164E+01  0.2217E+02
     30.377  0.9078E+00  0.2235E+02
     30.582  0.8146E+00  0.2252E+02
     30.786  0.9503E+00  0.2272E+02
     30.991  0.1058E+01  0.2293E+02
     31.196  0.1631E+01  0.2327E+02
     31.401  0.1373E+01  0.2355E+02
     31.606  0.1540E+01  0.2386E+02
     31.811  0.1742E+01  0.2422E+02
     32.015  0.1730E+01  0.2458E+02
     32.220  0.2026E+01  0.2499E+02
     32.425  0.1686E+01  0.2534E+02
     32.630  0.1660E+01  0.2568E+02
     32.835  0.1264E+01  0.2593E+02
     33.040  0.6666E+00  0.2607E+02
     33.244  0.6609E+00  0.2621E+02
     33.449  0.6532E+00  0.2634E+02
     33.654  0.7375E+00  0.2649E+02
     33.859  0.6442E+00  0.2662E+02
     34.064  0.3511E+00  0.2669E+02
     34.269  0.7674E+00  0.2685E+02
     34.473  0.6236E+00  0.2698E+02
     34.678  0.2580E+00  0.2703E+02
     34.883  0.6804E+00  0.2717E+02
     35.088  0.5549E+00  0.2729E+02
     35.293  0.7376E+00  0.2744E+02
     35.498  0.7677E+00  0.2759E+02
     35.702  0.9168E+00  0.2778E+02
     35.907  0.8570E+00  0.2796E+02
     36.112  0.8830E+00  0.2814E+02
     36.317  0.8274E+00  0.2831E+02
     36.522  0.9326E+00  0.2850E+02
     36.727  0.9459E+00  0.2869E+02
     36.931  0.7623E+00  0.2885E+02
     37.136  0.8423E+00  0.2902E+02
     37.341  0.8584E+00  0.2920E+02
     37.546  0.7663E+00  0.2935E+02
     37.751  0.4705E+00  0.2945E+02
     37.956  0.9452E+00  0.2964E+02
     38.160  0.7757E+00  0.2980E+02
     38.365  0.5445E+00  0.2991E+02
     38.570  0.6282E+00  0.3004E+02
     38.775  0.1070E+01  0.3026E+02
     38.980  0.6995E+00  0.3041E+02
     39.185  0.5929E+00  0.3053E+02
     39.389  0.6502E+00  0.3066E+02
     39.594  0.6697E+00  0.3080E+02
     39.799  0.5724E+00  0.3091E+02
     40.004  0.7491E+00  0.3107E+02
     40.209  0.5135E+00  0.3117E+02
     40.414  0.4937E+00  0.3127E+02
     40.618  0.4883E+00  0.3137E+02
     40.823  0.3490E+00  0.3145E+02
     41.028  0.8442E+00  0.3162E+02
     41.233  0.5989E+00  0.3174E+02
     41.438  0.3807E+00  0.3182E+02
     41.643  0.3999E+00  0.3190E+02
     41.847  0.2271E+00  0.3195E+02
     42.052  0.1876E+00  0.3199E+02
     42.257  0.6703E-01  0.3200E+02
     42.462  0.7698E-05  0.3200E+02
     42.667  0.0000E+00  0.3200E+02
     42.872  0.0000E+00  0.3200E+02
     43.076  0.0000E+00  0.3200E+02
     43.281  0.0000E+00  0.3200E+02
     43.486  0.0000E+00  0.3200E+02
     43.691  0.0000E+00  0.3200E+02
     43.896  0.0000E+00  0.3200E+02
     44.101  0.0000E+00  0.3200E+02
     44.305  0.0000E+00  0.3200E+02
     44.510  0.0000E+00  0.3200E+02
     44.715  0.0000E+00  0.3200E+02
     44.920  0.0000E+00  0.3200E+02
