# ['Ni']

28 atoms
1 atom types

    0.0000     1.9553 xlo xhi
    0.0000     3.3867 ylo yhi
    0.0000    22.3509 zlo zhi

    0.0000     0.0000     0.0000 xy xz yz

Atoms

1 1     0.0000     0.0000     0.0000
2 1     0.9777     1.6933     0.0000
3 1     0.9777     0.5644     1.5965
4 1     0.0000     2.2578     1.5965
5 1     0.0000     1.1289     3.1930
6 1     0.9777     2.8222     3.1930
7 1     0.0000     0.0000     4.7895
8 1     0.9777     1.6933     4.7895
9 1     0.9777     0.5644     6.3860
10 1     0.0000     2.2578     6.3860
11 1     0.0000     1.1289     7.9825
12 1     0.9777     2.8222     7.9825
13 1     0.0000     0.0000     9.5790
14 1     0.9777     1.6933     9.5790
15 1     0.0000     1.1289    11.1755
16 1     0.9777     2.8222    11.1755
17 1     0.0000     0.0000    12.7720
18 1     0.9777     1.6933    12.7720
19 1     0.9777     0.5644    14.3685
20 1     0.0000     2.2578    14.3685
21 1     0.0000     1.1289    15.9650
22 1     0.9777     2.8222    15.9650
23 1     0.0000     0.0000    17.5614
24 1     0.9777     1.6933    17.5614
25 1     0.9777     0.5644    19.1580
26 1     0.0000     2.2578    19.1580
27 1     0.0000     1.1289    20.7544
28 1     0.9777     2.8222    20.7544
