LAMMPS (10 Feb 2015)
# ---- initialize simulations
clear
units metal
dimension 3
boundary p p p
atom_style charge
atom_modify map array
# ---- create atoms
read_data /Users/eugeneragasa/pyflamestk_git/pypospack/tests/tests_integration/workflow/WorkflowLammpsThermalExpansion/param_785/MgO_NaCl_unit.npt.T1500/lammps.structure
  triclinic box = (0 0 0) to (4.2565 4.2565 4.2565) with tilt (0 0 0)
  1 by 1 by 1 MPI processor grid
  reading atoms ...
  8 atoms
# ---- define interatomic potential
include potential.mod
mass 1 24.305
mass 2 15.999

group Mg type 1
4 atoms in group Mg
group O type 2
4 atoms in group O

set group Mg charge 1.62294375895
  4 settings made for charge
set group O charge -1.62294375895
  4 settings made for charge

variable R_cut equal 10.0

pair_style buck/coul/long ${R_cut}
pair_style buck/coul/long 10
pair_coeff 1 1 0.0 0.5 0.0 ${R_cut}
pair_coeff 1 1 0.0 0.5 0.0 10
pair_coeff 1 2 1315.47688947 0.28024601768 0.0 ${R_cut}
pair_coeff 1 2 1315.47688947 0.28024601768 0.0 10
pair_coeff 2 2 7992.27283476 0.124296175577 7.5002562575 ${R_cut}
pair_coeff 2 2 7992.27283476 0.124296175577 7.5002562575 10

kspace_style pppm 1.0e-5

neighbor 1.0 bin
neigh_modify every 1 delay 0 check yes
# ---- define settings
compute eng all pe/atom
compute eatoms all reduce sum c_eng
# ---- run minimization
reset_timestep 0
fix 1 all box/relax iso 0.0 vmax 0.001
thermo 10
thermo_style custom step pe lx ly lz xy xz yz press pxx pyy pzz pxy pxz pyz c_eatoms
min_style cg
minimize 1e-25 1e-25 5000 10000
PPPM initialization ...
  G vector (1/distance) = 0.352546
  grid = 8 8 8
  stencil order = 5
  estimated absolute RMS force accuracy = 3.83063e-05
  estimated relative force accuracy = 2.66022e-06
  using double precision FFTs
  3d grid and FFT values/proc = 3375 512
Neighbor list info ...
  1 neighbor list requests
  update every 1 steps, delay 0 steps, check yes
  master list distance cutoff = 11
Memory usage per processor = 4.06549 Mbytes
Step PotEng Lx Ly Lz Xy Xz Yz Press Pxx Pyy Pzz Pxy Pxz Pyz eatoms 
       0   -108.88461       4.2565       4.2565       4.2565            0            0            0   -30879.056   -30879.056   -30879.056   -30879.056 -2.5133272e-10 -7.2643252e-11 5.7873381e-11   -108.88461 
      10   -108.89911    4.2290577    4.2290577    4.2290577            0            0            0   0.26053131   0.26053131   0.26053131   0.26053131 3.8284322e-11 -1.3873734e-12 -2.9889769e-10   -108.89911 
      12   -108.89911    4.2290577    4.2290577    4.2290577            0            0            0   0.25210742   0.25210742   0.25210742   0.25210742 1.3658055e-10 -3.2077679e-12 -1.3269119e-10   -108.89911 
Loop time of 0.00864911 on 1 procs for 12 steps with 8 atoms

Minimization stats:
  Stopping criterion = linesearch alpha is zero
  Energy initial, next-to-last, final = 
        -108.884606122     -108.899110632     -108.899110632
  Force two-norm initial, final = 4.45895 5.1421e-05
  Force max component initial, final = 4.45895 3.59365e-05
  Final line search alpha, max atom move = 0.5 1.79683e-05
  Iterations, force evaluations = 12 23

Pair  time (%) = 0.00255489 (29.5394)
Kspce time (%) = 0.00144911 (16.7544)
Neigh time (%) = 0 (0)
Comm  time (%) = 0.000259399 (2.99915)
Outpt time (%) = 1.69277e-05 (0.195716)
Other time (%) = 0.00436878 (50.5113)

Nlocal:    8 ave 8 max 8 min
Histogram: 1 0 0 0 0 0 0 0 0 0
Nghost:    2189 ave 2189 max 2189 min
Histogram: 1 0 0 0 0 0 0 0 0 0
Neighs:    2344 ave 2344 max 2344 min
Histogram: 1 0 0 0 0 0 0 0 0 0

Total # of neighbors = 2344
Ave neighs/atom = 293
Neighbor list builds = 0
Dangerous builds = 0
unfix 1
# ---- define output variables ----
variable natoms equal "count(all)"
variable tot_energy equal "c_eatoms"
variable length_x equal "lx"
variable length_y equal "ly"
variable length_z equal "lz"
variable tilt_xy equal "xy"
variable tilt_xz equal "xz"
variable tilt_yz equal "yz"
variable tot_press equal "press"
variable press_xx equal "pxx"
variable press_yy equal "pyy"
variable press_zz equal "pzz"
variable press_xy equal "pxy"
variable press_xz equal "pxz"
variable press_yz equal "pyz"

# ---- output ----
print "pypospack:output_section:begin"
pypospack:output_section:begin
print "tot_energy = ${tot_energy}"
tot_energy = -108.899110631848
print "num_atoms = ${natoms}"
num_atoms = 8
print "xx = ${length_x}"
xx = 4.22905766787052
print "yy = ${length_y}"
yy = 4.22905766787052
print "zz = ${length_z}"
zz = 4.22905766787052
print "xy = ${tilt_xy}"
xy = 0
print "xz = ${tilt_xz}"
xz = 0
print "yz = ${tilt_yz}"
yz = 0
print "tot_press = ${tot_press}"
tot_press = 0.252107417895481
print "pxx = ${press_xx}"
pxx = 0.252107418292273
print "pyy = ${press_yy}"
pyy = 0.252107418323333
print "pzz = ${press_zz}"
pzz = 0.252107417070837
print "pxy = ${press_xy}"
pxy = 1.36580554666579e-10
print "pxz = ${press_xz}"
pxz = -3.20776791999541e-12
print "pyz = ${press_yz}"
pyz = -1.32691186845421e-10
print "pypospack:output_section:done"
pypospack:output_section:done
print "pypospack:lammps_sim:done"
pypospack:lammps_sim:done
#------------------------------------------------------------------------------
# RUN THERMOSTAT
# running using an NPT Nose-Hoover style thermostat
#------------------------------------------------------------------------------
variable tempdamp equal 0.1
variable pressdamp equal 1.0
# set initial velocities
velocity all create 1500 2563540 mom yes dist gaussian loop all
# fix for Nose-Hoover style thermostat
fix 20 all npt temp 1500 1500 0.1 aniso 0.0 0.0 1.0 drag 1.0 couple xyz
variable boxx equal lx
variable boxy equal ly
variable boxz equal lz
variable boxp equal press
variable boxt equal temp
# calculate averages every 10000 steps
reset_timestep 0
fix 21 all ave/time 10 10 100 v_boxx v_boxy v_boxz v_boxp v_boxt file lattice.out
thermo_style custom step temp pe ke etotal press lx ly lz press pxx pyy pzz pxy pxz pyz vol
thermo_modify flush yes
thermo 100
run 100000
PPPM initialization ...
  G vector (1/distance) = 0.352817
  grid = 8 8 8
  stencil order = 5
  estimated absolute RMS force accuracy = 3.78369e-05
  estimated relative force accuracy = 2.62763e-06
  using double precision FFTs
  3d grid and FFT values/proc = 3375 512
Memory usage per processor = 3.06549 Mbytes
Step Temp PotEng KinEng TotEng Press Lx Ly Lz Press Pxx Pyy Pzz Pxy Pxz Pyz Volume 
       0         1500   -108.89911    1.3572315   -107.54188    19167.025    4.2290577    4.2290577    4.2290577    19167.025    20489.987    9054.0984     27956.99   -6027.6783    10639.874   -2178.2952    75.636395 
     100    492.06485   -107.81869   0.44523062   -107.37346    34969.351    4.2577751    4.2577751    4.2577751    34969.351    51140.677    1561.9358     52205.44    6385.6232   -393.74317     820.4318     77.18771 
     200    1012.1339   -107.91683   0.91580001   -107.00103   -36073.664    4.3039466    4.3039466    4.3039466   -36073.664   -31337.741   -78715.464    1832.2129    2993.9927    3582.8823   -760.48954    79.726121 
     300    1150.2028    -107.7073    1.0407276   -106.66658    14796.578    4.3021922    4.3021922    4.3021922    14796.578    23369.694   -21291.685    42311.724     608.8734    4275.2866   -3854.0873    79.628664 
     400    1511.0588   -107.77758    1.3672377   -106.41034    354.20734    4.2736652    4.2736652    4.2736652    354.20734    3563.3179   -15213.865    12713.169   -983.08407   -9071.1454    251.46835    78.055138 
     500    1113.3575   -107.26648    1.0073893   -106.25909   -1000.4431    4.2814246    4.2814246    4.2814246   -1000.4431     34803.37   -50231.419     12426.72    5007.2228   -8618.3955   -5960.8061    78.481069 
     600    1801.2603   -107.81435    1.6298182   -106.18453    10809.852    4.3149262    4.3149262    4.3149262    10809.852    5696.0298   -36692.624    63426.149    5797.0285    2261.5572    8503.8505    80.337834 
     700     1122.811   -107.15296     1.015943   -106.13701   -16943.872    4.3365642    4.3365642    4.3365642   -16943.872    25068.826   -86309.879    10409.437    1756.9357    11723.357    2089.3996    81.552513 
     800    936.19377   -106.96348    0.8470878    -106.1164    13298.666    4.2989685    4.2989685    4.2989685    13298.666    59074.846   -71398.024    52219.176    5908.7122   -14487.019    1653.7613    79.449796 
     900    1860.9233   -107.79164    1.6838025   -106.10784    28062.836    4.2586296    4.2586296    4.2586296    28062.836   -10436.306   -12407.348    107032.16   -570.31363   -5102.9791   -13.945467     77.23419 
    1000    1087.8713   -107.18429    0.9843288   -106.19996    13432.831     4.285341     4.285341     4.285341    13432.831      39758.6   -28973.055    29512.949   -2644.2047    5134.0039    8956.2071    78.696635 
    1100    1325.8995   -107.37761    1.1997017    -106.1779   -61732.194    4.3301711    4.3301711    4.3301711   -61732.194   -54200.414   -101155.91   -29840.261    12351.372   -3067.2885     1204.684    81.192363 
    1200    1991.8748   -107.93976    1.8022902   -106.13747   -28015.749    4.3093059    4.3093059    4.3093059   -28015.749   -30103.689   -58544.099    4600.5392    10836.651    6850.9361    9448.9464    80.024317 
    1300    2040.2056    -107.9437    1.8460209   -106.09768    36485.213    4.2688559    4.2688559    4.2688559    36485.213    56215.031    5352.1497    47888.459     5733.885    6078.1222   -1190.9959     77.79192 
    1400    1013.3671   -107.09205   0.91691581   -106.17514    28807.012    4.2993196    4.2993196    4.2993196    28807.012    79624.711   -49978.224    56774.548    463.36708   -47786.065   -4700.0981    79.469262 
    1500    1279.1634   -107.28332    1.1574139    -106.1259     -20868.5    4.3305604    4.3305604    4.3305604     -20868.5   -61255.277   -32378.969    31028.747   -9047.1765   -36685.648   -538.74301    81.214262 
    1600    1597.5568   -107.54652     1.445503   -106.10102   -16656.993    4.2971722    4.2971722    4.2971722   -16656.993    16886.771   -14853.138   -52004.612   -2210.1578    19792.141   -10756.601    79.350245 
    1700    1356.1448   -107.33783    1.2270683   -106.11076    30000.947    4.2819472    4.2819472    4.2819472    30000.947    87704.104   -43601.918    45900.656    7119.3897   -22825.818    6004.7741    78.509811 
    1800    1685.4622   -107.68279    1.5250416   -106.15775   -10037.975    4.3106752    4.3106752    4.3106752   -10037.975   -1232.9312   -11608.557   -17272.437   -1470.1609    946.68401   -5145.7002    80.100622 
    1900    1679.8885   -107.66126    1.5199984   -106.14126   -40202.295    4.3334951    4.3334951    4.3334951   -40202.295    3902.3084   -66487.818   -58021.376   -636.64986    8758.8413   -7443.1875    81.379484 
    2000    1968.8577   -107.89125    1.7814638   -106.10979   -44405.915    4.3232849    4.3232849    4.3232849   -44405.915   -19707.792   -85232.822    -28277.13    11182.499    9684.2248    7124.9651    80.805622 
    2100    1027.1224    -107.0291   0.92936194   -106.09973    15490.047     4.305428     4.305428     4.305428    15490.047    27944.334    4176.2048    14349.601    1006.9253   -29606.822    -9863.525     79.80847 
    2200    1652.5866   -107.60082    1.4952951   -106.10553   -13077.446    4.2972593    4.2972593    4.2972593   -13077.446   -6036.0254   -43054.663    9858.3512    1665.6483   -6768.6531     2367.882    79.355072 
    2300    1443.3686   -107.43582    1.3059903   -106.12983   -2658.7979    4.3092356    4.3092356    4.3092356   -2658.7979    22936.226   -36223.689     5311.069    1616.5225    13766.464   -3270.6561    80.020401 
    2400     1758.322   -107.71137    1.5909667    -106.1204    -30352.89    4.3185638    4.3185638    4.3185638    -30352.89   -25829.265   -9058.5662   -56170.838    12608.026   -18496.178   -7094.7146    80.541184 
    2500    1258.0764   -107.24769    1.1383339   -106.10936    26617.993    4.3011399    4.3011399    4.3011399    26617.993    37199.369   -29823.991      72478.6   -1624.2836    2006.9452    11360.601    79.570246 
    2600     1644.612   -107.60403    1.4880795   -106.11595    9095.7061     4.300141     4.300141     4.300141    9095.7061   -22489.591   -28947.885    78724.595   -8744.2992    -14900.14    396.36081    79.514819 
    2700    1691.7255   -107.65984    1.5307088   -106.12913   -16802.034    4.3079846    4.3079846    4.3079846   -16802.034   -18572.464   -39675.873    7842.2359   -504.89724    7966.6943   -100.63818     79.95073 
    2800     1146.038   -107.17876    1.0369593    -106.1418    4586.9767    4.3065009    4.3065009    4.3065009    4586.9767   -7888.4742   -53122.797    74772.201    3573.1942    12095.468    11904.536    79.868153 
    2900    1398.1763   -107.42218    1.2650993   -106.15708   -17506.802    4.3100781    4.3100781    4.3100781   -17506.802   -7810.7564   -31205.354   -13504.295   -11300.315    4020.8022    2029.3796    80.067341 
    3000    1458.1311   -107.47323    1.3193477   -106.15388    6306.8962    4.3064591    4.3064591    4.3064591    6306.8962    47412.514   -21088.044   -7403.7809   -15677.915   -4805.5957    3529.2827    79.865826 
    3100    987.21961   -107.04896   0.89325705    -106.1557    2074.2603    4.3162711    4.3162711    4.3162711    2074.2603    3122.8019    -38155.37    41255.349    15582.819     21062.71    3816.7351    80.412976 
    3200    1673.1755      -107.65    1.5139244   -106.13608   -14049.758    4.3151872    4.3151872    4.3151872   -14049.758   -33628.029   -52898.539    44377.295   -1867.0935    -29376.03     14536.32    80.352413 
    3300    1901.7159   -107.84729    1.7207125   -106.12658   -8939.4599    4.2993809    4.2993809    4.2993809   -8939.4599   -25220.713   -23109.398    21511.731   -171.60831   -12500.137    -2080.878    79.472664 
    3400    1037.5783   -107.09122   0.93882266    -106.1524    6246.4153    4.3058875    4.3058875    4.3058875    6246.4153    21337.311   -43208.324    40610.259   -3336.2298   -4708.3492    388.87117    79.834027 
    3500    1665.6016   -107.64528    1.5070714   -106.13821   -24501.845     4.315392     4.315392     4.315392   -24501.845   -31901.588   -33492.515   -8111.4315   -5139.4799   -8877.0393    6455.1065    80.363854 
    3600     1438.798   -107.43464    1.3018546   -106.13279   -11192.464    4.3028324    4.3028324    4.3028324   -11192.464   -23451.333   -26532.986    16406.928     7303.576    20079.726    23274.226     79.66422 
    3700    1694.5686   -107.67577    1.5332813   -106.14249    6091.7049    4.2991797    4.2991797    4.2991797    6091.7049    6527.9974   -45030.865    56777.982   -9650.4124    10834.807    5530.2636    79.461505 
    3800    1979.0189    -107.9394    1.7906579   -106.14875   -33970.999    4.3204185    4.3204185    4.3204185   -33970.999   -46018.086   -56459.655    564.74329    -2824.865   -2959.4449    15896.362    80.644999 
    3900    1128.2726   -107.15269    1.0208847   -106.13181    8541.7516    4.3061848    4.3061848    4.3061848    8541.7516    11291.541   -16697.911    31031.625   -4190.1441   -4456.5874    8318.7056    79.850562 
    4000    1168.1731   -107.18769    1.0569875    -106.1307    38977.039    4.2910986    4.2910986    4.2910986    38977.039    85391.438   -36330.397    67870.076   -5009.7841    3228.4859    9318.6311    79.014258 
    4100    2210.7206   -108.15891    2.0003064   -106.15861   -22300.115     4.309921     4.309921     4.309921   -22300.115    5118.6005   -39309.961   -32708.984    15168.329   -15728.551    897.89868    80.058587 
    4200    1077.3404     -107.138    0.9748002    -106.1632    8940.4599    4.3119242    4.3119242    4.3119242    8940.4599    18241.045   -49117.623    57697.958    6919.6963    7932.9312    15746.547    80.170274 
    4300    2019.5147   -107.97582    1.8272993   -106.14852   -33840.288    4.3035565    4.3035565    4.3035565   -33840.288   -10367.875   -69834.206   -21318.784    1736.6699   -1499.4559    444.33112     79.70444 
    4400    1491.8528   -107.50878    1.3498598   -106.15892    11900.026    4.3065155    4.3065155    4.3065155    11900.026    8038.1104   -41620.314     69282.28    383.14275   -6673.5819   -1608.4949     79.86896 
    4500    1387.9186   -107.41751    1.2558179   -106.16169    10740.763    4.3019116    4.3019116    4.3019116    10740.763    49303.125   -43321.051    26240.215     -3396.38    13222.634    4217.9397    79.613086 
    4600    1433.9157   -107.47349     1.297437   -106.17605   -44409.601    4.3133774    4.3133774    4.3133774   -44409.601   -52460.798   -68878.585   -11889.421    3882.4743    8485.3377   -23035.404    80.251355 
    4700    1657.1831   -107.64646    1.4994541     -106.147   -4468.0542    4.3024676    4.3024676    4.3024676   -4468.0542    52464.722   -46547.484   -19321.401    1240.2286     31867.37   -7483.8014    79.643955 
    4800    1159.3078   -107.19284    1.0489661   -106.14388    40311.629    4.2871896    4.2871896    4.2871896    40311.629    45575.919   -46071.419    121430.39   -15266.889   -19730.996    24010.501    78.798521 
    4900    1480.6851   -107.52941     1.339755   -106.18966    -30280.95    4.3148115    4.3148115    4.3148115    -30280.95   -61258.548   -53417.312     23833.01    15447.924    19520.086   -15005.485    80.331425 
    5000    1457.0387   -107.46669    1.3183593   -106.14833   -43150.147    4.3384665    4.3384665    4.3384665   -43150.147    -33902.51   -88771.911   -6776.0194    1011.3439     1335.071    13641.286    81.659881 
    5100    1817.6308   -107.75177    1.6446306   -106.10714    2761.8463    4.3025733    4.3025733    4.3025733    2761.8463    22209.613    1318.6062   -15242.681    1147.5098   -3607.9195    8073.2424    79.649824 
    5200    1570.0225   -107.52987    1.4205893   -106.10928     25935.55    4.2805104    4.2805104    4.2805104     25935.55    40929.584   -12364.676    49241.742    15492.945    22110.037   -13057.521    78.430803 
    5300    1569.6001      -107.58    1.4202071   -106.15979   -19388.388    4.3090863    4.3090863    4.3090863   -19388.388   -2212.3531   -16664.552   -39288.258    -671.9201    9785.9245    20993.132    80.012083 
    5400    1599.6492   -107.58176    1.4473962   -106.13436     9115.324    4.3184414    4.3184414    4.3184414     9115.324   -23240.454   -39264.071    89850.498     17801.54    924.55125   -3473.7632    80.534339 
    5500    1297.2742   -107.30369    1.1738009   -106.12989    13993.461    4.3177391    4.3177391    4.3177391    13993.461    -12205.26    34835.603    19350.042     3557.434    27172.839   -6676.1989    80.495053 
    5600    1527.4363   -107.50439    1.3820564   -106.12234    12021.241    4.3070704    4.3070704    4.3070704    12021.241    39846.884   -55423.723    51640.563    645.10443   -2054.8841   -15774.098    79.899841 
    5700    1221.8204   -107.24155    1.1055288   -106.13602      42699.2    4.2872197    4.2872197    4.2872197      42699.2    66788.579     53319.32    7989.7015    18209.184    11581.222     8031.269    78.800183 
    5800     1211.219    -107.2676    1.0959364   -106.17166   -8024.5651    4.3072617    4.3072617    4.3072617   -8024.5651   -13194.954    46166.864   -57045.605    12171.127    17025.775     -21625.3    79.910486 
    5900    1948.5006   -107.89609    1.7630443   -106.13304   -14503.195    4.3186528    4.3186528    4.3186528   -14503.195    10491.248    -23809.99   -30190.841    7525.4147   -6938.7873    1558.2009    80.546165 
    6000    1106.1404    -107.1193    1.0008591   -106.11844    5633.2884     4.320499     4.320499     4.320499    5633.2884   -36010.107     68356.53   -15446.558    14300.821    18992.535    106.04952     80.64951 
    6100     1319.534   -107.29657    1.1939421   -106.10262   -12758.056    4.3140687    4.3140687    4.3140687   -12758.056   -5787.0454   -18684.537   -13802.587    3141.9404    2211.5977    -12240.88    80.289945 
    6200    1528.7592   -107.47921    1.3832534   -106.09595    26227.678    4.2834609    4.2834609    4.2834609    26227.678    57059.522    -12211.82    33835.333    14895.529    4948.4565    12286.457      78.5931 
    6300    1577.5639   -107.56622     1.427413    -106.1388   -1504.3349    4.2915194    4.2915194    4.2915194   -1504.3349    5605.3164    2826.9603   -12945.281    13822.746    4528.4804   -6054.9203     79.03751 
    6400    1301.9208   -107.32913    1.1780053   -106.15113   -15780.505     4.326054     4.326054     4.326054   -15780.505    29297.643   -33246.578   -43392.581    3470.0428    16422.643   -15367.806    80.960988 
    6500    1282.0644   -107.27926    1.1600388   -106.11922   -16033.312    4.3123778    4.3123778    4.3123778   -16033.312   -26876.493   -32276.791    11053.349    33351.065   -5424.7083    12595.486    80.195576 
    6600    1841.5918   -107.76069    1.6663109   -106.09438    -10018.61    4.2850158    4.2850158    4.2850158    -10018.61   -12199.064   -25586.367    7729.5999    4323.1047    9542.2888   -8173.8425    78.678719 
    6700    1430.8881   -107.43498    1.2946976   -106.14029   -5034.9164    4.3082697    4.3082697    4.3082697   -5034.9164   -16033.235   -30066.213    30994.699    8445.6103   -931.75932   -26169.784    79.966605 
    6800    1371.0713   -107.36355    1.2405742   -106.12298   -32277.929    4.3221261    4.3221261    4.3221261   -32277.929   -57147.956   -47267.187    7581.3545    51111.234    9524.5353    951.70393    80.740661 
    6900    1877.1233   -107.79547    1.6984606   -106.09701    605.89607    4.2966456    4.2966456    4.2966456    605.89607   -27595.963    30053.372   -639.72062    -2185.752    8054.7346   -1885.7285    79.321075 
    7000    1152.6512   -107.16978     1.042943   -106.12684   -2402.9135    4.2969595    4.2969595    4.2969595   -2402.9135   -50340.266     26300.34    16831.185    21603.006   -6366.8975    4039.6995    79.338464 
    7100    1373.6312   -107.38491    1.2428904   -106.14202   -25428.126    4.3104913    4.3104913    4.3104913   -25428.126   -55879.807   -46386.458    25981.886    17463.453   -1837.0426   -5555.6803    80.090373 
    7200    1469.6528   -107.46901    1.3297727   -106.13924    56.185586    4.3074152    4.3074152    4.3074152    56.185586     11745.13    17295.825   -28872.397   -1368.6237   -1630.1176    81.093826    79.919031 
    7300     1299.807   -107.31359    1.1760927    -106.1375    19260.936    4.3085175    4.3085175    4.3085175    19260.936   -39567.021    32895.579     64454.25    9663.6013     11408.63   -15695.597      79.9804 
    7400    1461.7641   -107.46254    1.3226349    -106.1399   -4551.8641    4.3199603    4.3199603    4.3199603   -4551.8641    -37757.95    29539.342   -5436.9839    1705.2369    3418.4242    16626.589    80.619346 
    7500    1391.5361   -107.37234    1.2590911   -106.11325    32451.071    4.3111255    4.3111255    4.3111255    32451.071    10917.014    21715.223    64720.976   -355.19406    6064.5607    362.70575     80.12573 
    7600    1399.0338    -107.3731    1.2658752   -106.10722    1970.3323    4.3089112    4.3089112    4.3089112    1970.3323   -43119.803   -7936.9892    56967.789    6173.3517    14272.304    1344.1829    80.002327 
    7700    1092.2298   -107.10667   0.98827246   -106.11839    -670.2268    4.3144011    4.3144011    4.3144011    -670.2268    -24569.24    38795.528   -16236.969    4020.1572    3163.0926    18540.764    80.308506 
    7800    1516.0667   -107.49137     1.371769    -106.1196    6810.3687    4.3058644    4.3058644    4.3058644    6810.3687   -17059.982    21986.196    15504.892     23154.98     5036.699   -12472.435    79.832745 
    7900    1618.1535   -107.59354    1.4641393    -106.1294   -45704.478    4.3099292    4.3099292    4.3099292   -45704.478   -84733.031   -46747.177   -5633.2244   -7351.7861   -8500.9307    14936.441    80.059045 
    8000    1288.2942   -107.29317    1.1656757   -106.12749    21941.748    4.3057716    4.3057716    4.3057716    21941.748   -13549.577    89688.213   -10313.393    8902.6536   -4618.9355    11973.312    79.827583 
    8100    1823.2087   -107.78077    1.6496776   -106.13109   -28995.617    4.3023907    4.3023907    4.3023907   -28995.617   -73023.091   -22741.492    8777.7317      10478.8   -748.31847   -14294.653    79.639687 
    8200    991.76817   -107.04015   0.89737268   -106.14278    15573.263    4.3042682    4.3042682    4.3042682    15573.263    7834.5173    15663.364    23221.908   -14755.098   -12536.699   -2690.0531    79.743995 
    8300      2280.54   -108.18986    2.0634805   -106.12638    -18723.85    4.3057281    4.3057281    4.3057281    -18723.85   -34799.102    21953.145   -43325.592   -14553.664    2456.4289   -7019.3345    79.825158 
    8400    1000.3375   -107.04664   0.90512642   -106.14151    16913.532    4.3119817    4.3119817    4.3119817    16913.532   -10489.288     51268.57    9961.3149    11911.812   -9459.1678    1061.8873    80.173476 
    8500     1681.794   -107.63763    1.5217225    -106.1159   -14358.069    4.3073735    4.3073735    4.3073735   -14358.069   -57721.884    9610.6977    5036.9803    7149.0937   -2275.1886     2735.032    79.916709 
    8600     1734.656   -107.68453    1.5695532   -106.11497   -5649.5401    4.2940807    4.2940807    4.2940807   -5649.5401   -30212.548    6761.7837    6502.1438   -11325.631    8585.1386   -9354.8279     79.17911 
    8700    1177.1025   -107.20427    1.0650671    -106.1392   -21694.118     4.299332     4.299332     4.299332   -21694.118   -45828.315   -20520.687    1266.6472    24980.391   -11030.803   -312.17458    79.469954 
    8800    1754.9423   -107.72682    1.5879087   -106.13892     14081.68    4.2923801    4.2923801    4.2923801     14081.68   -1452.6303    60282.908   -16585.236    6107.2282    3262.7392   -2762.3293    79.085075 
    8900    1629.3403   -107.62831    1.4742613   -106.15405   -1108.4321    4.3033292    4.3033292    4.3033292   -1108.4321   -54897.456    29206.368    22365.791    15205.257    6159.2269   -24103.711    79.691815 
    9000    781.24336   -106.86284   0.70688541   -106.15595    944.14628    4.3206924    4.3206924    4.3206924    944.14628   -79776.315    55035.716    27573.037    11573.489    4132.5723    -4356.574    80.660339 
    9100    2171.5001   -108.07525    1.9648189   -106.11044   -19261.665    4.3215975    4.3215975    4.3215975   -19261.665   -41930.821    3725.3217   -19579.496    8476.2743   -250.26715   -5867.9988    80.711042 
    9200    1298.4764   -107.27502    1.1748887   -106.10013     -28595.5    4.3215651    4.3215651    4.3215651     -28595.5    -57895.17    -25007.43   -2883.8985   -10225.236   -10767.628   -2593.5074    80.709227 
    9300    1412.9626   -107.36413    1.2784783   -106.08565    6267.9919    4.3057714    4.3057714    4.3057714    6267.9919   -47364.064   -19129.491    85297.531   -17805.487   -8396.4966   -11700.533    79.827569 
    9400    1880.2436   -107.81605    1.7012839   -106.11477    9677.6608    4.2994595    4.2994595    4.2994595    9677.6608   -25725.884    21000.446    33758.421    18330.674    10140.899    14067.909    79.477025 
    9500    721.27623   -106.82167   0.65262589   -106.16905   -32428.932     4.322011     4.322011     4.322011   -32428.932   -80903.177    -89622.34    73238.722    3102.0729    2690.6681   -11015.373     80.73421 
    9600    2000.4981   -107.93647    1.8100927   -106.12638    -981.5187    4.3072646    4.3072646    4.3072646    -981.5187   -52447.471    5607.3704    43895.544   -5260.4518    10374.707    22396.343    79.910651 
    9700    1275.1929   -107.28712    1.1538213    -106.1333   -3763.0838     4.302492     4.302492     4.302492   -3763.0838   -51510.021    30329.027     9891.743    6767.6851    11252.334   -17757.899    79.645311 
    9800    1533.6393   -107.52722    1.3876691   -106.13955   -8794.2819    4.3072907    4.3072907    4.3072907   -8794.2819   -24990.863   -42982.928    41590.945    792.10079    2591.7105   -9795.6804    79.912099 
    9900    1279.7239   -107.29451    1.1579211   -106.13659    37511.813    4.3085446    4.3085446    4.3085446    37511.813   -27772.445    98350.658    41957.227   -7558.4252     -8706.88    21814.621    79.981914 
   10000    1614.9923   -107.59639    1.4612789   -106.13511   -64725.109    4.3245601    4.3245601    4.3245601   -64725.109   -112391.55    -61087.88   -20695.897   -11731.898   -2736.5245   -2904.8347    80.877145 
   10100    1474.3217   -107.44483    1.3339972   -106.11083    8576.9387    4.3085689    4.3085689    4.3085689    8576.9387    -58101.65     94759.18   -10926.714    19731.781    2606.7292   -6109.7855    79.983262 
   10200    1568.3149   -107.53914    1.4190443    -106.1201    29991.594    4.2894811    4.2894811    4.2894811    29991.594   -14207.484    37720.916    66461.351   -7602.0141    2113.9501    28322.342    78.924945 
   10300    1599.9897   -107.61528    1.4477043   -106.16758    2838.8114    4.3104208    4.3104208    4.3104208    2838.8114   -34599.339    19693.567    23422.206    22663.545   -10019.547   -2327.6348    80.086444 
   10400    1289.0875   -107.30557    1.1663935   -106.13918   -5995.9701    4.3300117    4.3300117    4.3300117   -5995.9701   -31332.412    59890.223   -46545.722    8875.2971    3308.2039    16696.803    81.183393 
   10500    1726.9724   -107.68027    1.5626009   -106.11767   -30213.488    4.3071017    4.3071017    4.3071017   -30213.488   -51516.107    -27823.11   -11301.247    10320.522    510.98062    13934.905     79.90158 
   10600    988.52759   -107.02702   0.89444053   -106.13258    44441.208    4.2840408    4.2840408    4.2840408    44441.208   -36248.928    84581.778    84990.775     17640.48   -10897.261   -9833.6827    78.625023 
   10700    1969.8701   -107.94227    1.7823798   -106.15989   -2032.6449    4.3041836    4.3041836    4.3041836   -2032.6449   -29782.765    23791.523   -106.69285    850.91601    3748.2893   -21401.739    79.739291 
   10800    921.57197    -106.9888   0.83385769   -106.15495    21484.274    4.3310223    4.3310223    4.3310223    21484.274   -40655.137    46655.553    58452.408    1189.3148   -3869.9005    107.41338     81.24025 
   10900    1054.4589    -107.0637   0.95409654   -106.10961    4531.2571    4.3363474    4.3363474    4.3363474    4531.2571   -27058.094    644.09857    40007.767     16182.74   -13273.697    2776.5059    81.540281 
   11000    1645.6571   -107.55912    1.4890251   -106.07009    26288.805     4.312212     4.312212     4.312212    26288.805    8417.5302    60271.076     10177.81   -1186.5287   -7902.7521   -30240.562    80.186324 
   11100    1255.8148   -107.21135    1.1362876   -106.07506    29984.782    4.2925303    4.2925303    4.2925303    29984.782   -29255.009     60211.67    58997.686    29048.874   -4512.5176    2966.5009    79.093377 
   11200    1868.5104   -107.81654    1.6906675   -106.12587    113.67121    4.3153352    4.3153352    4.3153352    113.67121    13078.679     1921.305   -14658.971   -16010.823    22155.346   -13861.536    80.360681 
   11300    1388.1989     -107.385    1.2560715   -106.12893    -27084.47    4.3262344    4.3262344    4.3262344    -27084.47   -75441.502   -15791.262    9979.3545    4719.2765    13231.045   -17295.042    80.971119 
   11400    1499.7704   -107.45984    1.3570238   -106.10282   -13929.094    4.2954228    4.2954228    4.2954228   -13929.094   -62150.636    -14892.05    35255.404    16152.685   -9948.2509    10712.226    79.253373 
   11500     1465.856   -107.45005    1.3263373   -106.12371    41629.991    4.3013006    4.3013006    4.3013006    41629.991    605.31544    73028.457    51256.201   -16420.855    7200.4124   -22205.633    79.579165 
   11600    1404.3306   -107.41517    1.2706679    -106.1445   -51662.942    4.3209641    4.3209641    4.3209641   -51662.942   -71678.736   -74628.291   -8681.7991    16278.284     1824.647   -3460.8042     80.67556 
   11700    1464.0494   -107.45682    1.3247027   -106.13211    16968.738    4.3048058    4.3048058    4.3048058    16968.738   -12561.479    43684.474    19783.219   -12747.801   -4884.0364   -5443.5841    79.773878 
   11800    1358.2004   -107.36687    1.2289282   -106.13794    13495.537    4.3037437    4.3037437    4.3037437    13495.537   -22820.152    87422.406   -24115.643    12021.465    13591.339    15472.266    79.714843 
   11900    1209.3178   -107.23699    1.0942161   -106.14278   -5740.9875       4.3048       4.3048       4.3048   -5740.9875   -18064.879    21490.294   -20648.378    18045.558   -8190.1361   -6300.7676    79.773555 
   12000    1850.2089    -107.8197    1.6741079   -106.14559   -23170.335    4.3172353    4.3172353    4.3172353   -23170.335   -45265.363   -10713.675   -13531.966   -10602.121   -15673.413    12475.387    80.466881 
   12100    1416.4632   -107.41421    1.2816457   -106.13256   -36666.848    4.3231207    4.3231207    4.3231207   -36666.848   -33272.452   -25849.754   -50878.337    15209.365    20664.518    6322.1303    80.796412 
   12200    1513.4905   -107.47737     1.369438   -106.10793     1839.156    4.3000044    4.3000044    4.3000044     1839.156   -35151.103    51814.239   -11145.668    20168.555   -1244.0917     10071.67    79.507245 
   12300     1642.249   -107.61889    1.4859414   -106.13295    5155.3046    4.3000213    4.3000213    4.3000213    5155.3046   -1753.4038    46694.825   -29475.508   -8470.2971    12903.982   -2915.4866    79.508183 
   12400    996.36106   -107.05145   0.90152842   -106.14992    14266.171    4.3105917    4.3105917    4.3105917    14266.171    75228.938     33767.08   -66197.504   -33006.915    13594.034    6469.4669    80.095969 
   12500    1452.2351   -107.45146    1.3140128   -106.13744    24033.574    4.3085153    4.3085153    4.3085153    24033.574    27069.546      65427.7   -20396.525    5630.1655    7759.1774   -10698.823     79.98028 
   12600    1048.3725   -107.08561   0.94858944   -106.13702    8831.5337    4.3183806    4.3183806    4.3183806    8831.5337    130149.58   -36490.319   -67164.662    11.899071     12875.35    10447.041    80.530936 
   12700    1429.7869   -107.42423    1.2937012   -106.13053   -1758.8307    4.3082433    4.3082433    4.3082433   -1758.8307    -5452.499    34015.241   -33839.234   -9853.9906    20135.935    3277.5489     79.96513 
   12800    1500.4771   -107.47607    1.3576633   -106.11841     47226.15    4.2925426    4.2925426    4.2925426     47226.15    35112.352    61873.446    44692.652    4574.7353    28525.771     142.8571    79.094057 
   12900    1612.7976   -107.60988    1.4592932   -106.15059   -29142.946    4.3229366    4.3229366    4.3229366   -29142.946    -46138.14   -9780.3393   -31510.359    286.89355    7083.2485     18740.48    80.786091 
   13000    1600.5278    -107.5676    1.4481912   -106.11941   -29171.194    4.3376106    4.3376106    4.3376106   -29171.194    14086.754   -22270.398   -79329.936    4360.0335    18739.993   -8692.6313    81.611563 
   13100    1446.2794   -107.39926     1.308624   -106.09064    43549.557    4.3020938    4.3020938    4.3020938    43549.557    132802.46   -21269.615    19115.829    8246.8933    24020.053   -3911.5368    79.623199 
   13200    1214.3461   -107.21079    1.0987658   -106.11203    22851.293     4.296597     4.296597     4.296597    22851.293    132893.09   -43937.336   -20401.872   -14060.944    22013.845   -3382.3199    79.318385 
   13300    1740.0607   -107.71465    1.5744435   -106.14021   -36148.516    4.3154471    4.3154471    4.3154471   -36148.516   -19519.596   -34669.514   -54256.438    5042.3653   -21506.883    6489.1155    80.366934 
   13400    1755.0168   -107.73128    1.5879761    -106.1433   -38215.653    4.3112079    4.3112079    4.3112079   -38215.653   -22767.505   -67597.781   -24281.675    8817.1374   -15408.374    8035.3467    80.130323 
   13500    1183.0868   -107.21278    1.0704818   -106.14229    41061.051    4.2941408    4.2941408    4.2941408    41061.051    137498.26   -5171.6042   -9143.5031     5479.131    18844.234   -9917.9882    79.182435 
   13600    1738.2319    -107.7386    1.5727888   -106.16581    -11184.69    4.3061853    4.3061853    4.3061853    -11184.69    25426.261    -34097.86   -24882.471    12656.926   -19983.849    7128.2942     79.85059 
   13700    1273.3473   -107.32737    1.1521514   -106.17521    8792.7518    4.3177958    4.3177958    4.3177958    8792.7518    138145.47    -79941.05   -31826.164   -216.36909     146.1643    512.35419    80.498223 
   13800    2003.8686   -107.97453    1.8131424   -106.16139   -23481.875    4.3102232    4.3102232    4.3102232   -23481.875    34352.633     -42973.2   -61825.058   -8744.2106   -1870.4003    4957.8962     80.07543 
   13900    1259.7705   -107.28544    1.1398669   -106.14558    21891.997    4.2884583    4.2884583    4.2884583    21891.997    109234.14   -24447.488    -19110.66    17372.759    -431.8851    22757.979    78.868498 
   14000    1888.5183   -107.86587    1.7087711    -106.1571    4613.7566    4.2975512    4.2975512    4.2975512    4613.7566    48836.068   -1541.9983     -33452.8   -4490.3516    5006.3145   -12644.268    79.371241 
   14100    1025.9368   -107.08801   0.92828916   -106.15972   -15947.518    4.3196732    4.3196732    4.3196732   -15947.518    75417.493   -58526.592   -64733.456    4520.5062    8237.9164    36090.319    80.603274 
   14200    1808.9767   -107.77387    1.6368002   -106.13707   -16525.705    4.3051198    4.3051198    4.3051198   -16525.705   -4657.8334   -18599.883   -26319.398    6072.5435   -1246.3169   -16148.517    79.791335 
   14300    1382.1957    -107.3845    1.2506397   -106.13386    20579.914    4.3061061    4.3061061    4.3061061    20579.914    11997.064    57887.568   -8144.8905    24228.975   -10916.159      6380.51    79.846188 
   14400    1659.2418   -107.62739    1.5013168   -106.12607   -44701.164     4.320232     4.320232     4.320232   -44701.164   -11336.585   -67510.414   -55256.492   -3705.8339    286.79541    16691.476    80.634555 
   14500     1615.109   -107.57641    1.4613845   -106.11503   -2985.4643    4.3068109    4.3068109    4.3068109   -2985.4643     5334.677    29173.154   -43464.224    11740.043   -6772.8599   -24255.863    79.885397 
   14600    1580.3828   -107.55335    1.4299636   -106.12339    8425.6341     4.290726     4.290726     4.290726    8425.6341    61252.812      11122.9    -47098.81   -1619.6177   -1290.0158    41520.833    78.993678 
   14700    1502.3301   -107.51752    1.3593399   -106.15818   -365.63355    4.3095302    4.3095302    4.3095302   -365.63355    33672.891    2301.1714   -37070.963    11244.799     -9973.94   -11993.017    80.036813 
   14800    1718.1869   -107.68866    1.5546516     -106.134   -12234.755    4.3217913    4.3217913    4.3217913   -12234.755   -16742.076    19024.434   -38986.623    13650.803   -15429.908    8376.5864    80.721897 
   14900    1338.9683   -107.32945    1.2115266   -106.11792    1386.7228    4.3191418    4.3191418    4.3191418    1386.7228    40776.721    34343.812   -70960.365    5053.0273   -12673.188    12815.141    80.573527 
   15000     1832.892   -107.76685    1.6584392   -106.10841   -8835.0068    4.3049461    4.3049461    4.3049461   -8835.0068    783.65456   -3348.3771   -23940.298    14130.652   -27053.832    -8694.971    79.781673 
   15100     1253.805   -107.25247    1.1344692     -106.118    37652.631    4.2916633    4.2916633    4.2916633    37652.631    60093.594    79781.156   -26916.856   -16587.719    4607.8108    25014.983    79.045458 
   15200    1820.6075   -107.79497    1.6473239   -106.14765   -11530.786    4.3096774    4.3096774    4.3096774   -11530.786    1389.7902   -22526.517    -13455.63     8805.752    -7922.994     2805.766    80.045016 
   15300     1820.691   -107.77544    1.6473995   -106.12804   -25444.769    4.3246886    4.3246886    4.3246886   -25444.769    16267.211   -28524.205   -64077.311    11009.847   -12236.389    169.39763    80.884355 
   15400    1463.9563   -107.42644    1.3246184   -106.10182    23924.542    4.3168734    4.3168734    4.3168734    23924.542    48748.306    48346.679   -25321.359   -23760.613    6331.5938    20288.147    80.446646 
   15500    1536.9143   -107.49419    1.3906324   -106.10355   -7754.7029    4.3133412    4.3133412    4.3133412   -7754.7029   -21015.655    27173.804   -29422.258     17190.47   -22436.616    3861.7807    80.249334 
   15600    1998.5409   -107.90961    1.8083218   -106.10129   -25707.676     4.301739     4.301739     4.301739   -25707.676   -38399.677   -5830.4091    -32892.94    15120.011   -1538.2923    10345.523    79.603503 
   15700    1303.5263   -107.30875     1.179458    -106.1293    29374.345    4.2992329    4.2992329    4.2992329    29374.345     34616.12    70516.431   -17009.516   -7710.2755   -611.01058    3734.8985    79.464456 
   15800    1938.6593   -107.90204    1.7541397    -106.1479   -51277.194    4.3182526    4.3182526    4.3182526   -51277.194   -41644.723   -33375.027    -78811.83    6240.2905   -26233.318   -18821.175    80.523774 
   15900    1344.9544   -107.36258     1.216943   -106.14564    16287.152    4.3155698    4.3155698    4.3155698    16287.152    25180.622    57713.504   -34032.671    6279.2593    9123.5747   -7287.2739    80.373787 
   16000    1803.7093   -107.76681    1.6320341   -106.13478   -24723.555    4.3131646    4.3131646    4.3131646   -24723.555   -70984.437    17573.353    -20759.58    6084.3093   -28251.919   -614.58622    80.239477 
   16100    1313.7732   -107.31256    1.1887296   -106.12383    42744.682    4.3121642    4.3121642    4.3121642    42744.682    3245.5612    121924.73    3063.7517   -8936.8346   -4610.5317   -18263.274    80.183661 
   16200    1319.7411   -107.32003    1.1941295    -106.1259   -23015.444     4.316188     4.316188     4.316188   -23015.444   -39964.071    1020.8063   -30103.067   -5470.7243    -9035.122    13157.534    80.408333 
   16300    1167.4616   -107.18282    1.0563438   -106.12647   -25163.287    4.3054882    4.3054882    4.3054882   -25163.287   -42240.422    29092.731   -62342.169    11954.912   -35131.785    22667.044    79.811819 
   16400     2004.596   -107.93126    1.8138006   -106.11746    17764.508    4.2881727    4.2881727    4.2881727    17764.508   -10029.592     39903.95    23419.166   -12561.195    9071.3543   -15989.094    78.852741 
   16500    1321.0134   -107.35035    1.1952807   -106.15507   -51123.183    4.3163047    4.3163047    4.3163047   -51123.183   -63936.411   -1787.0913   -87646.048    14845.608   -36419.686    29191.653    80.414854 
   16600    1391.5216   -107.38749     1.259078   -106.12841   -9638.9889     4.314402     4.314402     4.314402   -9638.9889   -25592.179   -7120.9141    3796.1269   -34.508042    -9399.869    31289.284    80.308559 
   16700     1495.971   -107.46523     1.353586   -106.11165    20464.337    4.2931491    4.2931491    4.2931491    20464.337   -1779.0851    103265.54   -40093.443   -3997.8743    11606.246   -16955.178    79.127585 
   16800    795.76602   -106.86489   0.72002582   -106.14486    5278.1493    4.3125554    4.3125554    4.3125554    5278.1493   -30654.417    62049.402   -15560.537    5437.3848   -5599.9733    14080.789    80.205485 
   16900    2045.8965   -107.96763    1.8511702   -106.11646   -4513.8936    4.3149277    4.3149277    4.3149277   -4513.8936   -55208.047    22520.997    19145.369    10021.067    6065.0539    9516.3508    80.337916 
   17000    1474.1356   -107.46859    1.3338289   -106.13476    5623.5333    4.3048615    4.3048615    4.3048615    5623.5333   -40062.895    19857.606     37075.89   -2146.6846    -20000.53    30807.089    79.776975 
   17100     968.0544   -107.02008   0.87591597   -106.14417    31281.995    4.2977785    4.2977785    4.2977785    31281.995    15158.359   -35226.078     113913.7    18607.311    5224.2611    25146.445    79.383837 
   17200    1784.5641   -107.74413    1.6147111   -106.12942   -12572.596    4.3081301    4.3081301    4.3081301   -12572.596   -51924.632    33485.482   -19278.638    3225.9104    -12789.89    14391.075    79.958831 
   17300    900.13754   -106.93894   0.81446336   -106.12447   -15312.175    4.3125054    4.3125054    4.3125054   -15312.175   -67622.751    8275.4315    13410.796   -1010.5533   -31086.406   -138.30602    80.202693 
   17400    1916.0325   -107.84255    1.7336664   -106.10889   -17346.328    4.3008736    4.3008736    4.3008736   -17346.328   -7762.3525   -30047.126   -14229.505    -2569.225    4132.4708    31281.026    79.555469 
   17500    1729.3229   -107.68952    1.5647277    -106.1248    10362.629    4.2869885    4.2869885    4.2869885    10362.629   -13327.934    14825.491    29590.331    1551.9748   -3572.3472   -2061.8329    78.787435 
   17600    1122.4419   -107.16557     1.015609   -106.14996    48327.142    4.2786035    4.2786035    4.2786035    48327.142    2076.6554   -5338.5317     148243.3    20244.247   -20487.942    10635.026    78.326032 
   17700    1723.9856   -107.73292    1.5598984   -106.17302   -26471.827    4.3049732    4.3049732    4.3049732   -26471.827   -21225.916   -24597.939   -33591.626   -11575.502    13338.717    19236.941     79.78318 
   17800    1324.2543   -107.35031    1.1982131   -106.15209   -1558.5349    4.3034942    4.3034942    4.3034942   -1558.5349   -10095.183   -31163.487    36583.065     1880.778    6267.7644    3719.3444    79.700983 
   17900    1291.6643   -107.29571     1.168725   -106.12699    37723.857    4.2855896    4.2855896    4.2855896    37723.857    44821.363    23299.716    45050.493    10419.291   -8952.4251    11735.349    78.710333 
   18000    1405.9087   -107.40354    1.2720957   -106.13144   -6690.7583    4.3025786    4.3025786    4.3025786   -6690.7583   -10001.066    -30223.64     20152.43    -7985.249    8381.1973    4366.1591    79.650118 
   18100     1393.566   -107.39718    1.2609278   -106.13625   -19866.488     4.300044     4.300044     4.300044   -19866.488   -24497.828    -53918.95    18817.314    27411.914   -1784.9776    4437.9177    79.509438 
   18200    1989.3582   -107.94222    1.8000131   -106.14221    11374.474    4.2788065    4.2788065    4.2788065    11374.474    9892.6095    4900.4435     19330.37    8147.8429     7069.262    6000.3515     78.33718 
   18300    1271.1825   -107.31234    1.1501927   -106.16215    27041.463    4.2821751    4.2821751    4.2821751    27041.463    6374.6081    7776.4165    66973.364   -3912.3822   -632.78417   -4053.4389    78.522343 
   18400    1199.1878   -107.24699    1.0850503   -106.16194   -9129.1875    4.3074604    4.3074604    4.3074604   -9129.1875   -21103.625   -26349.536    20065.599    20608.325   -17816.805   -15497.504    79.921545 
   18500     1986.477    -107.9181    1.7974061    -106.1207   -24613.866    4.3136828    4.3136828    4.3136828   -24613.866    3135.6754    -17449.11   -59528.164   -11710.236    3536.2474    12180.143    80.268405 
   18600    1282.5911   -107.25991    1.1605153   -106.09939    20224.982    4.2917634    4.2917634    4.2917634    20224.982    25675.995    4903.5253    30095.426    25663.721    487.17015   -1285.5036    79.050989 
   18700    1414.5345   -107.38387    1.2799006   -106.10397    34528.242    4.2896199    4.2896199    4.2896199    34528.242    42867.589   -14589.644    75306.781    8590.6292   -9205.8105   -6312.5584    78.932604 
   18800    1768.1835   -107.71712    1.5998896   -106.11723     5779.148    4.2954796    4.2954796    4.2954796     5779.148    35845.965    2152.0104   -20660.532   -19446.143   -3236.1543    10664.543    79.256519 
   18900    1096.5897   -107.12201   0.99221744    -106.1298    25952.052    4.2923706    4.2923706    4.2923706    25952.052    23932.692    34755.053     19168.41    23060.674   -666.16902     6532.891    79.084547 
   19000    1961.4502   -107.90006    1.7747613   -106.12529   -27677.521    4.3001851    4.3001851    4.3001851   -27677.521   -29237.238    -34298.85   -19496.475   -18918.436   -4725.4955    4443.9393     79.51727 
   19100     856.7493   -106.90731   0.77520477   -106.13211    10868.618    4.2896575    4.2896575    4.2896575    10868.618    40363.339    -3982.362   -3775.1241    -20467.41    4866.2426    9056.0334    78.934682 
   19200    2147.6409   -108.07075    1.9432306   -106.12752   -13190.139    4.2733254    4.2733254    4.2733254   -13190.139   -9710.3234    2327.9596   -32188.052    13231.801    19490.745    10184.948    78.036521 
   19300     1317.213   -107.34779     1.191842   -106.15594    525.27778    4.2846971    4.2846971    4.2846971    525.27778    14161.168   -21029.801    8444.4658    -35204.11   -967.00471   -10027.685    78.661163 
   19400    1597.5958   -107.59215    1.4455383   -106.14661   -20393.186    4.2967307    4.2967307    4.2967307   -20393.186   -36797.355   -21964.933   -2417.2696     -26080.5    15183.321    10767.227    79.325788 
   19500    1472.9547   -107.46481    1.3327604   -106.13205   -23776.061    4.3103089    4.3103089    4.3103089   -23776.061   -20682.658   -43440.204   -7205.3224    8622.0479    5499.0346   -7159.2513    80.080205 
   19600    873.00592   -106.91176    0.7899141   -106.12185   -4356.1989     4.294057     4.294057     4.294057   -4356.1989     60559.23   -79202.003    5574.1761   -39757.917    6430.7978   -22517.005    79.177798 
   19700    2160.5852    -108.0571    1.9549429   -106.10216     13720.09    4.2779193    4.2779193    4.2779193     13720.09    71418.056   -34596.521    4338.7348   -418.11654    315.66562     6477.524    78.288464 
   19800    1333.2777   -107.35362    1.2063777   -106.14725   -16510.051    4.3074573    4.3074573    4.3074573   -16510.051   -11242.062   -40393.701    2105.6117   -23307.267    9456.8214   -5588.8723    79.921377 
   19900    1453.2386   -107.43482    1.3149208    -106.1199   -26838.887    4.3198789    4.3198789    4.3198789   -26838.887    -8164.218   -57646.718   -14705.723   -34551.414    -2787.991   -1486.8727    80.614791 
   20000     1988.968   -107.91234      1.79966   -106.11268    8393.7052    4.2873013    4.2873013    4.2873013    8393.7052   -9637.0589    3784.9093    31033.265     19788.51    8104.3424    -7697.452    78.804684 
   20100     1044.643   -107.06934    0.9452149   -106.12413        46822    4.2553127    4.2553127    4.2553127        46822     61370.29     42168.82    36926.888   -40712.513    8542.4041    3021.7807    77.053869 
   20200    1401.4451   -107.44966     1.268057    -106.1816   -19323.354    4.2827846    4.2827846    4.2827846   -19323.354    -30172.72   -41305.671     13508.33    -19668.81    5664.4544   -12605.604    78.555879 
   20300    1827.3595   -107.80887    1.6534333   -106.15543   -16584.313    4.3022583    4.3022583    4.3022583   -16584.313   -26614.938    5945.8156   -29083.817    24268.439   -17153.714    3553.4149    79.632334 
   20400    1519.7821   -107.52273    1.3751308    -106.1476    7573.1486    4.2869843    4.2869843    4.2869843    7573.1486    2489.5354    3885.3601     16344.55   -40943.503    16108.516   -11624.162    78.787203 
   20500    1637.9949   -107.63617    1.4820922   -106.15407    3828.9761    4.2885264    4.2885264    4.2885264    3828.9761    -30107.84    84857.499    -43262.73    -4508.189   -5662.1889   -13822.556    78.872257 
   20600    1748.2761   -107.74711    1.5818769   -106.16524   -5572.8507    4.2899389    4.2899389    4.2899389   -5572.8507   -66706.135    57603.207   -7615.6248    21917.125    -13450.93   -8724.6948    78.950214 
   20700     1092.069   -107.16786   0.98812694   -106.17973    35137.974    4.2747012    4.2747012    4.2747012    35137.974   -66997.693    63083.916     109327.7    -28208.59    19478.329   -4749.4814    78.111918 
   20800    1980.3089   -107.99253    1.7918251   -106.20071   -7532.5211    4.2971616    4.2971616    4.2971616   -7532.5211   -36931.822    21828.479   -7494.2198    1050.2213     -1053.78   -14760.421    79.349659 
   20900    1588.0612   -107.60616    1.4369112   -106.16925     12966.85     4.306765     4.306765     4.306765     12966.85   -57548.621    67508.154    28941.017    4201.2014   -2906.5752    14155.295    79.882843 
   21000    931.41245    -107.0087   0.84276156   -106.16594   -14859.755    4.2894778    4.2894778    4.2894778   -14859.755   -84322.611    3908.5396    35834.807   -38074.792    20091.378   -231.27124    78.924762 
   21100    1718.4454   -107.71396    1.5548855   -106.15907   -19536.475    4.2727639    4.2727639    4.2727639   -19536.475   -33600.222    1979.3594   -26988.562   -2621.0806    19239.034   -3079.5721     78.00576 
   21200    1201.5253   -107.26432    1.0871654   -106.17716    53339.957    4.2784809    4.2784809    4.2784809    53339.957   -30602.801    112481.61    78141.064   -3914.6066   -7976.7181   -3028.2152    78.319298 
   21300     1722.442   -107.74553    1.5585017   -106.18703   -51832.976    4.3118532    4.3118532    4.3118532   -51832.976   -103297.14    -15073.04   -37128.751   -32837.742    30760.468   -190.74473     80.16631 
   21400    1714.8506   -107.71598    1.5516329   -106.16435   -18682.331    4.3038666    4.3038666    4.3038666   -18682.331   -46383.939   -17249.721    7586.6662    10094.306   -2251.2283   -28358.889    79.721676 
   21500    1219.2516   -107.25706    1.1032045   -106.15385    38363.532    4.2712976    4.2712976    4.2712976    38363.532    1846.4451    110880.06    2364.0932    16855.054    10064.833    -7858.194     77.92548 
   21600    1312.2286   -107.37993     1.187332    -106.1926    2702.9841    4.2830123    4.2830123    4.2830123    2702.9841   -47710.126    59135.347   -3316.2688   -25273.495    13782.489    9707.9471    78.568412 
   21700    1588.5115   -107.62418    1.4373186   -106.18686   -7210.8994     4.300263     4.300263     4.300263   -7210.8994   -52152.646      29658.4    861.54787     907.2851   -7592.0137   -21697.248    79.521589 
   21800    1630.5282   -107.65592    1.4753362   -106.18058   -8844.5886    4.3011601    4.3011601    4.3011601   -8844.5886   -36932.614        34304   -23905.151    11387.034    16038.445    936.02651    79.571368 
   21900    1317.9018   -107.35471    1.1924652   -106.16224    21824.868    4.3000823    4.3000823    4.3000823    21824.868   -32425.866    83805.168      14095.3   -9715.0344    2164.6436    7208.2708    79.511566 
   22000    1975.5045   -107.93692     1.787478   -106.14944    -19266.83    4.2871025    4.2871025    4.2871025    -19266.83   -41917.481   -13618.841   -2264.1675    27386.388    -1268.189   -16986.605    78.793719 
   22100    1262.0038   -107.30352    1.1418876   -106.16163   -3000.4929    4.2742142    4.2742142    4.2742142   -3000.4929   -30414.276    32238.319   -10825.522    7130.2441    32162.351    11571.516    78.085223 
   22200    1100.6061   -107.17604    0.9958515   -106.18018    38620.086    4.2869293    4.2869293    4.2869293    38620.086   -30548.084    80528.613     65879.73   -16189.927    1365.8563    28723.784    78.784169 
   22300    1976.9439   -107.95041    1.7887804   -106.16163    -14772.11    4.3053249    4.3053249    4.3053249    -14772.11   -31308.824    18536.888   -31544.395   -3734.7995    6268.0263   -6976.5623    79.802737 
   22400    1474.3179   -107.49506    1.3339938   -106.16106   -26452.571    4.2930338    4.2930338    4.2930338   -26452.571   -41327.586    19852.866   -57882.992   -2664.1198    32058.421    31050.719    79.121211 
   22500    1299.1835   -107.32626    1.1755285   -106.15073    36199.995    4.2742682    4.2742682    4.2742682    36199.995    18075.273    46326.347    44198.364     -1234.75    -4566.442   -5424.0812    78.088179 
   22600    1715.4654   -107.71975    1.5521892   -106.16756   -2884.7045    4.2827003    4.2827003    4.2827003   -2884.7045   -31332.036    51693.889   -29015.966    1580.4315    21116.168    5195.6192    78.551242 
   22700    935.65681   -107.01513   0.84660194   -106.16853   -1322.9228    4.3018978    4.3018978    4.3018978   -1322.9228   -992.83385    20038.861   -23014.796    6802.2542    22328.793    11107.553    79.612318 
   22800    1725.2263   -107.69929     1.561021   -106.13826     6292.678    4.3015658    4.3015658    4.3015658     6292.678   -19955.955    38967.606   -133.61706   -3625.1693   -13086.989   -2195.1404    79.593886 
   22900    1963.1417   -107.90697    1.7762919   -106.13067   -18718.541    4.2835953    4.2835953    4.2835953   -18718.541   -34402.842    5999.0328   -27751.814   -14141.631    22541.976    2391.2991    78.600498 
   23000    980.20777   -107.03569   0.88691259   -106.14878    40684.808    4.2717695    4.2717695    4.2717695    40684.808    49290.928    42459.452    30304.043    7940.5882    5912.6236    33270.371    77.951315 
   23100    1546.1927   -107.56325    1.3990277   -106.16422   -429.96575    4.2867754    4.2867754    4.2867754   -429.96575   -29756.053    45325.778   -16859.622   -12561.577   -20020.145   -4433.2121    78.775687 
   23200    1586.4203   -107.58525    1.4354264   -106.14982    1065.8193    4.2914833    4.2914833    4.2914833    1065.8193    -29037.56    21445.231    10789.787    2445.3578    16003.237    20251.442    79.035513 
   23300    1073.8016   -107.11669   0.97159828   -106.14509    10065.487    4.2968851    4.2968851    4.2968851    10065.487    26827.097   -18919.836      22289.2    808.59191    -9463.916    19554.468    79.334343 
   23400    1961.0506   -107.89631    1.7743998   -106.12191   -19906.258    4.2949296    4.2949296    4.2949296   -19906.258   -44000.574    13284.531   -29002.732    813.39941   -12143.855   -15772.384    79.226078 
   23500      1866.32   -107.80667    1.6886855   -106.11798   -10224.209    4.2850847    4.2850847    4.2850847   -10224.209   -30132.361    30913.303    -31453.57   -1419.8998     29346.89    36758.397    78.682513 
   23600    1153.4323   -107.17778    1.0436498   -106.13413   -15950.195    4.2968184    4.2968184    4.2968184   -15950.195    3663.2357   -46256.473   -5257.3469    12734.727   -20825.895    5455.2882    79.330649 
   23700    1814.4764   -107.75809    1.6417764   -106.11632   -34837.116    4.3073979    4.3073979    4.3073979   -34837.116   -40521.763   -14906.801   -49082.783   -5861.2744   -4036.5854    -17262.41    79.918066 
   23800     1718.719   -107.66367    1.5551331   -106.10854    -1511.376    4.2909009    4.2909009    4.2909009    -1511.376   -2605.5396    38979.832    -40908.42   -15002.692    20730.734    27509.283    79.003339 
   23900    1542.8341   -107.52681    1.3959887   -106.13082   -24350.256     4.288357     4.288357     4.288357   -24350.256   -20732.842   -5325.2144   -46992.712    12153.006   -10817.312    24694.001    78.862912 
   24000    1729.6778   -107.70371    1.5650488   -106.13866   -14838.843    4.3013469    4.3013469    4.3013469   -14838.843     21665.55   -8036.8834   -58145.195   -12161.794   -5228.0457    -19621.59    79.581737 
   24100    1709.4525   -107.67855    1.5467486    -106.1318   -7913.9264    4.3061384    4.3061384    4.3061384   -7913.9264   -4743.4893    27836.167   -46834.457   -8448.7207    2130.9401    34334.428    79.847985 
   24200    1416.9365   -107.40485     1.282074   -106.12277   -29137.239     4.310836     4.310836     4.310836   -29137.239      31357.2   -44201.984   -74566.932   -959.60199   -14911.185    585.78331    80.109591 
   24300    1493.8064   -107.46863    1.3516274     -106.117   -6983.8521    4.2957932    4.2957932    4.2957932   -6983.8521    3532.6692    35102.511   -59586.737    8706.7267   -5993.7011    -33891.53    79.273878 
   24400    1622.4297   -107.58669    1.4680085   -106.11868    21587.584    4.2666449    4.2666449    4.2666449    21587.584    45199.757    24278.274   -4715.2794   -29513.977   -2242.3561    34705.047    77.671106 
   24500     1344.608   -107.38885    1.2166295   -106.17222   -14500.465    4.2825045    4.2825045    4.2825045   -14500.465   -13154.259    33343.178   -63690.314     13189.74   -11133.953   -19026.446    78.540467 
   24600    1266.1784   -107.30796    1.1456648   -106.16229    44.483024    4.3165731    4.3165731    4.3165731    44.483024   -17194.097    81562.166    -64234.62    3168.4518    5317.5777   -10895.285    80.429856 
   24700    1874.3654   -107.83799    1.6959652   -106.14203   -17564.858    4.3012853    4.3012853    4.3012853   -17564.858    2053.3079   -14418.829   -40329.053    11706.819   -5570.4801    25627.518    79.578318 
   24800      1291.14   -107.29858    1.1682506   -106.13033    2327.0297    4.2665605    4.2665605    4.2665605    2327.0297    11524.916    33849.379   -38393.205    3784.9348   -7862.5578   -25854.644    77.666501 
   24900    1405.1681   -107.43601    1.2714256   -106.16459    29429.472    4.2704117    4.2704117    4.2704117    29429.472     53546.24    61051.937    -26309.76    961.57155    691.44122   -14468.206    77.877006 
   25000    1990.8712   -107.97517    1.8013821   -106.17379   -19172.081    4.3018136    4.3018136    4.3018136   -19172.081   -42113.261    23634.953   -39037.937   -2912.7941   -9669.5959    1777.1449     79.60764 
   25100    538.76987   -106.65297    0.4874903   -106.16548   -30562.645    4.3109374    4.3109374    4.3109374   -30562.645   -46037.848    14026.738   -59676.826    22146.621    4009.7776   -24276.817    80.115244 
   25200    1315.3568   -107.31954    1.1901625   -106.12938     7994.953    4.2773788    4.2773788    4.2773788     7994.953    48068.169    -23826.94   -256.37043   -10649.859    9349.0857    10080.032    78.258793 
   25300    1783.9035   -107.75056    1.6141133   -106.13645    26634.433    4.2772016    4.2772016    4.2772016    26634.433    25333.539    79326.415   -24756.654    21044.643    2477.0115    10137.867    78.249064 
   25400    1827.3335   -107.81064    1.6534097   -106.15723   -18817.368    4.2893762    4.2893762    4.2893762   -18817.368   -22482.147    25365.115   -59335.072   -456.03723   -165.15243    -13841.86    78.919155 
   25500    1303.0931   -107.34941     1.179066   -106.17035   -16073.322    4.2865149    4.2865149    4.2865149   -16073.322   -709.36614    22296.252   -69806.853    281.86785    1612.5698    12888.001    78.761323 
   25600    1019.6524   -107.09408    0.9226029   -106.17148    4593.1502     4.289869     4.289869     4.289869    4593.1502   -18414.991    76805.034   -44610.592   -3436.6202    4054.2957    36820.561    78.946357 
   25700    2233.9071   -108.18054    2.0212861   -106.15926     5672.711    4.2713502    4.2713502    4.2713502     5672.711    -28550.96    49261.568   -3692.4745   -1450.6362   -124.14395   -17190.424    77.928362 
   25800    1492.3653   -107.52993    1.3503234   -106.17961    10424.296    4.2631846    4.2631846    4.2631846    10424.296     11027.86     60500.75   -40255.724   -7194.2117   -2251.3782    39474.513    77.482283 
   25900    1247.9895    -107.3226    1.1292071   -106.19339   -20254.664    4.2966005    4.2966005    4.2966005   -20254.664   -33477.756    27197.067   -54483.303   -12619.561   -5804.8703    8970.7303    79.318578 
   26000    1934.4119    -107.9026    1.7502966    -106.1523   -22762.094    4.2934698    4.2934698    4.2934698   -22762.094   -24186.271   -2448.8674   -41651.142    19637.948    -6673.627   -7396.1308    79.145322 
   26100    1554.6457   -107.53828    1.4066761   -106.13161    26892.349     4.263975     4.263975     4.263975    26892.349    32411.886     58785.61   -10520.448    2348.6966   -3562.5976      41542.2    77.525386 
   26200     1230.031   -107.28282    1.1129579   -106.16986    11849.238    4.2838161    4.2838161    4.2838161    11849.238    21627.816    46621.412   -32701.513   -8373.3152   -314.08634   -34699.061    78.612655 
   26300    1905.8196   -107.87142    1.7244256     -106.147   -57428.179    4.3106806    4.3106806    4.3106806   -57428.179   -38655.001   -65787.835   -67841.702    26007.273   -2875.2468    16976.271    80.100926 
   26400    1189.9956   -107.21633     1.076733    -106.1396   -24414.746    4.2901184    4.2901184    4.2901184   -24414.746    10151.041   -24123.642   -59271.638    11861.925   -3374.8117    33554.202    78.960124 
   26500    1565.9303   -107.53524    1.4168867   -106.11835      44543.3    4.2643557    4.2643557    4.2643557      44543.3    53572.083    82050.165    -1992.348   -8073.0215    4794.5549   -30095.333    77.546158 
   26600    1734.4721   -107.71391    1.5693868   -106.14452    -39299.16    4.2934714    4.2934714    4.2934714    -39299.16   -22288.583    -49102.63   -46506.267    33125.408   -7536.7053    32750.976    79.145408 
   26700     1153.335   -107.19393    1.0435617   -106.15037   -24601.994    4.2980702    4.2980702    4.2980702   -24601.994   -12696.929    -9123.855   -51985.197    2525.0565    4490.4542   -4588.7718    79.400002 
   26800    1770.2974   -107.74225    1.6018023   -106.14045     13903.34    4.2732261    4.2732261    4.2732261     13903.34   -4509.4997    55531.601   -9312.0807   -7284.1631   -5554.8642   -24078.746    78.031078 
   26900    1877.0941   -107.84433    1.6984342    -106.1459   -13057.139    4.2729634    4.2729634    4.2729634   -13057.139   -1050.6266   -20533.669   -17587.122    15534.938   -6295.7363     15242.01     78.01669 
   27000    1109.1517   -107.16263    1.0035838   -106.15905   -5876.4788    4.2724456    4.2724456    4.2724456   -5876.4788    13424.078    9057.1436   -40110.658     3514.786    5674.8681   -24156.582    77.988332 
   27100     1551.058   -107.56156    1.4034298   -106.15813    5126.6946    4.2705443    4.2705443    4.2705443    5126.6946    12513.126    26034.629   -23167.671   -4450.3623   -14208.533   -4485.7287    77.884262 
   27200    1554.8991   -107.57354    1.4069054   -106.16664    -40231.43    4.3001172    4.3001172    4.3001172    -40231.43   -29523.613   -41412.433   -49758.243    26901.878    2348.5299    8408.1455      79.5135 
   27300    1182.2092   -107.21738    1.0696877   -106.14769   -1314.2848    4.2942417    4.2942417    4.2942417   -1314.2848   -9596.0568    59207.626   -53554.423   -4734.5986   -1109.9324    -33960.88    79.188016 
   27400    1933.2526   -107.88277    1.7492476   -106.13352      20418.4    4.2609137    4.2609137    4.2609137      20418.4    37405.179    50501.673   -26651.651    5047.5948   -15902.856   -4862.1973    77.358533 
   27500    1379.5035   -107.41951    1.2482038    -106.1713    -12052.23    4.2706963    4.2706963    4.2706963    -12052.23   -22404.382   -27825.285    14072.976   -6510.3713    5753.7191   -7244.1761    77.892574 
   27600    1270.8652   -107.31728    1.1499055   -106.16737   -15564.298    4.2994975    4.2994975    4.2994975   -15564.298   -4648.8457    1314.9928    -43359.04    306.83034   -5535.5365   -15788.804    79.479131 
   27700    2308.6715   -108.22398    2.0889345   -106.13504   -8058.9596    4.2899648    4.2899648    4.2899648   -8058.9596    24798.788   -12851.703   -36123.964    9413.7561   -5387.8613    11693.243    78.951648 
   27800    484.61606   -106.59637   0.43849079   -106.15788   -8688.7056    4.2853692    4.2853692    4.2853692   -8688.7056    8463.7035    -2505.677   -32024.143   -13376.498    4864.1071   -26092.761     78.69819 
   27900    1569.1271   -107.57362    1.4197792   -106.15384   -243.02063    4.2754439    4.2754439    4.2754439   -243.02063    10604.296    10326.447   -21659.805    7377.0425   -3131.9196   -14406.213    78.152636 
   28000    2118.2097   -108.06417    1.9166007   -106.14757    24733.464    4.2583163    4.2583163    4.2583163    24733.464    55906.555    27271.132   -8977.2962   -11881.169   -9864.5036    9627.0293    77.217145 
   28100    1108.9261   -107.19341    1.0033797   -106.19003    10816.495    4.2786497    4.2786497    4.2786497    10816.495    27259.499    33659.579   -28469.593    2770.8584     5597.127   -11854.267    78.328572 
   28200    1684.4244   -107.68181    1.5241026   -106.15771    3286.0796    4.2975276    4.2975276    4.2975276    3286.0796   -5388.8892     86934.28   -71687.152    5081.4924    -8134.376   -442.91762    79.369936 
   28300    1314.1741   -107.33379    1.1890923    -106.1447   -1272.7339    4.2816309    4.2816309    4.2816309   -1272.7339    81583.319   -41763.171   -43638.349     12093.34   -5781.3973    13673.455    78.492415 
   28400     955.0346   -107.01065   0.86413538   -106.14652    -8060.202     4.271301     4.271301     4.271301    -8060.202    52342.404   -44966.902   -31556.108    191.17476    3417.8046   -14910.659    77.925668 
   28500    1948.0104   -107.89933    1.7626008   -106.13673    39645.944    4.2632327    4.2632327    4.2632327    39645.944    34815.522    102751.54   -18629.234   -1255.6303   -2441.5615    10292.365    77.484904 
   28600    1043.2071   -107.11465   0.94391566   -106.17073   -15269.008    4.2872263    4.2872263    4.2872263   -15269.008    79612.853   -45072.625   -80347.252   -8172.5161    399.62939    3624.2706    78.800544 
   28700    1571.7609   -107.57309    1.4221623   -106.15093   -8722.2943    4.2912718    4.2912718    4.2912718   -8722.2943     9493.355    6046.1707   -41706.409   -1359.2068    1550.8078   -22902.689    79.023829 
   28800    2035.3145   -107.96885    1.8415953   -106.12726    45595.895    4.2638401    4.2638401    4.2638401    45595.895    58182.637    78115.955    489.09323   -13846.998    8745.5678    22535.386    77.518029 
   28900    479.57641   -106.59368   0.43393081   -106.15975     9261.241    4.2673048    4.2673048    4.2673048     9261.241    80366.315   -7976.8188   -44605.773   -10123.547    1600.7384   -28433.252     77.70715 
   29000    1694.5924   -107.68313    1.5333028   -106.14983    -4752.841    4.2883891    4.2883891    4.2883891    -4752.841   -8367.7261    29272.346   -35163.143    5482.6451     9181.687    626.65717    78.864679 
   29100    1552.6515   -107.53826    1.4048717   -106.13339    -5050.344    4.2970887    4.2970887    4.2970887    -5050.344    39534.771   -4248.9675   -50436.835   -9803.0087    15924.745    4067.9589    79.345622 
   29200    1301.1032   -107.30068    1.1772655   -106.12341   -27842.318    4.2810588    4.2810588    4.2810588   -27842.318    26820.176   -37305.177   -73041.955   -6279.2063    8565.1059   -25390.277    78.460952 
   29300    1823.3444   -107.75821    1.6498003   -106.10841    33984.186    4.2583675    4.2583675    4.2583675    33984.186   -3996.5919    92175.813    13773.338    7356.9998    22757.382    17061.007    77.219933 
   29400    1486.4089    -107.4819     1.344934   -106.13697   -634.55115     4.264299     4.264299     4.264299   -634.55115    46316.363   -20670.994   -27549.023   -9901.0757    5213.1531   -18132.007     77.54306 
   29500    1079.6089   -107.14124   0.97685283   -106.16439   -22261.449    4.2842341    4.2842341    4.2842341   -22261.449    10560.629   -47438.409   -29906.567   -847.21171    4489.7663   -22318.135    78.635667 
   29600    2055.7607   -108.00056    1.8600955   -106.14047    7351.3264    4.2759138    4.2759138    4.2759138    7351.3264    1385.1044    32560.384    -11891.51    246.42093    17025.322    11903.699    78.178407 
   29700    844.28634   -106.91216   0.76392803   -106.14823    33454.994    4.2629091    4.2629091    4.2629091    33454.994    45520.278     48429.69    6415.0146    9601.5445   -12961.221   -36691.666    77.467262 
   29800    1806.6795    -107.7838    1.6347216   -106.14908    -15901.16    4.2812586    4.2812586    4.2812586    -15901.16   -3272.8958   -7414.0274   -37016.557   -6837.3755   -2444.1052   -8437.6339    78.471941 
   29900    2167.0898   -108.08893    1.9608284   -106.12811    11463.501    4.2820571    4.2820571    4.2820571    11463.501    8251.6432    18144.659    7994.2003    7466.3181    7258.8931   -517.12192    78.515852 
   30000    1148.0071   -107.18328     1.038741   -106.14454   -18884.567    4.2708294    4.2708294    4.2708294   -18884.567    25342.964   -54034.312   -27962.354      6016.24    -11873.78   -29459.878    77.899858 
   30100    1488.2844    -107.4862     1.346631   -106.13957   -4571.5034    4.2691717    4.2691717    4.2691717   -4571.5034    6216.4957   -5501.0638   -14429.942   -19686.873   -11046.501    3602.9359    77.809186 
   30200    1353.5383   -107.36171    1.2247099     -106.137    21950.377    4.2648389    4.2648389    4.2648389    21950.377    45526.949   -28955.982    49280.164    17512.517    9058.0167   -9750.8533    77.572519 
   30300     1115.903   -107.16251    1.0096925   -106.15282    4469.6821    4.2775948    4.2775948    4.2775948    4469.6821    22701.042   -240.15851   -9051.8371   -12579.416   -5544.0057   -19795.748     78.27065 
   30400    1771.4772   -107.73978    1.6028698   -106.13691    7353.7722    4.2838806    4.2838806    4.2838806    7353.7722    1969.6308    17511.329    2580.3567   -7011.7685   -1369.1048    14861.035    78.616204 
   30500    1505.4043   -107.50261    1.3621214   -106.14049    2458.7513     4.272936     4.272936     4.272936    2458.7513    47414.493   -2919.8034   -37118.436    3188.8497     10687.69   -33204.194    78.015187 
   30600    1514.3066   -107.50913    1.3701764   -106.13895    7895.5955    4.2739965    4.2739965    4.2739965    7895.5955    41678.098   -14312.854   -3678.4566   -9163.7404    1903.2009   -15650.023    78.073289 
   30700    1746.7968   -107.71117    1.5805384   -106.13063    1161.2579    4.2756421    4.2756421    4.2756421    1161.2579     49117.99   -35464.039   -10170.177   -2250.8559   -5793.3352    875.80063    78.163508 
   30800     706.8736   -106.78867   0.63959409   -106.14907   -2229.9215    4.2783019    4.2783019    4.2783019   -2229.9215    50752.658   -49062.196   -8380.2261    20615.033    4429.7755   -38682.022    78.309469 
   30900    1626.9072    -107.6154    1.4720598   -106.14335   -4511.5402    4.2831837    4.2831837    4.2831837   -4511.5402   -21746.092    36035.758   -27824.287   -5826.8215   -10047.155   -237.29837     78.57784 
   31000    1778.7815   -107.74929    1.6094789   -106.13981    57397.258    4.2614544    4.2614544    4.2614544    57397.258    41338.522    86421.352    44431.901     8273.734     1332.563   -9597.9893    77.387982 
   31100    1016.8395   -107.09243   0.92005771   -106.17237    21749.045    4.2727958    4.2727958    4.2727958    21749.045    52069.886    39140.001   -25962.753    22284.957    8868.8109   -15934.619    78.007508 
   31200    2110.5944    -108.0291    1.9097101   -106.11939   -32870.616    4.3030465    4.3030465    4.3030465   -32870.616   -50571.715   -25668.967   -22371.167   -14686.252   -11017.964    11566.305    79.676109 
   31300    1144.9968   -107.16614    1.0360172   -106.13013   -19032.603     4.278723     4.278723     4.278723   -19032.603    6549.7875    -52287.48   -11360.115    16263.302    1772.7968   -30588.973    78.332595 
   31400     1063.094   -107.09001    0.9619098    -106.1281    33016.994    4.2466862    4.2466862    4.2466862    33016.994    55946.779    20613.054    22491.148    27380.751    1147.3292   -2853.8521    76.586199 
   31500    2223.4865   -108.15775    2.0118573   -106.14589    18859.267     4.266109     4.266109     4.266109    18859.267   -21685.205    105792.68   -27529.675    -1614.072   -7385.3295    9104.6861    77.641842 
   31600     1297.139   -107.33554    1.1736786   -106.16186   -13348.937    4.2922306    4.2922306    4.2922306   -13348.937   -27654.411    8214.0996   -20606.501    14251.108   -2462.9881   -20834.073    79.076812 
   31700    1530.2351    -107.5293    1.3845889   -106.14471   -22326.892    4.2844567    4.2844567    4.2844567   -22326.892   -14621.662    -37488.44   -14870.575    13802.403   -2580.7891   -5763.7925    78.647929 
   31800    1653.2962   -107.62416    1.4959371   -106.12822    9399.4684    4.2727219    4.2727219    4.2727219    9399.4684   -5738.5931    31059.955    2877.0427   -10413.443   -12839.928   -6507.2345    78.003461 
   31900    1241.7414   -107.26174    1.1235537   -106.13819   -32166.182    4.2830329    4.2830329    4.2830329   -32166.182   -20083.444   -53211.995   -23203.108     1605.128    1965.9424   -36338.983    78.569542 
   32000     1306.137   -107.31071    1.1818202   -106.12889    13737.262    4.2861691    4.2861691    4.2861691    13737.262   -20559.628    70613.022    -8841.607    8335.5854   -2308.1433    9090.8854    78.742266 
   32100    1808.4159   -107.77232    1.6362927   -106.13602   -17398.012    4.2829961    4.2829961    4.2829961   -17398.012   -12674.676    -27263.36   -12255.999   -38482.103   -10168.839    957.78879    78.567518 
   32200    1390.5115   -107.40249    1.2581641   -106.14432   -395.03498    4.2740889    4.2740889    4.2740889   -395.03498    20129.341    2679.4009   -23993.847   -6634.0985    8360.7078   -27467.135    78.078353 
   32300     1860.486   -107.82356    1.6834068   -106.14015    8100.1855    4.2791958    4.2791958    4.2791958    8100.1855   -10407.773    25490.395    9217.9342    9218.9145    5757.4119    5270.3527    78.358567 
   32400    1560.6994    -107.5627    1.4121536   -106.15055   -27163.744    4.2936279    4.2936279    4.2936279   -27163.744   -32668.634   -39653.119   -9169.4784   -52616.442    595.89239    2830.6902    79.154062 
   32500    1201.0959   -107.22432    1.0867768   -106.13754    8012.4523    4.2915613    4.2915613    4.2915613    8012.4523    32900.148    16576.427   -25439.218    16225.497     15844.81   -10064.896    79.039822 
   32600    1617.0557   -107.58851     1.463146   -106.12536   -26377.802    4.2937264    4.2937264    4.2937264   -26377.802   -12602.852   -41908.453   -24622.101   -7650.4688    2885.5278    13521.235    79.159509 
   32700    1248.1295   -107.25008    1.1293338   -106.12075   -17680.108    4.2868755    4.2868755    4.2868755   -17680.108   -39471.747   -22608.029    9039.4538   -55785.727   -886.91202   -10114.375    78.781203 
   32800     2026.831   -107.93902    1.8339193    -106.1051   -14057.058    4.2781188    4.2781188    4.2781188   -14057.058   -8419.9756   -21847.345   -11903.852     39579.73   -1782.7916   -22817.866    78.299415 
   32900    1071.4547   -107.09819   0.96947474   -106.12872   -6020.2804    4.2802709    4.2802709    4.2802709   -6020.2804   -55975.404   -26957.609    64872.171    -51048.64     14333.98    7372.7959    78.417639 
   33000    1530.9406   -107.51453    1.3852272   -106.12931   -6707.1634    4.2871448    4.2871448    4.2871448   -6707.1634   -14936.402    -41859.39    36674.302   -26650.308    4563.1612   -19710.717     78.79605 
   33100    1495.1547   -107.47894    1.3528473    -106.1261    16882.993    4.2821363    4.2821363    4.2821363    16882.993   -3437.2842    7277.4567    46808.807    3054.4353    12580.216   -10077.155    78.520214 
   33200    1172.6414   -107.19789    1.0610306   -106.13686    -4894.235    4.2887245    4.2887245    4.2887245    -4894.235   -29792.648    -21622.96    36732.902   -45074.023    3961.8723   -16686.076    78.883186 
   33300    1911.4731    -107.8371     1.729541   -106.10756    33795.272     4.289888     4.289888     4.289888    33795.272    59126.934    14652.866    27606.015     19423.71    1704.2603   -16253.837    78.947406 
   33400    826.73915   -106.87298   0.74805096   -106.12493    2431.0009    4.2852698    4.2852698    4.2852698    2431.0009   -52910.189    9990.7581    50212.434   -57037.977    15267.365    16249.858     78.69271 
   33500     1463.054    -107.4433     1.323802    -106.1195    8995.4832    4.2851756    4.2851756    4.2851756    8995.4832    11263.734   -5263.0929    20985.808    8524.2081    1557.6232    22.509632     78.68752 
   33600    1662.1147   -107.62333    1.5039163   -106.11941    10409.452    4.2759486    4.2759486    4.2759486    10409.452   -12941.601    3002.7273    41167.229    -25391.73    8331.3006    7156.7648    78.180317 
[...]
   91300    1807.1453   -107.79167    1.6351431   -106.15652   -9533.1126    4.2558305    4.2558305    4.2558305   -9533.1126   -11285.503    2497.6459   -19811.481   -12610.349   -27281.286    4100.4017    77.081999 
   91400    604.40159   -106.71998   0.54687526    -106.1731   -30039.414    4.2622752    4.2622752    4.2622752   -30039.414   -58573.876   -39670.968    8126.6033    69098.582   -49891.475    7790.4751    77.432708 
   91500    2524.4567   -108.42234    2.2841814   -106.13816    15326.977    4.2535606    4.2535606    4.2535606    15326.977    38478.554    358.05057    7144.3273    8534.5411    16887.505   -7586.5035    76.958728 
   91600    1232.4017   -107.27012    1.1151029   -106.15502   -11279.504    4.2625738    4.2625738    4.2625738   -11279.504    16589.121   -22737.961   -27689.673    18158.015   -35409.807    10090.176    77.448983 
   91700    1108.7246   -107.14421    1.0031973   -106.14101   -3226.0718      4.26446      4.26446      4.26446   -3226.0718    2948.0484   -17711.652    5085.3878    61822.952   -29384.169   -7157.3941    77.551847 
   91800    2263.9647   -108.16603    2.0484829   -106.11755   -6244.3098    4.2673665    4.2673665    4.2673665   -6244.3098    4868.0161    6697.8136   -30298.759   -24111.075    26938.998    10909.067    77.710526 
   91900     845.8911   -106.91051   0.76538004   -106.14513   -4291.4839     4.250129     4.250129     4.250129   -4291.4839    11960.842   -3754.4804   -21080.814    48407.406   -38835.563    13276.934    76.772618 
   92000    1573.0925   -107.56849    1.4233672   -106.14513    18081.322       4.2424       4.2424       4.2424    18081.322   -2365.5965    27348.363    29261.199    30697.814   -15086.007   -2722.8301    76.354538 
   92100    2117.0494    -108.0587    1.9155507   -106.14315    3716.8487    4.2609761    4.2609761    4.2609761    3716.8487    8272.7242    23533.062    -20655.24   -17021.425    31270.917     9218.093    77.361928 
   92200    897.58872   -106.97499   0.81215713   -106.16284   -24141.458     4.265033     4.265033     4.265033   -24141.458   -57980.143    12510.892   -26955.121    51853.109   -44643.174    10470.792    77.583108 
   92300    1705.0128   -107.69128    1.5427314   -106.14855    3408.4745    4.2508066    4.2508066    4.2508066    3408.4745   -14899.249    14400.445    10724.228    4396.1097   -4129.5212    5833.6068    76.809342 
   92400    1859.1144   -107.82426    1.6821658   -106.14209    14830.836     4.249756     4.249756     4.249756    14830.836    3428.2765    55662.791    -14598.56   -16131.096    1733.8675    3060.0027    76.752404 
   92500    818.43919   -106.89278   0.74054098   -106.15224   -23980.478    4.2645487    4.2645487    4.2645487   -23980.478   -47302.967    3157.5963   -27796.065    55963.591    -46853.25    22675.484    77.556685 
   92600    2026.0953   -107.96628    1.8332536   -106.13303    14232.268    4.2607384    4.2607384    4.2607384    14232.268   -3950.0064    31626.548    15020.262   -14368.967    14433.751    -11840.81    77.348983 
   92700    1656.2015   -107.64322    1.4985659   -106.14465        -4624    4.2530618    4.2530618    4.2530618        -4624   -10552.653    19482.141   -22801.488   -7961.1516    -24526.05    17821.316    76.931654 
   92800    808.08499   -106.89142   0.73117228   -106.16025   -6065.9487    4.2527358    4.2527358    4.2527358   -6065.9487   -26145.718    25182.959   -17235.087     49911.07   -33588.289    9284.6771    76.913965 
   92900    2411.1221   -108.31507     2.181634   -106.13344   -3246.8019    4.2655718    4.2655718    4.2655718   -3246.8019      1510.57    3315.3263   -14566.302   -14809.507     18162.08   -15568.526    77.612516 
   93000     569.7544    -106.6588   0.51552575   -106.14327   -16898.566    4.2756593    4.2756593    4.2756593   -16898.566   -26117.793    46104.778   -70682.682    15008.502   -48415.623    54145.571    78.164451 
   93100    1751.1927   -107.69815    1.5845159   -106.11364   -2752.4506    4.2643773    4.2643773    4.2643773   -2752.4506   -20974.417    10682.837    2034.2277      22835.6     3029.616   -20226.382    77.547333 
   93200    1962.7768   -107.88314    1.7759617   -106.10718    1380.4298     4.255773     4.255773     4.255773    1380.4298    16229.413    21048.302   -33136.425   -10302.572   -13568.317    13787.296    77.078876 
   93300    762.20352   -106.83446   0.68965776    -106.1448   -10540.512    4.2482055    4.2482055    4.2482055   -10540.512   -6725.7231    29556.664   -54452.478    23094.911   -55833.802    48746.849    76.668429 
   93400    2298.7842   -108.21518    2.0799882   -106.13519    8867.9187    4.2525976    4.2525976    4.2525976    8867.9187   -4716.8993    9062.1946    22258.461    33907.042    9233.6239   -15226.167    76.906467 
   93500    1289.1865    -107.3169    1.1664831   -106.15041   -14125.411    4.2735385    4.2735385    4.2735385   -14125.411    8435.0937    20025.192    -70836.52   -12036.094   -29589.938    33498.377    78.048193 
   93600    952.74529   -106.99736   0.86206396    -106.1353   -19229.387    4.2752538    4.2752538    4.2752538   -19229.387   -16575.448    9620.3999   -50733.111    27528.917   -36369.599    28362.635     78.14221 
   93700    2346.4183   -108.22299    2.1230886   -106.09991    17371.949     4.262407     4.262407     4.262407    17371.949    47759.976    547.80078    3808.0713    3153.3996    9038.3478   -9323.6034    77.439894 
   93800    859.13846    -106.9111   0.77736654   -106.13373   -28644.778    4.2610639    4.2610639    4.2610639   -28644.778    6302.7276   -13348.291   -78888.769    2501.4878   -63395.873    52243.741    77.366714 
   93900     1443.957   -107.45055    1.3065226   -106.14403    6867.9509    4.2479424    4.2479424    4.2479424    6867.9509    27472.783   -12060.143    5191.2119    18737.684   -25224.837    162.25286    76.654181 
   94000    2032.0631   -107.98746    1.8386534   -106.14881    18033.806    4.2464981    4.2464981    4.2464981    18033.806    32553.943   -4321.5585    25869.034    2126.1485    11358.355    3329.1997     76.57602 
   94100    844.98214   -106.92652   0.76455759   -106.16196   -32678.884    4.2717039    4.2717039    4.2717039   -32678.884   -17107.971    1229.6646   -82158.345    3222.2272   -65695.909    38861.358     77.94772 
   94200    1732.9299   -107.69238    1.5679914   -106.12439     3366.736    4.2726902    4.2726902    4.2726902     3366.736    -33036.61    19433.139    23703.679   -1524.9642    6840.0336    -9837.095    78.001726 
   94300    1467.6843   -107.45448    1.3279916   -106.12649   -21344.922     4.263903     4.263903     4.263903   -21344.922   -32469.263   -102.18918   -31463.315   -506.22349   -6019.2439    19326.507    77.521463 
   94400    1663.7526   -107.63804    1.5053983   -106.13264    24849.637    4.2400015    4.2400015    4.2400015    24849.637    30.729302    59048.272    15469.908    821.88886   -34222.484    19730.407    76.225106 
   94500    1110.3076   -107.15709    1.0046297   -106.15246    23004.004    4.2386638    4.2386638    4.2386638    23004.004   -28902.641    39126.576    58788.078    12789.466    22690.181   -14397.442    76.152979 
   94600    1621.1262   -107.62576    1.4668291   -106.15893   -25388.636     4.274675     4.274675     4.274675   -25388.636    -29781.17    8863.0257   -55247.762   -11222.406    19904.116   -15856.312    78.110478 
   94700    2251.8893   -108.17322    2.0375567   -106.13566    10877.239    4.2675415    4.2675415    4.2675415    10877.239   -21408.342    29836.607    24203.451    13212.151   -7137.6723    1035.3786    77.720086 
   94800    682.17597   -106.76647   0.61724715   -106.14922   -2065.3438    4.2453941    4.2453941    4.2453941   -2065.3438   -48696.285   -588.57211    43088.826   -1052.3996    36616.412   -16138.049    76.516314 
   94900    1896.8641   -107.85364    1.7163225   -106.13732    19664.285    4.2559095    4.2559095    4.2559095    19664.285    -1047.379    70452.147   -10411.914   -13456.615    10957.877   -7447.4088    77.086292 
   95000    1467.1926   -107.45957    1.3275467   -106.13203   -8024.7941    4.2731785    4.2731785    4.2731785   -8024.7941   -31280.634    10780.333   -3574.0812     37368.85    -17291.88    5526.9603    78.028475 
   95100    1130.2247   -107.15087    1.0226511   -106.12822   -20751.612    4.2752345    4.2752345    4.2752345   -20751.612    -39492.44   -17741.578   -5020.8191    5558.6931    41198.704    -13686.64    78.141155 
   95200    1398.6307   -107.40036    1.2655104   -106.13485   -6710.0136    4.2541856    4.2541856    4.2541856   -6710.0136   -17682.438    42089.686   -44537.289   -7755.8345   -43531.763    7887.5976    76.992656 
   95300    1567.6104   -107.55241    1.4184068   -106.13401    35143.855    4.2339844    4.2339844    4.2339844    35143.855    48064.269     43323.02    14044.277    22121.212   -18387.494    9258.1499    75.901047 
   95400     1625.932   -107.62204    1.4711775   -106.15087    4139.3505     4.257594     4.257594     4.257594    4139.3505    9491.4877   -6282.2686    9208.8322    11371.693    24267.953   -20997.494    77.177859 
   95500    1104.2689   -107.15182   0.99916567   -106.15266   -30177.551    4.2762876    4.2762876    4.2762876   -30177.551   -50047.036    14672.592    -55158.21   -3336.6345   -65070.735    11557.657    78.198913 
   95600    1975.8612   -107.92477    1.7878007   -106.13697    7002.0354    4.2618935    4.2618935    4.2618935    7002.0354    6987.3195   -18786.845    32805.632   -1335.9918    1251.9463   -7593.7032    77.411911 
   95700    1396.3868   -107.40839    1.2634801   -106.14491    5327.4039    4.2452448    4.2452448    4.2452448    5327.4039    -11373.61    28158.203    -802.3805    1433.4631   -34627.463   -31531.774     76.50824 
   95800    1268.5741   -107.30142    1.1478325   -106.15359    26194.385    4.2427159    4.2427159    4.2427159    26194.385   -38671.395    74879.432    42375.118   -1431.0447   -51746.371    19513.375    76.371592 
   95900    1793.3389   -107.77166    1.6226507   -106.14901     2371.839    4.2646551    4.2646551    4.2646551     2371.839    1527.4587    -20179.92    25767.978   -12472.967    20953.654   -14702.765    77.562491 
   96000    1522.1513   -107.52335    1.3772745   -106.14607   -3722.6209    4.2661374    4.2661374    4.2661374   -3722.6209    6567.9983   -8241.5731   -9494.2879    616.10806   -46406.589   -21811.653    77.643393 
   96100    1540.0076   -107.53082    1.3934312   -106.13739    20669.443    4.2498537    4.2498537    4.2498537    20669.443   -29552.596    32359.624    59201.302   -8550.0803   -4249.0519    11426.418    76.757696 
   96200    922.03009   -106.99541    0.8342722   -106.16114    -18436.07    4.2475439    4.2475439    4.2475439    -18436.07   -40688.157   -18019.725    3399.6731   -11703.675    34823.004    -18776.91    76.632614 
   96300    2164.8347   -108.11868    1.9587879   -106.15989    15140.428    4.2500916    4.2500916    4.2500916    15140.428    16186.818    19223.545     10010.92    2184.0333   -5915.2637   -24807.745    76.770586 
   96400    1626.2175   -107.64536    1.4714358   -106.17392   -6288.5943     4.260075     4.260075     4.260075   -6288.5943   -44489.762    3103.0027    22520.976     -11390.7   -276.53152    26077.155    77.312858 
   96500    973.75052   -107.06398   0.88106994   -106.18291   -16878.022    4.2551387    4.2551387    4.2551387   -16878.022    -62756.25   -17437.327    29559.512   -7905.3799    43421.403   -12861.574    77.044413 
   96600    1795.0665    -107.7847    1.6242139   -106.16049    24357.173    4.2445072    4.2445072    4.2445072    24357.173   -21770.021    73680.551    21160.989    9253.8532    -33922.89   -20767.996    76.468371 
   96700    1470.1979   -107.48954    1.3302659   -106.15927     4264.358    4.2562746    4.2562746    4.2562746     4264.358   -44552.936    10176.559    47169.452   -8609.3776   -19195.369    9075.2411    77.106132 
   96800    1383.1125   -107.40132    1.2514692   -106.14985    1889.9569    4.2641697    4.2641697    4.2641697    1889.9569   -44002.908   -1431.1014     51103.88   -6513.7061    25821.616   -3506.3767    77.536006 
   96900    1030.5363    -107.0888    0.9324509   -106.15635    -13896.38    4.2563925    4.2563925    4.2563925    -13896.38   -81424.904    64438.826   -24703.061    5834.4877   -84642.881   -11372.767    77.112541 
   97000    2053.4628   -108.00254    1.8580163   -106.14452    19172.472    4.2465256    4.2465256    4.2465256    19172.472   -11791.074    22745.836    46562.653   -4294.1035    2914.4299   -744.86854    76.577509 
   97100    1450.5042   -107.47297    1.3124467   -106.16052   -69.153374    4.2522255    4.2522255    4.2522255   -69.153374   -40093.374    23540.878    16345.036    4426.8616    -48641.13     4168.518    76.886283 
   97200    945.39034   -107.02695   0.85540904   -106.17154   -15767.185    4.2645981    4.2645981    4.2645981   -15767.185   -74821.039    40013.367   -12493.883    3696.5884   -46299.568   -4376.4367    77.559381 
   97300    1949.7926    -107.9109    1.7642133   -106.14669    10633.185     4.261602     4.261602     4.261602    10633.185   -4022.2378   -5376.9917    41298.784   -2115.3336    68820.897   -9620.2601    77.396028 
   97400    1521.2535    -107.5178    1.3764622   -106.14134    22261.813    4.2483442    4.2483442    4.2483442    22261.813   -4405.4856    38868.562    32322.362    8287.5671   -72750.187   -3081.7844    76.675936 
   97500    1072.0656   -107.11608   0.97002751   -106.14605   -2134.2732    4.2542392    4.2542392    4.2542392   -2134.2732   -50688.306    79976.782   -35691.295    7613.9338    26198.451   -618.33718    76.995564 
   97600    1777.5503   -107.73584    1.6083648   -106.12748    1668.0379    4.2645477    4.2645477    4.2645477    1668.0379   -24273.419     42351.18   -13073.647    2628.6402    37309.542    -16881.18    77.556629 
   97700    1814.2167   -107.76387    1.6415414   -106.12233   -15022.481    4.2714178    4.2714178    4.2714178   -15022.481    -38968.64    15505.166   -21603.968    13242.506   -51586.812   -589.49194    77.932061 
   97800    846.79194   -106.90949   0.76619514   -106.14329   -30164.864    4.2612599    4.2612599    4.2612599   -30164.864   -92034.075    32499.826   -30960.343    4982.2407    81433.082   -956.25502    77.377388 
   97900    2141.6654   -108.06795    1.9378238   -106.13013    17972.417    4.2421718    4.2421718    4.2421718    17972.417   -3057.7977    1027.9664    55947.084   -5932.9555   -7155.7876   -10931.929    76.342216 
   98000    1443.2167   -107.45502    1.3058528   -106.14917   -2511.5223    4.2487804    4.2487804    4.2487804   -2511.5223     -53186.4    33111.048    12540.785   -5356.2644    43520.323   -2808.8846    76.699556 
   98100    1232.0568   -107.26908    1.1147908   -106.15429   -17010.273    4.2674063    4.2674063    4.2674063   -17010.273   -66910.173    32009.542   -16130.188    10742.655    40361.642   -4237.3443    77.712696 
   98200    1837.3552   -107.79927    1.6624776   -106.13679    9181.1817    4.2644665    4.2644665    4.2644665    9181.1817   -23192.816    9418.8873    41317.473   -11275.888   -24962.353   -3868.8599    77.552202 
   98300    1022.0152    -107.0667   0.92474083   -106.14196     22785.25    4.2563668    4.2563668    4.2563668     22785.25   -6494.5365    83310.817   -8460.5304    2300.7052    69156.924   -6173.5438    77.111145 
   98400    1637.1745   -107.60643    1.4813499   -106.12508    15357.352    4.2633044    4.2633044    4.2633044    15357.352   -1817.7895    74945.186   -27055.339    21606.116   -42459.757    1672.9057    77.488817 
   98500    1626.3007   -107.59552     1.471511   -106.12401     11600.24    4.2620377    4.2620377    4.2620377     11600.24   -2442.6248    39334.618   -2091.2737   -8113.2921    10819.363   -1988.8413    77.419767 
   98600    1078.1497   -107.11935    0.9755325   -106.14382   -1283.4763    4.2563334    4.2563334    4.2563334   -1283.4763   -35574.289    49898.226   -18174.366   -12123.928    51291.119   -3361.7976    77.109328 
   98700    1838.7828   -107.80213    1.6637694   -106.13836    1815.8528    4.2543834    4.2543834    4.2543834    1815.8528   -23431.048    48063.966   -19185.359    14223.817    -62631.83    3540.5041    77.003395 
   98800    1653.2821   -107.63547    1.4959244   -106.13954   -1601.9735    4.2566509    4.2566509    4.2566509   -1601.9735   -20375.919    4993.6794    10576.319   -1367.8049    40561.579      2999.44    77.126583 
   98900    1113.1789   -107.15729    1.0072276   -106.15006   -14271.047     4.269202     4.269202     4.269202   -14271.047   -21627.118    2187.1714   -23373.193    -17825.94    28822.195   -3112.6178    77.810841 
   99000    2340.2139   -108.24374    2.1174747   -106.12627   -16607.626      4.26972      4.26972      4.26972   -16607.626   -7926.1194    -25681.74   -16215.018    13528.058   -28959.267    7570.4153    77.839169 
   99100    791.36187    -106.8682   0.71604085   -106.15216    1075.3781    4.2443874    4.2443874    4.2443874    1075.3781    16538.492   -20700.712    7388.3553    6823.7088    46890.942    13413.475    76.461894 
   99200    1616.1965   -107.61868    1.4623685   -106.15632    9491.5111    4.2461015    4.2461015    4.2461015    9491.5111    13402.717    17971.763   -2899.9468   -30450.255     32307.23   -4845.7294    76.554569 
   99300    2149.3465   -108.08287    1.9447739   -106.13809    2139.9243    4.2673589    4.2673589    4.2673589    2139.9243     32953.56   -9392.1557   -17141.631    14631.195   -16881.841    9249.2916    77.710108 
   99400    971.17935   -107.02545   0.87874349   -106.14671   -16819.014    4.2732992    4.2732992    4.2732992   -16819.014   -25180.111   -15094.981   -10181.948    2056.5038    53908.996    13293.562    78.035087 
   99500    1903.8967    -107.8488    1.7226857   -106.12612   -13301.025    4.2642358    4.2642358    4.2642358   -13301.025   -35170.048    8954.8946    -13687.92   -1236.2618   -31535.254   -6891.4597    77.539614 
   99600    1287.5019   -107.30089    1.1649588   -106.13593    1026.2665    4.2365065    4.2365065    4.2365065    1026.2665    362.86711    32590.574   -29874.642   -4534.5609   -47014.367    3394.6843    76.036763 
   99700    1863.9755     -107.823    1.6865642   -106.13644     5715.929    4.2383614    4.2383614    4.2383614     5715.929    494.67512    10799.971    5853.1407    5946.8724    58761.403    4021.6294    76.136683 
   99800    843.26772   -106.91717   0.76300635   -106.15416   -42488.211    4.2664269    4.2664269    4.2664269   -42488.211   -77224.211     3844.816   -54085.237    4285.9705   -84953.989   -1710.8536    77.659203 
   99900    1765.9323   -107.73822    1.5978527   -106.14036   -21675.866    4.2679194    4.2679194    4.2679194   -21675.866    23221.997   -45352.114   -42897.479   -19952.432   -5625.0041   -2412.8352    77.740734 
  100000     1863.842   -107.82364    1.6864434   -106.13719   -9165.4587    4.2553971    4.2553971    4.2553971   -9165.4587    8482.7609     812.8676   -36792.005    8770.4084   -28776.131    10655.729    77.058449 
Loop time of 23.0081 on 1 procs for 100000 steps with 8 atoms

Pair  time (%) = 7.42208 (32.2586)
Kspce time (%) = 5.42454 (23.5767)
Neigh time (%) = 0.167053 (0.726065)
Comm  time (%) = 1.16997 (5.08504)
Outpt time (%) = 0.0258627 (0.112407)
Other time (%) = 8.79856 (38.2412)

Nlocal:    8 ave 8 max 8 min
Histogram: 1 0 0 0 0 0 0 0 0 0
Nghost:    2189 ave 2189 max 2189 min
Histogram: 1 0 0 0 0 0 0 0 0 0
Neighs:    2323 ave 2323 max 2323 min
Histogram: 1 0 0 0 0 0 0 0 0 0

Total # of neighbors = 2323
Ave neighs/atom = 290.375
Neighbor list builds = 1873
Dangerous builds = 0
unfix 20
unfix 21
print "seeds:2563540"
seeds:2563540
