# ['Ni']

28 atoms
1 atom types

    0.0000     2.3953 xlo xhi
    0.0000     4.1487 ylo yhi
    0.0000    27.3803 zlo zhi

    0.0000     0.0000     0.0000 xy xz yz

Atoms

1 1     0.0000     0.0000     0.0000
2 1     1.1976     2.0744     0.0000
3 1     1.1976     0.6915     1.9557
4 1     0.0000     2.7658     1.9557
5 1     0.0000     1.3829     3.9115
6 1     1.1976     3.4573     3.9115
7 1     0.0000     0.0000     5.8672
8 1     1.1976     2.0744     5.8672
9 1     1.1976     0.6915     7.8229
10 1     0.0000     2.7658     7.8229
11 1     0.0000     1.3829     9.7787
12 1     1.1976     3.4573     9.7787
13 1     0.0000     0.0000    11.7344
14 1     1.1976     2.0744    11.7344
15 1     0.0000     1.3829    13.6901
16 1     1.1976     3.4573    13.6901
17 1     0.0000     0.0000    15.6459
18 1     1.1976     2.0744    15.6459
19 1     1.1976     0.6915    17.6016
20 1     0.0000     2.7658    17.6016
21 1     0.0000     1.3829    19.5574
22 1     1.1976     3.4573    19.5574
23 1     0.0000     0.0000    21.5131
24 1     1.1976     2.0744    21.5131
25 1     1.1976     0.6915    23.4688
26 1     0.0000     2.7658    23.4688
27 1     0.0000     1.3829    25.4245
28 1     1.1976     3.4573    25.4245
