LAMMPS (11 Aug 2017)
# ---- initialize simulations
clear
units metal
dimension 3
boundary p p p
atom_style atomic
atom_modify map array
# ---- create atoms
read_data /home/sullberg/repos/pypospack/examples/Ni__eam__born_exp_rose/01_preconditioning_3.5NN/rank_18/Ni_fcc_111_s.lmps_min_pos/lammps.structure
  triclinic box = (0 0 0) to (2.4808 4.297 36.4549) with tilt (0 0 -0.0004)
  1 by 1 by 1 MPI processor grid
  reading atoms ...
  18 atoms
# ---- define interatomic potential
include potential.mod
mass 1 58.6934

group Ni type 1
18 atoms in group Ni

pair_style eam/alloy
pair_coeff * * /home/sullberg/repos/pypospack/examples/Ni__eam__born_exp_rose/01_preconditioning_3.5NN/rank_18/Ni_fcc_111_s.lmps_min_pos/Ni.eam.alloy Ni

neighbor 1.0 bin
neigh_modify every 1 delay 0 check yes
# ---- define settings
compute eng all pe/atom
compute eatoms all reduce sum c_eng

# ---- run minimization
reset_timestep 0
thermo 1
thermo_style custom step pe lx ly lz xy xz yz press pxx pyy pzz pxy pxz pyz c_eatoms
min_style cg
minimize 1e-20 1e-20 1000 100000
Neighbor list info ...
  update every 1 steps, delay 0 steps, check yes
  max neighbors/atom: 2000, page size: 100000
  master list distance cutoff = 11
  ghost atom cutoff = 11
  binsize = 5.5, bins = 1 1 7
  1 neighbor lists, perpetual/occasional/extra = 1 0 0
  (1) pair eam/alloy, perpetual
      attributes: half, newton on
      pair build: half/bin/newton/tri
      stencil: half/bin/3d/newton/tri
      bin: standard
Per MPI rank memory allocation (min/avg/max) = 4.343 | 4.343 | 4.343 Mbytes
Step PotEng Lx Ly Lz Xy Xz Yz Press Pxx Pyy Pzz Pxy Pxz Pyz c_eatoms 
       0   -77.632355       2.4808        4.297      36.4549            0            0      -0.0004   -11335.111   -14801.061   -14813.272   -4391.0019 1.1863361e-11 -2.279016e-12    3.0451909   -77.632355 
       1   -77.637238       2.4808        4.297      36.4549            0            0      -0.0004   -10210.511    -13883.88   -13896.066   -2851.5874 9.7360112e-13 -9.4577833e-12    3.0430684   -77.637238 
       2   -77.638226       2.4808        4.297      36.4549            0            0      -0.0004   -9543.9163   -13334.787   -13346.883   -1950.0786 1.0711379e-12 -1.2365158e-12    2.9986487   -77.638226 
       3   -77.638453       2.4808        4.297      36.4549            0            0      -0.0004   -9315.3626   -13166.758   -13178.753   -1600.5765 -4.9762565e-12 -6.7339638e-12    2.9447959   -77.638453 
       4    -77.63853       2.4808        4.297      36.4549            0            0      -0.0004   -9067.3919   -12957.785   -12969.589   -1274.8011 2.6889151e-12 -8.1174606e-12    2.8353239    -77.63853 
       5   -77.638718       2.4808        4.297      36.4549            0            0      -0.0004   -8094.7126   -12175.053    -12186.01     76.92541 3.9596525e-12 -1.8463217e-12    2.3524985   -77.638718 
       6   -77.638765       2.4808        4.297      36.4549            0            0      -0.0004   -8093.8178   -12173.804   -12184.609    76.959602 -7.7687918e-12 -2.9362004e-12     2.262994   -77.638765 
       7   -77.638765       2.4808        4.297      36.4549            0            0      -0.0004   -8092.0319   -12171.711     -12182.5    78.115433 -1.7350211e-11 1.264476e-12     2.253633   -77.638765 
       8   -77.638766       2.4808        4.297      36.4549            0            0      -0.0004   -8091.2746   -12171.088   -12181.852     79.11714 7.9339164e-12 6.8955945e-12    2.2390983   -77.638766 
       9   -77.638766       2.4808        4.297      36.4549            0            0      -0.0004   -8116.0793   -12192.023   -12202.685    46.470082 -2.1253318e-12 5.5946689e-12    2.1793542   -77.638766 
      10   -77.638766       2.4808        4.297      36.4549            0            0      -0.0004   -8138.0836   -12210.616   -12221.189    17.554486 -1.3775034e-11 -1.1069928e-11     2.126881   -77.638766 
      11   -77.638766       2.4808        4.297      36.4549            0            0      -0.0004   -8151.1279   -12221.314   -12231.805  -0.26443085 -6.8359934e-12 -8.2604045e-12    2.0784917   -77.638766 
      12   -77.638766       2.4808        4.297      36.4549            0            0      -0.0004   -8151.2053   -12221.374   -12231.848  -0.39469792 2.3845569e-12 -1.3658791e-11    2.0686038   -77.638766 
      13   -77.638766       2.4808        4.297      36.4549            0            0      -0.0004   -8151.1086    -12221.33   -12231.696  -0.29985876 -7.9744258e-12 2.1314658e-12    2.0052897   -77.638766 
      14   -77.638766       2.4808        4.297      36.4549            0            0      -0.0004   -8151.1604   -12221.429   -12231.693  -0.35984333 -9.2869647e-12 -2.9695648e-13    1.9452743   -77.638766 
      15   -77.638766       2.4808        4.297      36.4549            0            0      -0.0004   -8151.0741   -12221.407   -12231.583  -0.23191895 1.7088325e-12 -1.2744907e-11    1.8935663   -77.638766 
      16   -77.638766       2.4808        4.297      36.4549            0            0      -0.0004   -8150.6676   -12221.162   -12231.165   0.32389872 1.5302762e-11 -1.2494618e-11    1.7925097   -77.638766 
      17   -77.638766       2.4808        4.297      36.4549            0            0      -0.0004   -8150.3498   -12221.335   -12230.462   0.74743387 2.8009061e-11 3.6594457e-11    1.2773962   -77.638766 
      18   -77.638766       2.4808        4.297      36.4549            0            0      -0.0004   -8150.3861   -12221.646   -12230.178   0.66581152 -6.3690738e-12 5.8961233e-12   0.92884582   -77.638766 
      19   -77.638766       2.4808        4.297      36.4549            0            0      -0.0004   -8150.3687   -12221.907   -12229.872   0.67253671 7.669006e-12 -5.111027e-13   0.59561437   -77.638766 
      20   -77.638766       2.4808        4.297      36.4549            0            0      -0.0004   -8150.3348    -12222.17   -12229.566   0.73148556 1.1032444e-11 1.4469487e-11   0.26230466   -77.638766 
      21   -77.638766       2.4808        4.297      36.4549            0            0      -0.0004   -8150.3142   -12222.216   -12229.502   0.77596753 -4.7438513e-12 4.4818674e-12   0.19769455   -77.638766 
      22   -77.638766       2.4808        4.297      36.4549            0            0      -0.0004   -8150.3832   -12222.306   -12229.533   0.68981828 -1.8207662e-11 -2.1695032e-11   0.16273605   -77.638766 
      23   -77.638766       2.4808        4.297      36.4549            0            0      -0.0004   -8150.6662   -12222.573   -12229.733   0.30755243 3.7108271e-12 -2.6028658e-11   0.12369841   -77.638766 
      24   -77.638766       2.4808        4.297      36.4549            0            0      -0.0004   -8150.7317   -12222.633   -12229.782   0.21997803 -2.3192048e-11 -1.2663572e-11   0.11708751   -77.638766 
      25   -77.638766       2.4808        4.297      36.4549            0            0      -0.0004   -8150.8089   -12222.706    -12229.84   0.11926917 3.7876064e-12 1.9570775e-11   0.10919911   -77.638766 
      26   -77.638766       2.4808        4.297      36.4549            0            0      -0.0004   -8150.8499   -12222.746    -12229.87  0.065590228 3.6827709e-12 -1.6352728e-11   0.10283284   -77.638766 
      27   -77.638766       2.4808        4.297      36.4549            0            0      -0.0004    -8150.877   -12222.771   -12229.889  0.029083851 3.295606e-12 6.6915565e-13   0.09947893   -77.638766 
      28   -77.638766       2.4808        4.297      36.4549            0            0      -0.0004    -8150.921   -12222.811   -12229.922 -0.029295724 1.7860971e-11 -5.8287118e-12  0.095103944   -77.638766 
      29   -77.638766       2.4808        4.297      36.4549            0            0      -0.0004   -8150.9335   -12222.825   -12229.929 -0.046398805 1.7615505e-11 6.1698567e-12  0.091370879   -77.638766 
      30   -77.638766       2.4808        4.297      36.4549            0            0      -0.0004   -8150.9259   -12222.821   -12229.921 -0.035677108 -9.3077572e-12 1.8519406e-12   0.08830443   -77.638766 
      31   -77.638766       2.4808        4.297      36.4549            0            0      -0.0004   -8150.9277    -12222.83   -12229.917 -0.036189823 1.6144896e-11 7.9086941e-12  0.080640206   -77.638766 
      32   -77.638766       2.4808        4.297      36.4549            0            0      -0.0004   -8150.9279   -12222.847   -12229.899 -0.037634167 7.9947922e-12 -3.2494261e-11  0.060475844   -77.638766 
      33   -77.638766       2.4808        4.297      36.4549            0            0      -0.0004   -8150.9227   -12222.852   -12229.884  -0.03194541 -4.9968185e-12 -1.0344113e-11  0.048947595   -77.638766 
      34   -77.638766       2.4808        4.297      36.4549            0            0      -0.0004   -8150.9121   -12222.855   -12229.864 -0.017767365 -1.9798919e-11 -2.529115e-11  0.035308513   -77.638766 
      35   -77.638766       2.4808        4.297      36.4549            0            0      -0.0004   -8150.9006   -12222.855   -12229.845 -0.0021687325 -3.6829874e-12 -1.6311894e-11  0.024081051   -77.638766 
      36   -77.638766       2.4808        4.297      36.4549            0            0      -0.0004    -8150.895   -12222.854   -12229.836 0.0054090913 -3.4110856e-12 -1.2343558e-11   0.01930945   -77.638766 
      37   -77.638766       2.4808        4.297      36.4549            0            0      -0.0004   -8150.8952   -12222.859   -12229.831 0.0046732121 -1.9800288e-12 -9.693101e-12  0.013450637   -77.638766 
      38   -77.638766       2.4808        4.297      36.4549            0            0      -0.0004   -8150.8959   -12222.863   -12229.828    0.0037512 -2.1257138e-11 -6.8148534e-12 0.0092283806   -77.638766 
      39   -77.638766       2.4808        4.297      36.4549            0            0      -0.0004   -8150.8943   -12222.864   -12229.825 0.0062444402 1.4879935e-12 4.8987299e-12 0.0074334142   -77.638766 
      40   -77.638766       2.4808        4.297      36.4549            0            0      -0.0004   -8150.8941   -12222.864   -12229.824 0.0065133074 -2.4434464e-11 -1.5815523e-11 0.0065580113   -77.638766 
      41   -77.638766       2.4808        4.297      36.4549            0            0      -0.0004   -8150.8958   -12222.866   -12229.825 0.0042177878 -2.5176107e-11 1.9575653e-12  0.005860897   -77.638766 
      42   -77.638766       2.4808        4.297      36.4549            0            0      -0.0004   -8150.8976   -12222.868   -12229.826 0.0017453621 2.5416984e-12 -2.0519207e-12 0.0055582129   -77.638766 
      43   -77.638766       2.4808        4.297      36.4549            0            0      -0.0004    -8150.898   -12222.869   -12229.827 0.0011619363 3.5020152e-12 1.6105925e-11 0.0053829579   -77.638766 
      44   -77.638766       2.4808        4.297      36.4549            0            0      -0.0004   -8150.8983   -12222.869   -12229.827 0.00088457625 -2.2143323e-11 -2.7127772e-12 0.0050399751   -77.638766 
      45   -77.638766       2.4808        4.297      36.4549            0            0      -0.0004    -8150.899    -12222.87   -12229.827 -7.739579e-05 -1.4120195e-11 -2.412008e-11 0.0048941519   -77.638766 
      46   -77.638766       2.4808        4.297      36.4549            0            0      -0.0004    -8150.899    -12222.87   -12229.827 -7.739579e-05 -1.4120195e-11 -2.412008e-11 0.0048941519   -77.638766 
Loop time of 0.023356 on 1 procs for 46 steps with 18 atoms

89.7% CPU use with 1 MPI tasks x no OpenMP threads

Minimization stats:
  Stopping criterion = linesearch alpha is zero
  Energy initial, next-to-last, final = 
        -77.6323547142     -77.6387663085     -77.6387663085
  Force two-norm initial, final = 0.292936 1.03343e-07
  Force max component initial, final = 0.112246 3.6537e-08
  Final line search alpha, max atom move = 0.5 1.82685e-08
  Iterations, force evaluations = 46 91

MPI task timing breakdown:
Section |  min time  |  avg time  |  max time  |%varavg| %total
---------------------------------------------------------------
Pair    | 0.021631   | 0.021631   | 0.021631   |   0.0 | 92.62
Neigh   | 0          | 0          | 0          |   0.0 |  0.00
Comm    | 0.0007875  | 0.0007875  | 0.0007875  |   0.0 |  3.37
Output  | 0.00069499 | 0.00069499 | 0.00069499 |   0.0 |  2.98
Modify  | 0          | 0          | 0          |   0.0 |  0.00
Other   |            | 0.000242   |            |       |  1.04

Nlocal:    18 ave 18 max 18 min
Histogram: 1 0 0 0 0 0 0 0 0 0
Nghost:    1737 ave 1737 max 1737 min
Histogram: 1 0 0 0 0 0 0 0 0 0
Neighs:    3690 ave 3690 max 3690 min
Histogram: 1 0 0 0 0 0 0 0 0 0

Total # of neighbors = 3690
Ave neighs/atom = 205
Neighbor list builds = 0
Dangerous builds = 0

# ---- define output variables ----
variable natoms equal "count(all)"
variable tot_energy equal "c_eatoms"
variable a11 equal "xhi-xlo"
variable a22 equal "yhi-ylo"
variable a33 equal "zhi-zlo"
variable tilt_xy equal "xy"
variable tilt_xz equal "xz"
variable tilt_yz equal "yz"
variable tot_press equal "press"
variable press_xx equal "pxx"
variable press_yy equal "pyy"
variable press_zz equal "pzz"
variable press_xy equal "pxy"
variable press_xz equal "pxz"
variable press_yz equal "pyz"

# ---- output ----
print "pypospack:output_section:begin"
pypospack:output_section:begin
print "tot_energy = ${tot_energy}"
tot_energy = -77.6387663085294
print "num_atoms = ${natoms}"
num_atoms = 18
print "a11 = ${a11}"
a11 = 2.4808
print "a22 = ${a22}"
a22 = 4.297
print "a33 = ${a33}"
a33 = 36.4549
print "a12 = ${tilt_xy}"
a12 = 0
print "a13 = ${tilt_xz}"
a13 = 0
print "a23 = ${tilt_yz}"
a23 = -0.0004
print "tot_press = ${tot_press}"
tot_press = -8150.89902860925
print "pxx = ${press_xx}"
pxx = -12222.8699438435
print "pyy = ${press_yy}"
pyy = -12229.8270645885
print "pzz = ${press_zz}"
pzz = -7.73957900616057e-05
print "pxy = ${press_xy}"
pxy = -1.41201951059857e-11
print "pxz = ${press_xz}"
pxz = -2.41200795602214e-11
print "pyz = ${press_yz}"
pyz = 0.00489415186730389
print "pypospack:output_section:done"
pypospack:output_section:done
print "pypospack:lammps_sim:done"
pypospack:lammps_sim:done
Total wall time: 0:00:00
