 running on   16 total cores
 distrk:  each k-point on   16 cores,    1 groups
 distr:  one band on    1 cores,   16 groups
 using from now: INCAR     
 vasp.5.4.1 24Jun15 (build Jun 05 2017 10:38:15) complex                        
  
 POSCAR found type information on POSCAR  O  Mg
 POSCAR found :  2 types and       2 ions
 scaLAPACK will be used

 ----------------------------------------------------------------------------- 
|                                                                             |
|           W    W    AA    RRRRR   N    N  II  N    N   GGGG   !!!           |
|           W    W   A  A   R    R  NN   N  II  NN   N  G    G  !!!           |
|           W    W  A    A  R    R  N N  N  II  N N  N  G       !!!           |
|           W WW W  AAAAAA  RRRRR   N  N N  II  N  N N  G  GGG   !            |
|           WW  WW  A    A  R   R   N   NN  II  N   NN  G    G                |
|           W    W  A    A  R    R  N    N  II  N    N   GGGG   !!!           |
|                                                                             |
|      For optimal performance we recommend to set                            |
|        NCORE= 4 - approx SQRT( number of cores)                             |
|      NCORE specifies how many cores store one orbital (NPAR=cpu/NCORE).     |
|      This setting can  greatly improve the performance of VASP for DFT.     |
|      The default, NPAR=number of cores might be grossly inefficient         |
|      on modern multi-core architectures or massively parallel machines.     |
|      Do your own testing !!!!                                               |
|      Unfortunately you need to use the default for GW and RPA calculations. |
|      (for HF NCORE is supported but not extensively tested yet)             |
|                                                                             |
 ----------------------------------------------------------------------------- 

 LDA part: xc-table for Pade appr. of Perdew
 POSCAR, INCAR and KPOINTS ok, starting setup
 FFT: planning ...
 WAVECAR not read
 initial charge from wavefunction
 entering main loop
       N       E                     dE             d eps       ncg     rms          rms(c)
DAV:   1    -0.225504848104E+03   -0.22550E+03   -0.10503E+04   336   0.740E+02
DAV:   2    -0.298570678572E+03   -0.73066E+02   -0.73066E+02   464   0.188E+02
DAV:   3    -0.298933870327E+03   -0.36319E+00   -0.36319E+00   368   0.164E+01
DAV:   4    -0.298935219039E+03   -0.13487E-02   -0.13487E-02   576   0.880E-01
DAV:   5    -0.298935219105E+03   -0.66132E-07   -0.66605E-07   384   0.614E-03    0.923E+01
DAV:   6    -0.645367412382E+02    0.23440E+03   -0.27922E+02   320   0.108E+02    0.387E+01
DAV:   7    -0.222649899924E+02    0.42272E+02   -0.37833E+02   496   0.737E+01    0.255E+01
DAV:   8    -0.206832960552E+02    0.15817E+01   -0.17468E+02   336   0.454E+01    0.163E+01
DAV:   9    -0.119623078515E+02    0.87210E+01   -0.31228E+01   320   0.179E+01    0.242E+00
DAV:  10    -0.119822900991E+02   -0.19982E-01   -0.20835E+00   416   0.595E+00    0.191E+00
DAV:  11    -0.119225827735E+02    0.59707E-01   -0.69017E-01   352   0.296E+00    0.391E-01
DAV:  12    -0.119191631782E+02    0.34196E-02   -0.28064E-02   416   0.706E-01    0.318E-02
DAV:  13    -0.119191976412E+02   -0.34463E-04   -0.88307E-04   400   0.154E-01    0.443E-02
DAV:  14    -0.119191733386E+02    0.24303E-04   -0.23455E-04   464   0.659E-02    0.933E-03
DAV:  15    -0.119191728979E+02    0.44068E-06   -0.13588E-05   368   0.164E-02    0.306E-03
DAV:  16    -0.119191728480E+02    0.49925E-07   -0.68771E-07   160   0.322E-03
   1 F= -.11919173E+02 E0= -.11919173E+02  d E =-.281133E-17
