# ['Ni']

18 atoms
1 atom types

    0.0000     2.5190 xlo xhi
    0.0000     4.3631 ylo yhi
    0.0000    37.0163 zlo zhi

    0.0000     0.0000    -0.0004 xy xz yz

Atoms

1 1     0.0000     0.0000     0.0000
2 1     1.2595     0.7272     2.0565
3 1     0.0000     1.4544     4.1129
4 1     1.2595     2.1816     0.0000
5 1     0.0000     2.9088     2.0565
6 1     1.2595     3.6359     4.1129
7 1     0.0000     0.0000     6.1694
8 1     1.2595     0.7272     8.2258
9 1     0.0000     1.4544    10.2823
10 1     1.2595     2.1816     6.1694
11 1     0.0000     2.9088     8.2258
12 1     1.2595     3.6359    10.2823
13 1     0.0000     0.0000    12.3387
14 1     1.2595     0.7272    14.3952
15 1     0.0000     1.4544    16.4517
16 1     1.2595     2.1816    12.3387
17 1     0.0000     2.9088    14.3952
18 1     1.2595     3.6359    16.4517
