LAMMPS (10 Feb 2015)
# ---- initialize simulations
clear
units metal
dimension 3
boundary p p p
atom_style charge
atom_modify map array
# ---- create atoms
read_data /Users/eugeneragasa/pyflamestk_git/pypospack/tests/tests_integration/workflow/WorkflowLammpsThermalExpansion/param_5262/MgO_NaCl_unit.npt.T1700/lammps.structure
  triclinic box = (0 0 0) to (4.2565 4.2565 4.2565) with tilt (0 0 0)
  1 by 1 by 1 MPI processor grid
  reading atoms ...
  8 atoms
# ---- define interatomic potential
include potential.mod
mass 1 24.305
mass 2 15.999

group Mg type 1
4 atoms in group Mg
group O type 2
4 atoms in group O

set group Mg charge 1.695400086
  4 settings made for charge
set group O charge -1.695400086
  4 settings made for charge

variable R_cut equal 10.0

pair_style buck/coul/long ${R_cut}
pair_style buck/coul/long 10
pair_coeff 1 1 0.0 0.5 0.0 ${R_cut}
pair_coeff 1 1 0.0 0.5 0.0 10
pair_coeff 1 2 1303.37543516 0.290482854228 0.0 ${R_cut}
pair_coeff 1 2 1303.37543516 0.290482854228 0.0 10
pair_coeff 2 2 9936.88636401 0.22003654812 26.9596347598 ${R_cut}
pair_coeff 2 2 9936.88636401 0.22003654812 26.9596347598 10

kspace_style pppm 1.0e-5

neighbor 1.0 bin
neigh_modify every 1 delay 0 check yes
# ---- define settings
compute eng all pe/atom
compute eatoms all reduce sum c_eng
# ---- run minimization
reset_timestep 0
fix 1 all box/relax iso 0.0 vmax 0.001
thermo 10
thermo_style custom step pe lx ly lz xy xz yz press pxx pyy pzz pxy pxz pyz c_eatoms
min_style cg
minimize 1e-25 1e-25 5000 10000
PPPM initialization ...
  G vector (1/distance) = 0.353118
  grid = 8 8 8
  stencil order = 5
  estimated absolute RMS force accuracy = 4.08652e-05
  estimated relative force accuracy = 2.83793e-06
  using double precision FFTs
  3d grid and FFT values/proc = 3375 512
Neighbor list info ...
  1 neighbor list requests
  update every 1 steps, delay 0 steps, check yes
  master list distance cutoff = 11
Memory usage per processor = 4.06549 Mbytes
Step PotEng Lx Ly Lz Xy Xz Yz Press Pxx Pyy Pzz Pxy Pxz Pyz eatoms 
       0   -115.99413       4.2565       4.2565       4.2565            0            0            0    97842.713    97842.713    97842.713    97842.713 -3.9648682e-11 -1.4130262e-10 -2.4072873e-11   -115.99413 
      10   -116.09248     4.299065     4.299065     4.299065            0            0            0    39915.456    39915.456    39915.456    39915.456 -6.718901e-11 1.6759609e-10 -1.4910019e-10   -116.09248 
      20   -116.11494    4.3319944    4.3319944    4.3319944            0            0            0    7.4200549    7.4200549    7.4200549    7.4200549 -9.9303313e-12 -1.50322e-10 -3.7717238e-11   -116.11494 
      22   -116.11494    4.3320008    4.3320008    4.3320008            0            0            0  0.022500426  0.022500427  0.022500425  0.022500427 -1.5011423e-10 -9.5142159e-11 1.463096e-10   -116.11494 
Loop time of 0.014123 on 1 procs for 22 steps with 8 atoms

Minimization stats:
  Stopping criterion = linesearch alpha is zero
  Energy initial, next-to-last, final = 
        -115.994127563     -116.114943198     -116.114943198
  Force two-norm initial, final = 14.1285 3.9258e-05
  Force max component initial, final = 14.1285 8.20487e-06
  Final line search alpha, max atom move = 0.5 4.10243e-06
  Iterations, force evaluations = 22 41

Pair  time (%) = 0.00370288 (26.2189)
Kspce time (%) = 0.00228667 (16.1912)
Neigh time (%) = 0 (0)
Comm  time (%) = 0.000420094 (2.97454)
Outpt time (%) = 2.7895e-05 (0.197515)
Other time (%) = 0.00768542 (54.4179)

Nlocal:    8 ave 8 max 8 min
Histogram: 1 0 0 0 0 0 0 0 0 0
Nghost:    2189 ave 2189 max 2189 min
Histogram: 1 0 0 0 0 0 0 0 0 0
Neighs:    2344 ave 2344 max 2344 min
Histogram: 1 0 0 0 0 0 0 0 0 0

Total # of neighbors = 2344
Ave neighs/atom = 293
Neighbor list builds = 0
Dangerous builds = 0
unfix 1
# ---- define output variables ----
variable natoms equal "count(all)"
variable tot_energy equal "c_eatoms"
variable length_x equal "lx"
variable length_y equal "ly"
variable length_z equal "lz"
variable tilt_xy equal "xy"
variable tilt_xz equal "xz"
variable tilt_yz equal "yz"
variable tot_press equal "press"
variable press_xx equal "pxx"
variable press_yy equal "pyy"
variable press_zz equal "pzz"
variable press_xy equal "pxy"
variable press_xz equal "pxz"
variable press_yz equal "pyz"

# ---- output ----
print "pypospack:output_section:begin"
pypospack:output_section:begin
print "tot_energy = ${tot_energy}"
tot_energy = -116.114943197766
print "num_atoms = ${natoms}"
num_atoms = 8
print "xx = ${length_x}"
xx = 4.33200077919323
print "yy = ${length_y}"
yy = 4.33200077919323
print "zz = ${length_z}"
zz = 4.33200077919323
print "xy = ${tilt_xy}"
xy = 0
print "xz = ${tilt_xz}"
xz = 0
print "yz = ${tilt_yz}"
yz = 0
print "tot_press = ${tot_press}"
tot_press = 0.0225004262556315
print "pxx = ${press_xx}"
pxx = 0.0225004265502418
print "pyy = ${press_yy}"
pyy = 0.0225004253807009
print "pzz = ${press_zz}"
pzz = 0.0225004268359518
print "pxy = ${press_xy}"
pxy = -1.50114228566484e-10
print "pxz = ${press_xz}"
pxz = -9.5142158828828e-11
print "pyz = ${press_yz}"
pyz = 1.46309599907844e-10
print "pypospack:output_section:done"
pypospack:output_section:done
print "pypospack:lammps_sim:done"
pypospack:lammps_sim:done
#------------------------------------------------------------------------------
# RUN THERMOSTAT
# running using an NPT Nose-Hoover style thermostat
#------------------------------------------------------------------------------
variable tempdamp equal 0.1
variable pressdamp equal 1.0
# set initial velocities
velocity all create 1700 2741988 mom yes dist gaussian loop all
# fix for Nose-Hoover style thermostat
fix 20 all npt temp 1700 1700 0.1 aniso 0.0 0.0 1.0 drag 1.0 couple xyz
variable boxx equal lx
variable boxy equal ly
variable boxz equal lz
variable boxp equal press
variable boxt equal temp
# calculate averages every 10000 steps
reset_timestep 0
fix 21 all ave/time 10 10 100 v_boxx v_boxy v_boxz v_boxp v_boxt file lattice.out
thermo_style custom step temp pe ke etotal press lx ly lz press pxx pyy pzz pxy pxz pyz vol
thermo_modify flush yes
thermo 100
run 100000
PPPM initialization ...
  G vector (1/distance) = 0.352343
  grid = 8 8 8
  stencil order = 5
  estimated absolute RMS force accuracy = 4.23631e-05
  estimated relative force accuracy = 2.94196e-06
  using double precision FFTs
  3d grid and FFT values/proc = 3375 512
Memory usage per processor = 3.06549 Mbytes
Step Temp PotEng KinEng TotEng Press Lx Ly Lz Press Pxx Pyy Pzz Pxy Pxz Pyz Volume 
       0         1700   -116.11495    1.5381957   -114.57676    20207.943    4.3320008    4.3320008    4.3320008    20207.943    11135.074    24989.443    24499.311    8559.0327    2737.5212    12064.734    81.295326 
     100    797.53261   -115.11337   0.72162426   -114.39174    35870.099     4.365762     4.365762     4.365762    35870.099    13991.458    76878.639      16740.2   -828.74055    2165.5909   -22729.879    83.210891 
     200    1391.3524   -115.23313    1.2589249   -113.97421   -39022.391    4.4184452    4.4184452    4.4184452   -39022.391   -50831.036   -15832.456   -50403.681   -7723.2734   -7670.5428    8542.1116    86.259796 
     300    1494.9451   -114.94746    1.3526577    -113.5948   -21978.901    4.4186302    4.4186302    4.4186302   -21978.901   -49469.775    8583.9697   -25050.897   -10337.121   -5981.8425    15734.627    86.270632 
     400    1060.1912   -114.24607   0.95928329   -113.28679    27325.467    4.3871804    4.3871804    4.3871804    27325.467    11140.225     40560.73    30275.446   -408.49922    9759.8976    12868.805    84.441606 
     500    1071.2673   -114.08939   0.96930512   -113.12008    25465.925    4.3923579    4.3923579    4.3923579    25465.925    21950.729    65668.272   -11221.224    12892.384    8852.2711   -2001.5602    84.740917 
     600    1572.3289   -114.47674    1.4226762   -113.05407   -21417.369    4.4279999    4.4279999    4.4279999   -21417.369   -43909.021   -20668.211    325.12396    1572.2884   -7372.0964   -22415.041    86.820605 
     700    1906.5803   -114.72793    1.7251139   -113.00281    -47891.06    4.4436789    4.4436789    4.4436789    -47891.06   -47764.442   -36524.642   -59384.097    1765.2201    3062.8386    11832.943     87.74614 
     800    1869.3098   -114.67562    1.6913908   -112.98423     25819.15    4.4212993    4.4212993    4.4212993     25819.15   -24114.873    58830.093     42742.23   -4175.9616   -14428.123     10332.68    86.427058 
     900    1376.6343   -114.25588    1.2456076   -113.01027    32048.067    4.4000246    4.4000246    4.4000246    32048.067   -41255.296    55175.002    82224.495    2888.3943    7121.4408    30252.449     85.18543 
    1000    1727.2026   -114.61405    1.5628092   -113.05124    11967.691    4.4012335    4.4012335    4.4012335    11967.691   -47224.073    64821.518    18305.628    11184.975     3472.082     4228.759    85.255661 
    1100     2476.867     -115.316    2.2411213   -113.07488   -24478.715    4.4258206    4.4258206    4.4258206   -24478.715   -41700.333   -17127.831   -14607.983     19.32586    3803.3038    -23523.88    86.692476 
    1200    1134.2987   -114.07196    1.0263373   -113.04562   -8762.7845    4.4355134    4.4355134    4.4355134   -8762.7845   -58397.145   -2357.3704    34466.161    14187.361    12877.434    5962.0649    87.263312 
    1300    1965.9754   -114.79464    1.7788559   -113.01578   -17956.475    4.4071872    4.4071872    4.4071872   -17956.475   -36158.138    19094.276   -36805.563   -1038.5464    10125.859   -11327.786    85.602113 
    1400     2240.823    -115.0368    2.0275437   -113.00926    3169.1229    4.3894605    4.3894605    4.3894605    3169.1229   -21508.743    29746.406    1269.7051    3158.9315   -10110.301    17380.947    84.573333 
    1500      1343.56   -114.26736    1.2156813   -113.05168    15158.634    4.4118875    4.4118875    4.4118875    15158.634   -51191.694    27602.959    69064.639    15173.179    17359.266    4093.9062    85.876294 
    1600    1627.0177   -114.49255    1.4721598   -113.02039   -26497.596     4.432991     4.432991     4.432991   -26497.596   -43967.474   -3747.9249   -31777.389    3614.8529   -13023.444    8688.8403    87.114518 
    1700    1466.1276   -114.32503     1.326583   -112.99845    5817.7125    4.4192525    4.4192525    4.4192525    5817.7125   -54922.264    54593.146    17782.255    11065.942    12968.942   -14971.971    86.307083 
    1800    1782.6132   -114.61965    1.6129459    -113.0067   -24758.369    4.4102443    4.4102443    4.4102443   -24758.369   -62930.578   -7585.8498   -3758.6794   -1931.6204    672.78898   -9680.5762    85.780373 
    1900    2060.7728   -114.88518    1.8646306   -113.02055   -21024.617    4.4091969    4.4091969    4.4091969   -21024.617   -32729.955    1422.7667   -31766.661   -12601.082    -1417.383    6712.6775    85.719274 
    2000     1222.962   -114.13816    1.1065618    -113.0316    37438.077    4.4151566    4.4151566    4.4151566    37438.077   -36876.296    125150.65    24039.874    15405.593    18655.841    4927.1597    86.067331 
    2100    1281.6548   -114.19913    1.1596682   -113.03946    20124.226    4.4294344    4.4294344    4.4294344    20124.226   -36686.681    71366.907    25692.452     402.0638    194.78493   -1045.0254    86.905013 
    2200    1808.0385   -114.66064    1.6359513   -113.02469    12182.581    4.4166091    4.4166091    4.4166091    12182.581   -76222.279     53491.91    59278.111   -216.08704    8530.4395   -23252.526      86.1523 
    2300    2092.7758   -114.94021    1.8935875   -113.04662    39.360118    4.3983134    4.3983134    4.3983134    39.360118   -47233.253    54223.932   -6872.5982    14937.736    18793.832    25466.142    85.086079 
    2400    2393.9761   -115.22415    2.1661199   -113.05803    5763.9878    4.4055753    4.4055753    4.4055753    5763.9878   -47643.874    2754.1464    62181.691   -8103.0964   -11588.934   -11467.494    85.508223 
    2500     1111.642   -114.06095    1.0058371   -113.05511   -15417.908    4.4284069    4.4284069    4.4284069   -15417.908   -83138.894    16753.355    20131.814    10895.295    10493.982   -2223.3346    86.844548 
    2600    1813.3728   -114.64586    1.6407778   -113.00508   -23056.857    4.4146657    4.4146657    4.4146657   -23056.857    -64342.59   -16778.097    11950.116    7144.3747   -5700.7354    26669.137    86.038626 
    2700    1824.6614   -114.63636     1.650992   -112.98537     9495.741    4.4030398    4.4030398    4.4030398     9495.741   -18847.448   -1570.3279    48904.999   -7150.1796     1226.681   -18756.681    85.360674 
    2800    891.69197   -113.81565   0.80682163   -113.00883    14976.579     4.413184     4.413184     4.413184    14976.579   -45024.236    17851.679    72102.295    -8.332451    6002.3289   -10259.678    85.952024 
    2900    2109.2146   -114.90533    1.9084617   -112.99687   -32462.121    4.4218765    4.4218765    4.4218765   -32462.121   -57004.427   -35791.709   -4590.2257    6822.7301   -1059.9314   -7862.0766    86.460914 
    3000    1805.1469   -114.62589    1.6333349   -112.99256   -12483.448    4.4243435    4.4243435    4.4243435   -12483.448   -53346.011    19915.207   -4019.5392   -634.80253   -10755.785   -18545.107    86.605706 
    3100    1736.5405    -114.5511    1.5712584   -112.97984    22350.211    4.4172053    4.4172053    4.4172053    22350.211   -42006.747   -3041.8011    112099.18     1086.319   -872.01962    9430.0851    86.187198 
    3200    2302.7402   -115.06994    2.0835677   -112.98637   -18894.398    4.4182748    4.4182748    4.4182748   -18894.398    -71996.46   -28634.674    43947.941   -6589.1634   -17659.779    18582.416    86.249815 
    3300    1438.6929   -114.31449    1.3017595   -113.01273    11176.031    4.4173991    4.4173991    4.4173991    11176.031   -66871.999   -5785.9539    106186.05   -651.39899   -7287.0319    7728.3032     86.19854 
    3400    1973.6068   -114.80534    1.7857609   -113.01958    -24384.35    4.4179316    4.4179316    4.4179316    -24384.35   -74900.487   -57227.682    58975.119    9680.5225    11399.767   -2075.1693    86.229719 
    3500    1918.7302   -114.76052    1.7361074   -113.02441   -13874.434    4.4172152    4.4172152    4.4172152   -13874.434   -60048.858   -27314.031    45739.585   -6602.1609   -7892.5797   -3251.7355    86.187777 
    3600    1997.3414   -114.83219    1.8072364   -113.02495   -5793.8516    4.4114483    4.4114483    4.4114483   -5793.8516   -34487.414   -42891.977    59997.836    2157.2264   -3161.6934    537.20804    85.850647 
    3700    1888.0375   -114.74322     1.708336   -113.03489    16260.093     4.408605     4.408605     4.408605    16260.093   -40654.642    29723.776    59711.145     8583.311    3258.1143    15294.596    85.684756 
    3800    2164.8581   -115.00051    1.9588091    -113.0417     -2044.49    4.4120061    4.4120061    4.4120061     -2044.49   -60840.516    2300.2349    52406.811   -10897.827   -12742.884   -9417.6668    85.883219 
    3900    1188.8118   -114.11409    1.0756619   -113.03842    14638.351    4.4268089    4.4268089    4.4268089    14638.351   -68288.785    43962.391    68241.447   -359.28903   -19580.694   -5537.8524    86.750568 
    4000    1904.1599   -114.73009    1.7229239   -113.00717   -39072.839     4.431152     4.431152     4.431152   -39072.839   -72684.346   -50062.565    5528.3933   -4469.7474    5726.4855    6049.5772    87.006149 
    4100    1367.1364   -114.22678    1.2370137   -112.98977   -10768.648    4.4188574    4.4188574    4.4188574   -10768.648   -70420.357    32666.547    5447.8649   -3334.1979   -12462.609    1456.5797    86.283941 
    4200    1649.0282   -114.47342    1.4920753   -112.98135    43787.268    4.3972282    4.3972282    4.3972282    43787.268   -7288.8673   -9702.4614    148353.13    1054.4561   -11909.961   -29047.108    85.023115 
    4300    1461.3769   -114.37187    1.3222845   -113.04958    16502.692    4.4177344    4.4177344    4.4177344    16502.692   -26751.769    28130.223    48129.623   -662.75519   -7176.0196    12643.824     86.21817 
    4400    2123.9716   -114.94892    1.9218142    -113.0271    -29207.76    4.4434707    4.4434707    4.4434707    -29207.76   -66545.465   -48234.877    27157.062    1438.9131   -663.92679    9044.1998    87.733806 
    4500    2036.1493   -114.84088    1.8423507   -112.99853   -20560.949    4.4324287    4.4324287    4.4324287   -20560.949   -47254.585    12031.492   -26459.755   -2936.5356   -3614.2285     10643.17    87.081375 
    4600    1949.0946   -114.73549    1.7635818   -112.97191    36338.002    4.3994426    4.3994426    4.3994426    36338.002   -30000.287   -2738.8305    141753.12    1180.6045   -4620.3872   -1395.7604    85.151628 
    4700    1334.7906   -114.22128    1.2077466   -113.01354    12062.697    4.4037816    4.4037816    4.4037816    12062.697    -14858.51    22027.951    29018.651    18562.417   -23529.102    7810.0483    85.403826 
    4800    1448.6892   -114.35953    1.3108045   -113.04872    5280.6973    4.4332596    4.4332596    4.4332596    5280.6973    -25375.34    36518.829    4698.6034   -8078.5703   -14964.263    22977.223    87.130355 
    4900    1566.4121   -114.41211    1.4173226   -112.99479   -29526.185    4.4546568    4.4546568    4.4546568   -29526.185   -67844.177   -60877.956    40143.577   -2730.9145   -6097.3473     8.164677    88.398065 
    5000    1462.5652   -114.29294    1.3233597   -112.96958   -30671.109    4.4185967    4.4185967    4.4185967   -30671.109   -34443.848   -30508.273   -27061.205    1933.6762   -8173.1792    17683.235    86.268666 
    5100    1921.3895   -114.69057    1.7385136   -112.95205    44422.309    4.3815747    4.3815747    4.3815747    44422.309    7058.3885    4592.6437    121615.89   -7250.0658    13694.934    10739.127    84.118332 
    5200    2230.1419   -115.05342    2.0178792   -113.03554   -11933.755    4.4223625    4.4223625    4.4223625   -11933.755   -26316.216   -7564.9264   -1920.1222    3860.0841   -7372.6148    -19640.46    86.489425 
    5300    1264.5579   -114.15564    1.1441985   -113.01144     12171.69    4.4379151    4.4379151    4.4379151     12171.69   -8801.8013   -33428.751    78745.622   -5105.3213   -3351.1051    13066.192     87.40514 
    5400    2352.6286   -115.09758    2.1287078   -112.96888   -31005.534    4.4165959    4.4165959    4.4165959   -31005.534   -18798.548   -53794.092   -20423.963   0.51379096    -3315.874    7687.9862    86.151528 
    5500     1450.552   -114.28198      1.31249   -112.96949    13430.161     4.412064     4.412064     4.412064    13430.161    28078.152    28330.674   -16118.344    1209.6825   -4510.4249   -11968.595      85.8866 
    5600    1191.2954   -114.06218    1.0779091   -112.98427     6150.343    4.4240697    4.4240697    4.4240697     6150.343   -16425.907   -5447.5434    40324.479   -1280.1736    2060.9762    49838.228    86.589632 
    5700     1377.703   -114.23062    1.2465746   -112.98404   -19000.836    4.4267213    4.4267213    4.4267213   -19000.836   -27861.232   -12473.601   -16667.675    4068.2415   -1159.5665    6009.0245    86.745417 
    5800    2162.0846   -114.95154    1.9562996   -112.99524   -22447.612    4.4262572    4.4262572    4.4262572   -22447.612   -36525.381   -32351.131    1533.6756   -12234.551   -8.1036854    7145.5822    86.718137 
    5900    1647.5193   -114.51004    1.4907101   -113.01933    6853.6568     4.431594     4.431594     4.431594    6853.6568    -61515.65    72257.944    9818.6766   -2948.6391    324.99451    3358.4517    87.032189 
    6000    1491.8995   -114.37781     1.349902    -113.0279   -7185.5945    4.4361448    4.4361448    4.4361448   -7185.5945   -43986.384   -19346.192    41775.792   -4104.9148    3977.1216    29029.237    87.300584 
    6100    1892.3171   -114.70874    1.7122083   -112.99653    3380.9125    4.4347944    4.4347944    4.4347944    3380.9125   -40269.942    57556.948   -7144.2692   -11617.005   -13248.608   -4182.7082    87.220881 
    6200     2302.695   -115.07781    2.0835269   -112.99428   -44652.027    4.4321119    4.4321119    4.4321119   -44652.027   -45365.049   -41374.061   -47216.969   -11181.649    6602.8926    189.72619    87.062705 
    6300    1374.7376   -114.26037    1.2438915   -113.01648    12585.903    4.4296826    4.4296826    4.4296826    12585.903   -18424.507    1008.3222    55173.895    -2055.453   -15883.229    3056.8195     86.91962 
    6400    1412.2953   -114.28837    1.2778744    -113.0105    914.09193    4.4434703    4.4434703    4.4434703    914.09193   -29461.508    50798.682   -18594.899   -8293.1203    4397.7449   -11882.054    87.733782 
    6500    1715.3752   -114.52382    1.5521076   -112.97172   -7057.3723    4.4420567    4.4420567    4.4420567   -7057.3723    3751.8196    30580.856   -55504.793   -536.87983    1623.2838    14730.599    87.650074 
    6600     1358.495   -114.19817    1.2291948   -112.96897    29104.703    4.4337439    4.4337439    4.4337439    29104.703    19354.165    24189.132    43770.812   -12700.834   -1579.0498   -19847.873    87.158915 
    6700     1967.155    -114.7561    1.7799232   -112.97618    5484.7901    4.4411674    4.4411674    4.4411674    5484.7901    33913.181    -27533.28    10074.469   -15253.872   -8055.6282    17308.037    87.597442 
    6800    1877.4404   -114.66447    1.6987476   -112.96573   -44340.174    4.4490926    4.4490926    4.4490926   -44340.174   -53785.177   -84919.275      5683.93    4808.5315   -6171.1356    12241.795     88.06723 
    6900    1167.4294   -113.99162    1.0563146    -112.9353    11380.986     4.431357     4.431357     4.431357    11380.986    45172.361   -69075.729    58046.328    18458.389   -2368.0242   -16679.912    87.018224 
    7000    1882.0793   -114.65467    1.7029449   -112.95173   -19236.627    4.4306457    4.4306457    4.4306457   -19236.627   -19066.675   -42712.934    4069.7278   -10936.769    7670.8792    19632.318    86.976329 
    7100    1155.0325   -114.02459    1.0450977   -112.97949   -12374.525    4.4446581    4.4446581    4.4446581   -12374.525   -2036.4277     25770.13   -60857.278      -4456.6     21248.71    26305.816    87.804158 
    7200     1701.148   -114.50037    1.5392344   -112.96114    10957.543    4.4398949    4.4398949    4.4398949    10957.543   -6080.5799    6966.1444    31987.065   -5340.8091    25541.572   -16089.098    87.522169 
    7300    1343.0675   -114.19088    1.2152357   -112.97564     2913.226    4.4384137    4.4384137    4.4384137     2913.226   -39431.509   -53514.459    101685.65    10919.841   -7344.1596    19246.663    87.434605 
    7400    1578.5838   -114.42048    1.4283358   -112.99215    10392.605    4.4251523    4.4251523    4.4251523    10392.605    22889.632   -40955.434    49243.618    9389.5434   -26346.846    121.97319    86.653214 
    7500    2207.9392   -114.99139    1.9977898    -112.9936   -22106.177    4.4291216    4.4291216    4.4291216   -22106.177   -49568.057   -45265.694    28515.219   -1705.4721    9048.2098    10372.146    86.886602 
    7600    1674.6891   -114.49077    1.5152939   -112.97548   -19776.516    4.4493275    4.4493275    4.4493275   -19776.516    -19546.66    -84572.44    44789.553    2592.9487    11451.132    8418.4886    88.081181 
    7700    2007.7869   -114.75249    1.8166878    -112.9358   -28368.871    4.4477727    4.4477727    4.4477727   -28368.871   -15982.828   -65536.104   -3587.6803   -2534.3456   -26892.507    15710.685    87.988874 
    7800    1246.2595    -114.0638    1.1276418   -112.93616    37570.481    4.4262038    4.4262038    4.4262038    37570.481    102711.99   -17148.831    27148.286   -13305.496   -10861.862   -7085.3575    86.714997 
    7900    2254.9731   -115.00865    2.0403471    -112.9683   -21138.583    4.4245395    4.4245395    4.4245395   -21138.583   -14529.465   -10111.615   -38774.669   -12009.961    17958.568   -11231.099    86.617221 
    8000    1245.6486   -114.14171     1.127089   -113.01462   -1292.4898    4.4437649    4.4437649    4.4437649   -1292.4898    68739.285   -95264.173    22647.418    2406.4034   -106.32545   -447.08776    87.751233 
    8100    1590.3229   -114.41406    1.4389576    -112.9751   -7373.7026    4.4458312    4.4458312    4.4458312   -7373.7026   -11345.709   -72158.096    61382.697    1372.9106    16961.431    489.28075    87.873702 
    8200     1781.394   -114.55315    1.6118428    -112.9413     6893.099    4.4370247    4.4370247    4.4370247     6893.099    70597.305   -24130.332   -25787.676   -7175.1466     9993.301   -19633.956    87.352538 
    8300    1718.2637   -114.49465    1.5547211   -112.93993    23323.521    4.4319293    4.4319293    4.4319293    23323.521   -4078.5366   -32191.081    106240.18    7275.3778   -23284.349   -530.23638    87.051943 
    8400    1552.1803    -114.3874    1.4044453   -112.98295    863.99705    4.4287214    4.4287214    4.4287214    863.99705    69369.857   -45450.068   -21327.798     -10272.4   -7357.4271    15387.791    86.863051 
    8500     1221.952   -114.10914    1.1056478   -113.00349    5757.5941    4.4251645    4.4251645    4.4251645    5757.5941   -32019.751    26685.908    22606.625   -11251.895   -11512.309   -14437.666    86.653928 
    8600    2333.4908   -115.08849    2.1113915    -112.9771    -14849.14    4.4132738    4.4132738    4.4132738    -14849.14   -14741.782    -13064.34   -16741.299   -8611.8344   -3281.0238   -5966.7268    85.957272 
    8700    1212.3999   -114.10184    1.0970049   -113.00484    25261.367    4.4237907    4.4237907    4.4237907    25261.367    30607.851    42190.981    2985.2697    1506.6354    15137.075   -10080.726     86.57325 
    8800    1399.4464   -114.26274    1.2662486   -112.99649   -28997.431    4.4477197    4.4477197    4.4477197   -28997.431    4896.2602   -43356.453   -48532.099    19827.863   -2026.4588    3712.2185    87.985726 
    8900    2270.2625   -114.99327    2.0541812   -112.93909   -26925.688    4.4345718    4.4345718    4.4345718   -26925.688   -10775.774   -29066.506   -40934.783   -4570.7179    9048.2422   -488.98014    87.207746 
    9000     2441.466   -115.13733    2.2090898   -112.92824   -20806.419    4.4249244    4.4249244    4.4249244   -20806.419   -12299.949     10870.41   -60989.718    3925.6979    10442.098   -22648.644    86.639824 
    9100    2052.1437   -114.81092    1.8568227   -112.95409   -16038.036     4.439829     4.439829     4.439829   -16038.036   -29404.723    9270.9985   -27980.383    5214.4648     17479.31    -9100.905    87.518269 
    9200    1911.3664    -114.6855    1.7294445   -112.95606   -18177.103    4.4451298    4.4451298    4.4451298   -18177.103   -25814.765   -51434.894    22718.351   -19269.872   -439.67688    2099.8374    87.832113 
    9300    1940.4736   -114.69171    1.7557813   -112.93593   -23889.921    4.4320682    4.4320682    4.4320682   -23889.921   -47535.719   -18990.028   -5144.0163   -5190.1538   -17230.605     8463.437     87.06013 
    9400    1590.9885   -114.38053    1.4395598   -112.94097    25355.306    4.4173613    4.4173613    4.4173613    25355.306    14085.486    22994.971    38985.461    16967.598   -7343.7446    4698.9963    86.196327 
    9500    1288.7568   -114.14079    1.1660943    -112.9747   -2321.1638    4.4307676    4.4307676    4.4307676   -2321.1638    -37947.18   -2888.7694    33872.458   -2488.9083    4165.9144    16798.506    86.983505 
    9600    1900.5432   -114.68981    1.7196514   -112.97016   -41308.102     4.436761     4.436761     4.436761   -41308.102   -41144.057   -15402.995   -67377.253     9264.945    9123.4619    6965.3451    87.336969 
    9700    1729.9316   -114.52571    1.5652785   -112.96044    18566.694     4.431732     4.431732     4.431732    18566.694   -47750.398    69264.347    34186.132    21240.169   -11052.479    4914.8456    87.040318 
    9800     1084.986   -113.93657   0.98171818   -112.95485    11143.942    4.4327259    4.4327259    4.4327259    11143.942   -5302.7961    6255.8419    32478.781   -38720.439   -20108.578   -13707.137    87.098893 
    9900    1905.9997   -114.65445    1.7245886   -112.92986    3919.4586    4.4160178    4.4160178    4.4160178    3919.4586   -11015.957    40492.619   -17718.286   -6243.9714    17757.923   -11124.849    86.117706 
   10000    2002.6842   -114.76879    1.8120707   -112.95671    23667.641    4.4106844    4.4106844    4.4106844    23667.641    55359.781    58504.682    -42861.54    34839.007   -3419.0711   -19832.318    85.806055 
   10100    1460.4445   -114.31296    1.3214409   -112.99152    24428.484    4.4236782    4.4236782    4.4236782    24428.484    34253.476    37762.559    1269.4159    10516.422    2011.1137   -16693.111    86.566643 
   10200    1346.4773   -114.21789    1.2183209   -112.99957    4542.5299    4.4466788    4.4466788    4.4466788    4542.5299    27272.388   -10712.701   -2932.0965   -8906.8423    16484.715   -9874.9114     87.92397 
   10300    1607.5816   -114.41227    1.4545736   -112.95769   -29930.878    4.4384155    4.4384155    4.4384155   -29930.878     -57781.5    22751.068   -54762.203    15783.025   -2240.6092    1737.1014    87.434711 
   10400     1347.108    -114.1533    1.2188917   -112.93441    32990.435    4.3817372    4.3817372    4.3817372    32990.435    79760.055   -7200.8621    26412.111   -950.43148   -9030.3205    954.91397    84.127693 
   10500    1924.0642   -114.72028    1.7409337   -112.97934    22673.209    4.3758467    4.3758467    4.3758467    22673.209    29703.844   -25004.276    63320.058   -30687.231    3706.6184   -5574.0847    83.788863 
   10600    1574.4912   -114.45485    1.4246327   -113.03022    3428.4094    4.4251144    4.4251144    4.4251144    3428.4094    70832.339   -13638.015   -46909.096    27703.223    5911.5802    3571.7965    86.650985 
   10700    2069.9097   -114.85044    1.8728978   -112.97755   -32970.844    4.4396202    4.4396202    4.4396202   -32970.844   -2291.8483   -50152.903    -46467.78   -16357.321    3674.2431    10821.373    87.505927 
   10800    1999.2316    -114.7516    1.8089468   -112.94266   -21505.479    4.4214382    4.4214382    4.4214382   -21505.479    14061.201   -52761.184   -25816.453   -9631.8169    6874.0547     17667.56    86.435207 
   10900    1368.1936    -114.1778    1.2379703   -112.93983    53618.361    4.4009896    4.4009896    4.4009896    53618.361    85080.696    58695.052    17079.335   -5323.6188    5738.1941     4898.111     85.24149 
   11000    1500.0864   -114.33296    1.3573097   -112.97565    13671.483     4.410006     4.410006     4.410006    13671.483   -13074.067    26376.852    27711.666   -25965.552    5251.7951     23203.78    85.766474 
   11100    963.10891   -113.85764   0.87144118    -112.9862   -11151.505    4.4387152    4.4387152    4.4387152   -11151.505   -72013.162    9432.8025    29125.845   -16172.533   -1810.1753    13910.259    87.452419 
   11200    1506.2532   -114.30782    1.3628895   -112.94493    3878.8064    4.4327477    4.4327477    4.4327477    3878.8064    24960.636   -580.45073   -12743.766   -15813.073    1681.3331    6484.3879    87.100176 
   11300    1281.3945   -114.08489    1.1594327   -112.92545    59250.405    4.4170191    4.4170191    4.4170191    59250.405    77374.906    108036.25   -7659.9411   -46044.348   -6252.2856     4822.708    86.176296 
   11400    2324.8786   -115.03996     2.103599   -112.93636   -17034.635    4.4293524    4.4293524    4.4293524   -17034.635   -4405.5993   -12942.441   -33755.863     22977.44    8550.0034    1440.7993    86.900186 
   11500    1908.3234   -114.64862    1.7266911   -112.92193   -3793.1705    4.4250705    4.4250705    4.4250705   -3793.1705    8204.7291    17699.693   -37283.934   -8873.6547   -426.46399   -11479.489    86.648409 
   11600    1486.1418   -114.27484    1.3446923   -112.93015    36428.145    4.4137004    4.4137004    4.4137004    36428.145    49715.358    14370.919    45198.158   -44972.065     -16651.6    -19237.97    85.982202 
   11700    1456.3844   -114.31416    1.3177672   -112.99639    38028.455    4.4320979    4.4320979    4.4320979    38028.455    72711.223    27249.262    14124.881   -1389.3335   -30748.649   -22131.954     87.06188 
   11800    1895.5766   -114.69505    1.7151575    -112.9799   -31354.715    4.4459377    4.4459377    4.4459377   -31354.715   -41132.629   -7388.9455   -45542.572    3161.2931   -2930.2022    -11137.89    87.880017 
   11900    1714.5451   -114.51463    1.5513565   -112.96327   -20281.814     4.434903     4.434903     4.434903   -20281.814   -54552.139    21836.935   -28130.238   -6836.0324     860.3416    8472.6752     87.22729 
   12000    1484.5022   -114.30241    1.3432088    -112.9592    18580.157    4.4141039    4.4141039    4.4141039    18580.157    98590.887    -24308.66   -18541.757   -8150.8067    23729.198    -5252.768    86.005781 
   12100    1693.5341    -114.5122    1.5323452   -112.97986    7332.9893    4.4066325    4.4066325    4.4066325    7332.9893    78526.303   -33527.831   -22999.503     2277.343   -595.50083   -1254.4673    85.569795 
   12200    2055.7338   -114.86412    1.8600711   -113.00405    9834.8231    4.4180837    4.4180837    4.4180837    9834.8231    18991.675    28939.709   -18426.915    190.82443    3826.8878   -10658.293    86.238622 
   12300    1324.3892   -114.19594    1.1983352    -112.9976    7054.4957       4.4475       4.4475       4.4475    7054.4957    58858.255   -35546.608     -2148.16    19641.914   -2485.3035   -18730.874     87.97269 
   12400    1508.4304   -114.29705    1.3648595   -112.93219   -16006.663    4.4446626    4.4446626    4.4446626   -16006.663   -52096.684   -27160.881    31237.575    1785.9371   -379.59829   -5079.0201    87.804421 
   12500    1812.4667   -114.55708    1.6399579   -112.91712    15179.656    4.3967471    4.3967471    4.3967471    15179.656    65531.984   -24553.903    4560.8866    18359.598    6270.9422   -27671.332     84.99521 
   12600    971.00599   -113.85996   0.87858662   -112.98137     43982.46    4.3922366    4.3922366    4.3922366     43982.46    38542.955    54931.758    38472.668   -11763.595    15496.087   -22093.489    84.733898 
   12700    1065.9199    -113.9933   0.96446673   -113.02883    23914.588    4.4279755    4.4279755    4.4279755    23914.588    69931.661   -45207.693    47019.797    12876.292    20471.617   -2053.2682    86.819168 
   12800      1837.57   -114.67391    1.6626719   -113.01124   -28428.493    4.4457507    4.4457507    4.4457507   -28428.493   -63270.197    20476.736   -42492.019   -11884.152     9204.072   -21962.409    87.868925 
   12900    1831.1653   -114.64299    1.6568768   -112.98611   -48242.836    4.4361113    4.4361113    4.4361113   -48242.836   -53427.404   -46126.506   -45174.597   -12133.836    -29906.85    17426.497    87.298605 
   13000    1319.4552   -114.17424    1.1938708   -112.98037    19804.154    4.3959491    4.3959491    4.3959491    19804.154    72156.819   -5051.0732   -7693.2851   -39637.707    1837.6979    7557.4626    84.948942 
   13100    2283.4932   -115.06801    2.0661527   -113.00185    30030.104    4.3897754    4.3897754    4.3897754    30030.104    66080.828   -4852.7657     28862.25    12231.477   -1719.9647   -19042.044    84.591533 
   13200    1570.1111   -114.46279    1.4206695   -113.04212   -20724.654    4.4318876    4.4318876    4.4318876   -20724.654   -71118.766    31520.042   -22575.237   -8572.7223    5823.2723    10381.647    87.049488 
   13300    1464.8707    -114.3305    1.3254458   -113.00505   -16259.498    4.4335115    4.4335115    4.4335115   -16259.498   -49992.016   -26599.708    27813.229    17087.537   -10161.188    7685.6433    87.145207 
   13400    1579.8522   -114.40088    1.4294835   -112.97139    2332.1263    4.4194224    4.4194224    4.4194224    2332.1263   -78433.539    57058.109    28371.809       -15590    15777.383   -11723.519    86.317042 
   13500    1697.9253   -114.50866    1.5363185   -112.97234    16016.302    4.4051564    4.4051564    4.4051564    16016.302    24237.133   -10746.354    34558.126    19615.818    7824.1964    9861.9905    85.483833 
   13600    1460.5724   -114.31979    1.3215566   -112.99824    39852.731    4.4066525    4.4066525    4.4066525    39852.731   -3089.0674    114726.68    7920.5828   -27613.553     11590.28    16910.549    85.570962 
   13700    2132.3851   -114.94191    1.9294268   -113.01248   -30972.792    4.4345578    4.4345578    4.4345578   -30972.792   -44099.866     7328.477   -56146.986    -167.7877    18078.796    -8212.596    87.206919 
   13800    1753.3603   -114.55437    1.5864772   -112.96789     8289.692    4.4315284    4.4315284    4.4315284     8289.692   -10991.644    13476.066    22384.654     9333.008    4640.4523    13256.533     87.02832 
   13900    1614.6278   -114.40303    1.4609492   -112.94208    22304.787    4.4281299    4.4281299    4.4281299    22304.787   -48233.195    73264.123    41883.433   -20018.257    5954.4609     11184.51    86.828253 
   14000     1685.706   -114.47267    1.5252622   -112.94741   -15698.964    4.4391433    4.4391433    4.4391433   -15698.964   -19313.866    8171.6137   -35954.638    2614.4653     24329.32    25563.034     87.47773 
   14100    1216.6537   -114.03023    1.1008538   -112.92938    773.90518    4.4299633    4.4299633    4.4299633    773.90518   -16134.579    45323.849   -26867.555    1634.6029     20938.12    30420.245    86.936148 
   14200    2167.6192   -114.88103    1.9613074   -112.91972   -11701.942    4.4245954    4.4245954    4.4245954   -11701.942   -62622.503    19775.428    7741.2494   -10549.968   -7712.0554    10662.295    86.620501 
   14300    1957.3359   -114.72083    1.7710387   -112.94979     -30920.5    4.4439246    4.4439246    4.4439246     -30920.5   -10272.253   -7721.4535   -74767.793   -852.76031   -13057.095    6383.2756    87.760695 
   14400    1741.0422   -114.50554    1.5753316   -112.93021   -23898.135     4.446628     4.446628     4.446628   -23898.135   -21051.654    36816.254   -87459.004   -2768.1258    6058.0678    33542.839    87.920956 
   14500    1302.7882   -114.09715    1.1787901   -112.91836    41404.129    4.4213696    4.4213696    4.4213696    41404.129    18405.483    77632.497    28174.408   -10620.902    3556.9526    1325.6361    86.431181 
   14600    2193.2815   -114.92826    1.9845272   -112.94373   -10279.487    4.4153028    4.4153028    4.4153028   -10279.487    27161.418   -42322.812   -15677.068    6559.3469   -8740.2864    23329.825    86.075883 
   14700    1308.8261   -114.15108    1.1842534   -112.96682   -2519.2875    4.4273964    4.4273964    4.4273964   -2519.2875   -23737.097    44982.182   -28802.947    5532.4425     4606.684    8920.6825     86.78511 
   14800    1785.3342    -114.5742    1.6154079    -112.9588   -12781.786    4.4285994    4.4285994    4.4285994   -12781.786   -12076.131   -36977.106     10707.88   -2434.7503    9255.8196   -2195.3684    86.855875 
   14900    1012.7336   -113.87338   0.91634269   -112.95703    44622.254    4.4304899    4.4304899    4.4304899    44622.254    40602.369    66160.694      27103.7    1965.0623    19618.062   -207.12905    86.967156 
   15000    1821.9127   -114.59429    1.6485049   -112.94579   -22602.265    4.4357957    4.4357957    4.4357957   -22602.265    32314.515   -43337.455   -56783.856   -3374.0609    2145.0946    15159.848    87.279974 
   15100    1621.1857   -114.41135    1.4668828   -112.94447    8572.3006    4.4283617    4.4283617    4.4283617    8572.3006    37609.983   -14380.859    2487.7774   -11132.255    12724.193     3903.373    86.841891 
   15200    2193.5054   -114.93857    1.9847298   -112.95384   -26940.658    4.4256848    4.4256848    4.4256848   -26940.658   -7190.5077   -21926.673   -51704.794   -7613.5275    8362.4799    220.47982      86.6845 
   15300    1351.1881   -114.19957    1.2225834   -112.97699   -5668.4473    4.4316891    4.4316891    4.4316891   -5668.4473    17047.818    -8716.963   -25336.197    826.10961    1483.4891    11001.458    87.037788 
   15400    2391.3811   -115.11696    2.1637719   -112.95319   -32678.802    4.4359359    4.4359359    4.4359359   -32678.802   -68784.385   -37814.958    8562.9359    1920.1485    25759.542    5584.5696    87.288252 
   15500    1622.3303      -114.41    1.4679185   -112.94208   -20800.204    4.4325813    4.4325813    4.4325813   -20800.204    10054.102   -34268.389   -38186.325    156.67196   -3112.5652   -12582.013    87.090367 
   15600    1883.4506   -114.62389    1.7041856   -112.91971   -10345.072    4.4155617    4.4155617    4.4155617   -10345.072    10777.446   -16879.474   -24933.188    10297.777    4242.4606    4427.6657    86.091024 
   15700     1461.933   -114.27539    1.3227877    -112.9526    7539.5952    4.4216187    4.4216187    4.4216187    7539.5952    52317.212   -40706.665    11008.239   -5585.9707   -16.825631   -7521.5447    86.445792 
   15800    1908.2732   -114.68581    1.7266457   -112.95917   -62979.299    4.4376996    4.4376996    4.4376996   -62979.299   -23215.448   -94006.032   -71716.416    -513.2776    13856.068   -16159.242     87.39241 
   15900    1669.4817   -114.46239    1.5105822   -112.95181    37045.437      4.40955      4.40955      4.40955    37045.437    72618.773    42205.118   -3687.5787    8878.0312   -8004.4581    8541.7542    85.739869 
   16000    1625.3891   -114.45848    1.4706862   -112.98779     18111.39    4.4035124    4.4035124    4.4035124     18111.39    29013.025    2036.5676    23284.578    -10598.48    4735.4185   -2143.3883    85.388165 
   16100     1532.313   -114.39973     1.386469   -113.01327   -28296.681    4.4356117    4.4356117    4.4356117   -28296.681   -22452.012   -19139.278   -43298.751    -27785.32    446.16514   -26006.966    87.269116 
   16200    1890.7039   -114.67046    1.7107487   -112.95971    1493.6692    4.4394484    4.4394484    4.4394484    1493.6692    25392.454   -24102.007    3190.5605    8055.0249   -15283.727    2155.0004    87.495766 
   16300    2329.2904   -115.04061    2.1075909   -112.93302   -36957.408    4.4270015    4.4270015    4.4270015   -36957.408   -36232.002   -59276.682    -15363.54    2618.3624      15516.5   -3033.0053    86.761891 
   16400    1722.3288   -114.50582    1.5583993   -112.94742   -12368.137    4.4219942    4.4219942    4.4219942   -12368.137   -24734.008   -34257.053    21886.649   -3768.0394   -26657.709   -15618.891     86.46782 
   16500    1688.9841   -114.50115    1.5282283   -112.97292    33584.224    4.4090891    4.4090891    4.4090891    33584.224    25028.591   -5327.3354    81051.418    8325.0897    24240.543    20431.983    85.712984 
   16600    1469.0913   -114.34076    1.3292647    -113.0115   -5047.7333     4.413767     4.413767     4.413767   -5047.7333    23071.106    -76662.71    38448.404   -26164.285    5316.2369   -14150.081    85.986091 
   16700    1775.1069    -114.6243     1.606154   -113.01815   -23297.816    4.4290672    4.4290672    4.4290672   -23297.816   -10379.481    -85943.08    26429.112   -7734.4187   -6354.6083    14356.678    86.883402 
   16800     1856.531    -114.6706    1.6798282   -112.99077    2374.1465    4.4190014    4.4190014    4.4190014    2374.1465   -5069.2202   -34948.954    47140.614    8827.9005   -9223.1467     7990.605    86.292375 
   16900    1907.9888   -114.72112    1.7263883   -112.99473   -28087.428    4.4106754    4.4106754    4.4106754   -28087.428   -23229.358   -47522.198   -13510.729   -19364.418    6550.0348   -5172.8379     85.80553 
   17000    1601.2931   -114.44694    1.4488836   -112.99805    36169.148    4.4158373    4.4158373    4.4158373    36169.148    19441.583   -10619.925    99685.787   -9811.3045   -11606.801    3517.5169    86.107145 
   17100    1789.3899   -114.61497    1.6190776   -112.99589   -11912.355    4.4275496    4.4275496    4.4275496   -11912.355       -22103   -27960.237    14326.173   -9711.7634    3788.9299   -3461.4875    86.794121 
   17200    1460.8815   -114.31541    1.3218363   -112.99357    2711.0044    4.4317668    4.4317668    4.4317668    2711.0044    42838.237   -48682.304    13977.079   -3558.5183   -782.15368    -4945.776    87.042369 
   17300    2038.4468   -114.82515    1.8444295   -112.98072   -18934.006     4.439788     4.439788     4.439788   -18934.006   -52571.596   -43297.013     39066.59    3568.4124    9.8239307   -19185.492    87.515845 
   17400     1453.087    -114.2785    1.3147837   -112.96372   -15015.386     4.434888     4.434888     4.434888   -15015.386    19923.298   -28518.762   -36450.695   -4965.8223    6198.9515   -5586.1018    87.226402 
   17500    1530.3928   -114.33377    1.3847315   -112.94904    48883.981    4.4161308    4.4161308    4.4161308    48883.981    -17598.23    56692.844    107557.33    15826.299    19766.185   -18833.228    86.124316 
   17600    2048.3929   -114.83873    1.8534289    -112.9853   -6133.6746     4.423844     4.423844     4.423844   -6133.6746    -38409.59   -18408.898    38417.465     1444.851   -19531.609    13870.169     86.57638 
   17700    2178.5144   -114.95751    1.9711656   -112.98635    -10580.05    4.4196908    4.4196908    4.4196908    -10580.05   -51495.118    19498.649    256.31851     70.62957   -2308.1252   -10400.213    86.332768 
   17800    994.00018   -113.90342   0.89939225   -113.00403    16112.807    4.4220458    4.4220458    4.4220458    16112.807    14431.003   -1621.6237    35529.042    11860.004   -499.86004   -16890.172    86.470844 
   17900    1923.6933   -114.73152    1.7405982   -112.99093   -32235.478    4.4318236    4.4318236    4.4318236   -32235.478   -30678.325   -38252.807   -27775.302    -12646.09    3086.3658    10495.073    87.045714 
   18000    1537.7307   -114.36448     1.391371   -112.97311    8272.1229    4.4340783    4.4340783    4.4340783    8272.1229   -33236.767   -24233.154     82286.29    7263.7051    11202.824   -18056.098    87.178639 
   18100    1834.2709   -114.62239    1.6596869   -112.96271   -16570.713     4.432426     4.432426     4.432426   -16570.713    -40902.61    9060.8019   -17870.331   -3802.5882    734.90739    13997.701    87.081213 
   18200      1272.73   -114.09941    1.1515929   -112.94782    29161.025    4.4174051    4.4174051    4.4174051    29161.025    51028.709   -21704.083    58158.448   -11730.471   -16158.239   -13094.031    86.198892 
   18300     2046.292   -114.81154     1.851528   -112.96001    -11473.47    4.4179057    4.4179057    4.4179057    -11473.47   -5110.2712   -13384.179    -15925.96   -18466.898    9624.4527   -33441.641    86.228201 
   18400    1892.7893   -114.69021    1.7126355   -112.97758   -1004.1438    4.4379551    4.4379551    4.4379551   -1004.1438   -44427.195    17939.014     23475.75   -11920.225   -10166.149   -17352.012    87.407502 
   18500    1337.7621   -114.16827    1.2104352   -112.95783    23075.867    4.4407062    4.4407062    4.4407062    23075.867    60838.795   -25349.991    33738.797   -14634.533    24188.982   -7850.1181    87.570155 
   18600    1355.5792   -114.15602    1.2265566   -112.92946    24873.221    4.4418689    4.4418689    4.4418689    24873.221    23566.327    16284.649    34768.686    21649.286    14946.143    7639.6155    87.638961 
   18700    1587.0631   -114.36864    1.4360081   -112.93263   -15341.681    4.4411456    4.4411456    4.4411456   -15341.681    -44049.27    7665.5141   -9641.2858   -6442.8292   -4026.4996    -305.7666    87.596152 
   18800    2125.4215    -114.8543     1.923126   -112.93117   -16141.629    4.4194896    4.4194896    4.4194896   -16141.629    -35188.75    3305.5751   -16541.711   -17719.284   -9283.1207     1871.295    86.320975 
   18900    1752.7577   -114.55162     1.585932   -112.96569    26151.365    4.4251009    4.4251009    4.4251009    26151.365   -15971.443    58429.586    35995.952    20792.535    1800.1679    -7962.236    86.650194 
   19000    1801.7427   -114.60289    1.6302546   -112.97264   -8790.6683    4.4498412    4.4498412    4.4498412   -8790.6683   -11728.194    20627.559    -35271.37    13541.559   -17127.824    1922.2982    88.111689 
   19100    2058.3089   -114.79822    1.8624011   -112.93582   -24638.617    4.4522105    4.4522105    4.4522105   -24638.617   -42808.578    9724.7363   -40832.008    14629.255   -18864.199    5525.1135    88.252512 
   19200    2309.0816   -114.99896    2.0893056   -112.90965   -33880.525    4.4504589    4.4504589    4.4504589   -33880.525   -41720.892   -57688.538   -2232.1445    17819.597   -391.85153   -954.40528    88.148387 
   19300     2446.601   -115.12263     2.213736    -112.9089   -60446.001    4.4531416    4.4531416    4.4531416   -60446.001   -61678.604   -76195.662   -43463.738      15278.1    3946.2475    360.31332    88.307892 
   19400    2253.5239   -114.94738    2.0390358   -112.90835   -26094.642    4.4365782    4.4365782    4.4365782   -26094.642   -30001.044   -12404.928   -35877.953    2636.7048    5605.8899    4749.3159    87.326171 
   19500    1106.6104   -113.94195    1.0012843   -112.94066    47769.923    4.4340367    4.4340367    4.4340367    47769.923    46756.363    109767.23   -13213.823    6675.0373   -19957.728   -11841.651    87.176184 
   19600     1179.243   -114.03581    1.0670039   -112.96881    18791.483    4.4560913    4.4560913    4.4560913    18791.483   -27244.756    99725.251   -16106.047    10030.315   -20128.415    2755.1328    88.483487 
   19700    1302.2766   -114.12601    1.1783273   -112.94769    2087.3299    4.4512506    4.4512506    4.4512506    2087.3299   -49133.506    94928.321   -39532.825   -301.87059   -23676.392   -2758.6594    88.195442 
   19800    1792.1847   -114.54531    1.6216064   -112.92371    2135.2034    4.4261071    4.4261071    4.4261071    2135.2034     11401.59    19617.803   -24613.783    5377.3083   -35742.558    3003.7426    86.709312 
   19900    2269.9449   -115.02049    2.0538939   -112.96659   -40027.683    4.4328999    4.4328999    4.4328999   -40027.683   -38613.153   -17551.549   -63918.347    30967.534    13628.571   -5381.9908    87.109149 
   20000      1742.26   -114.56979    1.5764334   -112.99336   -27101.435    4.4612834    4.4612834    4.4612834   -27101.435    33972.138   -14405.614   -100870.83    7025.6432   -6684.7704    1656.0645    88.793143 
   20100    1998.3732   -114.77372    1.8081701   -112.96555   -34029.457    4.4493574    4.4493574    4.4493574   -34029.457   -33652.074   -27787.169   -40649.127   -1505.1268    -17159.38    4563.5841    88.082954 
   20200    1622.7021   -114.39895    1.4682549    -112.9307    28327.111    4.4042713    4.4042713    4.4042713    28327.111    -20773.48    83756.204    21998.609   -9479.9537    720.67468   -12439.698    85.432317 
   20300    880.27808   -113.80911    0.7964941   -113.01261    58252.597    4.4139664    4.4139664    4.4139664    58252.597    56852.067    143719.79   -25814.065    33491.878    -7364.662   -7916.2537    85.997744 
   20400    1841.4321   -114.70485    1.6661665   -113.03869   -23630.642    4.4546587    4.4546587    4.4546587   -23630.642   -670.08738    4633.3993   -74855.239    4239.1907   -3751.2669    7640.0723    88.398174 
   20500    2029.7654   -114.79602    1.8365744   -112.95945   -50114.513    4.4642247    4.4642247    4.4642247   -50114.513    -57475.21   -41000.968    -51867.36    4720.4007    14399.985   -14424.172    88.968885 
   20600    2582.7937   -115.22835     2.336966   -112.89138   -46658.011    4.4427859    4.4427859    4.4427859   -46658.011   -74202.005   -36056.649   -29715.378   -1101.8705   -5496.7002    -3451.781    87.693249 
   20700    1592.8112   -114.36028     1.441209   -112.91907    10650.384    4.4304558    4.4304558    4.4304558    10650.384    53129.336    1681.3222   -22859.505    11693.078    -12495.48   -18906.632    86.965142 
   20800    1837.5968    -114.6157    1.6626962     -112.953    2670.9906    4.4276968    4.4276968    4.4276968    2670.9906   -17327.211    63932.379   -38592.197    13681.717   -14159.351   -4996.2519    86.802776 
   20900    1710.2007    -114.5496    1.5474255   -113.00218    5654.7182    4.4491962    4.4491962    4.4491962    5654.7182   -33384.961    109675.82   -59326.708    1458.6557   -3831.1295    2865.1025    88.073383 
   21000     1646.167   -114.45717    1.4894865   -112.96768   -36287.668    4.4660859    4.4660859    4.4660859   -36287.668   -13600.167   -16668.122   -78594.715    -5513.493     2410.174   -3141.0172    89.080206 
   21100    1456.2229   -114.23495    1.3176211   -112.91733    1794.8079    4.4264088    4.4264088    4.4264088    1794.8079    16718.124    12261.238   -23594.938   -7808.9385    8336.3554   -5522.6167    86.727049 
   21200    2318.6535   -115.00325    2.0979664   -112.90529    6716.4584    4.3966068    4.3966068    4.3966068    6716.4584    2374.1383    14384.559    3390.6778     14998.96   -6007.7066   -15074.114    84.987075 
   21300    1609.7497   -114.45546    1.4565354   -112.99893    2659.2991    4.4234187    4.4234187    4.4234187    2659.2991    15595.721    15296.592   -22914.416    -10185.09   -5014.8253    11088.863    86.551413 
   21400    1612.7351   -114.44485    1.4592366   -112.98561   -44744.161    4.4574401    4.4574401    4.4574401   -44744.161   -20104.015   -36337.038   -77791.429   -6112.3378    4700.5101   -355.33009    88.563862 
   21500    2249.7185   -114.97139    2.0355926    -112.9358   -38807.706    4.4478341    4.4478341    4.4478341   -38807.706    -27753.75   -27984.284   -60685.084    3637.1711   -6213.0983    609.38119    87.992517 
   21600    1704.3033   -114.46954    1.5420894   -112.92745    37920.258    4.3981927    4.3981927    4.3981927    37920.258    137349.28   -14628.044   -8960.4641    -140.4262    1709.6474   -8528.6034    85.079073 
   21700    1303.7007   -114.16887    1.1796158   -112.98925    24873.985    4.3881178    4.3881178    4.3881178    24873.985    58113.071    15458.527    1050.3575   -30767.803    24372.919   -14291.052    84.495744 
   21800     2388.898   -115.21585    2.1615251   -113.05432   -17242.198    4.4256303    4.4256303    4.4256303   -17242.198   -17229.147    -17180.76   -17316.687    27041.072    13280.053    8792.7433    86.681297 
   21900    1279.1112   -114.16518    1.1573667   -113.00781     -20803.4    4.4565046    4.4565046    4.4565046     -20803.4   -977.30354   -718.51243   -60714.385    -14758.34    2095.8551   -3382.2511     88.50811 
   22000    1017.1223   -113.86877   0.92031362   -112.94846    1857.2722    4.4257374    4.4257374    4.4257374    1857.2722    52781.118    15963.794   -63173.096   -26569.147    28739.009   -1674.2018    86.687589 
   22100    2654.3553   -115.29558    2.4017165   -112.89386    5842.8859    4.3921534    4.3921534    4.3921534    5842.8859    7532.3253   -2690.1233    12686.456    13468.085   -19967.153    4852.7083    84.729084 
   22200    1411.5142   -114.24985    1.2771677   -112.97269    2286.5909    4.4124999    4.4124999    4.4124999    2286.5909   -1880.5654   -12584.003    21324.341   -12956.627    37146.092   -17999.808    85.912061 
   22300    995.78007   -113.87591   0.90100274   -112.97491   -139.24949    4.4402532    4.4402532    4.4402532   -139.24949   -50554.433    63096.386   -12959.702    1219.1359    60581.803   -3885.4271    87.543361 
   22400    1956.0843   -114.69603    1.7699062   -112.92613   -12669.604    4.4320688    4.4320688    4.4320688   -12669.604    44838.153   -27364.824   -55482.142   -12005.472   -3404.6067    11090.205    87.060161 
   22500    2247.7266    -114.9523    2.0337903   -112.91851   -27698.059    4.4111193    4.4111193    4.4111193   -27698.059   -13383.444   -58299.011   -11411.722   -29649.378   -9654.3201    4586.3958    85.831443 
   22600    1503.8312   -114.33283    1.3606981   -112.97213     35820.31    4.4101216    4.4101216    4.4101216     35820.31    54044.449    37862.086    15554.397    15817.046   -1362.6361   -16419.548    85.773216 
   22700    2094.7309   -114.91482    1.8953565   -113.01946    -22050.52    4.4350169    4.4350169    4.4350169    -22050.52   -15175.854   -17876.891   -33098.814   -8662.5564   -15249.448    12164.795     87.23401 
   22800    1463.4267   -114.32889    1.3241392   -113.00475   -25816.639    4.4368659    4.4368659    4.4368659   -25816.639   -5003.1881    -41506.38   -30940.349   -1701.9417    25659.155   -6925.2078    87.343163 
   22900    1587.3492   -114.40508    1.4362669   -112.96881    52542.616    4.4037016    4.4037016    4.4037016    52542.616    11457.369    98515.401    47655.077     -16628.9   -10792.156   -1028.7554    85.399167 
   23000    1768.9532   -114.60132     1.600586   -113.00074    411.17778    4.4216704    4.4216704    4.4216704    411.17778     20410.97   -13071.097   -6106.3405     17759.75    -9665.175    9193.9611    86.448826 
   23100    1325.6633   -114.17715     1.199488   -112.97766    26504.277    4.4338558    4.4338558    4.4338558    26504.277    -17611.51    97142.555   -18.213234     10919.52    4541.8743   -23012.091    87.165514 
   23200    2150.2813   -114.91238    1.9456197   -112.96676   -25949.759    4.4271276    4.4271276    4.4271276   -25949.759   -46738.306    32821.701   -63932.673     9103.012   -23690.977    8206.5647    86.769303 
   23300    1716.4372   -114.54134    1.5530684   -112.98827   -4696.6295    4.4227797    4.4227797    4.4227797   -4696.6295    -27877.88    73270.051    -59482.06   -5175.3026    8155.4085    19133.568    86.513905 
   23400    1980.0317   -114.78785    1.7915743   -112.99627   -22108.142    4.4153692    4.4153692    4.4153692   -22108.142   -50693.108    17905.404   -33536.722    3341.5697   -15735.095   -12338.216    86.079763 
   23500    1517.8524   -114.38175    1.3733847   -113.00836   -21636.038    4.4224803    4.4224803    4.4224803   -21636.038   -11661.132   -19475.015   -33771.966    1468.8129   -3573.0917    43704.772    86.496339 
   23600    1723.8177   -114.54426    1.5597464   -112.98451   -15004.934    4.4259565    4.4259565    4.4259565   -15004.934    21041.782   -24349.814   -41706.769    8205.3394   -1418.8917     33065.04    86.700464 
   23700    1176.8152    -114.0449    1.0648071   -112.98009    29294.311     4.423482     4.423482     4.423482    29294.311   -55425.298    85858.555    57449.677   -7221.0659    11415.246   -15806.656    86.555128 
   23800    1405.2765   -114.25418    1.2715237   -112.98266    5203.1288    4.4325458    4.4325458    4.4325458    5203.1288   -49048.666    74052.767   -9394.7147   -5384.7711    8749.0178    6007.0263    87.088278 
   23900    1504.6412   -114.32758     1.361431   -112.96615    21697.675    4.4384495    4.4384495    4.4384495    21697.675   -21471.092    83405.528     3158.589   -6241.9672    -349.6116    25304.248    87.436715 
   24000     1697.982   -114.49628    1.5363698   -112.95991   -9236.8624    4.4492441    4.4492441    4.4492441   -9236.8624    -46482.38    17400.013    1371.7795    297.77098   -15581.344   -1830.3154    88.076227 
   24100    1912.2194   -114.67567    1.7302163   -112.94545   -13856.825    4.4413448    4.4413448    4.4413448   -13856.825   -21744.821     29648.08   -49473.735    -11585.32    18098.445    19039.007    87.607938 
   24200    1832.5101   -114.58908    1.6580936   -112.93099     23027.51    4.4224832    4.4224832    4.4224832     23027.51    4734.9527    51329.553    13018.025    -12017.34   -1880.0596   -8349.7503    86.496507 
   24300      2173.18   -114.92149     1.966339   -112.95515   -8294.4708    4.4358444    4.4358444    4.4358444   -8294.4708   -57161.782   -30994.471    63272.841   -4029.2578   -8632.6662   -12452.245     87.28285 
   24400    2025.2858   -114.79587    1.8325211   -112.96335   -43815.745    4.4541898    4.4541898    4.4541898   -43815.745   -76707.283   -6959.7946   -47780.157   -8799.8866   -4437.4774   -24359.953    88.370262 
   24500    1683.8031    -114.4769    1.5235405   -112.95336    -13790.15    4.4358148    4.4358148    4.4358148    -13790.15   -99442.553   -4915.8912    62987.994    11338.947   -15710.196    1550.1795    87.281102 
   24600     1674.022   -114.47774    1.5146903   -112.96305    31515.358    4.4005984    4.4005984    4.4005984    31515.358   -26064.607    13182.155    107428.53   -225.01441    -11386.27    11389.687     85.21876 
   24700    1877.0964   -114.71357    1.6984362   -113.01514     1176.084    4.3961392    4.3961392    4.3961392     1176.084    16495.421   -9838.2461   -3128.9231    4335.7157   -3485.6633   -1611.5597    84.959963 
   24800    1362.4308    -114.2852     1.232756   -113.05244     1658.857    4.4350331    4.4350331    4.4350331     1658.857   -53781.492    31210.515    27547.548    9312.4323   -15812.314    10540.317    87.234964 
   24900     1971.264   -114.75871    1.7836411   -112.97507   -20144.272    4.4557392    4.4557392    4.4557392   -20144.272   -77520.483   -14434.946    31522.614   -14762.396    7682.1156    596.47564    88.462517 
   25000    2077.0672     -114.808     1.879374   -112.92863   -19683.827    4.4279552    4.4279552    4.4279552   -19683.827    -24475.07   -23080.591    -11495.82   -1969.6745    -3548.837    19813.715    86.817974 
   25100    1986.4439   -114.73046    1.7973762   -112.93308    27966.484    4.4124582    4.4124582    4.4124582    27966.484    7928.7992    18593.537    57377.116    4031.7885   -9662.4298    3157.0318    85.909621 
   25200    1720.5383   -114.52455    1.5567792   -112.96777    5056.2957    4.4377977    4.4377977    4.4377977    5056.2957    -47760.61    15344.879    47584.618    13313.823    10251.005   -22423.085    87.398202 
   25300    2048.7767   -114.81827    1.8537762   -112.96449   -47555.828    4.4392487    4.4392487    4.4392487   -47555.828   -85945.803   -1632.6907    -55088.99   -15261.676   -19397.783    4376.2326    87.483958 
   25400    2322.6209   -115.03941    2.1015562   -112.93785   -3353.3864    4.4002233    4.4002233    4.4002233   -3353.3864    173.74931   -12285.371    2051.4619    22512.173    6895.5236   -14825.803    85.196973 
   25500    1181.2208   -114.04436    1.0687934   -112.97556    43085.541    4.4053326    4.4053326    4.4053326    43085.541    13189.715    65157.405    50909.502    6455.1952    6344.7883    8659.1736    85.494091 
   25600    1792.5298   -114.60692    1.6219186     -112.985   -39941.337    4.4339762    4.4339762    4.4339762   -39941.337   -68695.814   -14011.251   -37116.947   -1962.5585    3305.2844    5854.9929    87.172616 
   25700    1729.5716   -114.53362    1.5649528   -112.96867    13386.783    4.4184398    4.4184398    4.4184398    13386.783   -19710.689     8158.911    51712.128     26592.13    11948.489    5748.7452    86.259478 
   25800     1391.538   -114.24938    1.2590929   -112.99029    26605.807    4.4194032    4.4194032    4.4194032    26605.807    34374.171    51450.422   -6007.1742   -28848.505    11913.025    10784.369    86.315913 
   25900    1744.6053   -114.57082    1.5785555   -112.99226   -14049.493    4.4270763    4.4270763    4.4270763   -14049.493    2483.4949   -32757.619   -11874.356    16805.765    14934.721    11234.057    86.766288 
   26000     2210.532   -114.98468    2.0001358   -112.98454   -14911.827    4.4099828    4.4099828    4.4099828   -14911.827   -3416.3613   -30083.835   -11235.285    33907.611   -11566.708    598.00367    85.765117 
   26100    1705.0396   -114.55972    1.5427557   -113.01697    43653.788    4.4069552    4.4069552    4.4069552    43653.788    56882.397    29456.635    44622.332   -12546.908   -316.96409   -11768.304    85.588599 
   26200    1110.5727    -114.0394    1.0048695   -113.03453   -9329.4297      4.43488      4.43488      4.43488   -9329.4297   -14708.373     9592.501   -22872.418    20537.043    1687.9563    11853.304    87.225932 
   26300    2091.2558   -114.87577    1.8922122   -112.98356   -32719.178    4.4379945    4.4379945    4.4379945   -32719.178   -5134.7128   -53441.861   -39580.961    10226.691   -3684.8433    2539.8186    87.409831 
   26400     1648.459   -114.44467    1.4915603   -112.95311    5135.2913    4.4319999    4.4319999    4.4319999    5135.2913   -16556.173    18871.056     13090.99    1894.0351    7533.2913     7938.336    87.056106 
   26500    1383.0395   -114.18659    1.2514032   -112.93518    11761.028    4.4172664    4.4172664    4.4172664    11761.028    8030.6747     11033.31    16219.098    20578.677   -2225.8851     21496.85    86.190775 
   26600     2330.995   -115.04565    2.1091332   -112.93652    1380.6844    4.4054416    4.4054416    4.4054416    1380.6844   -21100.857   -6006.1463    31249.056    338.62569    12444.041   -6393.0122    85.500441 
   26700    1634.0083   -114.45362    1.4784851   -112.97513   -16103.831    4.4220708    4.4220708    4.4220708   -16103.831   -11446.502   -38721.994    1857.0034    11846.766   -3514.6999     8831.721    86.472315 
   26800    1611.1407   -114.42271     1.457794   -112.96492   -8763.5335    4.4289216    4.4289216    4.4289216   -8763.5335   -5491.8631   -5384.2592   -15414.478    16849.443    10658.464   -2642.8094    86.874833 
   26900    2066.2873    -114.8312    1.8696201   -112.96158   -2828.5117    4.4268608    4.4268608    4.4268608   -2828.5117   -744.51404    5611.4681   -13352.489   -12963.065   -5608.5462   -17477.526    86.753618 
   27000    1643.5242   -114.46669    1.4870952   -112.97959   -10636.915    4.4351418    4.4351418    4.4351418   -10636.915    8535.9828    25231.194   -65677.922    4284.7128    6843.7154   -2737.8372    87.241378 
   27100    1627.5159   -114.43686    1.4726106   -112.96425    4964.6781    4.4339092    4.4339092    4.4339092    4964.6781   -29707.621   -18993.276    63594.932    17295.347    4072.3163   -17031.244    87.168665 
   27200    2163.1115   -114.89188    1.9572288   -112.93465   -28828.645    4.4262476    4.4262476    4.4262476   -28828.645   -21929.509   -32173.231   -32383.193   -13051.919    5322.9685   -2615.8839    86.717572 
   27300    1458.6256   -114.27575    1.3197951   -112.95595    27308.989    4.4292204    4.4292204    4.4292204    27308.989    28004.961    46246.069    7675.9366   -15771.144    7295.7395    1163.5522    86.892415 
   27400    1677.2943   -114.47623    1.5176511   -112.95858   -17125.498    4.4468134    4.4468134    4.4468134   -17125.498   -26293.547    -81831.04    56748.094    6875.7954   -9357.5384    362.58063    87.931953 
   27500    1603.0106   -114.40331    1.4504377   -112.95287    -6206.681    4.4253812    4.4253812    4.4253812    -6206.681    62654.945   -54184.974   -27090.014   -5998.9251    6813.4209   -14330.206    86.666661 
   27600    1448.0184   -114.26698    1.3101975   -112.95678    62606.305    4.4116344    4.4116344    4.4116344    62606.305    54801.976    40832.982    92183.956   -15766.498   -23877.736    16909.272    85.861516 
   27700     1768.711   -114.59004    1.6003669   -112.98967   -20590.186    4.4406118    4.4406118    4.4406118   -20590.186    20908.678    -23648.31   -59030.928   -8755.2485    7773.0871   -14475.065    87.564571 
   27800    2016.4913   -114.76845    1.8245637   -112.94389   -23302.476    4.4457277    4.4457277    4.4457277   -23302.476    25372.191    -42527.92   -52751.699   -6113.9748    14377.866    8801.1213    87.867563 
   27900    1725.7591   -114.47912    1.5615031   -112.91761     18827.05    4.4357594    4.4357594    4.4357594     18827.05    8145.6935    18310.735    30024.723   -11966.164   -2235.4545      -5748.4    87.277833 
   28000     1407.632   -114.18602     1.273655   -112.91237     13769.96    4.4406357    4.4406357    4.4406357     13769.96    88151.763     -48238.4    1396.5188    690.52107   -36198.043    -14754.41    87.565987 
   28100    2047.4791   -114.76463    1.8526021   -112.91203    -22230.96    4.4320237    4.4320237    4.4320237    -22230.96    1915.6353   -52587.987    -16020.53   -2658.6246   -986.01484    15195.222    87.057508 
   28200    1553.4513     -114.351    1.4055954    -112.9454    22393.373    4.4263051    4.4263051    4.4263051    22393.373   -21127.118    78436.164    9871.0731    2208.4686    1414.3391    3755.2972    86.720949 
   28300    2205.9696   -114.95287    1.9960076   -112.95686   -32610.585    4.4443923    4.4443923    4.4443923   -32610.585   -44402.972   -16646.045   -36782.739   -10463.868   -3306.7214   -6725.1445    87.788406 
   28400    1717.0412    -114.5149    1.5536149   -112.96128   -7432.0752    4.4270819    4.4270819    4.4270819   -7432.0752   -33893.773    23442.897   -11845.349   -9085.1846    6583.0018    29684.204    86.766617 
   28500    1449.7505   -114.28622    1.3117647   -112.97446    8319.6664    4.4056557    4.4056557    4.4056557    8319.6664    31449.659    35227.788   -41718.448    3614.4753   -26822.013   -17972.913    85.512906 
   28600    1663.5387   -114.50843    1.5052048   -113.00322    18435.823    4.4049341    4.4049341    4.4049341    18435.823   -9115.3692    77631.125   -13208.288   -932.17976    -704.7867   -3769.1293    85.470897 
   28700      2218.94   -115.02795    2.0077436   -113.02021   -20814.601    4.4286206    4.4286206    4.4286206   -20814.601   -36696.251    14525.297    -40272.85   -2039.2164    4906.5629    376.62431    86.857118 
   28800    1123.5293   -114.00394     1.016593   -112.98735   -52956.749    4.4531534    4.4531534    4.4531534   -52956.749   -50293.284   -1384.2742   -107192.69    26449.899   -6632.3686   -6173.1055    88.308591 
   28900    1704.5453   -114.50079    1.5423084   -112.95848   -4448.5046    4.4034166    4.4034166    4.4034166   -4448.5046    21112.248   -15416.488   -19041.274     -9435.61    -9542.819    10959.565    85.382593 
   29000    2134.2989   -114.87125    1.9311585   -112.94009    34832.872    4.3651336    4.3651336    4.3651336    34832.872    3748.1338    84493.529    16256.952     8099.537    9068.7855    28622.213    83.174966 
   29100    1541.5761   -114.43642    1.3948505   -113.04157   -9122.7461    4.4060788    4.4060788    4.4060788   -9122.7461   -67791.161    71642.091   -31219.168   -7333.7927   -4351.7301    6287.0701    85.537543 
   29200    1635.3135   -114.49359     1.479666   -113.01392   -20303.464    4.4453624    4.4453624    4.4453624   -20303.464   -62327.112    33410.564   -31993.844    6595.5712   -1050.4377   -2266.8247    87.845906 
   29300    1871.6713   -114.66032    1.6935275   -112.96679   -39197.037    4.4330411    4.4330411    4.4330411   -39197.037   -62002.157   -24696.453   -30892.501    7857.2136    24274.443   -878.15202    87.117472 
   29400    1337.4895   -114.15089    1.2101887    -112.9407    31347.398    4.3950947    4.3950947    4.3950947    31347.398    -33008.78    121244.63    5806.3414   -777.64075    7507.6108    12494.287    84.899418 
   29500    2202.3656   -114.97526    1.9927467   -112.98252    4641.0574    4.4014837    4.4014837    4.4014837    4641.0574   -41254.709    18201.695    36976.186   -2220.4431     1459.709   -53413.088    85.270204 
   29600    1628.1966   -114.49177    1.4732265   -113.01855   -42385.585    4.4398441    4.4398441    4.4398441   -42385.585   -111129.53   -17307.385    1280.1632    3867.4391    12039.403    2881.2462    87.519164 
   29700    1397.9511    -114.2487    1.2648956   -112.98381   -19615.448    4.4274082    4.4274082    4.4274082   -19615.448   -45459.491   -9163.0286    -4223.825    -14213.96     -25079.1   -14386.384    86.785806 
   29800     1724.565   -114.51503    1.5604227   -112.95461    27558.089    4.4017291    4.4017291    4.4017291    27558.089    14788.198   -6410.1256    74296.194   -5837.0455   -4040.1926   -531.85014    85.284464 
   29900    2176.6527   -114.95411    1.9694811   -112.98463   -8466.2759    4.4132943    4.4132943    4.4132943   -8466.2759   -37517.571    26602.315   -14483.572   -68.911657   -24851.411   -17586.123    85.958468 
   30000    1529.9319    -114.3853    1.3843145   -113.00099   -18293.091    4.4232537    4.4232537    4.4232537   -18293.091   -42153.826   -45829.453    33104.006   -10340.649   -21469.561   -8320.6952    86.541723 
   30100    1672.6078   -114.48399    1.5134107   -112.97058    6084.0657    4.4236687    4.4236687    4.4236687    6084.0657    -15686.58   -31958.687    65897.464    11093.518    13383.317   -13522.326    86.566089 
   30200    2247.9383   -114.98733    2.0339818   -112.95335   -11540.989    4.4139489    4.4139489    4.4139489   -11540.989   -46694.911   -37538.537    49610.482   -19215.457   -6434.5138    2572.9702    85.996722 
   30300    1550.3322   -114.38018    1.4027732    -112.9774    9721.1166    4.4096894    4.4096894    4.4096894    9721.1166    36293.042   -6364.0202   -765.67226    -8926.591   -6725.1737    3267.6903    85.747998 
   30400    1238.9125    -114.1046     1.120994    -112.9836   -18020.748    4.4165701    4.4165701    4.4165701   -18020.748    11183.892   -64723.225    -522.9127   -7525.4332    3385.1267   -29428.695    86.150023 
   30500    1820.0062   -114.62427    1.6467799   -112.97749    8045.8288    4.3909884    4.3909884    4.3909884    8045.8288    26239.139   -8098.6079     5996.955   -33075.177   -1614.3996    7570.6231    84.661679 
   30600    2039.6296   -114.84584    1.8454997   -113.00034    16388.725    4.3913183    4.3913183    4.3913183    16388.725    34800.114    25959.232   -11593.171    2585.5196   -1880.5091    -19021.48    84.680761 
   30700    1158.1075   -114.06745      1.04788   -113.01957    13916.261    4.4172004    4.4172004    4.4172004    13916.261     44910.83   -55435.096     52273.05   -7673.9798   -23988.145    -34286.67    86.186912 
   30800    1753.7986   -114.57524    1.5868739   -112.98837    16860.005    4.4144852    4.4144852    4.4144852    16860.005    30619.375   -24552.877    44513.518   -3846.3409    15043.571     6527.486    86.028072 
   30900    1480.8193   -114.32344    1.3398764   -112.98356      27782.4    4.4048816    4.4048816    4.4048816      27782.4    3734.3006    54229.327    25383.573   -2918.9378    9229.2123   -13051.592    85.467836 
   31000    1721.3213   -114.54539    1.5574877    -112.9879   -22875.055    4.4155721    4.4155721    4.4155721   -22875.055   -31759.564   -9331.8945   -27533.708   -7058.4326    -6496.609   -12736.803    86.091631 
   31100    1472.1073   -114.30879    1.3319936    -112.9768     22927.21    4.4047283    4.4047283    4.4047283     22927.21   -10380.247   -20113.523      99275.4    18016.611   -1860.3167    12592.406    85.458915 
   31200     1874.226   -114.68756    1.6958391   -112.99172   -9835.7905    4.4046257    4.4046257    4.4046257   -9835.7905   -3447.4123    26435.679   -52495.638   -8298.7372    21809.272    8025.7808    85.452943 
   31300    1735.5138   -114.56312    1.5703294   -112.99279    24893.926    4.4065712    4.4065712    4.4065712    24893.926   -31880.749    11573.958    94988.569   -583.71563   -9618.0132   -21910.418    85.566227 
   31400    1417.0694   -114.28524    1.2821942   -113.00305   -48598.415    4.4246115    4.4246115    4.4246115   -48598.415   -34867.283   -54427.172    -56500.79    4545.2743   -12101.837    42550.681    86.621449 
   31500    1960.7217   -114.75609    1.7741022   -112.98199   -32765.965    4.4046803    4.4046803    4.4046803   -32765.965   -22261.551   -52603.312    -23433.03   -13876.952    23916.485    27772.882    85.456122 
   31600    2432.1116   -115.16563    2.2006257   -112.96501    19922.475    4.3800511    4.3800511    4.3800511    19922.475   -6858.3032    15365.781    51259.949    5892.7104   -13367.179   -4458.4457    84.030614 
   31700    716.89164   -113.67918   0.64865862   -113.03052    14231.388    4.4092595    4.4092595    4.4092595    14231.388    23287.024   -16084.861    35492.001   -5911.5477    1357.0619    24230.139    85.722922 
   31800    1828.7528   -114.65393     1.654694   -112.99924   -69995.049    4.4388637    4.4388637    4.4388637   -69995.049   -43840.204   -98360.093   -67784.849   -441.45333    6989.4793    28642.042    87.461198 
   31900     2249.012   -114.98017    2.0349534   -112.94521   -33523.243    4.4219934    4.4219934    4.4219934   -33523.243   -43966.625   -53835.819   -2767.2846    4459.7513   -13920.475   -28228.472    86.467771 
   32000      1554.77   -114.36996    1.4067886   -112.96317   -10146.242    4.4139265    4.4139265    4.4139265   -10146.242   -20740.215   -38132.534    28434.022    8646.2823    11010.584    27016.506    85.995413 
   32100    2092.1526   -114.87002    1.8930236   -112.97699   -40817.896    4.4168332    4.4168332    4.4168332   -40817.896   -40875.793   -67107.481   -14470.413   -11741.383     17628.59   -1501.0127    86.165419 
   32200    1368.9854   -114.23433    1.2386868   -112.99564    9272.4739     4.420847     4.420847     4.420847    9272.4739   -2501.9791   -67388.881    97708.282   -9053.5252    2213.1588    -8965.083    86.400541 
   32300    2287.4707   -115.04111    2.0697515   -112.97136   -11979.821    4.4268054    4.4268054    4.4268054   -11979.821    -9045.625    6976.5057   -33870.344   -1654.6423    9419.8812    6260.8592    86.750359 
   32400    1093.5918   -113.94061   0.98950488   -112.95111    43488.759    4.4356454    4.4356454    4.4356454    43488.759    54320.511   -703.94783    76849.712   -18555.732   -24259.495   -6854.9701    87.271104 
   32500    1742.1213   -114.50296     1.576308   -112.92665   -35903.745    4.4524457    4.4524457    4.4524457   -35903.745    12810.022   -55132.683   -65388.573   -5016.1604    25232.721   -8613.1252      88.2665 
   32600    2365.8722   -115.05409    2.1406908    -112.9134    -47205.13    4.4309985    4.4309985    4.4309985    -47205.13   -59228.838   -38785.963   -43600.589    -17396.48    17497.018    18777.628    86.997109 
   32700    1367.9384   -114.14944    1.2377394    -112.9117    55564.978    4.3878105    4.3878105    4.3878105    55564.978    96289.636   -8572.0471    78977.345   -17513.428   -25788.806   -4803.4699    84.477996 
   32800    1622.2349   -114.44911    1.4678323   -112.98128     10984.42    4.3987211    4.3987211    4.3987211     10984.42   -14379.532    46139.387    1193.4061    14928.156    19260.671   -13166.184    85.109742 
   32900     2095.053   -114.88529     1.895648   -112.98964   -22926.556    4.4303795    4.4303795    4.4303795   -22926.556    1451.8021   -39938.955   -30292.515   -8852.4396   -5585.6169     7497.659    86.960654 
   33000    1253.2678   -114.10356    1.1339831   -112.96958    27032.435    4.4266639    4.4266639    4.4266639    27032.435    35084.985   -4944.2585    50956.579    11902.823   -36498.773   -5112.7653    86.742041 
   33100    1464.8625    -114.2787    1.3254383   -112.95327   -6946.8741    4.4121646    4.4121646    4.4121646   -6946.8741   -49408.722    67753.676   -39185.577   -6882.5151    27944.511   -246.54242    85.892478 
   33200    2280.3997   -115.01552    2.0633536   -112.95216    603.21515    4.3904678    4.3904678    4.3904678    603.21515   -6915.8624   -748.75733    9474.2652    -32474.75    7666.3733    804.87268    84.631568 
   33300    1538.4966   -114.38396    1.3920641   -112.99189    42764.315     4.392293     4.392293     4.392293    42764.315    41182.964    60108.352     27001.63   -4771.9703   -13708.225   -8242.6978    84.737159 
   33400    1761.0258   -114.60085    1.5934132   -113.00744   -45832.662    4.4346702    4.4346702    4.4346702   -45832.662   -24906.934    -22699.72   -89891.331    17506.422    23752.943    4103.2149    87.213555 
   33500    1937.2389   -114.70835    1.7528544   -112.95549    6745.8832    4.4251318    4.4251318    4.4251318    6745.8832    16992.997   -5650.0319    8894.6844    -11168.14    -14422.15   -6268.6868    86.652007 
[...]
   91300    1285.6519   -114.17559    1.1632848   -113.01231    8736.4672    4.3523077    4.3523077    4.3523077    8736.4672   -33763.735    49615.238    10357.899    41977.812   -16680.262   -570.58215    82.443948 
   91400    1610.5182   -114.47269    1.4572307   -113.01546    5457.3323    4.3659392    4.3659392    4.3659392    5457.3323   -1846.3791   -31025.887    49244.263   -60264.836    340.87349     1802.094    83.221024 
   91500    1732.4799   -114.57996    1.5675842   -113.01238   -13440.517    4.3816505    4.3816505    4.3816505   -13440.517   -31185.235   -29254.456    20118.139   -17386.387   -9732.6744   -18657.557    84.122702 
   91600    1913.0286   -114.72538    1.7309485   -112.99443     14130.01    4.3725925    4.3725925    4.3725925     14130.01   -22891.936     57988.78    7293.1866    11486.823   -18345.241    9885.4345    83.602066 
   91700    1034.0281   -113.93962   0.93561035   -113.00401   -783.18801    4.3587571    4.3587571    4.3587571   -783.18801   -28768.631   -26736.315    53155.382   -88677.175   -2955.0384   -6286.1805    82.810997 
   91800    2226.9996   -115.00963     2.015036   -112.99459    12372.857    4.3639599    4.3639599    4.3639599    12372.857   -5241.8277    26090.785    16269.613    10452.309    5488.3799   -9088.4394    83.107888 
   91900    1928.8573    -114.7324    1.7452706   -112.98713   -2090.5943    4.3805253    4.3805253    4.3805253   -2090.5943    -11143.11    12701.402   -7830.0745   -38708.778   -15215.319    20287.213    84.057907 
   92000     1302.448   -114.15389    1.1784823    -112.9754   -12579.306    4.3883969    4.3883969    4.3883969   -12579.306   -40058.893   -4545.6074    6866.5808    -53515.43   -4978.2289   -1471.3837    84.511867 
   92100    1727.4079   -114.52556     1.562995   -112.96256    4471.2369    4.3784159    4.3784159    4.3784159    4471.2369   -23206.204    39833.877   -3213.9624    40943.488     20126.28   -8744.7237    83.936535 
   92200    1816.0803   -114.61172    1.6432276   -112.96849    12243.038    4.3638661    4.3638661    4.3638661    12243.038     -32714.4    6158.3805    63285.134    -37307.14    9505.6307    -1572.013    83.102532 
   92300    2069.9527   -114.85894    1.8729367   -112.98601    18269.838     4.356826     4.356826     4.356826    18269.838   -26480.914    32137.611    49152.816   -32343.063   -30678.477    5853.1177     82.70098 
   92400    877.39458   -113.81805   0.79388506   -113.02416   -9275.1252    4.3641405    4.3641405    4.3641405   -9275.1252   -70496.268     3802.474    38868.418    48938.781   -2281.7884   -6350.0982    83.118209 
   92500    1767.3252   -114.62271     1.599113   -113.02359   -8078.3183    4.3718308    4.3718308    4.3718308   -8078.3183   -45978.306   -10872.003    32615.354    27262.181    24669.041   -15073.104    83.558386 
   92600    2356.2305   -115.13253    2.1319668   -113.00057     7876.878    4.3728799    4.3728799    4.3728799     7876.878   -33611.628    25858.085    31384.178   -12864.731   -15386.601     18367.04    83.618553 
   92700    863.14514   -113.77561   0.78099186   -112.99462   -35751.333    4.3886169    4.3886169    4.3886169   -35751.333   -90803.797    -20833.52    4383.3167    47039.876    8642.3626   -19898.841    84.524581 
   92800    1931.7566    -114.6986     1.747894   -112.95071     1087.739    4.3801963    4.3801963    4.3801963     1087.739   -12346.005    -36470.86    52080.082   -23746.168    15480.264    4648.4124    84.038973 
   92900    1662.2979    -114.4633     1.504082   -112.95922   -3119.7359    4.3562508    4.3562508    4.3562508   -3119.7359    11437.998   -38366.234    17569.028   -30224.556   -8280.3496    29046.135    82.668229 
   93000    1939.2354   -114.72973    1.7546609   -112.97507   -2048.3883    4.3513091    4.3513091    4.3513091   -2048.3883   -22417.215    15692.075     579.9753    51254.789    4414.1365   -4607.7627    82.387211 
   93100    1405.5896   -114.27864     1.271807   -113.00683   -4864.4445    4.3673997    4.3673997    4.3673997   -4864.4445   -33824.844   -34341.548    53573.059   -50952.565    13360.586   -4458.1991    83.304566 
   93200    1830.7997   -114.65507     1.656546   -112.99853   -25358.643    4.3870706    4.3870706    4.3870706   -25358.643   -32926.471   -51948.513    8799.0559   -31730.166   -6171.6296    27109.166    84.435266 
   93300    2585.0882   -115.32146    2.3390421   -112.98242   -12660.608     4.372857     4.372857     4.372857   -12660.608   -26797.232    20675.678   -31860.271    16319.414    19707.674    9376.3205    83.617238 
   93400    1322.0484   -114.19252    1.1962172   -112.99631     4318.444     4.348824     4.348824     4.348824     4318.444   -44643.639    19388.288    38210.683    -74249.25    10859.621    1596.2295    82.246137 
   93500    1497.4837   -114.36225    1.3549547   -113.00729    3641.2186    4.3556514    4.3556514    4.3556514    3641.2186   -5563.4416   -10914.123     27401.22    -3907.658   -3726.9961      24878.9    82.634109 
   93600    1958.4278   -114.76632    1.7720266    -112.9943   -26637.163    4.3799658    4.3799658    4.3799658   -26637.163   -14965.854   -44058.353   -20887.281    33274.643    -2551.011   -1584.5538    84.025704 
   93700    1241.7879   -114.10771    1.1235958   -112.98411   -20449.669    4.3882233    4.3882233    4.3882233   -20449.669   -31749.302   -22625.434   -6974.2699   -49624.053    25053.939    94.571717     84.50184 
   93800    1955.9135   -114.72897    1.7697516   -112.95922   -9596.1766    4.3780319    4.3780319    4.3780319   -9596.1766    14217.973   -14583.028   -28423.475    2995.9981    4705.6991    35013.312     83.91445 
   93900    1862.0211   -114.65072    1.6847958   -112.96593    3807.5661    4.3576302    4.3576302    4.3576302    3807.5661    7425.3784   -4162.0225    8159.3422    23076.293   -5520.2334    12988.541    82.746784 
   94000    1662.9117   -114.49162    1.5046374   -112.98699    4690.8311    4.3477644    4.3477644    4.3477644    4690.8311    -12170.38    17923.619    8319.2533   -23328.322    35253.364   -15304.373    82.186033 
   94100    1460.5329   -114.33845    1.3215209   -113.01693   -19873.558    4.3660958    4.3660958    4.3660958   -19873.558    35557.201   -30993.584    -64184.29    1066.0879   -6373.2178    75914.973    83.229976 
   94200    2234.5465    -115.0184    2.0218647   -112.99653   -30522.375     4.380343     4.380343     4.380343   -30522.375   -15690.715   -27196.561   -48679.849   -2512.6441   -23855.045   -2646.1371    84.047413 
   94300     1644.714   -114.47336    1.4881718   -112.98518   -24656.049    4.3784921    4.3784921    4.3784921   -24656.049    -13112.68   -37825.397    -23030.07   -11993.988    24043.156    3900.8435    83.940916 
   94400     1072.176   -113.95997   0.97012742   -112.98984     -29172.5    4.3686549    4.3686549    4.3686549     -29172.5    26156.828   -81940.338   -31733.989   -8900.4681   -7218.2276    101770.87    83.376414 
   94500     2590.023   -115.31084    2.3435073   -112.96734    34452.453    4.3493172    4.3493172    4.3493172    34452.453    22348.402    30999.655    50009.302    12261.806   -11357.402   -22087.221    82.274118 
   94600    1216.3407   -114.11058    1.1005706      -113.01   -4045.8543    4.3576567    4.3576567    4.3576567   -4045.8543    27258.658   -64364.152    24967.931     -6869.06    20521.693    47019.045    82.748292 
   94700    865.87344   -113.80905   0.78346049   -113.02559   -40826.004    4.3734621    4.3734621    4.3734621   -40826.004     12484.01    -96099.27   -38862.753   -17761.611    8893.6573    64000.148    83.651958 
   94800    2283.2679   -115.06557    2.0659488   -112.99962    14172.113    4.3599561    4.3599561    4.3599561    14172.113    21255.562   -25902.172    47162.949    11339.615   -5947.4621   -37260.514    82.879355 
   94900    1447.8744   -114.31525    1.3100672   -113.00518    -4004.803    4.3620537    4.3620537    4.3620537    -4004.803    49882.351   -42511.953   -19384.807    5069.0514    2868.0588    74803.332    82.999034 
   95000    1789.3197   -114.61676    1.6190141   -112.99774   -23371.118    4.3665458    4.3665458    4.3665458   -23371.118    20044.483   -28042.134   -62115.701   -11564.709    30183.092    12845.707    83.255714 
   95100      1779.18   -114.60313    1.6098394   -112.99329    7897.6119     4.359686     4.359686     4.359686    7897.6119    27411.528   -28106.401    24387.709    13617.128   -241.95316   -41601.824    82.863949 
   95200    2020.6997   -114.81487    1.8283715    -112.9865   -2407.4459    4.3729058    4.3729058    4.3729058   -2407.4459    24904.534   -36270.713     4143.841    16136.615   -1573.0452    38364.884    83.620037 
   95300    1757.0082   -114.57961     1.589778   -112.98983   -22394.559    4.3713874    4.3713874    4.3713874   -22394.559    -27829.23   -4080.2641   -35274.183   -19150.723    56629.075   -393.89669    83.532961 
   95400    1220.1146   -114.10098    1.1039853   -112.99699    11855.685    4.3545451    4.3545451    4.3545451    11855.685    26132.355   -38250.475    47685.175    6273.5781   -4386.3128   -24016.497    82.571157 
   95500    2009.0025   -114.81285    1.8177876   -112.99506   -10553.263    4.3629894    4.3629894    4.3629894   -10553.263   -2862.6451   -28673.806   -123.33882    16913.667   -231.03533   -13690.006    83.052455 
   95600    1502.0843   -114.35988    1.3591175   -113.00076   -9062.2897    4.3641239    4.3641239    4.3641239   -9062.2897   -20617.891    11402.407   -17971.385   -4750.7362    75005.545     6073.964    83.117261 
   95700    2079.1393   -114.87366    1.8812489   -112.99241   -16779.364    4.3701253    4.3701253    4.3701253   -16779.364    4269.0951   -70249.095    15641.907    4332.1122   -10749.567   -21524.784    83.460632 
   95800    1086.4443   -113.99372   0.98303766   -113.01068   -35026.612    4.3708502    4.3708502    4.3708502   -35026.612   -13812.037   -40540.477   -50727.323    12878.781     29514.45   -9575.2669    83.502173 
   95900    1041.2066   -113.95516   0.94210558   -113.01305    15381.799    4.3496024    4.3496024    4.3496024    15381.799    17851.746    33130.079   -4836.4276   -6549.7561    73201.717     18214.99    82.290307 
   96000    2747.9354   -115.47929    2.4863897    -112.9929    21232.003    4.3615387    4.3615387    4.3615387    21232.003    64226.256   -21321.777     20791.53   -1193.4353   -29829.244    -13767.37    82.969638 
   96100    1313.2638    -114.2004    1.1882687   -113.01213   -16076.003    4.3762646    4.3762646    4.3762646   -16076.003   -26047.092   -6725.6453   -15455.272        12866    69051.432   -7170.5276     83.81287 
   96200    1157.9158   -114.05422    1.0477065   -113.00651   -7188.5944    4.3669273    4.3669273    4.3669273   -7188.5944    18513.344   -31867.765   -8211.3622    1132.6858     38282.02     24893.16    83.277542 
   96300    2176.9345   -114.96142    1.9697361   -112.99168    8828.0169    4.3555165    4.3555165    4.3555165    8828.0169    31203.639   -38115.318     33395.73   -353.18799   -24765.444    5135.6007    82.626428 
   96400    1619.8512   -114.47152    1.4656754   -113.00584    2776.7842    4.3542352    4.3542352    4.3542352    2776.7842   -4387.6978    35481.033   -22762.983   -7141.3523    76482.098   -5510.2626    82.553532 
   96500    2123.6739   -114.92529    1.9215448   -113.00375   -6412.7429     4.363594     4.363594     4.363594   -6412.7429    4975.1246   -21401.371   -2811.9826    6057.3156      21197.5    15678.065    83.086987 
   96600    1623.4226   -114.48279    1.4689069   -113.01389   -12657.391    4.3659863    4.3659863    4.3659863   -12657.391   -21895.691   -50963.668    34887.184    -2108.162   -7602.0014    10451.675    83.223718 
   96700    1030.1044   -113.95151   0.93206012   -113.01945   -4739.4435    4.3635332    4.3635332    4.3635332   -4739.4435   -19086.732    4398.6399    469.76145   -10814.406    84503.166   -14438.307    83.083512 
   96800    2535.2201    -115.2965    2.2939204   -113.00258    16130.654    4.3615978    4.3615978    4.3615978    16130.654    35940.005   -18133.123    30585.079    578.79961   -16283.929   -15456.747    82.973008 
   96900    1936.5206   -114.76116    1.7522045   -113.00895    18337.677    4.3591251    4.3591251    4.3591251    18337.677    2502.8587   -6948.2965     59458.47    5662.3958    20133.315    9684.1699    82.831973 
   97000    931.30348   -113.86194   0.84266296   -113.01928    -14190.67    4.3684179    4.3684179    4.3684179    -14190.67    2913.1029   -11093.422   -34391.691   -8466.5926      78708.9   -6681.6526    83.362845 
   97100    2147.9191   -114.94402    1.9434824   -113.00054    5496.0294    4.3661234    4.3661234    4.3661234    5496.0294     33056.18    -54068.41    37500.318   -11378.584     -33296.7   -26338.935    83.231555 
   97200    1826.5211   -114.65272    1.6526746   -113.00005    4546.9244    4.3567582    4.3567582    4.3567582    4546.9244    4360.6905    8702.7517    577.33107    9482.4671    50007.046    10288.007    82.697119 
   97300    1327.3549   -114.21544    1.2010186   -113.01443   -20297.228     4.359298     4.359298     4.359298   -20297.228   -48996.847    11096.256   -22991.092   -9545.2475    70674.365   -3003.5485    82.841826 
   97400    2244.8719   -115.02379    2.0312072   -112.99258    4872.6835    4.3594331    4.3594331    4.3594331    4872.6835    27140.066   -51954.105    39432.089   -17731.585   -23246.177   -18380.245    82.849531 
   97500    1009.7856   -113.92706   0.91367525   -113.01339   -24902.465    4.3690072    4.3690072    4.3690072   -24902.465   -48254.953    2344.4479   -28796.891   -718.34723     74295.77    13924.379     83.39659 
   97600    1382.8661   -114.26609    1.2512463   -113.01484   -20957.768    4.3703857    4.3703857    4.3703857   -20957.768   -32303.597    -6747.631   -23822.077    3602.9016    5150.2758    5328.6339    83.475551 
   97700    2406.1214   -115.16998    2.1771092   -112.99287    7111.5305    4.3542316    4.3542316    4.3542316    7111.5305    -1184.545   -9375.2238     31894.36   -13973.302    -18132.47   -15006.628    82.553326 
   97800    1153.1223   -114.06143    1.0433693   -113.01806   -5221.6416    4.3578563    4.3578563    4.3578563   -5221.6416   -7427.1275    24556.331   -32794.128   -5098.9574     97396.35     9278.484    82.759661 
   97900    1988.9436   -114.80723     1.799638   -113.00759    -5393.451    4.3628083    4.3628083    4.3628083    -5393.451    17840.399   -4951.9634   -29068.789    2409.7182   -1272.8501    26626.836    83.042116 
   98000    1850.3402   -114.68371    1.6742267   -113.00948    4589.2974    4.3668792    4.3668792    4.3668792    4589.2974    30812.818   -6425.0768   -10619.849    290.31038   -8196.4779   -17660.111    83.274786 
   98100    721.62257   -113.67307   0.65293927   -113.02013   -22724.434    4.3725616    4.3725616    4.3725616   -22724.434   -33497.412    18394.765   -53070.656   -7830.0884    77865.884   -3987.3555    83.600297 
   98200    1924.4607   -114.74004    1.7412925   -112.99875    9226.8015    4.3604585    4.3604585    4.3604585    9226.8015    28283.987    17093.202   -17696.785    13680.556   -10562.825     39164.59    82.908007 
   98300    1891.4276   -114.71021    1.7114034   -112.99881    9752.0127    4.3601376    4.3601376    4.3601376    9752.0127    5485.3487    34368.012   -10597.322   -8643.3029    14762.777   -391.75014    82.889702 
   98400    1175.8542   -114.07727    1.0639376   -113.01333   -19213.651    4.3677235    4.3677235    4.3677235   -19213.651   -36685.985    28917.139   -49872.108   -8912.0915    70877.776   -18386.884    83.323097 
   98500    1952.6625   -114.76164    1.7668101   -112.99483    20906.324    4.3630764    4.3630764    4.3630764    20906.324   -4446.8226    44354.119    22811.675    -3925.694   -14173.531    17198.121    83.057426 
   98600    1693.7067   -114.53402    1.5325014   -113.00152    1085.4948    4.3660871    4.3660871    4.3660871    1085.4948   -35660.509    60813.551   -21896.558    -3122.073   -19788.526    6943.9687    83.229482 
   98700    1199.9021   -114.09535    1.0856966   -113.00965   -19491.936    4.3648133    4.3648133    4.3648133   -19491.936   -30266.959     11280.09   -39488.937   -8410.8565    40067.716   -25988.259    83.156658 
   98800    2069.2504   -114.87029    1.8723013   -112.99799    13235.417     4.358861     4.358861     4.358861    13235.417   -4125.8139   -885.24922    44717.315   -12511.395   -4908.0709   -26105.326     82.81692 
   98900    1926.2072   -114.74224    1.7428728   -112.99937   -737.89658    4.3722943    4.3722943    4.3722943   -737.89658   -42667.921    35454.097    5000.1341    678.69147   -21843.814    16482.366    83.584964 
   99000    1106.7933   -114.00436    1.0014498   -113.00291   -15053.106    4.3755152    4.3755152    4.3755152   -15053.106   -46388.096    23268.958    -22040.18   -2551.2801    48359.635   -30654.495     83.76982 
   99100    1723.1326   -114.55193    1.5591266    -112.9928   -781.31858    4.3674433    4.3674433    4.3674433   -781.31858   -861.80356   -19586.184    18104.031    1279.9091    472.05895   -14847.301    83.307064 
   99200    1976.3607   -114.77769    1.7882527   -112.98944    9272.2282     4.361345     4.361345     4.361345    9272.2282   -8799.5301    26783.857    9832.3578    9667.9306    1556.7696    38580.096    82.958584 
   99300    1735.2245   -114.57219    1.5700676   -113.00212    5852.0749    4.3631115    4.3631115    4.3631115    5852.0749    -34819.64    55994.383   -3618.5183   -1551.6968    53677.536   -27006.634    83.059428 
   99400    1503.9298   -114.36262    1.3607873   -113.00183   -11226.519    4.3764514    4.3764514    4.3764514   -11226.519   -3987.8737   -23372.687   -6318.9947   -8130.0625   -8871.8445   -9893.3134    83.823607 
   99500    1897.5109   -114.69993    1.7169077   -112.98302   -2418.1575     4.374214     4.374214     4.374214   -2418.1575    17707.644   -29289.431    4327.3148    249.12566    10931.699    48782.547     83.69511 
   99600    2042.1293   -114.82365    1.8477615   -112.97589   -3790.0943    4.3670844    4.3670844    4.3670844   -3790.0943   -3933.5125    -22341.99    14905.219   -3626.2338    30554.093   -27784.617    83.286527 
   99700    1002.7226   -113.90668   0.90728449    -112.9994   -10751.083    4.3545635    4.3545635    4.3545635   -10751.083    12919.601   -67883.284    22710.434   -8237.5113   -10729.267   -20027.798    82.572206 
   99800    1398.1446   -114.28073    1.2650706   -113.01566    10723.488    4.3542852    4.3542852    4.3542852    10723.488    25868.794    3920.5738    2381.0972    6549.3046   -16003.867     46173.88    82.556376 
   99900    2064.0688   -114.87207    1.8676128   -113.00446    3154.3846     4.368115     4.368115     4.368115    3154.3846   -12823.158   -23580.209    45866.521    1583.4762    2748.9595   -7671.9306    83.345509 
  100000    1064.1504   -113.97371   0.96286569   -113.01085   -19831.675    4.3816111    4.3816111    4.3816111   -19831.675   -10860.351   -48713.224    78.551268   -11342.263    1522.5125   -28124.747    84.120427 
Loop time of 21.3202 on 1 procs for 100000 steps with 8 atoms

Pair  time (%) = 6.35488 (29.8068)
Kspce time (%) = 5.25838 (24.6638)
Neigh time (%) = 0.196957 (0.923806)
Comm  time (%) = 0.910404 (4.27015)
Outpt time (%) = 0.024076 (0.112926)
Other time (%) = 8.57551 (40.2224)

Nlocal:    8 ave 8 max 8 min
Histogram: 1 0 0 0 0 0 0 0 0 0
Nghost:    1828 ave 1828 max 1828 min
Histogram: 1 0 0 0 0 0 0 0 0 0
Neighs:    2090 ave 2090 max 2090 min
Histogram: 1 0 0 0 0 0 0 0 0 0

Total # of neighbors = 2090
Ave neighs/atom = 261.25
Neighbor list builds = 2569
Dangerous builds = 0
unfix 20
unfix 21
print "seeds:2741988"
seeds:2741988
