# ['Ni']

18 atoms
1 atom types

    0.0000     1.9651 xlo xhi
    0.0000     3.4037 ylo yhi
    0.0000    28.8767 zlo zhi

    0.0000     0.0000    -0.0003 xy xz yz

Atoms

1 1     0.0000     0.0000     0.0000
2 1     0.9826     0.5673     1.6043
3 1     0.0000     1.1346     3.2085
4 1     0.9826     1.7019     0.0000
5 1     0.0000     2.2691     1.6043
6 1     0.9826     2.8364     3.2085
7 1     0.0000     0.0000     4.8128
8 1     0.9826     0.5673     6.4170
9 1     0.0000     1.1346     8.0213
10 1     0.9826     1.7019     4.8128
11 1     0.0000     2.2691     6.4170
12 1     0.9826     2.8364     8.0213
13 1     0.0000     0.0000     9.6256
14 1     0.9826     0.5673    11.2298
15 1     0.0000     1.1346    12.8341
16 1     0.9826     1.7019     9.6256
17 1     0.0000     2.2691    11.2298
18 1     0.9826     2.8364    12.8341
