# ['Ni']

107 atoms
1 atom types

    0.0000    10.5206 xlo xhi
    0.0000    10.5206 ylo yhi
    0.0000    10.5206 zlo zhi

    0.0000    -0.0000    -0.0000 xy xz yz

Atoms

1 1     1.7534     1.7534     0.0000
2 1     1.7534     0.0000     1.7534
3 1     0.0000     1.7534     1.7534
4 1     0.0000     0.0000     3.5069
5 1     1.7534     1.7534     3.5069
6 1     1.7534     0.0000     5.2603
7 1     0.0000     1.7534     5.2603
8 1     0.0000     0.0000     7.0137
9 1     1.7534     1.7534     7.0137
10 1     1.7534     0.0000     8.7672
11 1     0.0000     1.7534     8.7672
12 1     0.0000     3.5069     0.0000
13 1     1.7534     5.2603     0.0000
14 1     1.7534     3.5069     1.7534
15 1     0.0000     5.2603     1.7534
16 1     0.0000     3.5069     3.5069
17 1     1.7534     5.2603     3.5069
18 1     1.7534     3.5069     5.2603
19 1     0.0000     5.2603     5.2603
20 1     0.0000     3.5069     7.0137
21 1     1.7534     5.2603     7.0137
22 1     1.7534     3.5069     8.7672
23 1     0.0000     5.2603     8.7672
24 1     0.0000     7.0137     0.0000
25 1     1.7534     8.7672     0.0000
26 1     1.7534     7.0137     1.7534
27 1     0.0000     8.7672     1.7534
28 1     0.0000     7.0137     3.5069
29 1     1.7534     8.7672     3.5069
30 1     1.7534     7.0137     5.2603
31 1     0.0000     8.7672     5.2603
32 1     0.0000     7.0137     7.0137
33 1     1.7534     8.7672     7.0137
34 1     1.7534     7.0137     8.7672
35 1     0.0000     8.7672     8.7672
36 1     3.5069     0.0000     0.0000
37 1     5.2603     1.7534     0.0000
38 1     5.2603     0.0000     1.7534
39 1     3.5069     1.7534     1.7534
40 1     3.5069     0.0000     3.5069
41 1     5.2603     1.7534     3.5069
42 1     5.2603     0.0000     5.2603
43 1     3.5069     1.7534     5.2603
44 1     3.5069     0.0000     7.0137
45 1     5.2603     1.7534     7.0137
46 1     5.2603     0.0000     8.7672
47 1     3.5069     1.7534     8.7672
48 1     3.5069     3.5069     0.0000
49 1     5.2603     5.2603     0.0000
50 1     5.2603     3.5069     1.7534
51 1     3.5069     5.2603     1.7534
52 1     3.5069     3.5069     3.5069
53 1     5.2603     5.2603     3.5069
54 1     5.2603     3.5069     5.2603
55 1     3.5069     5.2603     5.2603
56 1     3.5069     3.5069     7.0137
57 1     5.2603     5.2603     7.0137
58 1     5.2603     3.5069     8.7672
59 1     3.5069     5.2603     8.7672
60 1     3.5069     7.0137     0.0000
61 1     5.2603     8.7672     0.0000
62 1     5.2603     7.0137     1.7534
63 1     3.5069     8.7672     1.7534
64 1     3.5069     7.0137     3.5069
65 1     5.2603     8.7672     3.5069
66 1     5.2603     7.0137     5.2603
67 1     3.5069     8.7672     5.2603
68 1     3.5069     7.0137     7.0137
69 1     5.2603     8.7672     7.0137
70 1     5.2603     7.0137     8.7672
71 1     3.5069     8.7672     8.7672
72 1     7.0137     0.0000     0.0000
73 1     8.7672     1.7534     0.0000
74 1     8.7672     0.0000     1.7534
75 1     7.0137     1.7534     1.7534
76 1     7.0137     0.0000     3.5069
77 1     8.7672     1.7534     3.5069
78 1     8.7672     0.0000     5.2603
79 1     7.0137     1.7534     5.2603
80 1     7.0137     0.0000     7.0137
81 1     8.7672     1.7534     7.0137
82 1     8.7672     0.0000     8.7672
83 1     7.0137     1.7534     8.7672
84 1     7.0137     3.5069     0.0000
85 1     8.7672     5.2603     0.0000
86 1     8.7672     3.5069     1.7534
87 1     7.0137     5.2603     1.7534
88 1     7.0137     3.5069     3.5069
89 1     8.7672     5.2603     3.5069
90 1     8.7672     3.5069     5.2603
91 1     7.0137     5.2603     5.2603
92 1     7.0137     3.5069     7.0137
93 1     8.7672     5.2603     7.0137
94 1     8.7672     3.5069     8.7672
95 1     7.0137     5.2603     8.7672
96 1     7.0137     7.0137     0.0000
97 1     8.7672     8.7672     0.0000
98 1     8.7672     7.0137     1.7534
99 1     7.0137     8.7672     1.7534
100 1     7.0137     7.0137     3.5069
101 1     8.7672     8.7672     3.5069
102 1     8.7672     7.0137     5.2603
103 1     7.0137     8.7672     5.2603
104 1     7.0137     7.0137     7.0137
105 1     8.7672     8.7672     7.0137
106 1     8.7672     7.0137     8.7672
107 1     7.0137     8.7672     8.7672
