    4    4    1    2
  0.1064635E+02  0.3492102E-09  0.3492102E-09  0.3492102E-09  0.5000000E-15
  1.000000000000000E-004
  CAR 
 automatically generated by pyflamestk   
     40      4     32
 
  0.1250000E+00  0.1250000E+00  0.1250000E+00  0.1250000E+00
    1        1.121323      1.121346   1.000000   1.000000
    2        5.332694      5.332770   1.000000   1.000000
    3        5.332694      5.332770   1.000000   1.000000
    4        5.332694      5.332770   1.000000   1.000000
    5        5.902635      5.902615   1.000000   1.000000
    6        5.902635      5.902615   1.000000   1.000000
    7        5.902635      5.902615   1.000000   1.000000
    8        7.441273      7.441242   1.000000   1.000000
    9        7.725244      7.725214   1.000000   1.000000
   10        7.725244      7.725214   1.000000   1.000000
   11        8.703711      8.703823   1.000000   1.000000
   12        8.703711      8.703823   1.000000   1.000000
   13        8.725247      8.725230   1.000000   1.000000
   14        8.725247      8.725230   1.000000   1.000000
   15        8.725247      8.725230   1.000000   1.000000
   16        9.205197      9.205279   1.021550   1.021569
   17        9.205197      9.205279   1.021550   1.021569
   18        9.205197      9.205279   1.021550   1.021569
   19        9.608471      9.608468   0.200448   0.200457
   20        9.608471      9.608468   0.200448   0.200457
   21        9.608471      9.608468   0.200448   0.200457
   22       12.353149     12.353178  -0.000000  -0.000000
   23       12.353149     12.353178  -0.000000  -0.000000
   24       12.353149     12.353178  -0.000000  -0.000000
   25       20.689674     20.689691   0.000000   0.000000
   26       20.689674     20.689691   0.000000   0.000000
   27       20.689674     20.689691   0.000000   0.000000
   28       22.009528     22.009558   0.000000   0.000000
   29       22.009528     22.009558   0.000000   0.000000
   30       22.009528     22.009558   0.000000   0.000000
   31       25.661351     25.661380   0.000000   0.000000
   32       25.661351     25.661380   0.000000   0.000000
 
  0.3750000E+00  0.1250000E+00  0.1250000E+00  0.3750000E+00
    1        2.639281      2.639304   1.000000   1.000000
    2        4.785245      4.785285   1.000000   1.000000
    3        5.997073      5.997146   1.000000   1.000000
    4        5.997073      5.997146   1.000000   1.000000
    5        6.349410      6.349388   1.000000   1.000000
    6        6.359593      6.359582   1.000000   1.000000
    7        6.359593      6.359582   1.000000   1.000000
    8        7.000029      7.000001   1.000000   1.000000
    9        7.400013      7.400000   1.000000   1.000000
   10        7.400013      7.400000   1.000000   1.000000
   11        7.811335      7.811379   1.000000   1.000000
   12        7.880592      7.880620   1.000000   1.000000
   13        8.033153      8.033141   1.000000   1.000000
   14        8.551552      8.551603   1.000000   1.000000
   15        8.619056      8.619075   1.000000   1.000000
   16        8.752747      8.752850   1.000000   1.000000
   17        8.752747      8.752850   1.000000   1.000000
   18        9.011597      9.011691   1.000729   1.000731
   19        9.402348      9.402410   0.940065   0.939940
   20        9.522174      9.522146   0.540614   0.540732
   21        9.522174      9.522146   0.540614   0.540732
   22        9.622205      9.622215   0.157335   0.157305
   23       14.675154     14.675179  -0.000000  -0.000000
   24       14.675154     14.675179  -0.000000  -0.000000
   25       17.980064     17.980087   0.000000   0.000000
   26       17.980064     17.980087   0.000000   0.000000
   27       21.700845     21.700863   0.000000   0.000000
   28       21.700845     21.700863   0.000000   0.000000
   29       23.798219     23.798242   0.000000   0.000000
   30       23.980894     23.980920   0.000000   0.000000
   31       23.980894     23.980920   0.000000   0.000000
   32       26.908172     26.908201   0.000000   0.000000
 
  0.3750000E+00  0.3750000E+00  0.1250000E+00  0.3750000E+00
    1        3.909321      3.909341   1.000000   1.000000
    2        5.536146      5.536163   1.000000   1.000000
    3        5.536146      5.536163   1.000000   1.000000
    4        6.045679      6.045669   1.000000   1.000000
    5        6.638940      6.639023   1.000000   1.000000
    6        6.746493      6.746507   1.000000   1.000000
    7        6.746493      6.746507   1.000000   1.000000
    8        7.024191      7.024168   1.000000   1.000000
    9        7.209449      7.209474   1.000000   1.000000
   10        7.209449      7.209474   1.000000   1.000000
   11        7.328197      7.328178   1.000000   1.000000
   12        7.647189      7.647227   1.000000   1.000000
   13        7.983060      7.983102   1.000000   1.000000
   14        8.334536      8.334621   1.000000   1.000000
   15        8.335603      8.335667   1.000000   1.000000
   16        8.335603      8.335667   1.000000   1.000000
   17        8.641208      8.641245   1.000000   1.000000
   18        9.170755      9.170767   1.014234   1.014237
   19        9.170755      9.170767   1.014234   1.014237
   20        9.238354      9.238347   1.029088   1.029087
   21        9.583723      9.583765   0.288234   0.288076
   22       11.109311     11.109332  -0.000000  -0.000000
   23       11.109311     11.109332  -0.000000  -0.000000
   24       13.421083     13.421103  -0.000000  -0.000000
   25       16.960547     16.960569   0.000000   0.000000
   26       19.783955     19.783977   0.000000   0.000000
   27       19.783955     19.783977   0.000000   0.000000
   28       22.788008     22.788031   0.000000   0.000000
   29       22.915059     22.915076   0.000000   0.000000
   30       25.390931     25.390948   0.000000   0.000000
   31       25.390931     25.390948   0.000000   0.000000
   32       28.266101     28.266120   0.000000   0.000000
 
  0.3750000E+00  0.3750000E+00  0.3750000E+00  0.1250000E+00
    1        4.525784      4.525791   1.000000   1.000000
    2        5.280759      5.280755   1.000000   1.000000
    3        5.280759      5.280755   1.000000   1.000000
    4        5.280759      5.280755   1.000000   1.000000
    5        7.246382      7.246457   1.000000   1.000000
    6        7.246382      7.246457   1.000000   1.000000
    7        7.246382      7.246457   1.000000   1.000000
    8        7.651891      7.651936   1.000000   1.000000
    9        7.651891      7.651936   1.000000   1.000000
   10        7.809186      7.809240   1.000000   1.000000
   11        7.809186      7.809240   1.000000   1.000000
   12        7.809186      7.809240   1.000000   1.000000
   13        7.869065      7.869059   1.000000   1.000000
   14        7.899410      7.899397   1.000000   1.000000
   15        7.899410      7.899397   1.000000   1.000000
   16        7.899410      7.899397   1.000000   1.000000
   17        9.278249      9.278283   1.035190   1.035192
   18        9.278249      9.278283   1.035190   1.035192
   19        9.516898      9.516923   0.562799   0.562697
   20        9.516898      9.516923   0.562799   0.562697
   21        9.516898      9.516923   0.562799   0.562697
   22       11.124415     11.124438  -0.000000  -0.000000
   23       11.124415     11.124438  -0.000000  -0.000000
   24       11.124415     11.124438  -0.000000  -0.000000
   25       16.311714     16.311727   0.000000   0.000000
   26       16.311714     16.311727   0.000000   0.000000
   27       16.311714     16.311727   0.000000   0.000000
   28       18.747321     18.747336   0.000000   0.000000
   29       29.297399     29.297405   0.000000   0.000000
   30       29.297399     29.297405   0.000000   0.000000
   31       29.297399     29.297405   0.000000   0.000000
   32       31.674796     31.674824   0.000000   0.000000
