LAMMPS (11 Aug 2017)
# ---- initialize simulations
clear
units metal
dimension 3
boundary p p p
atom_style atomic
atom_modify map array
# ---- create atoms
read_data /ufrc/phillpot/eragasa/pareto_optimization_3.5NN/rank_35/Ni_fcc_vac.lmps_min_pos/lammps.structure
  triclinic box = (0 0 0) to (10.0109 10.0109 10.0109) with tilt (0 -0 -0)
  1 by 1 by 1 MPI processor grid
  reading atoms ...
  107 atoms
# ---- define interatomic potential
include potential.mod
mass 1 58.6934

group Ni type 1
107 atoms in group Ni

pair_style eam/alloy
pair_coeff * * /ufrc/phillpot/eragasa/pareto_optimization_3.5NN/rank_35/Ni_fcc_vac.lmps_min_pos/Ni.eam.alloy Ni

neighbor 1.0 bin
neigh_modify every 1 delay 0 check yes
# ---- define settings
compute eng all pe/atom
compute eatoms all reduce sum c_eng

# ---- run minimization
reset_timestep 0
thermo 1
thermo_style custom step pe lx ly lz xy xz yz press pxx pyy pzz pxy pxz pyz c_eatoms
min_style cg
minimize 1e-20 1e-20 1000 100000
Neighbor list info ...
  update every 1 steps, delay 0 steps, check yes
  max neighbors/atom: 2000, page size: 100000
  master list distance cutoff = 5.64464
  ghost atom cutoff = 5.64464
  binsize = 2.82232, bins = 4 4 4
  1 neighbor lists, perpetual/occasional/extra = 1 0 0
  (1) pair eam/alloy, perpetual
      attributes: half, newton on
      pair build: half/bin/newton/tri
      stencil: half/bin/3d/newton/tri
      bin: standard
Per MPI rank memory allocation (min/avg/max) = 4.229 | 4.229 | 4.229 Mbytes
Step PotEng Lx Ly Lz Xy Xz Yz Press Pxx Pyy Pzz Pxy Pxz Pyz c_eatoms 
       0   -584.75028      10.0109      10.0109      10.0109            0           -0           -0   -4372.9438   -4372.9438   -4372.9438   -4372.9438 -4.4084275e-07 -4.408568e-07 -4.4085161e-07   -584.75028 
       1   -584.79734      10.0109      10.0109      10.0109            0           -0           -0    -5537.361    -5537.361    -5537.361    -5537.361 -8.5174154e-05 -8.5174146e-05 -8.5174147e-05   -584.79734 
       2   -584.80786      10.0109      10.0109      10.0109            0           -0           -0   -5788.2626   -5788.2626   -5788.2626   -5788.2626 1.3719283e-05 1.3719309e-05 1.3719275e-05   -584.80786 
       3   -584.80971      10.0109      10.0109      10.0109            0           -0           -0   -5946.4249   -5946.4249   -5946.4249   -5946.4249 -5.0715243e-05 -5.0715271e-05 -5.0715274e-05   -584.80971 
       4   -584.80993      10.0109      10.0109      10.0109            0           -0           -0    -5945.473    -5945.473    -5945.473    -5945.473 1.336976e-06 1.3370515e-06 1.3370424e-06   -584.80993 
       5   -584.80998      10.0109      10.0109      10.0109            0           -0           -0   -5939.8304   -5939.8304   -5939.8304   -5939.8304 -9.4450689e-06 -9.4450782e-06 -9.4450819e-06   -584.80998 
       6   -584.80998      10.0109      10.0109      10.0109            0           -0           -0   -5940.4508   -5940.4508   -5940.4508   -5940.4508 -7.7848039e-06 -7.7848183e-06 -7.78486e-06   -584.80998 
       7   -584.80998      10.0109      10.0109      10.0109            0           -0           -0   -5943.5897   -5943.5897   -5943.5897   -5943.5897 -2.8070082e-06 -2.8070075e-06 -2.8069962e-06   -584.80998 
       8   -584.80998      10.0109      10.0109      10.0109            0           -0           -0   -5944.0053   -5944.0053   -5944.0053   -5944.0053 -3.0319378e-06 -3.0319298e-06 -3.0319526e-06   -584.80998 
       9   -584.80998      10.0109      10.0109      10.0109            0           -0           -0   -5944.0088   -5944.0088   -5944.0088   -5944.0088 -1.7560133e-06 -1.7559953e-06 -1.756024e-06   -584.80998 
      10   -584.80998      10.0109      10.0109      10.0109            0           -0           -0   -5944.0181   -5944.0181   -5944.0181   -5944.0181 -8.9968565e-07 -8.9967499e-07 -8.9969068e-07   -584.80998 
      11   -584.80998      10.0109      10.0109      10.0109            0           -0           -0   -5944.0324   -5944.0324   -5944.0324   -5944.0324 -7.7501377e-07 -7.7498855e-07 -7.7498745e-07   -584.80998 
      12   -584.80998      10.0109      10.0109      10.0109            0           -0           -0   -5944.0374   -5944.0374   -5944.0374   -5944.0374 -5.869441e-07 -5.8695776e-07 -5.8690907e-07   -584.80998 
      13   -584.80998      10.0109      10.0109      10.0109            0           -0           -0   -5944.0386   -5944.0386   -5944.0386   -5944.0386 -3.6657993e-07 -3.6655899e-07 -3.6656429e-07   -584.80998 
      14   -584.80998      10.0109      10.0109      10.0109            0           -0           -0   -5944.0389   -5944.0389   -5944.0389   -5944.0389 -2.2192461e-07 -2.2199353e-07 -2.2197644e-07   -584.80998 
      15   -584.80998      10.0109      10.0109      10.0109            0           -0           -0   -5944.0396   -5944.0396   -5944.0396   -5944.0396 -3.1275932e-08 -3.1258801e-08 -3.1239919e-08   -584.80998 
      16   -584.80998      10.0109      10.0109      10.0109            0           -0           -0   -5944.0393   -5944.0393   -5944.0393   -5944.0393 2.1836466e-08 2.1813418e-08 2.1770179e-08   -584.80998 
      17   -584.80998      10.0109      10.0109      10.0109            0           -0           -0   -5944.0389   -5944.0389   -5944.0389   -5944.0389 3.9890524e-08 3.9872351e-08 3.9918138e-08   -584.80998 
      18   -584.80998      10.0109      10.0109      10.0109            0           -0           -0   -5944.0389   -5944.0389   -5944.0389   -5944.0389 3.3883261e-08 3.3946888e-08 3.3883039e-08   -584.80998 
      19   -584.80998      10.0109      10.0109      10.0109            0           -0           -0   -5944.0389   -5944.0389   -5944.0389   -5944.0389 2.0464099e-08 2.0478283e-08 2.048409e-08   -584.80998 
      20   -584.80998      10.0109      10.0109      10.0109            0           -0           -0   -5944.0389   -5944.0389   -5944.0389   -5944.0389 1.3164474e-08 1.3177284e-08 1.3181561e-08   -584.80998 
      21   -584.80998      10.0109      10.0109      10.0109            0           -0           -0   -5944.0389   -5944.0389   -5944.0389   -5944.0389 5.5904382e-09 5.5849863e-09 5.581396e-09   -584.80998 
      22   -584.80998      10.0109      10.0109      10.0109            0           -0           -0   -5944.0389   -5944.0389   -5944.0389   -5944.0389 2.7312149e-09 2.7536208e-09 2.7733672e-09   -584.80998 
      23   -584.80998      10.0109      10.0109      10.0109            0           -0           -0   -5944.0389   -5944.0389   -5944.0389   -5944.0389 2.5008175e-09 2.5202315e-09 2.5234451e-09   -584.80998 
      24   -584.80998      10.0109      10.0109      10.0109            0           -0           -0   -5944.0389   -5944.0389   -5944.0389   -5944.0389 9.7947689e-10 9.9552227e-10 9.6564773e-10   -584.80998 
      25   -584.80998      10.0109      10.0109      10.0109            0           -0           -0   -5944.0389   -5944.0389   -5944.0389   -5944.0389 5.7249179e-10 5.5609182e-10 5.5117183e-10   -584.80998 
      26   -584.80998      10.0109      10.0109      10.0109            0           -0           -0   -5944.0389   -5944.0389   -5944.0389   -5944.0389 3.0459613e-10 3.1179882e-10 2.8773076e-10   -584.80998 
      27   -584.80998      10.0109      10.0109      10.0109            0           -0           -0   -5944.0389   -5944.0389   -5944.0389   -5944.0389 2.2831412e-10 2.2782656e-10 2.3190439e-10   -584.80998 
      28   -584.80998      10.0109      10.0109      10.0109            0           -0           -0   -5944.0389   -5944.0389   -5944.0389   -5944.0389 1.9453906e-10 1.8485421e-10 1.7224397e-10   -584.80998 
      29   -584.80998      10.0109      10.0109      10.0109            0           -0           -0   -5944.0389   -5944.0389   -5944.0389   -5944.0389 1.4148295e-10 1.2111597e-10 1.0899329e-10   -584.80998 
      30   -584.80998      10.0109      10.0109      10.0109            0           -0           -0   -5944.0389   -5944.0389   -5944.0389   -5944.0389 1.2016299e-10 1.2975919e-10 9.6914935e-11   -584.80998 
      31   -584.80998      10.0109      10.0109      10.0109            0           -0           -0   -5944.0389   -5944.0389   -5944.0389   -5944.0389  8.08474e-11 6.8857696e-11 1.0458303e-10   -584.80998 
      32   -584.80998      10.0109      10.0109      10.0109            0           -0           -0   -5944.0389   -5944.0389   -5944.0389   -5944.0389 1.2011867e-10 7.4996602e-11 7.3356605e-11   -584.80998 
      33   -584.80998      10.0109      10.0109      10.0109            0           -0           -0   -5944.0389   -5944.0389   -5944.0389   -5944.0389 6.1344738e-11 8.0559293e-11 9.8023041e-11   -584.80998 
      34   -584.80998      10.0109      10.0109      10.0109            0           -0           -0   -5944.0389   -5944.0389   -5944.0389   -5944.0389 7.2159851e-11 5.5028535e-11 3.1137773e-11   -584.80998 
      35   -584.80998      10.0109      10.0109      10.0109            0           -0           -0   -5944.0389   -5944.0389   -5944.0389   -5944.0389 7.7124165e-11 3.4417767e-11 1.9258879e-11   -584.80998 
Loop time of 0.0634952 on 1 procs for 35 steps with 107 atoms

26.6% CPU use with 1 MPI tasks x no OpenMP threads

Minimization stats:
  Stopping criterion = energy tolerance
  Energy initial, next-to-last, final = 
         -584.75027535       -584.8099809       -584.8099809
  Force two-norm initial, final = 1.03679 9.7709e-14
  Force max component initial, final = 0.202846 2.02893e-14
  Final line search alpha, max atom move = 1 2.02893e-14
  Iterations, force evaluations = 35 70

MPI task timing breakdown:
Section |  min time  |  avg time  |  max time  |%varavg| %total
---------------------------------------------------------------
Pair    | 0.015741   | 0.015741   | 0.015741   |   0.0 | 24.79
Neigh   | 0          | 0          | 0          |   0.0 |  0.00
Comm    | 0.00034451 | 0.00034451 | 0.00034451 |   0.0 |  0.54
Output  | 0.02529    | 0.02529    | 0.02529    |   0.0 | 39.83
Modify  | 0          | 0          | 0          |   0.0 |  0.00
Other   |            | 0.02212    |            |       | 34.84

Nlocal:    107 ave 107 max 107 min
Histogram: 1 0 0 0 0 0 0 0 0 0
Nghost:    983 ave 983 max 983 min
Histogram: 1 0 0 0 0 0 0 0 0 0
Neighs:    4134 ave 4134 max 4134 min
Histogram: 1 0 0 0 0 0 0 0 0 0

Total # of neighbors = 4134
Ave neighs/atom = 38.6355
Neighbor list builds = 0
Dangerous builds = 0

# ---- define output variables ----
variable natoms equal "count(all)"
variable tot_energy equal "c_eatoms"
variable a11 equal "xhi-xlo"
variable a22 equal "yhi-ylo"
variable a33 equal "zhi-zlo"
variable tilt_xy equal "xy"
variable tilt_xz equal "xz"
variable tilt_yz equal "yz"
variable tot_press equal "press"
variable press_xx equal "pxx"
variable press_yy equal "pyy"
variable press_zz equal "pzz"
variable press_xy equal "pxy"
variable press_xz equal "pxz"
variable press_yz equal "pyz"

# ---- output ----
print "pypospack:output_section:begin"
pypospack:output_section:begin
print "tot_energy = ${tot_energy}"
tot_energy = -584.809980900125
print "num_atoms = ${natoms}"
num_atoms = 107
print "a11 = ${a11}"
a11 = 10.0109
print "a22 = ${a22}"
a22 = 10.0109
print "a33 = ${a33}"
a33 = 10.0109
print "a12 = ${tilt_xy}"
a12 = 0
print "a13 = ${tilt_xz}"
a13 = -0
print "a23 = ${tilt_yz}"
a23 = -0
print "tot_press = ${tot_press}"
tot_press = -5944.038898265
print "pxx = ${press_xx}"
pxx = -5944.038898265
print "pyy = ${press_yy}"
pyy = -5944.03889826498
print "pzz = ${press_zz}"
pzz = -5944.03889826502
print "pxy = ${press_xy}"
pxy = 7.71241649190562e-11
print "pxz = ${press_xz}"
pxz = 3.44177667009466e-11
print "pyz = ${press_yz}"
pyz = 1.9258879113408e-11
print "pypospack:output_section:done"
pypospack:output_section:done
print "pypospack:lammps_sim:done"
pypospack:lammps_sim:done
Total wall time: 0:00:00
