# ['Ni']

10 atoms
1 atom types

    0.0000     3.2370 xlo xhi
    0.0000     2.3172 ylo yhi
    0.0000    23.1720 zlo zhi

    0.0000     0.0000     0.0000 xy xz yz

Atoms

1 1     0.0000     0.0000     0.0000
2 1     1.6185     1.1586     1.1586
3 1     0.0000     0.0000     2.3172
4 1     1.6185     1.1586     3.4758
5 1     0.0000     0.0000     4.6344
6 1     1.6185     1.1586     5.7930
7 1     0.0000     0.0000     6.9516
8 1     1.6185     1.1586     8.1102
9 1     0.0000     0.0000     9.2688
10 1     1.6185     1.1586    10.4274
