# ['Ni']

107 atoms
1 atom types

    0.0000    10.7931 xlo xhi
    0.0000    10.7931 ylo yhi
    0.0000    10.7931 zlo zhi

    0.0000    -0.0000    -0.0000 xy xz yz

Atoms

1 1     1.7988     1.7988     0.0000
2 1     1.7988     0.0000     1.7988
3 1     0.0000     1.7988     1.7988
4 1     0.0000     0.0000     3.5977
5 1     1.7988     1.7988     3.5977
6 1     1.7988     0.0000     5.3965
7 1     0.0000     1.7988     5.3965
8 1     0.0000     0.0000     7.1954
9 1     1.7988     1.7988     7.1954
10 1     1.7988     0.0000     8.9942
11 1     0.0000     1.7988     8.9942
12 1     0.0000     3.5977     0.0000
13 1     1.7988     5.3965     0.0000
14 1     1.7988     3.5977     1.7988
15 1     0.0000     5.3965     1.7988
16 1     0.0000     3.5977     3.5977
17 1     1.7988     5.3965     3.5977
18 1     1.7988     3.5977     5.3965
19 1     0.0000     5.3965     5.3965
20 1     0.0000     3.5977     7.1954
21 1     1.7988     5.3965     7.1954
22 1     1.7988     3.5977     8.9942
23 1     0.0000     5.3965     8.9942
24 1     0.0000     7.1954     0.0000
25 1     1.7988     8.9942     0.0000
26 1     1.7988     7.1954     1.7988
27 1     0.0000     8.9942     1.7988
28 1     0.0000     7.1954     3.5977
29 1     1.7988     8.9942     3.5977
30 1     1.7988     7.1954     5.3965
31 1     0.0000     8.9942     5.3965
32 1     0.0000     7.1954     7.1954
33 1     1.7988     8.9942     7.1954
34 1     1.7988     7.1954     8.9942
35 1     0.0000     8.9942     8.9942
36 1     3.5977     0.0000     0.0000
37 1     5.3965     1.7988     0.0000
38 1     5.3965     0.0000     1.7988
39 1     3.5977     1.7988     1.7988
40 1     3.5977     0.0000     3.5977
41 1     5.3965     1.7988     3.5977
42 1     5.3965     0.0000     5.3965
43 1     3.5977     1.7988     5.3965
44 1     3.5977     0.0000     7.1954
45 1     5.3965     1.7988     7.1954
46 1     5.3965     0.0000     8.9942
47 1     3.5977     1.7988     8.9942
48 1     3.5977     3.5977     0.0000
49 1     5.3965     5.3965     0.0000
50 1     5.3965     3.5977     1.7988
51 1     3.5977     5.3965     1.7988
52 1     3.5977     3.5977     3.5977
53 1     5.3965     5.3965     3.5977
54 1     5.3965     3.5977     5.3965
55 1     3.5977     5.3965     5.3965
56 1     3.5977     3.5977     7.1954
57 1     5.3965     5.3965     7.1954
58 1     5.3965     3.5977     8.9942
59 1     3.5977     5.3965     8.9942
60 1     3.5977     7.1954     0.0000
61 1     5.3965     8.9942     0.0000
62 1     5.3965     7.1954     1.7988
63 1     3.5977     8.9942     1.7988
64 1     3.5977     7.1954     3.5977
65 1     5.3965     8.9942     3.5977
66 1     5.3965     7.1954     5.3965
67 1     3.5977     8.9942     5.3965
68 1     3.5977     7.1954     7.1954
69 1     5.3965     8.9942     7.1954
70 1     5.3965     7.1954     8.9942
71 1     3.5977     8.9942     8.9942
72 1     7.1954     0.0000     0.0000
73 1     8.9942     1.7988     0.0000
74 1     8.9942     0.0000     1.7988
75 1     7.1954     1.7988     1.7988
76 1     7.1954     0.0000     3.5977
77 1     8.9942     1.7988     3.5977
78 1     8.9942     0.0000     5.3965
79 1     7.1954     1.7988     5.3965
80 1     7.1954     0.0000     7.1954
81 1     8.9942     1.7988     7.1954
82 1     8.9942     0.0000     8.9942
83 1     7.1954     1.7988     8.9942
84 1     7.1954     3.5977     0.0000
85 1     8.9942     5.3965     0.0000
86 1     8.9942     3.5977     1.7988
87 1     7.1954     5.3965     1.7988
88 1     7.1954     3.5977     3.5977
89 1     8.9942     5.3965     3.5977
90 1     8.9942     3.5977     5.3965
91 1     7.1954     5.3965     5.3965
92 1     7.1954     3.5977     7.1954
93 1     8.9942     5.3965     7.1954
94 1     8.9942     3.5977     8.9942
95 1     7.1954     5.3965     8.9942
96 1     7.1954     7.1954     0.0000
97 1     8.9942     8.9942     0.0000
98 1     8.9942     7.1954     1.7988
99 1     7.1954     8.9942     1.7988
100 1     7.1954     7.1954     3.5977
101 1     8.9942     8.9942     3.5977
102 1     8.9942     7.1954     5.3965
103 1     7.1954     8.9942     5.3965
104 1     7.1954     7.1954     7.1954
105 1     8.9942     8.9942     7.1954
106 1     8.9942     7.1954     8.9942
107 1     7.1954     8.9942     8.9942
