   2   2   0   0
  0.9639684E+01  0.3009788E-09  0.3009788E-09  0.3009788E-09  0.5000000E-15
  1.000000000000000E-004
  CAR 
 automatically generated by pyflamestk   
     43.83094095    -16.33155457  301      3.54713666      1.00000000
    -16.332  0.0000E+00  0.0000E+00
    -16.131  0.0000E+00  0.0000E+00
    -15.930  0.0000E+00  0.0000E+00
    -15.730  0.0000E+00  0.0000E+00
    -15.529  0.0000E+00  0.0000E+00
    -15.329  0.0000E+00  0.0000E+00
    -15.128  0.0000E+00  0.0000E+00
    -14.928  0.0000E+00  0.0000E+00
    -14.727  0.0000E+00  0.0000E+00
    -14.527  0.0000E+00  0.0000E+00
    -14.326  0.0000E+00  0.0000E+00
    -14.126  0.0000E+00  0.0000E+00
    -13.925  0.0000E+00  0.0000E+00
    -13.725  0.4779E-04  0.9585E-05
    -13.524  0.3055E+00  0.6128E-01
    -13.323  0.1203E-01  0.6369E-01
    -13.123  0.9283E+00  0.2499E+00
    -12.922  0.7152E+00  0.3933E+00
    -12.722  0.8427E+00  0.5623E+00
    -12.521  0.2618E+01  0.1087E+01
    -12.321  0.2970E+01  0.1683E+01
    -12.120  0.1581E+01  0.2000E+01
    -11.920  0.1892E-06  0.2000E+01
    -11.719  0.0000E+00  0.2000E+01
    -11.519  0.0000E+00  0.2000E+01
    -11.318  0.0000E+00  0.2000E+01
    -11.117  0.0000E+00  0.2000E+01
    -10.917  0.0000E+00  0.2000E+01
    -10.716  0.0000E+00  0.2000E+01
    -10.516  0.0000E+00  0.2000E+01
    -10.315  0.0000E+00  0.2000E+01
    -10.115  0.0000E+00  0.2000E+01
     -9.914  0.0000E+00  0.2000E+01
     -9.714  0.0000E+00  0.2000E+01
     -9.513  0.0000E+00  0.2000E+01
     -9.313  0.0000E+00  0.2000E+01
     -9.112  0.0000E+00  0.2000E+01
     -8.912  0.0000E+00  0.2000E+01
     -8.711  0.0000E+00  0.2000E+01
     -8.510  0.0000E+00  0.2000E+01
     -8.310  0.0000E+00  0.2000E+01
     -8.109  0.0000E+00  0.2000E+01
     -7.909  0.0000E+00  0.2000E+01
     -7.708  0.0000E+00  0.2000E+01
     -7.508  0.0000E+00  0.2000E+01
     -7.307  0.0000E+00  0.2000E+01
     -7.107  0.0000E+00  0.2000E+01
     -6.906  0.0000E+00  0.2000E+01
     -6.706  0.0000E+00  0.2000E+01
     -6.505  0.0000E+00  0.2000E+01
     -6.304  0.0000E+00  0.2000E+01
     -6.104  0.0000E+00  0.2000E+01
     -5.903  0.0000E+00  0.2000E+01
     -5.703  0.0000E+00  0.2000E+01
     -5.502  0.0000E+00  0.2000E+01
     -5.302  0.0000E+00  0.2000E+01
     -5.101  0.0000E+00  0.2000E+01
     -4.901  0.0000E+00  0.2000E+01
     -4.700  0.0000E+00  0.2000E+01
     -4.500  0.0000E+00  0.2000E+01
     -4.299  0.0000E+00  0.2000E+01
     -4.099  0.0000E+00  0.2000E+01
     -3.898  0.0000E+00  0.2000E+01
     -3.697  0.0000E+00  0.2000E+01
     -3.497  0.0000E+00  0.2000E+01
     -3.296  0.0000E+00  0.2000E+01
     -3.096  0.0000E+00  0.2000E+01
     -2.895  0.0000E+00  0.2000E+01
     -2.695  0.0000E+00  0.2000E+01
     -2.494  0.0000E+00  0.2000E+01
     -2.294  0.0000E+00  0.2000E+01
     -2.093  0.0000E+00  0.2000E+01
     -1.893  0.0000E+00  0.2000E+01
     -1.692  0.0000E+00  0.2000E+01
     -1.491  0.0000E+00  0.2000E+01
     -1.291  0.0000E+00  0.2000E+01
     -1.090  0.1189E-09  0.2000E+01
     -0.890  0.2404E+00  0.2048E+01
     -0.689  0.6964E+00  0.2188E+01
     -0.489  0.3174E+00  0.2252E+01
     -0.288  0.1570E+01  0.2566E+01
     -0.088  0.2347E+01  0.3037E+01
      0.113  0.2508E+01  0.3540E+01
      0.313  0.1002E+01  0.3741E+01
      0.514  0.4472E-01  0.3750E+01
      0.714  0.1878E-10  0.3750E+01
      0.915  0.2819E+00  0.3807E+01
      1.116  0.2745E+01  0.4357E+01
      1.316  0.7130E+00  0.4500E+01
      1.517  0.1764E-05  0.4500E+01
      1.717  0.2216E+01  0.4944E+01
      1.918  0.5910E+00  0.5063E+01
      2.118  0.2111E+01  0.5486E+01
      2.319  0.2543E+01  0.5996E+01
      2.519  0.3753E+01  0.6749E+01
      2.720  0.2185E+01  0.7187E+01
      2.920  0.2238E+01  0.7636E+01
      3.121  0.1192E+01  0.7875E+01
      3.322  0.6040E+00  0.7996E+01
      3.522  0.1930E-01  0.8000E+01
      3.723  0.0000E+00  0.8000E+01
      3.923  0.0000E+00  0.8000E+01
      4.124  0.0000E+00  0.8000E+01
      4.324  0.0000E+00  0.8000E+01
      4.525  0.0000E+00  0.8000E+01
      4.725  0.0000E+00  0.8000E+01
      4.926  0.0000E+00  0.8000E+01
      5.126  0.0000E+00  0.8000E+01
      5.327  0.0000E+00  0.8000E+01
      5.527  0.0000E+00  0.8000E+01
      5.728  0.0000E+00  0.8000E+01
      5.929  0.0000E+00  0.8000E+01
      6.129  0.0000E+00  0.8000E+01
      6.330  0.0000E+00  0.8000E+01
      6.530  0.0000E+00  0.8000E+01
      6.731  0.0000E+00  0.8000E+01
      6.931  0.0000E+00  0.8000E+01
      7.132  0.0000E+00  0.8000E+01
      7.332  0.0000E+00  0.8000E+01
      7.533  0.0000E+00  0.8000E+01
      7.733  0.0000E+00  0.8000E+01
      7.934  0.0000E+00  0.8000E+01
      8.135  0.0000E+00  0.8000E+01
      8.335  0.0000E+00  0.8000E+01
      8.536  0.6055E-06  0.8000E+01
      8.736  0.2662E+00  0.8053E+01
      8.937  0.4543E-01  0.8062E+01
      9.137  0.0000E+00  0.8062E+01
      9.338  0.0000E+00  0.8062E+01
      9.538  0.0000E+00  0.8062E+01
      9.739  0.0000E+00  0.8062E+01
      9.939  0.0000E+00  0.8062E+01
     10.140  0.1722E-04  0.8063E+01
     10.340  0.8778E+00  0.8239E+01
     10.541  0.5712E-01  0.8250E+01
     10.742  0.1784E-07  0.8250E+01
     10.942  0.2008E+00  0.8290E+01
     11.143  0.8242E+00  0.8456E+01
     11.343  0.2216E+00  0.8500E+01
     11.544  0.1916E-06  0.8500E+01
     11.744  0.6810E+00  0.8637E+01
     11.945  0.2540E+00  0.8687E+01
     12.145  0.2536E-01  0.8693E+01
     12.346  0.9095E+00  0.8875E+01
     12.546  0.2864E+00  0.8932E+01
     12.747  0.1585E+01  0.9250E+01
     12.948  0.9304E+00  0.9437E+01
     13.148  0.9227E+00  0.9622E+01
     13.349  0.1556E-01  0.9625E+01
     13.549  0.9014E+00  0.9806E+01
     13.750  0.8083E+00  0.9968E+01
     13.950  0.1928E+01  0.1035E+02
     14.151  0.1021E+00  0.1037E+02
     14.351  0.0000E+00  0.1038E+02
     14.552  0.1330E-08  0.1038E+02
     14.752  0.9460E+00  0.1056E+02
     14.953  0.2794E+01  0.1112E+02
     15.153  0.2080E-01  0.1113E+02
     15.354  0.1889E+01  0.1151E+02
     15.555  0.2907E+01  0.1209E+02
     15.755  0.1105E+01  0.1231E+02
     15.956  0.6732E-01  0.1233E+02
     16.156  0.1652E+01  0.1266E+02
     16.357  0.1504E+00  0.1269E+02
     16.557  0.0000E+00  0.1269E+02
     16.758  0.8757E-06  0.1269E+02
     16.958  0.1456E+01  0.1298E+02
     17.159  0.8703E+00  0.1315E+02
     17.359  0.7671E+00  0.1331E+02
     17.560  0.2317E-01  0.1331E+02
     17.761  0.1099E-04  0.1331E+02
     17.961  0.8654E+00  0.1349E+02
     18.162  0.6960E-01  0.1350E+02
     18.362  0.2760E-12  0.1350E+02
     18.563  0.5885E-01  0.1351E+02
     18.763  0.8761E+00  0.1369E+02
     18.964  0.1612E-04  0.1369E+02
     19.164  0.4491E-05  0.1369E+02
     19.365  0.6294E+00  0.1381E+02
     19.565  0.2798E+01  0.1437E+02
     19.766  0.1464E+01  0.1467E+02
     19.966  0.9920E+00  0.1487E+02
     20.167  0.1761E+01  0.1522E+02
     20.368  0.1113E+01  0.1544E+02
     20.568  0.9034E+00  0.1562E+02
     20.769  0.3585E+00  0.1570E+02
     20.969  0.5786E+00  0.1581E+02
     21.170  0.9615E+00  0.1601E+02
     21.370  0.9087E+00  0.1619E+02
     21.571  0.1858E+01  0.1656E+02
     21.771  0.9167E-02  0.1656E+02
     21.972  0.2699E-04  0.1656E+02
     22.172  0.8887E+00  0.1674E+02
     22.373  0.4628E-01  0.1675E+02
     22.574  0.9015E+00  0.1693E+02
     22.774  0.1878E+01  0.1731E+02
     22.975  0.6362E+00  0.1744E+02
     23.175  0.1259E+01  0.1769E+02
     23.376  0.4301E-05  0.1769E+02
     23.576  0.5650E+00  0.1780E+02
     23.777  0.9816E+00  0.1800E+02
     23.977  0.1302E-01  0.1800E+02
     24.178  0.3099E+00  0.1806E+02
     24.378  0.8817E+00  0.1824E+02
     24.579  0.6769E+00  0.1837E+02
     24.779  0.3138E-02  0.1838E+02
     24.980  0.1220E+01  0.1862E+02
     25.181  0.2344E-01  0.1863E+02
     25.381  0.1450E+01  0.1892E+02
     25.582  0.1191E+01  0.1915E+02
     25.782  0.1635E+00  0.1919E+02
     25.983  0.9079E+00  0.1937E+02
     26.183  0.9620E+00  0.1956E+02
     26.384  0.3168E+00  0.1963E+02
     26.584  0.2488E+01  0.2012E+02
     26.785  0.8223E-02  0.2013E+02
     26.985  0.9290E+00  0.2031E+02
     27.186  0.9376E+00  0.2050E+02
     27.387  0.3068E+00  0.2056E+02
     27.587  0.4270E-04  0.2056E+02
     27.788  0.0000E+00  0.2056E+02
     27.988  0.0000E+00  0.2056E+02
     28.189  0.0000E+00  0.2056E+02
     28.389  0.6920E-16  0.2056E+02
     28.590  0.3355E-02  0.2056E+02
     28.790  0.6582E+00  0.2070E+02
     28.991  0.2760E+01  0.2125E+02
     29.191  0.9407E+00  0.2144E+02
     29.392  0.4791E+00  0.2153E+02
     29.592  0.4563E+00  0.2162E+02
     29.793  0.4207E-05  0.2163E+02
     29.994  0.2152E+01  0.2206E+02
     30.194  0.1544E+01  0.2237E+02
     30.395  0.1405E+01  0.2265E+02
     30.595  0.5099E+00  0.2275E+02
     30.796  0.8155E-07  0.2275E+02
     30.996  0.6525E+00  0.2288E+02
     31.197  0.1217E+01  0.2312E+02
     31.397  0.9032E+00  0.2331E+02
     31.598  0.1622E+01  0.2363E+02
     31.798  0.2151E+01  0.2406E+02
     31.999  0.1240E+01  0.2431E+02
     32.200  0.1276E+01  0.2457E+02
     32.400  0.4314E+01  0.2543E+02
     32.601  0.1266E+00  0.2546E+02
     32.801  0.2728E+01  0.2600E+02
     33.002  0.9113E+00  0.2619E+02
     33.202  0.8202E+00  0.2635E+02
     33.403  0.1673E+01  0.2669E+02
     33.603  0.1743E-05  0.2669E+02
     33.804  0.0000E+00  0.2669E+02
     34.004  0.0000E+00  0.2669E+02
     34.205  0.0000E+00  0.2669E+02
     34.405  0.0000E+00  0.2669E+02
     34.606  0.9726E-09  0.2669E+02
     34.807  0.3828E+00  0.2676E+02
     35.007  0.2422E+01  0.2725E+02
     35.208  0.3515E-03  0.2725E+02
     35.408  0.8398E+00  0.2742E+02
     35.609  0.2735E+01  0.2797E+02
     35.809  0.7939E+00  0.2813E+02
     36.010  0.3061E+00  0.2819E+02
     36.210  0.4852E-03  0.2819E+02
     36.411  0.1903E+01  0.2857E+02
     36.611  0.9010E+00  0.2875E+02
     36.812  0.1389E+00  0.2878E+02
     37.013  0.4845E+00  0.2888E+02
     37.213  0.1019E+01  0.2908E+02
     37.414  0.8570E+00  0.2925E+02
     37.614  0.9284E+00  0.2944E+02
     37.815  0.7430E+00  0.2959E+02
     38.015  0.1128E+01  0.2981E+02
     38.216  0.8498E+00  0.2998E+02
     38.416  0.8514E-01  0.3000E+02
     38.617  0.4866E-10  0.3000E+02
     38.817  0.2764E+00  0.3006E+02
     39.018  0.3751E+01  0.3081E+02
     39.218  0.2394E-01  0.3081E+02
     39.419  0.0000E+00  0.3081E+02
     39.620  0.0000E+00  0.3081E+02
     39.820  0.1038E-15  0.3081E+02
     40.021  0.5443E-02  0.3081E+02
     40.221  0.9288E+00  0.3100E+02
     40.422  0.7648E-03  0.3100E+02
     40.622  0.9274E-07  0.3100E+02
     40.823  0.2342E+00  0.3105E+02
     41.023  0.1459E+01  0.3134E+02
     41.224  0.3293E+01  0.3200E+02
     41.424  0.2263E-03  0.3200E+02
     41.625  0.0000E+00  0.3200E+02
     41.826  0.0000E+00  0.3200E+02
     42.026  0.0000E+00  0.3200E+02
     42.227  0.0000E+00  0.3200E+02
     42.427  0.0000E+00  0.3200E+02
     42.628  0.0000E+00  0.3200E+02
     42.828  0.0000E+00  0.3200E+02
     43.029  0.0000E+00  0.3200E+02
     43.229  0.0000E+00  0.3200E+02
     43.430  0.0000E+00  0.3200E+02
     43.630  0.0000E+00  0.3200E+02
     43.831  0.0000E+00  0.3200E+02
