    2    2    1    1
  0.9639684E+01  0.3009788E-09  0.3009788E-09  0.3009788E-09  0.5000000E-15
  1.000000000000000E-004
  CAR 
 automatically generated by pyflamestk   
      8     10     16
 
  0.1250000E+00  0.1250000E+00  0.1250000E+00  0.3125000E-01
    1      -13.596896   1.000000
    2        2.410197   1.000000
    3        3.255522   1.000000
    4        3.255522   1.000000
    5        8.698860   0.000000
    6       17.308385   0.000000
    7       19.317671   0.000000
    8       19.317674   0.000000
    9       23.529683   0.000000
   10       23.529684   0.000000
   11       24.862189   0.000000
   12       27.257879   0.000000
   13       28.679940   0.000000
   14       28.679941   0.000000
   15       38.891734   0.000000
   16       40.798796   0.000000
 
  0.3750000E+00  0.1250000E+00  0.1250000E+00  0.9375000E-01
    1      -12.947795   1.000000
    2        0.254490   1.000000
    3        2.401880   1.000000
    4        2.961786   1.000000
    5       11.117338   0.000000
    6       15.239350   0.000000
    7       18.616805   0.000000
    8       20.290694   0.000000
    9       22.114096   0.000000
   10       24.329329   0.000000
   11       26.407717   0.000000
   12       31.059639   0.000000
   13       32.313863   0.000000
   14       33.206463   0.000000
   15       35.573683   0.000000
   16       38.845295   0.000000
 
 -0.3750000E+00  0.1250000E+00  0.1250000E+00  0.9375000E-01
    1      -12.514171   1.000000
    2       -0.866791   1.000000
    3        2.253056   1.000000
    4        2.624966   1.000000
    5       11.722786   0.000000
    6       15.416905   0.000000
    7       17.910032   0.000000
    8       19.720983   0.000000
    9       23.697456   0.000000
   10       25.946600   0.000000
   11       26.023504   0.000000
   12       32.285335   0.000000
   13       32.870209   0.000000
   14       33.239101   0.000000
   15       35.793467   0.000000
   16       37.501890   0.000000
 
 -0.1250000E+00  0.1250000E+00  0.1250000E+00  0.9375000E-01
    1      -13.235309   1.000000
    2        1.135527   1.000000
    3        2.888608   1.000000
    4        2.891968   1.000000
    5       10.285839   0.000000
    6       15.495680   0.000000
    7       19.417796   0.000000
    8       19.904897   0.000000
    9       21.069870   0.000000
   10       24.910687   0.000000
   11       26.868945   0.000000
   12       29.950508   0.000000
   13       30.257894   0.000000
   14       30.981561   0.000000
   15       37.177388   0.000000
   16       38.948912   0.000000
 
  0.3750000E+00  0.3750000E+00  0.1250000E+00  0.9375000E-01
    1      -12.713238   1.000000
    2        0.071325   1.000000
    3        2.202691   1.000000
    4        2.433529   1.000000
    5       12.213412   0.000000
    6       13.906724   0.000000
    7       17.159956   0.000000
    8       20.779137   0.000000
    9       21.234749   0.000000
   10       27.083093   0.000000
   11       30.145197   0.000000
   12       30.398675   0.000000
   13       32.327624   0.000000
   14       34.817853   0.000000
   15       36.464708   0.000000
   16       37.868258   0.000000
 
 -0.3750000E+00  0.3750000E+00  0.1250000E+00  0.1875000E+00
    1      -12.303927   1.000000
    2       -0.042094   1.000000
    3        0.951558   1.000000
    4        2.025487   1.000000
    5       13.757344   0.000000
    6       14.765957   0.000000
    7       15.560520   0.000000
    8       19.546177   0.000000
    9       22.990472   0.000000
   10       26.443897   0.000000
   11       29.974363   0.000000
   12       31.398867   0.000000
   13       32.667362   0.000000
   14       36.333068   0.000000
   15       38.880442   0.000000
   16       41.085324   0.000000
 
 -0.1250000E+00  0.3750000E+00  0.1250000E+00  0.1875000E+00
    1      -12.558829   1.000000
    2       -0.246762   1.000000
    3        1.689201   1.000000
    4        2.523723   1.000000
    5       12.582616   0.000000
    6       14.788265   0.000000
    7       16.931219   0.000000
    8       20.117022   0.000000
    9       22.695773   0.000000
   10       25.354346   0.000000
   11       28.862471   0.000000
   12       31.629630   0.000000
   13       32.232596   0.000000
   14       34.881239   0.000000
   15       35.523373   0.000000
   16       41.005903   0.000000
 
 -0.3750000E+00 -0.3750000E+00  0.1250000E+00  0.9375000E-01
    1      -12.339751   1.000000
    2       -0.404264   1.000000
    3        1.687600   1.000000
    4        2.140992   1.000000
    5       12.852669   0.000000
    6       13.485474   0.000000
    7       16.007308   0.000000
    8       21.472125   0.000000
    9       21.484264   0.000000
   10       28.914263   0.000000
   11       29.390880   0.000000
   12       31.962957   0.000000
   13       32.659384   0.000000
   14       37.793121   0.000000
   15       38.168603   0.000000
   16       41.096282   0.000000
 
  0.3750000E+00  0.3750000E+00  0.3750000E+00  0.3125000E-01
    1      -12.749554   1.000000
    2       -0.600274   1.000000
    3        2.818790   1.000000
    4        2.818790   1.000000
    5       10.929026   0.000000
    6       15.429950   0.000000
    7       19.524223   0.000000
    8       19.524224   0.000000
    9       24.069714   0.000000
   10       24.441198   0.000000
   11       24.441201   0.000000
   12       31.898372   0.000000
   13       33.209883   0.000000
   14       33.209885   0.000000
   15       36.838954   0.000000
   16       36.838958   0.000000
 
 -0.3750000E+00  0.3750000E+00  0.3750000E+00  0.9375000E-01
    1      -12.387184   1.000000
    2       -0.283490   1.000000
    3        1.056990   1.000000
    4        2.493697   1.000000
    5       13.072762   0.000000
    6       15.230527   0.000000
    7       16.121163   0.000000
    8       20.426226   0.000000
    9       22.510031   0.000000
   10       25.548585   0.000000
   11       29.074776   0.000000
   12       31.613373   0.000000
   13       32.035922   0.000000
   14       35.363461   0.000000
   15       37.237344   0.000000
   16       40.109843   0.000000
