# ['Ni']

20 atoms
1 atom types

    0.0000     8.1642 xlo xhi
    0.0000     8.1642 ylo yhi
    0.0000    81.6425 zlo zhi

    0.0000    -0.0000     0.0000 xy xz yz

Atoms

1 1     0.0000     0.0000     0.0000
2 1     4.0821     4.0821     0.0000
3 1     4.0821     0.0000     4.0821
4 1     0.0000     4.0821     4.0821
5 1     0.0000     0.0000     8.1642
6 1     4.0821     4.0821     8.1642
7 1     4.0821     0.0000    12.2464
8 1     0.0000     4.0821    12.2464
9 1     0.0000     0.0000    16.3285
10 1     4.0821     4.0821    16.3285
11 1     4.0821     0.0000    20.4106
12 1     0.0000     4.0821    20.4106
13 1     0.0000     0.0000    24.4927
14 1     4.0821     4.0821    24.4927
15 1     4.0821     0.0000    28.5749
16 1     0.0000     4.0821    28.5749
17 1     0.0000     0.0000    32.6570
18 1     4.0821     4.0821    32.6570
19 1     4.0821     0.0000    36.7391
20 1     0.0000     4.0821    36.7391
