    2    2    1    1
  0.9639684E+01  0.3009788E-09  0.3009788E-09  0.3009788E-09  0.5000000E-15
  1.000000000000000E-004
  CAR 
 automatically generated by pyflamestk   
      8     10     16
 
  0.1250000E+00  0.1250000E+00  0.1250000E+00  0.3125000E-01
    1      -13.597484   1.000000
    2        2.410128   1.000000
    3        3.255788   1.000000
    4        3.255789   1.000000
    5        8.698811   0.000000
    6       17.308879   0.000000
    7       19.318161   0.000000
    8       19.318164   0.000000
    9       23.529833   0.000000
   10       23.529834   0.000000
   11       24.862606   0.000000
   12       27.258228   0.000000
   13       28.680324   0.000000
   14       28.680325   0.000000
   15       38.891984   0.000000
   16       40.799624   0.000000
 
  0.3750000E+00  0.1250000E+00  0.1250000E+00  0.9375000E-01
    1      -12.948448   1.000000
    2        0.254652   1.000000
    3        2.402007   1.000000
    4        2.961718   1.000000
    5       11.117512   0.000000
    6       15.240034   0.000000
    7       18.617188   0.000000
    8       20.291001   0.000000
    9       22.114535   0.000000
   10       24.329835   0.000000
   11       26.408046   0.000000
   12       31.059875   0.000000
   13       32.314140   0.000000
   14       33.206769   0.000000
   15       35.573772   0.000000
   16       38.845554   0.000000
 
 -0.3750000E+00  0.1250000E+00  0.1250000E+00  0.9375000E-01
    1      -12.514878   1.000000
    2       -0.866871   1.000000
    3        2.253182   1.000000
    4        2.625001   1.000000
    5       11.723019   0.000000
    6       15.417107   0.000000
    7       17.910330   0.000000
    8       19.721313   0.000000
    9       23.697908   0.000000
   10       25.947264   0.000000
   11       26.023844   0.000000
   12       32.285208   0.000000
   13       32.870475   0.000000
   14       33.239124   0.000000
   15       35.793589   0.000000
   16       37.502000   0.000000
 
 -0.1250000E+00  0.1250000E+00  0.1250000E+00  0.9375000E-01
    1      -13.235930   1.000000
    2        1.135701   1.000000
    3        2.888713   1.000000
    4        2.892144   1.000000
    5       10.286004   0.000000
    6       15.496212   0.000000
    7       19.418194   0.000000
    8       19.905415   0.000000
    9       21.070288   0.000000
   10       24.910900   0.000000
   11       26.869312   0.000000
   12       29.950847   0.000000
   13       30.258303   0.000000
   14       30.981906   0.000000
   15       37.177511   0.000000
   16       38.949343   0.000000
 
  0.3750000E+00  0.3750000E+00  0.1250000E+00  0.9375000E-01
    1      -12.713921   1.000000
    2        0.071425   1.000000
    3        2.202837   1.000000
    4        2.433685   1.000000
    5       12.213657   0.000000
    6       13.907214   0.000000
    7       17.160323   0.000000
    8       20.779765   0.000000
    9       21.235337   0.000000
   10       27.083340   0.000000
   11       30.145505   0.000000
   12       30.398715   0.000000
   13       32.328005   0.000000
   14       34.818259   0.000000
   15       36.464849   0.000000
   16       37.868375   0.000000
 
 -0.3750000E+00  0.3750000E+00  0.1250000E+00  0.1875000E+00
    1      -12.304665   1.000000
    2       -0.042210   1.000000
    3        0.951548   1.000000
    4        2.025606   1.000000
    5       13.757746   0.000000
    6       14.766177   0.000000
    7       15.561014   0.000000
    8       19.546416   0.000000
    9       22.990905   0.000000
   10       26.444333   0.000000
   11       29.974180   0.000000
   12       31.398998   0.000000
   13       32.667860   0.000000
   14       36.333191   0.000000
   15       38.880671   0.000000
   16       41.085554   0.000000
 
 -0.1250000E+00  0.3750000E+00  0.1250000E+00  0.1875000E+00
    1      -12.559532   1.000000
    2       -0.246861   1.000000
    3        1.689210   1.000000
    4        2.523727   1.000000
    5       12.582794   0.000000
    6       14.788677   0.000000
    7       16.931513   0.000000
    8       20.117353   0.000000
    9       22.696200   0.000000
   10       25.354732   0.000000
   11       28.862794   0.000000
   12       31.629750   0.000000
   13       32.232680   0.000000
   14       34.881342   0.000000
   15       35.523624   0.000000
   16       41.006140   0.000000
 
 -0.3750000E+00 -0.3750000E+00  0.1250000E+00  0.9375000E-01
    1      -12.340485   1.000000
    2       -0.404437   1.000000
    3        1.687677   1.000000
    4        2.141068   1.000000
    5       12.853052   0.000000
    6       13.485663   0.000000
    7       16.007660   0.000000
    8       21.472623   0.000000
    9       21.484860   0.000000
   10       28.913848   0.000000
   11       29.390987   0.000000
   12       31.963293   0.000000
   13       32.659848   0.000000
   14       37.793199   0.000000
   15       38.168912   0.000000
   16       41.096575   0.000000
 
  0.3750000E+00  0.3750000E+00  0.3750000E+00  0.3125000E-01
    1      -12.750230   1.000000
    2       -0.600275   1.000000
    3        2.818550   1.000000
    4        2.818551   1.000000
    5       10.929127   0.000000
    6       15.430411   0.000000
    7       19.524516   0.000000
    8       19.524518   0.000000
    9       24.070009   0.000000
   10       24.441673   0.000000
   11       24.441676   0.000000
   12       31.898357   0.000000
   13       33.209949   0.000000
   14       33.209951   0.000000
   15       36.839074   0.000000
   16       36.839078   0.000000
 
 -0.3750000E+00  0.3750000E+00  0.3750000E+00  0.9375000E-01
    1      -12.387910   1.000000
    2       -0.283681   1.000000
    3        1.056970   1.000000
    4        2.493687   1.000000
    5       13.073071   0.000000
    6       15.230746   0.000000
    7       16.121458   0.000000
    8       20.426613   0.000000
    9       22.510242   0.000000
   10       25.549073   0.000000
   11       29.075062   0.000000
   12       31.613372   0.000000
   13       32.036072   0.000000
   14       35.363642   0.000000
   15       37.237463   0.000000
   16       40.110033   0.000000
