LAMMPS (10 Feb 2015)
# ---- initialize simulations
clear
units metal
dimension 3
boundary p p p
atom_style charge
atom_modify map array
# ---- create atoms
read_data /Users/eugeneragasa/pyflamestk_git/pypospack/tests/tests_integration/workflow/WorkflowLammpsThermalExpansion/param_2632/MgO_NaCl_unit.npt.T1400/lammps.structure
  triclinic box = (0 0 0) to (4.2565 4.2565 4.2565) with tilt (0 0 0)
  1 by 1 by 1 MPI processor grid
  reading atoms ...
  8 atoms
# ---- define interatomic potential
include potential.mod
mass 1 24.305
mass 2 15.999

group Mg type 1
4 atoms in group Mg
group O type 2
4 atoms in group O

set group Mg charge 1.63285961235
  4 settings made for charge
set group O charge -1.63285961235
  4 settings made for charge

variable R_cut equal 10.0

pair_style buck/coul/long ${R_cut}
pair_style buck/coul/long 10
pair_coeff 1 1 0.0 0.5 0.0 ${R_cut}
pair_coeff 1 1 0.0 0.5 0.0 10
pair_coeff 1 2 1437.07173936 0.281984725072 0.0 ${R_cut}
pair_coeff 1 2 1437.07173936 0.281984725072 0.0 10
pair_coeff 2 2 17907.6681412 0.158842179647 12.0518239093 ${R_cut}
pair_coeff 2 2 17907.6681412 0.158842179647 12.0518239093 10

kspace_style pppm 1.0e-5

neighbor 1.0 bin
neigh_modify every 1 delay 0 check yes
# ---- define settings
compute eng all pe/atom
compute eatoms all reduce sum c_eng
# ---- run minimization
reset_timestep 0
fix 1 all box/relax iso 0.0 vmax 0.001
thermo 10
thermo_style custom step pe lx ly lz xy xz yz press pxx pyy pzz pxy pxz pyz c_eatoms
min_style cg
minimize 1e-25 1e-25 5000 10000
PPPM initialization ...
  G vector (1/distance) = 0.352629
  grid = 8 8 8
  stencil order = 5
  estimated absolute RMS force accuracy = 3.86465e-05
  estimated relative force accuracy = 2.68385e-06
  using double precision FFTs
  3d grid and FFT values/proc = 3375 512
Neighbor list info ...
  1 neighbor list requests
  update every 1 steps, delay 0 steps, check yes
  master list distance cutoff = 11
Memory usage per processor = 4.06549 Mbytes
Step PotEng Lx Ly Lz Xy Xz Yz Press Pxx Pyy Pzz Pxy Pxz Pyz eatoms 
       0   -108.26668       4.2565       4.2565       4.2565            0            0            0     68174.25     68174.25     68174.25     68174.25 -1.8708973e-11 1.9918278e-11 -1.4539535e-10   -108.26668 
      10   -108.32672     4.299065     4.299065     4.299065            0            0            0    15974.818    15974.818    15974.818    15974.818 2.7247293e-10 7.4247233e-11 1.7340321e-10   -108.32672 
      14   -108.33064    4.3118345    4.3118345    4.3118345            0            0            0    1605.1095    1605.1095    1605.1095    1605.1095 -5.9694499e-11 -6.7982128e-11 4.9253128e-12   -108.33064 
Loop time of 0.0151021 on 1 procs for 14 steps with 8 atoms

Minimization stats:
  Stopping criterion = linesearch alpha is zero
  Energy initial, next-to-last, final = 
        -108.266678614      -108.33063925      -108.33063925
  Force two-norm initial, final = 9.8444 0.23785
  Force max component initial, final = 9.8444 0.237844
  Final line search alpha, max atom move = 1.28309e-07 3.05176e-08
  Iterations, force evaluations = 14 44

Pair  time (%) = 0.00405931 (26.8791)
Kspce time (%) = 0.0023644 (15.656)
Neigh time (%) = 0 (0)
Comm  time (%) = 0.00047636 (3.15426)
Outpt time (%) = 1.5974e-05 (0.105773)
Other time (%) = 0.0081861 (54.2049)

Nlocal:    8 ave 8 max 8 min
Histogram: 1 0 0 0 0 0 0 0 0 0
Nghost:    2189 ave 2189 max 2189 min
Histogram: 1 0 0 0 0 0 0 0 0 0
Neighs:    2344 ave 2344 max 2344 min
Histogram: 1 0 0 0 0 0 0 0 0 0

Total # of neighbors = 2344
Ave neighs/atom = 293
Neighbor list builds = 0
Dangerous builds = 0
unfix 1
# ---- define output variables ----
variable natoms equal "count(all)"
variable tot_energy equal "c_eatoms"
variable length_x equal "lx"
variable length_y equal "ly"
variable length_z equal "lz"
variable tilt_xy equal "xy"
variable tilt_xz equal "xz"
variable tilt_yz equal "yz"
variable tot_press equal "press"
variable press_xx equal "pxx"
variable press_yy equal "pyy"
variable press_zz equal "pzz"
variable press_xy equal "pxy"
variable press_xz equal "pxz"
variable press_yz equal "pyz"

# ---- output ----
print "pypospack:output_section:begin"
pypospack:output_section:begin
print "tot_energy = ${tot_energy}"
tot_energy = -108.330639250266
print "num_atoms = ${natoms}"
num_atoms = 8
print "xx = ${length_x}"
xx = 4.3118345
print "yy = ${length_y}"
yy = 4.3118345
print "zz = ${length_z}"
zz = 4.3118345
print "xy = ${tilt_xy}"
xy = 0
print "xz = ${tilt_xz}"
xz = 0
print "yz = ${tilt_yz}"
yz = 0
print "tot_press = ${tot_press}"
tot_press = 1605.10951764203
print "pxx = ${press_xx}"
pxx = 1605.10951764176
print "pyy = ${press_yy}"
pyy = 1605.10951764198
print "pzz = ${press_zz}"
pzz = 1605.10951764233
print "pxy = ${press_xy}"
pxy = -5.96944985898881e-11
print "pxz = ${press_xz}"
pxz = -6.79821282837662e-11
print "pyz = ${press_yz}"
pyz = 4.92531279854496e-12
print "pypospack:output_section:done"
pypospack:output_section:done
print "pypospack:lammps_sim:done"
pypospack:lammps_sim:done
#------------------------------------------------------------------------------
# RUN THERMOSTAT
# running using an NPT Nose-Hoover style thermostat
#------------------------------------------------------------------------------
variable tempdamp equal 0.1
variable pressdamp equal 1.0
# set initial velocities
velocity all create 1400 8590425 mom yes dist gaussian loop all
# fix for Nose-Hoover style thermostat
fix 20 all npt temp 1400 1400 0.1 aniso 0.0 0.0 1.0 drag 1.0 couple xyz
variable boxx equal lx
variable boxy equal ly
variable boxz equal lz
variable boxp equal press
variable boxt equal temp
# calculate averages every 10000 steps
reset_timestep 0
fix 21 all ave/time 10 10 100 v_boxx v_boxy v_boxz v_boxp v_boxt file lattice.out
thermo_style custom step temp pe ke etotal press lx ly lz press pxx pyy pzz pxy pxz pyz vol
thermo_modify flush yes
thermo 100
run 100000
PPPM initialization ...
  G vector (1/distance) = 0.352078
  grid = 8 8 8
  stencil order = 5
  estimated absolute RMS force accuracy = 3.96373e-05
  estimated relative force accuracy = 2.75266e-06
  using double precision FFTs
  3d grid and FFT values/proc = 3375 512
Memory usage per processor = 3.06549 Mbytes
Step Temp PotEng KinEng TotEng Press Lx Ly Lz Press Pxx Pyy Pzz Pxy Pxz Pyz Volume 
       0         1400   -108.33065    1.2667494    -107.0639    18481.656    4.3118345    4.3118345    4.3118345    18481.656    19090.561    28600.843    7753.5641    885.27953    3563.0886   -1375.1729    80.165268 
     100    606.55789   -107.45579   0.54882633   -106.90697    11545.993    4.3455753    4.3455753    4.3455753    11545.993    12315.558     36693.97   -14371.549   -1287.7286    5977.7683    942.23872    82.061949 
     200    855.37217   -107.32903   0.77395871   -106.55507   -19040.447    4.3863155    4.3863155    4.3863155   -19040.447   -17882.303    8344.4664   -47583.503    1418.4188    2590.4401   -3083.8796    84.391674 
     300     989.0447   -107.14728   0.89490843   -106.25237   -3914.8429    4.3816057    4.3816057    4.3816057   -3914.8429   -3191.5483    33403.772   -41956.752    9836.2117    8336.8803    2396.9043    84.120118 
     400    1219.4394   -107.10938    1.1033744     -106.006    19475.311    4.3542151    4.3542151    4.3542151    19475.311    68870.025    709.82092   -11153.913   -25471.278    22962.386    -405.8668    82.552386 
     500     1489.529   -107.22117    1.3477572   -105.87342    30013.375    4.3688521    4.3688521    4.3688521    30013.375   -4044.1539     118116.4   -24032.121   -20328.938   -6227.1077    12164.844    83.387706 
     600    1344.8361   -107.01165     1.216836   -105.79482   -19574.606    4.3953754    4.3953754    4.3953754   -19574.606    18901.355   -12433.785   -65191.387    2120.0296    16646.406    10652.036    84.915686 
     700    1461.4067   -107.06123    1.3223115   -105.73892   -29548.579    4.3989215    4.3989215    4.3989215   -29548.579   -49353.608    -3595.638    -35696.49   -6291.8067     372.4833   -4492.7447    85.121378 
     800    1754.7322   -107.30855    1.5877186   -105.72083    3043.2614    4.3849516    4.3849516    4.3849516    3043.2614    21906.113    28522.125   -41298.454    12861.934    4444.9006    192.72967    84.312973 
     900    1403.9908   -107.01425    1.2703604   -105.74389   -5007.6304    4.3795259    4.3795259    4.3795259   -5007.6304   -58957.579    77228.136   -33293.448   -3003.5672    4463.6939    11044.087    84.000388 
    1000      1568.16   -107.17534    1.4189042   -105.75643    -1793.202    4.3743949    4.3743949    4.3743949    -1793.202   -16970.518    39076.235   -27485.324   -5639.8441   -6253.9209   -5454.8453    83.705496 
    1100    1079.3566   -106.74456   0.97662452   -105.76794    4292.9943    4.3830791    4.3830791    4.3830791    4292.9943     29751.31    9966.5096   -26838.837    -11626.45    4837.9841    12135.591    84.205011 
    1200    1580.3135   -107.18798    1.4299008   -105.75808   -21002.613    4.3864804    4.3864804    4.3864804   -21002.613    -30975.72   -7427.4317   -24604.687   -24918.076   -8094.7459   -1317.0276    84.401191 
    1300    1969.7329   -107.52204    1.7822557   -105.73979   -216.70068     4.375182     4.375182     4.375182   -216.70068   -14518.238    19039.519   -5171.3832    13318.852    4287.3227     5357.435    83.750683 
    1400    1066.4229   -106.72188   0.96492187   -105.75695    15430.707    4.3803387    4.3803387    4.3803387    15430.707    10642.841    46867.642   -11218.363   -10349.911    -3637.203    24750.099    84.047165 
    1500    1097.8493   -106.75058   0.99335716   -105.75722   -11236.588    4.3899572    4.3899572    4.3899572   -11236.588   -19654.767    17706.597   -31761.595   -7863.8459   -3441.8652   -4441.4482    84.602043 
    1600    1439.3014   -107.04485    1.3023102   -105.74254   -7311.5467    4.3790957    4.3790957    4.3790957   -7311.5467   -33337.888     32429.29   -21026.042    17716.572   -3315.9329   -1549.9483    83.975635 
    1700     1474.138   -107.09312     1.333831   -105.75929   -18248.695     4.374329     4.374329     4.374329   -18248.695   -33477.681   -5829.0018   -15439.403   -31594.783   -2880.1905    12719.568    83.701712 
    1800    1614.2691   -107.22433    1.4606246   -105.76371    13485.013    4.3751218    4.3751218    4.3751218    13485.013    275.05674    80202.114   -40022.131   -3051.9358    -9668.786     -15160.3    83.747227 
    1900    733.37781    -106.4396   0.66357565   -105.77603    7689.3955    4.3839892    4.3839892    4.3839892    7689.3955   -18037.254    53817.623   -12712.183    -16706.59   -8840.6651    8137.7538    84.257471 
    2000    1392.0471   -107.02714    1.2595535   -105.76759   -17461.879    4.3884229    4.3884229    4.3884229   -17461.879   -8196.9215   -39199.218   -4989.4976   -10227.177   -4986.2719    13466.391    84.513367 
    2100    2038.6976   -107.60689    1.8446564   -105.76223   -3404.4832    4.3715897    4.3715897    4.3715897   -3404.4832   -39922.395    45341.144   -15632.199   -1819.7875   -8727.5177   -3284.3479    83.544559 
    2200     1371.621   -107.02403    1.2410715   -105.78296    4834.8542    4.3687544    4.3687544    4.3687544    4834.8542   -29869.921    47820.461   -3445.9766   -25986.825   -3666.4156    774.46007    83.382111 
    2300    1434.5728    -107.0897    1.2980316   -105.79167    3588.8614    4.3922282    4.3922282    4.3922282    3588.8614   -21771.022    54970.613   -22433.007    15412.668   -3692.0665   -24520.313    84.733413 
    2400    1030.5678   -106.70794   0.93247943   -105.77546    -29772.21    4.4075193    4.4075193    4.4075193    -29772.21   -89325.285    40155.536   -40146.881   -15014.024   -335.86319    953.83827    85.621467 
    2500    2044.9204   -107.61322     1.850287   -105.76294   -12041.797    4.3752658    4.3752658    4.3752658   -12041.797   -36119.538    24096.626   -24102.478     949.6542   -3313.3368    999.89032    83.755501 
    2600    1580.4691   -107.22438    1.4300416   -105.79434    22427.266     4.364792     4.364792     4.364792    22427.266   -6666.3334    64875.793    9072.3389   -8051.1717    2267.3364    18443.514    83.155441 
    2700    1296.1916   -107.00746    1.1728214   -105.83464   -18943.862     4.406989     4.406989     4.406989   -18943.862   -55899.272    8584.6193   -9516.9328   -812.97755    1647.7299   -4788.5759    85.590564 
    2800      727.983   -106.45329   0.65869432    -105.7946     17594.09      4.41376      4.41376      4.41376     17594.09   -45417.443    117989.83   -19790.119    18620.415    2720.4081   -22869.027    85.985681 
    2900    1580.7782   -107.20012    1.4303213    -105.7698    1656.7368    4.3799012    4.3799012    4.3799012    1656.7368   -4707.6216    9244.8842    432.94786   -1336.5752    609.67189   -19680.287    84.021984 
    3000    1650.7698   -107.27189    1.4936512   -105.77824    13142.414    4.3805477    4.3805477    4.3805477    13142.414   -17382.039    87219.529   -30410.247   -23707.614    -2471.078    12134.021    84.059195 
    3100     1158.631   -106.83499    1.0483537   -105.78663   -23735.268    4.4053723    4.4053723    4.4053723   -23735.268   -41356.028    19388.319   -49238.095    14204.717   -5332.7589    2319.2907    85.496404 
    3200    1332.4519   -106.96814    1.2056305   -105.76251   -12554.706    4.3969726    4.3969726    4.3969726   -12554.706    -48193.48    41438.227   -30908.865    1718.0018   -4464.3696    15166.697     85.00829 
    3300    1666.3167   -107.26401    1.5077183   -105.75629   -12299.576    4.3816224    4.3816224    4.3816224   -12299.576   -18238.822    9986.4743   -28646.379    2751.0916   -7758.3207    18970.999    84.121083 
    3400    1315.6897   -106.96547    1.1904637   -105.77501   -2380.2795    4.3923857    4.3923857    4.3923857   -2380.2795   -53396.111    45448.458    806.81412   -3720.0385    3927.6331   -24520.082    84.742526 
    3500    1150.2299   -106.81099    1.0407522   -105.77024    2804.7756    4.4025713    4.4025713    4.4025713    2804.7756   -40602.962    68605.081   -19587.793    16561.727   -2016.6786   -6755.9062     85.33343 
    3600    1296.5022   -106.93036    1.1731025   -105.75726    16149.978    4.3904708    4.3904708    4.3904708    16149.978    33376.199     32076.22   -17002.485   -1228.8062    5723.8991    496.61929    84.631739 
    3700    1841.0061   -107.43576     1.665781   -105.76998   -10589.581    4.3972429    4.3972429    4.3972429   -10589.581   -11324.189    14608.579   -35053.133   -6313.8012    9864.0349     960.0268    85.023966 
    3800    1475.2206   -107.10205    1.3348106   -105.76724    644.17801    4.4017227    4.4017227    4.4017227    644.17801   -33410.929    86071.415   -50727.952    9319.0001   -2051.3173    22504.913    85.284091 
    3900    878.45847   -106.56471   0.79484768   -105.76986    41641.843    4.3858073    4.3858073    4.3858073    41641.843    1432.3937    126092.12   -2598.9849   -9089.4752    3690.7743    7806.1222    84.362346 
    4000    1707.3507   -107.32237    1.5448468   -105.77753   -8912.7171    4.3979131    4.3979131    4.3979131   -8912.7171   -10302.653    4883.0491   -21318.547    12894.481   -531.02334    13299.456    85.062853 
    4100    1395.4124   -107.03642    1.2625985   -105.77382   -28698.768    4.4049121    4.4049121    4.4049121   -28698.768   -46562.218    30905.747   -70439.833    14052.828   -233.02256   -6289.4323    85.469613 
    4200    1422.3412   -107.05134    1.2869642   -105.76438     7452.796    4.3921467    4.3921467    4.3921467     7452.796    -7598.677    84783.731   -54826.666   -2558.2219    -10937.22     5941.984    84.728691 
    4300    1158.3755   -106.82263    1.0481225   -105.77451    13435.643    4.3833907    4.3833907    4.3833907    13435.643   -53123.938     128364.8   -34933.934   -6366.8971    5752.9432   -1997.2987    84.222971 
    4400     1137.274   -106.83133    1.0290294    -105.8023   -18675.528    4.3966585    4.3966585    4.3966585   -18675.528   -42769.471     28667.84   -41924.952     6771.593    3141.9186   -9435.1564    84.990075 
    4500    1451.0371   -107.09291    1.3129288   -105.77998    9068.7483    4.3925299    4.3925299    4.3925299    9068.7483   -15769.245    53663.804   -10688.314    3968.3369   -241.41574    13811.446    84.750871 
    4600      1147.56   -106.81774    1.0383364    -105.7794    24603.512    4.3949969    4.3949969    4.3949969    24603.512    5934.8601    66469.039    1406.6372   -22908.135    1359.1447    16777.193    84.893749 
    4700    1563.1996   -107.17816    1.4144159   -105.76375   -15173.912    4.4059926    4.4059926    4.4059926   -15173.912   -3479.5445   -24395.113   -17647.079   -3434.5038   -4252.0822   -4218.5228    85.532522 
    4800     860.6315    -106.5332   0.77871747   -105.75448    12191.274    4.3981765    4.3981765    4.3981765    12191.274   -48258.284    58715.811    26116.296    16466.354    10967.133    3628.3023    85.078133 
    4900    1733.8219   -107.31687    1.5687985   -105.74807    4493.7261    4.3882475    4.3882475    4.3882475    4493.7261   -43024.087    16091.496     40413.77   -3158.1899    5719.8166   -26109.032    84.503239 
    5000    1380.0697   -107.02344    1.2487161   -105.77472    5720.2406    4.4027857    4.4027857    4.4027857    5720.2406   -35020.404    13024.681    39156.445    14037.919    21373.884    1794.9643    85.345896 
    5100    1062.6626   -106.72615   0.96151949   -105.76463    10488.534    4.4094742    4.4094742    4.4094742    10488.534   -22053.483    34526.467    18992.618     3122.592    11270.718    9605.2989    85.735448 
    5200    1475.9554   -107.06692    1.3354755   -105.73144    7136.6728    4.4029833    4.4029833    4.4029833    7136.6728   -26422.878    70525.839   -22692.942   -6255.2942     5541.927    10433.386    85.357387 
    5300    1356.6239    -106.9507    1.2275018    -105.7232     10801.71    4.3989028    4.3989028    4.3989028     10801.71    50057.685    21040.049   -38692.605   -21637.335    3313.2936    843.45233    85.120291 
    5400    1461.9225   -107.04573    1.3227782   -105.72295    7379.1876    4.4005108    4.4005108    4.4005108    7379.1876     197.9721    12066.995     9872.596    -1288.582    938.42266    -901.2227    85.213669 
    5500    1444.1506   -107.03401    1.3066978   -105.72731   -25638.203    4.4147998    4.4147998    4.4147998   -25638.203   -21738.675   -43952.076   -11223.858    472.94469   -2489.6457    2824.9258    86.046468 
    5600    1758.0166   -107.29947    1.5906904   -105.70878   -23669.872    4.4194521    4.4194521    4.4194521   -23669.872   -19594.637   -37278.618   -14136.362   -7825.2998    6159.2796   -6819.6118    86.318777 
    5700    1418.0011   -106.98209    1.2830372   -105.69906    6752.8691    4.4060839    4.4060839    4.4060839    6752.8691    1084.1692    759.74713    18414.691   -8720.1311    2472.9585   -7447.7119    85.537839 
    5800     1010.982   -106.62732   0.91475778   -105.71256    31782.889    4.4011104    4.4011104    4.4011104    31782.889    48716.919   -14492.597    61124.346   -355.97283   -3353.4358    12815.848    85.248506 
    5900    1174.6812    -106.7945    1.0628762   -105.73163    18945.943    4.4090826    4.4090826    4.4090826    18945.943   -61150.114    23542.548    94445.393    11021.031    5518.9791    21601.595    85.712609 
    6000    1425.1601   -107.02422    1.2895148   -105.73471    2498.8381    4.4095354    4.4095354    4.4095354    2498.8381   -49682.907   -35924.898    93104.319    5043.6954   -4206.7332    16855.811    85.739017 
    6100    1359.3141   -106.96709     1.229936   -105.73715    11672.115    4.4035567    4.4035567    4.4035567    11672.115    2896.8391    33313.636   -1194.1312    9184.5717   -10388.952    11999.099    85.390742 
    6200    1699.9629   -107.27983    1.5381622   -105.74167   -27734.602     4.414075     4.414075     4.414075   -27734.602   -42036.987    16745.466   -57912.284    8302.2451   -6475.4346   -4538.2128    86.004095 
    6300    1341.0926   -106.93532    1.2134488   -105.72187   -12132.009    4.4183045    4.4183045    4.4183045   -12132.009    -22925.97    38047.174   -51517.231    4080.4417    335.87682   -5229.8777    86.251554 
    6400    1730.1579   -107.26086    1.5654832   -105.69537   -15298.628    4.4049278    4.4049278    4.4049278   -15298.628   -38808.078      51179.8   -58267.605    1463.5859    1963.1606   -10315.526    85.470528 
    6500    1340.1287   -106.92165    1.2125766   -105.70907   -6607.9386    4.4035634    4.4035634    4.4035634   -6607.9386    42789.513   -15309.409    -47303.92   -4596.2456   -1527.2857   -7834.6326    85.391128 
    6600     1796.617   -107.34666    1.6256168   -105.72104   -36505.456    4.4126125    4.4126125    4.4126125   -36505.456   -14692.733   -40438.851   -54384.782    344.68953      847.831   -8298.4091    85.918635 
    6700    1588.8642   -107.15142    1.4376377   -105.71378   -7966.5783    4.4158174    4.4158174    4.4158174   -7966.5783    2806.3539   -29280.062    2573.9734    8700.8587     3419.687    3178.8116    86.105978 
    6800    848.75278   -106.47878   0.76796935   -105.71081    167.81451    4.4148648    4.4148648    4.4148648    167.81451    27690.884   -27575.218    387.77744   -15337.063     6363.814   -722.58065    86.050267 
    6900    1196.4193    -106.7747    1.0825454   -105.69216    8742.2564    4.3998709    4.3998709    4.3998709    8742.2564   -5697.8735   -1426.0697    33350.712    1177.0878    20502.839    15651.983    85.176502 
    7000    2026.7461   -107.54094    1.8338424   -105.70709   -19078.824    4.3998364    4.3998364    4.3998364   -19078.824   -29705.277   -28020.237    489.04231    6202.2632   -13367.974   -13222.288    85.174496 
    7100     1050.472   -106.67981   0.95048914   -105.72932   -12027.388    4.4160082    4.4160082    4.4160082   -12027.388   -34942.029    3114.0559   -4254.1921   -10598.314   -1981.2217    8991.5844    86.117144 
    7200    1269.3602   -106.85995    1.1485438    -105.7114    11836.545    4.3982345    4.3982345    4.3982345    11836.545     16111.83    5943.6338    13454.172    7602.0299   -11395.613    4666.9872    85.081503 
    7300    1522.0476   -107.10215    1.3771807   -105.72497    150.46229    4.3809755    4.3809755    4.3809755    150.46229   -20082.559    5046.6158     15487.33   -6342.0439    4723.2565   -2219.1612    84.083829 
    7400    1395.0013    -107.0142    1.2622265   -105.75197    15015.174    4.3983048    4.3983048    4.3983048    15015.174   -12818.255    23332.872    34530.903    6624.9088    1315.5426    7017.1105    85.085581 
    7500    1700.6389   -107.28087    1.5387739   -105.74209   -37970.693    4.4138812    4.4138812    4.4138812   -37970.693   -43225.669   -34518.584   -36167.825    -22096.67    4346.8796    -5056.576    85.992765 
    7600     1302.974   -106.91176    1.1789582    -105.7328    10461.663    4.3949211    4.3949211    4.3949211    10461.663   -18039.282    41824.629    7599.6436    7059.5208    7611.8439    6694.7859     84.88936 
    7700    1476.4594   -107.07093    1.3359315     -105.735    30039.659    4.3859529    4.3859529    4.3859529    30039.659    26141.668    14622.389    49354.921    18820.027   -19194.455   -6641.2526    84.370748 
    7800    1381.7383   -107.01109    1.2502259   -105.76086    16141.427    4.4016649    4.4016649    4.4016649    16141.427   -5349.5558    35073.011    18700.824   -13657.354    87.962534   -3593.7256    85.280736 
    7900     1099.092     -106.748   0.99448155   -105.75352    5036.6625    4.4112487    4.4112487    4.4112487    5036.6625   -3498.5755      10665.2    7943.3635    5043.5255    12900.014    16441.028    85.838997 
    8000    1632.1583   -107.21695    1.4768111   -105.74014   -18565.618    4.3928843    4.3928843    4.3928843   -18565.618   -25252.287   -35477.835    5033.2666   -14398.341   -4929.5867    2601.4432    84.771391 
    8100     1451.794   -107.05243    1.3136138   -105.73881    34264.177    4.3744385    4.3744385    4.3744385    34264.177    10369.168    70271.023    22152.338    3142.8128    12794.087   -4151.2984    83.707995 
    8200    1614.0617   -107.22981    1.4604369   -105.76937   -2991.2066    4.3972608    4.3972608    4.3972608   -2991.2066   -25384.143   -2495.0209    18905.545    8434.9089   -1565.6567    907.31564    85.025005 
    8300    1144.4454   -106.78404    1.0355183   -105.74852   -28529.339    4.4290002    4.4290002    4.4290002   -28529.339   -21243.161   -35106.629   -29238.226   -5212.8058   -8544.0576   -6169.2151    86.879456 
    8400     1749.025   -107.30506    1.5825545    -105.7225   -10222.492    4.4004345    4.4004345    4.4004345   -10222.492   -18865.705   -12188.688    386.91627   -2885.9057    11031.859    1916.3998    85.209239 
    8500    1491.4727   -107.07281    1.3495158   -105.72329    19210.891    4.3615736    4.3615736    4.3615736    19210.891    19279.533    16294.562    22058.578    6032.8714   -4903.8531    10244.705    82.971628 
    8600     1633.146   -107.25442    1.4777048   -105.77671    15794.202    4.3768206    4.3768206    4.3768206    15794.202    -29971.92    9269.0757     68085.45   -2659.0633   -462.36238    -4865.282    83.844819 
    8700    1063.9523   -106.76036   0.96268637   -105.79767   -31249.136    4.4204265    4.4204265    4.4204265   -31249.136   -4808.8103   -28135.465   -60803.132   -2044.7966   -24841.526   -10577.711    86.375886 
    8800    1265.9496   -106.89339    1.1454578   -105.74793    -11393.18    4.4108657    4.4108657    4.4108657    -11393.18   -24760.416    -61587.07    52167.946    -2345.557    3124.6487    1849.0898    85.816641 
    8900    1865.6618   -107.40472      1.68809   -105.71663   -3332.3424    4.3776875    4.3776875    4.3776875   -3332.3424    6449.3253   -9455.6043   -6990.7482    610.91134   -17912.782    -2255.154     83.89465 
    9000    888.57436   -106.55218   0.80400076   -105.74818    18331.981    4.3755373    4.3755373    4.3755373    18331.981     35329.02   -14594.712    34261.637   -2300.5116   -9896.2805   -385.90212    83.771093 
    9100    2045.6982   -107.62755    1.8509908   -105.77656   -36833.897    4.4036089    4.4036089    4.4036089   -36833.897   -52677.077   -74444.944    16620.329    5631.0919   -10848.329   -4627.1282    85.393774 
    9200    1038.7853   -106.70642   0.93991478   -105.76651   -2524.0102     4.419085     4.419085     4.419085   -2524.0102    48326.311   -60020.039    4121.6975    2508.3754    7173.3028   -738.32656     86.29727 
    9300    811.52756   -106.49033   0.73428719   -105.75604    7382.6683    4.4011144    4.4011144    4.4011144    7382.6683    51513.315   -37307.412    7942.1016   -11794.556   -15739.238   -12947.901    85.248741 
    9400    1678.3173     -107.263    1.5185768   -105.74442    20293.914    4.3724026    4.3724026    4.3724026    20293.914    3024.0287   -31558.691    89416.404    13397.715    74.670389    13613.347    83.591177 
    9500    976.52133   -106.66909   0.88357702   -105.78551    8876.1378    4.3928305    4.3928305    4.3928305    8876.1378    21117.878   -2179.5898    7690.1249   -17578.855   -12136.404   -8924.2783    84.768274 
    9600    1804.2706   -107.39281     1.632542   -105.76027   -40611.976    4.4234281    4.4234281    4.4234281   -40611.976   -28823.147   -84392.418   -8620.3623    10535.337   -268.86141    10358.892    86.551963 
    9700    871.85252   -106.50615   0.78887048   -105.71728    5925.8062    4.4284132    4.4284132    4.4284132    5925.8062    45967.298   -41668.787    13478.907   -15295.632   -12940.347   -6442.1895    86.844918 
    9800    1327.4264   -106.89495    1.2010833   -105.69387   -4954.6082    4.3997382    4.3997382    4.3997382   -4954.6082   -23386.677    2149.7655    6373.0864   -24488.646    12823.425   -11067.831    85.168797 
    9900    1589.9562   -107.13647    1.4386258   -105.69784    33711.303    4.3740762    4.3740762    4.3740762    33711.303     39232.66    37255.095    24646.155    12874.785    8681.5629   -5792.1799    83.687197 
   10000    1084.3864   -106.76526   0.98117561   -105.78409   -38.090456     4.398508     4.398508     4.398508   -38.090456    38514.281   -19523.775   -19104.778    6418.7128   -1706.9384   -7589.0463    85.097375 
   10100    1123.6302    -106.7943    1.0166842   -105.77762    11528.798    4.4175451    4.4175451    4.4175451    11528.798    47102.318    13228.361   -25744.285   -4051.6537   -12793.602    -15787.58    86.207089 
   10200    1435.2231   -107.04875      1.29862   -105.75013    2390.7842    4.4062838    4.4062838    4.4062838    2390.7842   -351.85269    16350.461   -8826.2559    11010.427   -7339.0222   -5501.2939    85.549484 
   10300    1665.5201   -107.23969    1.5069976   -105.73269   -4015.0281    4.3944147    4.3944147    4.3944147   -4015.0281    7624.9601   -23323.704    3653.6595   -4746.6472    16374.312    1010.8265    84.860017 
   10400    1587.1064   -107.16316    1.4360473   -105.72711   -3264.7299    4.4037741    4.4037741    4.4037741   -3264.7299    11478.467     15749.19   -37021.846    14719.292    4591.8745    -16097.29    85.403387 
   10500    1519.7056   -107.10798    1.3750616   -105.73292   -14955.593    4.4072846    4.4072846    4.4072846   -14955.593    44736.896   -62371.863    -27231.81    7099.5682   -2514.0907   -5971.0908    85.607788 
   10600     1001.018   -106.64655   0.90574209   -105.74081    30680.404    4.4033435    4.4033435    4.4033435    30680.404    79260.832   -2441.3841    15221.763    3265.7755    15236.044    8040.0829    85.378338 
   10700    1925.9596   -107.48296    1.7426487   -105.74031   -52783.004    4.4152022    4.4152022    4.4152022   -52783.004   -36257.702   -52688.024   -69403.286    7146.4189   -17481.216    4339.2098    86.069997 
   10800    1255.8964   -106.86334    1.1363615   -105.72698    18567.209    4.4044571    4.4044571    4.4044571    18567.209    69697.123    -11217.21   -2778.2874   -10207.473   -804.57304    1894.8138     85.44313 
   10900    1569.4781   -107.15085    1.4200967   -105.73075    1049.5752    4.3927207    4.3927207    4.3927207    1049.5752    3498.3813   -10543.053    10193.398   -1746.7184   -1464.1172    1212.6043    84.761916 
   11000    1646.6949   -107.24391    1.4899642   -105.75395   -10856.858    4.4007222    4.4007222    4.4007222   -10856.858   -16498.015    5851.9277   -21924.487     -21372.6   -11240.366    13065.797    85.225953 
   11100    1123.4949   -106.77501    1.0165618   -105.75845    4014.9433    4.4193233    4.4193233    4.4193233    4014.9433    57218.145   -7836.4987   -37336.817    31.647781    4693.4465   -17240.333    86.311236 
   11200    1234.0061   -106.84704    1.1165547   -105.73048   -6841.2457    4.4188377    4.4188377    4.4188377   -6841.2457     9360.851    18906.443   -48791.031    21099.237   -7649.6114    5567.5092    86.282783 
   11300    1325.3699   -106.92462    1.1992225    -105.7254    3824.0166     4.395436     4.395436     4.395436    3824.0166    12515.421    6786.8092   -7830.1804   -5214.0791    10835.701    1114.5529      84.9192 
   11400    1148.3078   -106.78414     1.039013   -105.74513    40987.557    4.3787211    4.3787211    4.3787211    40987.557    89078.432    17886.517    15997.722    6507.6644   -7902.0983    3123.4273    83.954086 
   11500     1552.232   -107.19394    1.4044922   -105.78945   -42252.795    4.4176839    4.4176839    4.4176839   -42252.795   -14038.096    -42109.81   -70610.479   -3919.5238   -12557.642    2000.0826    86.215217 
   11600    1351.0983   -106.96566    1.2225021   -105.74316   -30485.285    4.4229255    4.4229255    4.4229255   -30485.285    34643.208   -52999.643   -73099.421    23878.919    12698.804   -18889.512    86.522462 
   11700    1264.6592   -106.85058    1.1442902   -105.70629    28862.254    4.3766983    4.3766983    4.3766983    28862.254    14870.383    59742.702    11973.677    5523.2583   -7401.6987   -5178.8564     83.83779 
   11800    1868.7155   -107.43302     1.690853   -105.74216   -5934.8205    4.3809073    4.3809073    4.3809073   -5934.8205   -16713.181    4540.4287   -5631.7095   -582.21486   -1945.3162   -2390.5321    84.079904 
   11900    1140.5825   -106.80433     1.032023   -105.77231   -7418.9806    4.4105718    4.4105718    4.4105718   -7418.9806    20399.744    4475.0557   -47131.741   -4067.0716    14452.098    -2727.145    85.799485 
   12000    1804.5043   -107.38571    1.6327534   -105.75296   -17339.132    4.3956896    4.3956896    4.3956896   -17339.132   -6089.4982   -37760.072    -8167.827   -8408.0918   -13023.387    3241.3974    84.933896 
   12100    1827.3528   -107.41159    1.6534273   -105.75816   -21192.549    4.3944066    4.3944066    4.3944066   -21192.549    -15665.61   -26606.507   -21305.532    4731.9457    7665.3329   -2966.0951    84.859547 
   12200    1311.3125    -106.9647    1.1865031    -105.7782   -15913.256    4.4000227    4.4000227    4.4000227   -15913.256    19799.908    -20830.61   -46709.067   -8623.2209   -10032.917     10139.81     85.18532 
   12300    1216.0107   -106.86955     1.100272   -105.76928    21761.379    4.3876469    4.3876469    4.3876469    21761.379    58757.904    14559.793   -8033.5615    7238.2287    3519.6494   -8457.1593    84.468545 
   12400    1686.1028   -107.29402    1.5256213   -105.76839   -7253.4112     4.385864     4.385864     4.385864   -7253.4112    612.39736    8295.0593    -30667.69   -9992.1752    -10181.53    4284.8006    84.365616 
   12500    1058.4684   -106.73099   0.95772449   -105.77326   -3643.9538    4.3965334    4.3965334    4.3965334   -3643.9538    18160.422   -12248.147   -16844.136    1501.1505    6933.4621    3432.0713    84.982817 
   12600    1388.2979   -107.02228    1.2561611   -105.76612   -1666.6281    4.3892136    4.3892136    4.3892136   -1666.6281   -2952.6367    29507.958   -31555.206    7534.0774    -4007.107   -6020.1919    84.559058 
   12700    1812.3557   -107.42137    1.6398575   -105.78151   -9274.9037    4.3646676    4.3646676    4.3646676   -9274.9037    41463.942   -24055.494   -45233.159    192.57028   -19047.454    13688.977    83.148327 
   12800    1699.7364   -107.35626    1.5379572    -105.8183    14772.647    4.3706945    4.3706945    4.3706945    14772.647    15946.321    43107.125   -14735.504    6262.9942     10270.53   -2487.0746    83.493248 
   12900    967.91697   -106.68335   0.87579162   -105.80756    30692.459     4.387249     4.387249     4.387249    30692.459    81392.221    14279.099    -3593.944   -11706.815   -23631.121    262.65581    84.445566 
   13000    1478.7974   -107.12878     1.338047   -105.79074   -22226.808    4.3828622    4.3828622    4.3828622   -22226.808    12795.474   -40586.312   -38889.585    2247.8816    1742.5905    14250.579    84.192507 
   13100    1466.2977   -107.09842    1.3267369   -105.77169     22900.66    4.3650915    4.3650915    4.3650915     22900.66     10272.46    41831.679    16597.842   -12883.323    13076.768   -6900.0822    83.172558 
   13200    963.34542   -106.65123   0.87165518   -105.77958    13264.553     4.376249     4.376249     4.376249    13264.553    29119.731    8344.6933     2329.235    5852.3504     -3067.04    12725.108    83.811974 
   13300    1371.4516   -107.01318    1.2409182   -105.77226   -9792.5933    4.3877376    4.3877376    4.3877376   -9792.5933    54098.161   -43858.777   -39617.163     -2253.89    18768.599    5338.8646    84.473783 
   13400    1616.0102   -107.23675       1.4622   -105.77455    -29365.88    4.3776759    4.3776759    4.3776759    -29365.88   -24770.744   -45055.613   -18271.284    3675.6083    95.903197   -6640.7394    83.893982 
   13500    849.66393   -106.53517   0.76879378   -105.76637    47133.801    4.3637643    4.3637643    4.3637643    47133.801    75587.187    41624.012    24190.204   -22719.341   -3821.0494    25654.639    83.096717 
   13600    1770.7103   -107.36392    1.6021759   -105.76175   -7424.0258    4.3752896    4.3752896    4.3752896   -7424.0258    7885.0717   -15875.721   -14281.428    4942.6252    11401.039   -7712.1296    83.756863 
   13700    1279.6204   -106.91901    1.1578275   -105.76118   -19844.409    4.3877358    4.3877358    4.3877358   -19844.409    17052.083   -50502.183   -26083.126   -11831.261   -4095.8222    16122.799     84.47368 
   13800    1377.8869   -106.99003     1.246741   -105.74329    572.66215    4.3835837    4.3835837    4.3835837    572.66215    37248.023   -33954.717   -1575.3196    13270.558    5934.5396    3617.0641    84.234096 
   13900    1193.5124   -106.81838    1.0799151   -105.73846    31536.133    4.3666522    4.3666522    4.3666522    31536.133     51079.77    12111.416    31417.213   -3857.9251    20436.727   -14630.103    83.261801 
   14000    1226.6996   -106.87291    1.1099436   -105.76297    23086.955    4.3730448    4.3730448    4.3730448    23086.955    73972.446   -3932.0119   -779.56816   -8179.8821    14.651164    19879.148     83.62801 
   14100    1494.0726   -107.10005    1.3518682   -105.74818   -21952.007    4.3931801    4.3931801    4.3931801   -21952.007   -15507.296   -47611.254   -2737.4706   -7223.6547    25644.323   -9305.4804    84.788515 
   14200    1090.4794   -106.72911   0.98668867   -105.74242   -1024.0468    4.3725648    4.3725648    4.3725648   -1024.0468    59431.625   -53885.348   -8618.4177   -2844.6668    11204.779    10147.862    83.600478 
   14300    1595.3142   -107.19135    1.4434738   -105.74787    6779.8281    4.3560842    4.3560842    4.3560842    6779.8281   -16560.731    25192.758    11707.458    7723.6745   -2599.6008    17302.551    82.658743 
   14400    1821.8095   -107.42755    1.6484115   -105.77914   -23922.716     4.374994     4.374994     4.374994   -23922.716   -4654.4892   -23656.837   -43456.821    13894.874   -3514.1958   -5813.3359    83.739888 
   14500    985.63608   -106.68027   0.89182424   -105.78845   -7554.6118    4.3939755    4.3939755    4.3939755   -7554.6118    59968.976   -56694.015   -25938.796    2798.7582   -15539.379    18642.419    84.834574 
   14600    1444.0522   -107.07438    1.3066087   -105.76777   -4445.5108    4.3884053    4.3884053    4.3884053   -4445.5108    14379.465   -8527.0332   -19188.964    7567.8987   -15377.363   -7366.1986    84.512351 
   14700    2088.0188   -107.65021    1.8892833   -105.76093   -22827.309    4.3716359    4.3716359    4.3716359   -22827.309    21830.164   -46590.047   -43722.044   -10164.145   -841.00044    18875.256    83.547208 
   14800    1497.2925   -107.14459    1.3547817   -105.78981    23678.186    4.3585175    4.3585175    4.3585175    23678.186    22583.723    13015.675     35435.16    8779.0261    49.274256    -1452.376    82.797339 
   14900    814.25066   -106.55769   0.73675111   -105.82093    1073.6441     4.381843     4.381843     4.381843    1073.6441    5791.3764    -15763.13    13192.686     8439.454   -12998.406   -2302.5935    84.133788 
   15000    1861.9103   -107.46689    1.6846956   -105.78219    -14231.36    4.3858759    4.3858759    4.3858759    -14231.36    23907.333   -53241.556   -13359.858    9047.1393     2112.121    23250.349    84.366302 
   15100    1173.6158   -106.82875    1.0619123   -105.76684    5450.1832     4.363181     4.363181     4.363181    5450.1832    19927.414     6423.942   -10000.806     7323.026   -16259.649   -5605.5398    83.063397 
   15200     1304.058   -106.94858    1.1799391   -105.76864    2136.8149     4.358267     4.358267     4.358267    2136.8149    18072.359   -8616.0086   -3045.9062     6653.611    9214.5921    8039.8581    82.783065 
   15300    1835.7004   -107.43105    1.6609803   -105.77007    -17869.04     4.374206     4.374206     4.374206    -17869.04    5236.4161   -57762.514    -1081.023    1362.4255   -7696.2294    3224.9583    83.694651 
   15400    1115.7322   -106.77778     1.009538   -105.76824   -20872.386    4.3889276    4.3889276    4.3889276   -20872.386    18452.643   -48185.985   -32883.817    2495.0116   -954.52464   -13360.532    84.542532 
   15500    1795.8988   -107.36555     1.624967   -105.74058   -12497.801    4.3874754    4.3874754    4.3874754   -12497.801   -3095.1589   -47487.624    13089.379   -4478.1003   -2973.4028   -4511.2057    84.458639 
   15600    1233.9753   -106.85769    1.1165268   -105.74116    18347.927    4.3672317    4.3672317    4.3672317    18347.927    53173.793   -34824.136    36694.126    1058.8056   -1162.6977     -10793.3    83.294958 
   15700    1322.3467   -106.96407    1.1964871   -105.76759   -23507.806    4.3651441    4.3651441    4.3651441   -23507.806   -35383.445   -31848.055   -3291.9167   -42.295791   -6848.1635    -15033.92    83.175565 
   15800    1333.0035   -106.98485    1.2061296   -105.77872    14088.344    4.3724093    4.3724093    4.3724093    14088.344    3353.2541    -42857.09    81768.867   -10150.439    441.72803    -4802.081    83.591559 
   15900     1738.736   -107.34716    1.5732449   -105.77391   -21855.608    4.3826016    4.3826016    4.3826016   -21855.608   -34795.645   -28068.144   -2703.0343   -1599.7783   -5055.8792   -2230.6342    84.177492 
   16000    753.71941   -106.45302   0.68198116   -105.77104   -22058.309    4.3878878    4.3878878    4.3878878   -22058.309    -51691.92   -47566.172    33083.164   -8504.9914    15805.791   -877.60959    84.482461 
   16100    1898.5351   -107.46579    1.7178345   -105.74795   -12031.054    4.3706819    4.3706819    4.3706819   -12031.054   -5314.6633   -17138.804   -13639.696    15563.643    15754.853   -2607.0062    83.492523 
   16200    1440.7963   -107.06407    1.3036628   -105.76041    866.73823    4.3684693    4.3684693    4.3684693    866.73823    14964.204   -23041.512    10677.522   -12555.442   -5564.4521   -1046.9118    83.365787 
   16300    1041.7866   -106.71773   0.94263044    -105.7751   -24817.019    4.3818154    4.3818154    4.3818154   -24817.019   -58684.994   -42393.869    26627.805    5246.4722    16838.421    9391.3286    84.132198 
   16400    1486.4987   -107.10139    1.3450152   -105.75638     12627.98    4.3829962    4.3829962    4.3829962     12627.98    65152.573   -20987.061   -6281.5731    13004.845   -16406.938   -1771.9935    84.200233 
   16500    1205.3372   -106.84898    1.0906144   -105.75837    8386.2134    4.3781351    4.3781351    4.3781351    8386.2134    3816.7307    12621.308    8720.6019   -6686.5087   -1042.9751    12106.237    83.920389 
   16600    1679.0338   -107.28399    1.5192251   -105.76476   -13278.912    4.3777943    4.3777943    4.3777943   -13278.912   -21567.705   -23368.885    5099.8536    7193.6772    1472.8325    6084.0333    83.900789 
   16700    1739.6957   -107.35175    1.5741132   -105.77764   -4621.4594    4.3886345    4.3886345    4.3886345   -4621.4594     48369.49   -35930.737    -26303.13   -833.39964    1285.5662   -60.607676    84.525596 
   16800    743.06917   -106.45927    0.6723446   -105.78692     6002.758    4.3771173    4.3771173    4.3771173     6002.758    55017.004   -41487.255    4478.5255   -9232.7913    4651.2386    8842.5147    83.861871 
   16900    1660.2768   -107.28174    1.5022533   -105.77948      9393.05    4.3584814    4.3584814    4.3584814      9393.05    14030.956    6909.6422    7238.5514    1790.5963    22657.467    1384.3777    82.795283 
   17000    1674.2281   -107.30633    1.5148768   -105.79145    14983.329    4.3742032    4.3742032    4.3742032    14983.329    33584.779   -15617.531    26982.738    6208.8714   -11215.159   -218.58703    83.694491 
   17100    1114.2431   -106.78474    1.0081906   -105.77655   -33953.765    4.3929141    4.3929141    4.3929141   -33953.765    -11251.11   -46159.853   -44450.332    -5812.541    2582.5964    325.66092    84.773112 
   17200    1726.4633   -107.31947    1.5621403   -105.75732   -22777.352    4.3777341    4.3777341    4.3777341   -22777.352   -21122.574   -28628.313   -18581.169    15129.176    -7201.324   -2925.4024    83.897327 
   17300    1335.6671   -106.96951    1.2085397   -105.76097    47838.633    4.3626365    4.3626365    4.3626365    47838.633    82363.732    6034.6589     55117.51   -3183.8739    -23271.17    7218.4844    83.032301 
   17400    1252.6208   -106.92095    1.1333976   -105.78756   -2947.7553    4.3718735    4.3718735    4.3718735   -2947.7553    32762.504   -34032.805   -7572.9651    471.89189   -2653.9173   -4759.8963     83.56083 
   17500    1484.5962   -107.12704    1.3432938   -105.78375   -12140.787    4.3815801    4.3815801    4.3815801   -12140.787   -3561.7576   -29439.239   -3421.3631    6246.2245   -1515.3144    418.76645    84.118644 
   17600    1262.0867   -106.92201    1.1419626   -105.78005   -4052.5454    4.3924164    4.3924164    4.3924164   -4052.5454    8157.8967   -39255.366    18939.834     1715.788   -2886.8344    10238.957    84.744305 
   17700    1447.5288   -107.07933    1.3097545   -105.76957   -16078.288    4.3858412    4.3858412    4.3858412   -16078.288    731.82194    2621.3945   -51588.079   -8773.4214   -10424.283   -8108.1497    84.364299 
   17800    1435.2671   -107.05811    1.2986598   -105.75945   -6164.0878    4.3668632    4.3668632    4.3668632   -6164.0878   -14228.701    4220.7045   -8484.2669   -6452.1788    17046.739   -4448.7165    83.273872 
   17900    1232.0142   -106.90016    1.1147524    -105.7854    22133.422     4.372236     4.372236     4.372236    22133.422    50643.364   -849.51682     16606.42     7724.957   -17592.495    1352.4172    83.581619 
   18000    928.17264   -106.64501   0.83983011   -105.80518   -686.83551    4.3944685    4.3944685    4.3944685   -686.83551    72279.875   -36028.123   -38312.259    9758.5334    3202.6346   -16428.535    84.863134 
   18100    1198.5077   -106.88006     1.084435   -105.79562   -9368.8689    4.3823521    4.3823521    4.3823521   -9368.8689    70379.475   -45496.421   -52989.661   -839.96217   -2100.6766    2802.1546    84.163115 
   18200    1364.9811   -107.02899    1.2350636   -105.79393    32541.135    4.3621661    4.3621661    4.3621661    32541.135    77433.189   -1199.5862    21389.803   -14601.889   -7436.4553   -4290.2147    83.005445 
   18300    1218.8543   -106.90965     1.102845    -105.8068    -20574.19    4.3759566    4.3759566    4.3759566    -20574.19    -14510.68   -36553.403   -10658.485   -3082.0349   -15717.784    10646.772    83.795178 
   18400    1592.3769   -107.24742    1.4408161    -105.8066   -26409.366    4.3808927    4.3808927    4.3808927   -26409.366   -17476.496   -28960.993   -32790.609    5514.8241   -4573.3062    4134.5999     84.07906 
   18500    1667.4372   -107.30421    1.5087322   -105.79548    1942.4119    4.3778357    4.3778357    4.3778357    1942.4119     75813.62   -35133.463   -34852.922   -9897.5407    19893.598   -12074.886     83.90317 
   18600    1405.0935   -107.07604    1.2713581   -105.80468   -5583.6401    4.3787271    4.3787271    4.3787271   -5583.6401     32907.59   -20073.704   -29584.807    5928.9841   -17654.129      15638.8    83.954431 
   18700    588.03329   -106.34987   0.53206487   -105.81781    41073.301    4.3713967    4.3713967    4.3713967    41073.301    120136.73    -1270.005    4353.1801   -25738.327    2066.8785   -11856.043    83.533494 
   18800    1208.1233    -106.9055    1.0931353   -105.81236    27422.617    4.3799895    4.3799895    4.3799895    27422.617    133155.17    -21802.42   -29084.899    15819.314   -29379.001   -4603.1646     84.02707 
   18900    1530.7099   -107.18597    1.3850185   -105.80095   -25041.733    4.3880827    4.3880827    4.3880827   -25041.733   -37664.808   -54294.702     16834.31   -14677.559    18208.984    -4609.055    84.493715 
   19000    1374.9717   -107.02446    1.2441033   -105.78036    -11168.05    4.3815274    4.3815274    4.3815274    -11168.05    32017.449   -35534.996   -29986.602    7335.9286    4156.5861   -16647.003    84.115609 
   19100    1254.2542   -106.89335    1.1348756   -105.75847    10598.463    4.3827302    4.3827302    4.3827302    10598.463     19853.71   -29526.763     41468.44   -6462.4774   -8743.4401    5553.1454    84.184902 
   19200    1370.2155   -106.99646    1.2397997   -105.75666   -25195.651    4.3778443    4.3778443    4.3778443   -25195.651   -20798.664   -42997.863   -11790.425   -19026.299    8310.5978   -17306.362    83.903665 
   19300    1820.3392   -107.41139    1.6470812   -105.76431   -749.11094     4.375092     4.375092     4.375092   -749.11094    18632.317    -5652.623   -15227.026    8627.4308     8786.329   -1964.2074    83.745515 
   19400     1713.354   -107.31569    1.5502787   -105.76541   -1935.9631    4.3775035    4.3775035    4.3775035   -1935.9631    44322.799   -36933.119   -13197.569   -22420.038   -4591.0685   -4401.9264    83.884074 
   19500    941.56381   -106.62439   0.85194673   -105.77244    22981.572     4.376775     4.376775     4.376775    22981.572     35848.91    11227.479    21868.327   -2543.8552    19957.614   -9051.0173    83.842198 
   19600    1865.4586   -107.45145    1.6879061   -105.76354   -45534.648    4.3919178    4.3919178    4.3919178   -45534.648   -64262.518   -34544.728   -37796.697    -2735.629   -8865.4817    11842.254    84.715445 
   19700    1293.7798   -106.92469    1.1706391   -105.75405    32241.331    4.3703947    4.3703947    4.3703947    32241.331    56859.038   -28079.434    67944.388   -16471.722    16608.371    -18107.33    83.476067 
   19800    1760.6236   -107.35417    1.5930493   -105.76112    -777.1231    4.3708001    4.3708001    4.3708001    -777.1231    12775.376   -18195.286    3088.5402    671.14908    2959.8267   -1314.4333    83.499299 
   19900    2025.2781     -107.605    1.8325142   -105.77248   -40364.206    4.4009911    4.4009911    4.4009911   -40364.206   -54030.982   -32515.253   -34546.384   -18505.283   -3716.8443   -8725.7547    85.241578 
   20000    999.98024   -106.65346   0.90480314   -105.74866   -19266.246    4.4069914    4.4069914    4.4069914   -19266.246   -35088.067   -29051.993    6341.3212    357.07391   -148.73127   -4673.1578    85.590703 
   20100    1665.0156   -107.22308    1.5065411   -105.71654    27115.649    4.3801098    4.3801098    4.3801098    27115.649    44426.698    18649.682    18270.568     1742.753   -4348.4405   -1792.6164    84.033994 
   20200    1530.8814   -107.12729    1.3851736   -105.74211    -8703.262    4.3791423    4.3791423    4.3791423    -8703.262   -9662.5375   -22810.826    6363.5778    9240.9484    13230.289   -9655.4969    83.978316 
   20300    1117.7796   -106.76757    1.0113905   -105.75618    6961.6868    4.3810565    4.3810565    4.3810565    6961.6868   -55492.246    13452.691    62924.615   -1940.4516   -679.79452   -2550.0607     84.08849 
   20400    1806.8069    -107.3874    1.6348369   -105.75257   -11686.908    4.3899152    4.3899152    4.3899152   -11686.908   -14279.058    -14213.89   -6567.7767    7546.7295    2885.2368   -5849.0512    84.599619 
   20500    853.33852   -106.52377   0.77211862   -105.75165   -7643.6628    4.4015929    4.4015929    4.4015929   -7643.6628   -7713.6297   -25658.254    10440.895    16228.263    11297.194   -6654.1268    85.276548 
   20600    1614.8838   -107.18131    1.4611808   -105.72013   -11053.478    4.3933476    4.3933476    4.3933476   -11053.478   -7619.4349    414.22945   -25955.229    5987.6355   -901.26493    3020.2135    84.798212 
   20700    1513.3374   -107.08566    1.3692995   -105.71636   -4354.9818    4.3736636    4.3736636    4.3736636   -4354.9818   -7886.9358   -42608.276    37430.266    19742.507   -12966.363    4380.4475    83.663522 
   20800     971.6061   -106.62692   0.87912962   -105.74779    3218.2512    4.3652367    4.3652367    4.3652367    3218.2512   -1731.2803   -14399.311    25785.345    1304.1833    33473.763   -3452.6233    83.180858 
   20900    1510.9537    -107.1335    1.3671427   -105.76636   -4205.7804    4.3678643    4.3678643    4.3678643   -4205.7804   -13922.282   -33740.641    35045.581    17127.183   -17466.368   -6596.4488    83.331159 
   21000    1491.9298   -107.12327    1.3499294   -105.77334   -42802.507    4.3818001    4.3818001    4.3818001   -42802.507   -31226.112   -47925.521   -49255.888    8884.0918    19914.191   -6426.9824    84.131317 
   21100    1482.7975   -107.11307    1.3416663   -105.77141   -5597.2897    4.3658355    4.3658355    4.3658355   -5597.2897   -11301.809   -33870.419    28380.359   -3554.3496    10894.276    7992.2902    83.215095 
   21200    1443.8295    -107.0766    1.3064073   -105.77019     15133.03    4.3564875    4.3564875    4.3564875     15133.03    23040.781   -38742.154    61100.463    20545.941   -5214.2324    -3769.331    82.681706 
   21300    858.74696   -106.56413    0.7770123   -105.78711   -26202.826    4.3775618    4.3775618    4.3775618   -26202.826   -10774.995   -37242.224   -30591.259   -6372.9801    31658.972    -11160.17    83.887424 
   21400    1804.8257   -107.39559    1.6330442   -105.76255    8400.1954    4.3763952    4.3763952    4.3763952    8400.1954    18899.381   -6051.7422    12352.947    2262.4964    -5568.571    4458.2056    83.820373 
   21500    1637.9477   -107.24656    1.4820495   -105.76451   -9889.6656    4.3623379    4.3623379    4.3623379   -9889.6656    -2115.835   -17692.848   -9860.3144     5784.276    17716.699   -21182.439    83.015256 
   21600    774.50466   -106.47493    0.7007881   -105.77414     28062.56    4.3580378    4.3580378    4.3580378     28062.56    78858.831    6925.2218   -1596.3737   -10836.285    18291.895    1239.6066    82.770006 
   21700    1695.6923   -107.30111     1.534298   -105.76681   -3312.8571    4.3762234    4.3762234    4.3762234   -3312.8571    28195.198   -20634.161   -17499.609    -222.2161   -10989.262   -3588.5578    83.810504 
   21800    1424.5323   -107.05284    1.2889468    -105.7639   -8513.9847    4.3737368    4.3737368    4.3737368   -8513.9847    1474.2333   -23741.596   -3274.5908   -9680.5782    30706.432   -15304.481    83.667722 
   21900    1545.3562   -107.15448    1.3982707   -105.75621    14361.095    4.3651327    4.3651327    4.3651327    14361.095    80938.771   -28141.706   -9713.7798   -2921.5607   -4657.0437     2421.854    83.174914 
   22000    1232.9212   -106.89089     1.115573   -105.77532    33556.584    4.3616682    4.3616682    4.3616682    33556.584    86523.042   -23512.501    37659.213    9205.8193    9446.1553   -10305.649    82.977026 
   22100    1150.0876   -106.84294    1.0406234   -105.80231   -20260.997    4.3821779    4.3821779    4.3821779   -20260.997    30436.713   -47099.523   -44120.182   -5418.2027    17318.174   -1926.2562    84.153079 
   22200    2101.4013   -107.66941     1.901392   -105.76802     2274.562     4.374691     4.374691     4.374691     2274.562    22163.423   -30939.608    15599.871    2539.4503    1230.5433    4128.5156    83.722494 
   22300    538.50085    -106.2529   0.48724689   -105.76566    70780.689    4.3516973    4.3516973    4.3516973    70780.689    153552.34    31722.751    27066.975   -1572.1194    34847.586   -6514.3871    82.409265 
   22400    1709.1189    -107.3157    1.5464467   -105.76925    -28077.83    4.3784062    4.3784062    4.3784062    -28077.83   -12410.813   -23484.136   -48338.542   -1514.8797    15810.903    7949.9387    83.935976 
   22500    1298.3214   -106.93652    1.1747485   -105.76177     28391.59    4.3724695    4.3724695    4.3724695     28391.59    96913.396   -21975.584    10236.959   -89.971679    8579.9476   -3049.7108    83.595014 
   22600      1411.68   -107.04316    1.2773177   -105.76584   -6203.8906    4.3726438    4.3726438    4.3726438   -6203.8906    18344.442   -17636.251   -19319.863    -4738.865    28228.268    11933.718    83.605013 
   22700    1871.9477   -107.45387    1.6937776    -105.7601   -1016.0164    4.3727274    4.3727274    4.3727274   -1016.0164    54292.307   -50352.287   -6988.0693   -775.96242   -15513.737    5544.7062    83.609804 
   22800    1147.4522   -106.81996    1.0382389   -105.78173   -16233.333    4.3741433    4.3741433    4.3741433   -16233.333     15976.21    -43661.57   -21014.639   -9210.1429      28136.2      608.764     83.69105 
   22900    1621.9277   -107.25026    1.4675543   -105.78271    -2270.381    4.3836723    4.3836723    4.3836723    -2270.381    18759.061   -31214.466    5644.2617    11555.254    240.36514    2427.1463      84.2392 
   23000    1298.5212   -106.96178    1.1749293   -105.78685    1219.0877    4.3796832    4.3796832    4.3796832    1219.0877    24333.825    3465.5503   -24142.113   -3020.5647    5513.6972     4969.093    84.009442 
   23100    1002.4562   -106.68649    0.9070434   -105.77945    7652.6801    4.3700843    4.3700843    4.3700843    7652.6801    15827.576   -9968.8832    17099.347    11606.471    28243.656    2385.3981    83.458282 
   23200    1945.1633   -107.52521    1.7600246   -105.76519   -3580.4492    4.3755976    4.3755976    4.3755976   -3580.4492    23862.229   -39806.991     5203.415   -3862.7509     -19015.8    498.33511    83.774553 
   23300    1168.8827     -106.825    1.0576297   -105.76737    2163.0126    4.3773535    4.3773535    4.3773535    2163.0126    15420.531     2137.427    -11068.92    1558.3734     19868.88    2769.5302     83.87545 
   23400    1602.1421   -107.21285    1.4496519    -105.7632    4549.7682    4.3772509    4.3772509    4.3772509    4549.7682    37593.193   -14445.743   -9498.1456    1753.8491    3030.5596   -5318.4607    83.869553 
   23500    1515.5559   -107.14515    1.3713068   -105.77384     -14070.3    4.3766403    4.3766403    4.3766403     -14070.3   -16407.623   -4576.9327   -21226.344    4187.1383     3549.158    4035.3868    83.834458 
   23600    1268.6102   -106.93486    1.1478652   -105.78699    17673.006    4.3721046    4.3721046    4.3721046    17673.006    47368.506   -4791.4339    10441.945    7294.4757    36053.213    1195.3172    83.574087 
   23700    1704.8244   -107.31774    1.5425609   -105.77518    10627.697    4.3777582    4.3777582    4.3777582    10627.697    72706.904   -1496.6085   -39327.204   -6822.6054   -8216.6046   -3899.5352    83.898716 
   23800    778.76743   -106.48706   0.70464514   -105.78242   -13410.446    4.3750407    4.3750407    4.3750407   -13410.446   -28734.038    30112.824   -41610.125   -866.63282    29627.743   -70.467173     83.74257 
   23900     1761.929   -107.35553    1.5942304    -105.7613    340.09482    4.3735127    4.3735127    4.3735127    340.09482   -7098.4286    24201.448   -16082.735   -1713.6403   -12237.665   -1348.3413     83.65486 
   24000     923.1771   -106.60194   0.83531004   -105.76663    11432.175    4.3793779    4.3793779    4.3793779    11432.175    23238.484    27627.495   -16569.454   -3162.9065    16038.692   -6722.8681    83.991872 
   24100    1711.1997    -107.2951    1.5483295   -105.74677   -12482.959    4.3824171    4.3824171    4.3824171   -12482.959   -8227.0371    8510.2016   -37732.042   -1850.9902    2926.1373   -4541.3861     84.16686 
   24200    1198.9397   -106.83207    1.0848258   -105.74725     20538.55    4.3826987    4.3826987    4.3826987     20538.55    61828.313    23774.251   -23986.913   -10918.964    4032.7805    -3676.336    84.183088 
   24300    645.61902   -106.35565   0.58416966   -105.77148    30447.872    4.3774942    4.3774942    4.3774942    30447.872    77744.144    43260.972     -29661.5   -18742.441     27743.81    -1778.512    83.883539 
   24400    2273.1624   -107.82761    2.0568051   -105.77081   -17061.453    4.3827874    4.3827874    4.3827874   -17061.453    5444.1102   -6558.5383   -50069.932    6801.4212    -17337.47   -9459.0889    84.188196 
   24500    1295.5991   -106.95613    1.1722853   -105.78385   -9926.6712    4.3844266    4.3844266    4.3844266   -9926.6712    574.95707    31224.206   -61579.176    11004.494    31011.737    3312.2696    84.282693 
   24600    1305.2546   -106.95033    1.1810218   -105.76931    21375.755     4.382848     4.382848     4.382848    21375.755    35669.023    43821.213   -15362.971    20966.396    1957.0986   -1630.5499    84.191688 
   24700     1432.155   -107.05605    1.2958439   -105.76021   -18190.048    4.3919882    4.3919882    4.3919882   -18190.048    27286.729   -23707.694    -58149.18    2010.1762    23482.324   -2194.1803    84.719519 
   24800    1784.9409   -107.36523     1.615052   -105.75018    -25096.01    4.3933627    4.3933627    4.3933627    -25096.01   -34600.048    19914.216   -60602.199    7306.1083   -1234.3994   -2990.3525    84.799089 
   24900    1132.3159   -106.77381    1.0245432   -105.74926    45814.642    4.3716025    4.3716025    4.3716025    45814.642    124260.94    33461.186   -20278.197    -11197.66    2405.7173   -4615.8722    83.545293 
   25000    1321.9818   -106.97088    1.1961569   -105.77472    5708.6574    4.3742946    4.3742946    4.3742946    5708.6574    47260.534    4902.5895   -35037.151    9975.5084    13398.364    3328.7657    83.699738 
   25100     1455.441   -107.10308    1.3169136   -105.78617   -5907.5704    4.3963798    4.3963798    4.3963798   -5907.5704    40350.592   -7152.4658   -50920.837   -4010.6284   -16255.801   -10362.046    84.973913 
   25200    1137.2145   -106.80368    1.0289755   -105.77471   -20925.648    4.4037635    4.4037635    4.4037635   -20925.648   -23474.308    20586.613   -59889.251   -4769.7556    33908.447     108.9482    85.402772 
   25300    1519.9927   -107.12468    1.3753213   -105.74936   -10965.772    4.3818055    4.3818055    4.3818055   -10965.772   -7942.0961    9659.8174   -34615.039    11615.514   -7687.7089    6402.8851    84.131627 
   25400    809.94937      -106.49   0.73285921   -105.75714    35451.613    4.3705288    4.3705288    4.3705288    35451.613     138094.1   -10229.164   -21510.102     20098.01    13820.251   -13273.318    83.483753 
   25500    1688.1092   -107.30982    1.5274367   -105.78239   -18934.231    4.3938534    4.3938534    4.3938534   -18934.231    16645.931   -18532.427   -54916.196    -16860.32    17012.847    6013.3165    84.827502 
   25600    1962.3268   -107.53926    1.7755545   -105.76371   -38053.498    4.4114062    4.4114062    4.4114062   -38053.498    -11608.61    -32033.78   -70518.104   -3455.9017   -8710.5354   -15054.881     85.84819 
   25700    1369.9921   -107.00128    1.2395977   -105.76168    13889.795    4.3798221    4.3798221    4.3798221    13889.795     98942.43   -8736.7507   -48536.293    8008.4463    28737.274    5175.7412    84.017435 
   25800    1104.5237   -106.76927   0.99939623   -105.76988     55634.94    4.3605667    4.3605667    4.3605667     55634.94    73306.709    71594.832    22003.278    13570.873   -12177.247   -6429.6241    82.914178 
   25900    1531.6466   -107.18991    1.3858661   -105.80404   -11538.263    4.3960585    4.3960585    4.3960585   -11538.263    46913.562   -27922.569   -53605.781   -1824.6887     10716.49   -6747.0638    84.955285 
   26000    1184.0506   -106.86421    1.0713539   -105.79286   -30971.651     4.407413     4.407413     4.407413   -30971.651    3349.9836   -16662.499   -79602.439    403.01668    28214.482    4662.1381     85.61527 
   26100    1454.0881   -107.08659    1.3156894    -105.7709    20664.628    4.3749872    4.3749872    4.3749872    20664.628    43520.244    20728.945   -2255.3051    7252.7283   -21416.802   -3378.2366    83.739499 
   26200    1674.1598   -107.29767     1.514815   -105.78285    -2633.168    4.3699371    4.3699371    4.3699371    -2633.168    34154.843    -7801.294   -34253.054     12460.76     19731.49   -3558.1173    83.449852 
   26300    1243.6314   -106.93033    1.1252638   -105.80507    3733.8061    4.3885042    4.3885042    4.3885042    3733.8061     14901.95    18188.103   -21888.635   -3612.3161    -12631.61   -4360.2392    84.518068 
   26400    1306.2694   -106.96378      1.18194   -105.78184     -5598.33    4.4142627    4.4142627    4.4142627     -5598.33    58131.932   -13653.577   -61273.345    3617.0358    203.77424    1451.3431    86.015064 
   26500    1626.7356   -107.24841    1.4719045    -105.7765   -33826.569    4.3809966    4.3809966    4.3809966   -33826.569    5003.3664   -52242.497   -54240.576    10342.539    19187.127   -17513.755    84.085042 
   26600    1145.1764   -106.78132    1.0361797   -105.74514    54027.704    4.3312756    4.3312756    4.3312756    54027.704    132017.68     3762.517    26302.918   -11116.186   -23358.834   -5602.5239    81.254508 
   26700      1445.26   -107.13429    1.3077016   -105.82658    13655.934    4.3713828    4.3713828    4.3713828    13655.934    85406.691   -19663.044   -24775.843   -196.37102    10704.283   -809.72261      83.5327 
   26800    1015.5568   -106.72141    0.9188971   -105.80252   -33637.342    4.4193061    4.4193061    4.4193061   -33637.342    46138.599   -86141.864   -60908.761    5771.6694   -2942.5762   -13820.427    86.310228 
   26900    1780.4846   -107.38897    1.6110198   -105.77795   -10190.468    4.3853802    4.3853802    4.3853802   -10190.468    19029.862   -48414.395   -1186.8718    808.89179   -13931.164    854.53126    84.337701 
   27000    1315.4264   -106.93625    1.1902255   -105.74603    40251.787    4.3448154    4.3448154    4.3448154    40251.787    117878.09   -12647.934    15525.201   -1269.3956    18306.392   -18484.087    82.018909 
   27100    993.63063    -106.6923   0.89905787   -105.79325    7935.4705     4.365971     4.365971     4.365971    7935.4705    44109.606   -30585.425    10282.231    5508.5036    1495.9904    590.64591    83.222841 
   27200    1721.4408   -107.34902    1.5575958   -105.79142   -13145.867     4.388931     4.388931     4.388931   -13145.867    43389.426   -40121.184   -42705.844   -8050.9183   -5303.3358   -6190.8134    84.542731 
   27300    1249.1442   -106.91887    1.1302519   -105.78862   -9067.8865    4.3910786    4.3910786    4.3910786   -9067.8865   -3840.3437   -34581.757    11218.441    11841.431    1071.6877   -9656.9105    84.666897 
   27400    1139.2356   -106.79935    1.0308044   -105.76854    14182.627    4.3789507    4.3789507    4.3789507    14182.627    111541.68   -28887.354   -40106.441    418.16128    11534.093    6412.0074    83.967298 
   27500    1420.1121   -107.04339    1.2849473   -105.75844     14331.48    4.3660016    4.3660016    4.3660016     14331.48     16149.03   -38070.003    64915.414    19732.171   -2534.6381   -14037.096     83.22459 
   27600    1440.1558    -107.0827    1.3030832   -105.77961    -32805.05    4.3824485    4.3824485    4.3824485    -32805.05   -3510.3733   -68876.319   -26028.457    15090.944    23363.979    6086.3055    84.168671 
   27700    1613.1146    -107.2207      1.45958   -105.76112   -16508.667    4.3838936    4.3838936    4.3838936   -16508.667    15807.666   -48596.728    -16736.94    7095.1323   -6018.8315    6331.5344    84.251963 
   27800    1205.7397    -106.8523    1.0909787   -105.76132   -6879.2641    4.3726025    4.3726025    4.3726025   -6879.2641   -20629.658   -15709.476    15701.342    17733.862    42582.534    5823.1004    83.602641 
   27900    1405.9963   -107.03598     1.272175    -105.7638    6507.3807    4.3709926    4.3709926    4.3709926    6507.3807    16301.881   -7042.3089     10262.57   -1773.0678   -12957.738    10763.621    83.510332 
   28000     1536.034   -107.15611    1.3898358   -105.76628    2434.4703    4.3840246    4.3840246    4.3840246    2434.4703   -8418.2058   -9720.5561    25442.173     20884.21    9341.9345   -3590.2653    84.259512 
   28100    849.72185   -106.52298   0.76884618   -105.75414   -8086.1426    4.3996984    4.3996984    4.3996984   -8086.1426    4219.8058    -31389.47     2911.236    7030.2875    12566.773    27713.734    85.166482 
   28200     1266.208   -106.86904    1.1456916   -105.72335   -7000.7741    4.3789956    4.3789956    4.3789956   -7000.7741   -2487.5824   -18460.791    -53.94874    4986.9419   -6835.9594   -2787.6001    83.969877 
   28300    1289.2191   -106.89096    1.1665125   -105.72445    5173.9761    4.3681459    4.3681459    4.3681459    5173.9761    11993.669   -15636.662    19164.922    15875.863    42717.495    -7099.558    83.347278 
   28400    1103.8927   -106.74957   0.99882535   -105.75074     2087.563    4.3930172    4.3930172    4.3930172     2087.563    19230.705   -45585.784    32617.768     6522.897    22882.996   -3956.8726    84.779083 
   28500    1711.7405   -107.28638    1.5488187   -105.73756   -34266.422    4.4057164    4.4057164    4.4057164   -34266.422    -22910.75   -61410.284   -18478.232    11508.996   -1804.3825   -14580.859    85.516438 
   28600     940.8711   -106.58195   0.85131994   -105.73063   -17748.835    4.4013445    4.4013445    4.4013445   -17748.835   -40113.817   -35047.919     21915.23   -7061.5813    16806.935     14527.99    85.262113 
   28700    2134.7642   -107.65046    1.9315795   -105.71888    11050.481    4.3629533    4.3629533    4.3629533    11050.481    10311.142    15823.323    7016.9784   -8139.7943   -22802.093    3219.1112    83.050392 
   28800    1084.4565   -106.73178   0.98123903   -105.75055    32967.388    4.3542203    4.3542203    4.3542203    32967.388   -10027.107    43338.083    65591.189      2198.73    39022.832   -3907.6113    82.552684 
   28900     1671.249    -107.2735    1.5121812   -105.76132   -15446.895    4.3936702    4.3936702    4.3936702   -15446.895   -22377.218   -12938.394   -11025.073   -15497.219   -646.63302    16886.109    84.816896 
   29000    941.30205   -106.59555   0.85170988   -105.74384    29559.838    4.3921928    4.3921928    4.3921928    29559.838   -27081.257    43983.198    71777.574    -311.3798    21262.324   -5408.0398    84.731364 
   29100      1825.27   -107.38603    1.6515426   -105.73449   -32054.315    4.3761556    4.3761556    4.3761556   -32054.315   -30307.396    -19483.68    -46371.87   -1537.0465    33835.262    7652.4532    83.806607 
   29200    1178.6343   -106.80026    1.0664531    -105.7338    51098.547     4.361624     4.361624     4.361624    51098.547     7351.783    51214.297    94729.562   -12033.619    520.66014   -6530.2542    82.974502 
   29300    1328.8359    -106.9711    1.2023586   -105.76874   -34851.377    4.3834701    4.3834701    4.3834701   -34851.377   -50402.151    14469.173   -68621.153   -312.94383    46226.229    14187.346    84.227547 
   29400    1602.4114   -107.18201    1.4498955   -105.73212   -2776.4135    4.3984918    4.3984918    4.3984918   -2776.4135   -12831.604   -26326.333    30828.697   -2596.6148    -12417.91    7932.7563    85.096436 
   29500    1564.3906   -107.12842    1.4154935   -105.71293   -16406.411    4.3853955    4.3853955    4.3853955   -16406.411   -39097.218    7852.8985   -17974.913   -11904.339    36318.187    6110.8738    84.338583 
   29600    1479.5558   -107.06043    1.3387331   -105.72169    3487.5919    4.3748278    4.3748278    4.3748278    3487.5919   -30713.688    34948.362    6228.1012   -5955.5823   -11496.566    675.93806    83.730347 
   29700    1147.6004   -106.78164     1.038373   -105.74327    4713.9048    4.3760323    4.3760323    4.3760323    4713.9048   -6565.9004   -3225.9254     23933.54   -5522.5115    30703.949   -5955.9637    83.799527 
   29800    2108.6906   -107.65603    1.9079875   -105.74805    -17574.11    4.3984986    4.3984986    4.3984986    -17574.11   -20846.827    11531.851   -43407.354    3464.1782   -9705.7358    7517.0052    85.096829 
   29900    1203.6054   -106.82807    1.0890474   -105.73902   -33959.942    4.4000097    4.4000097    4.4000097   -33959.942   -84373.742   -28886.224    11380.141   -5911.7738    5815.0084   -3613.1843    85.184565 
   30000    1746.2328   -107.28874    1.5800281   -105.70871   -13103.764    4.3765054    4.3765054    4.3765054   -13103.764   -28748.576   -13932.262    3369.5471   -13537.492    8336.2505    16906.537    83.826708 
   30100    1765.9759   -107.31327    1.5978921   -105.71537   -10441.046    4.3860082    4.3860082    4.3860082   -10441.046    21090.662   -43100.823   -9312.9766   -4650.6136   -6882.6698   -1991.4509    84.373939 
   30200    1811.4401   -107.35842    1.6390291   -105.71939   -40668.675    4.3900444    4.3900444    4.3900444   -40668.675   -57782.734   -47633.725   -16589.565   -13856.033    18323.091    11614.609    84.607089 
   30300     1653.143   -107.23258    1.4957986   -105.73678   -21900.523    4.3907165    4.3907165    4.3907165   -21900.523    13670.472   -48739.704   -30632.336   -2285.0326   -5514.1924    18078.185    84.645952 
   30400    1462.8851     -107.056    1.3236492   -105.73235   -13015.426    4.3907814    4.3907814    4.3907814   -13015.426    10835.148   -30568.191   -19313.236    3058.6812    13894.292   -4494.4633    84.649706 
   30500    1653.0212   -107.21287    1.4956883   -105.71719   -998.12583    4.3888248    4.3888248    4.3888248   -998.12583    26626.376     -23768.8   -5851.9539   -5367.4573   -1488.8982    13968.502    84.536593 
   30600     1611.065    -107.1709    1.4577255   -105.71318   -39782.785      4.38942      4.38942      4.38942   -39782.785   -37266.072   -44836.674   -37245.609    11869.378    13940.294     8184.985    84.570991 
   30700    1269.6795   -106.86228    1.1488327   -105.71345    33813.593    4.3815241    4.3815241    4.3815241    33813.593    56766.305    12851.771    31822.703   -4182.6241    2351.1841    971.29213    84.115418 
   30800    1595.0899    -107.1687    1.4432708   -105.72543   -13803.849    4.3923216    4.3923216    4.3923216   -13803.849   -38046.225   -13998.529    10633.206    1675.4659     9544.346   -3856.7565    84.738818 
   30900    1393.0717   -106.98094    1.2604806   -105.72046   -2310.7042     4.388496     4.388496     4.388496   -2310.7042    17812.151    -18832.04   -5912.2237     12380.62    21219.438     11993.71    84.517592 
   31000    1565.8386   -107.12575    1.4168037   -105.70895    15765.991    4.3760095    4.3760095    4.3760095    15765.991    20769.692   -11706.171    38234.452   -9746.2334    4858.2979   -1837.0072    83.798215 
   31100    1124.6618   -106.74927    1.0176176   -105.73165   -8537.1795    4.3814323    4.3814323    4.3814323   -8537.1795   -23535.319    42351.161   -44427.381     321.3017    20090.525   -87.437839    84.110131 
   31200    2046.2162    -107.5863    1.8514594   -105.73484    -21838.42    4.3801441    4.3801441    4.3801441    -21838.42   -9362.8384   -27884.598   -28267.822    835.28859       2349.8    17088.518    84.035968 
   31300    1189.0936   -106.83774    1.0759169   -105.76182    12216.104    4.3678845    4.3678845    4.3678845    12216.104    39894.977   -4401.5956    1154.9309   -4924.5737    4565.2053   -8102.8643    83.332311 
   31400    1402.9998   -107.04867    1.2694637   -105.77921     2139.672    4.3677394    4.3677394    4.3677394     2139.672   -21688.471    38840.977    -10733.49    7300.8518    23658.015   -2828.6773    83.324011 
   31500    1340.3621   -106.98504    1.2127878   -105.77225    9941.0897    4.3856585    4.3856585    4.3856585    9941.0897      30894.9   -37481.868    36410.237   -353.50146   -16854.092    -31473.56    84.353759 
   31600    1438.1351   -107.05594    1.3012549   -105.75468   -20221.415    4.3822493    4.3822493    4.3822493   -20221.415   -11645.234   -8449.2717    -40569.74    14862.182     31653.28   -16245.688    84.157192 
   31700    1300.8371   -106.91819    1.1770248   -105.74116    24109.375    4.3746685    4.3746685    4.3746685    24109.375    36894.222    24577.231    10856.672    10426.804    2420.2596    1794.9884    83.721202 
   31800    1224.9766   -106.85474    1.1083845   -105.74636   -12393.009    4.3814586    4.3814586    4.3814586   -12393.009   -30228.673   -7619.3426    668.98704    945.15313   -741.54121   -33138.867     84.11165 
   31900    1251.2285    -106.8708    1.1321379   -105.73866    14455.958    4.3757072    4.3757072    4.3757072    14455.958    3133.4733    51630.881   -11396.481    17038.811    25021.379   -5956.6267    83.780847 
   32000    1362.2196   -106.98111     1.232565   -105.74855    10570.011    4.3826851    4.3826851    4.3826851    10570.011   -15765.173    68509.662   -21034.456    2691.2204   -8201.4355    2417.8992    84.182304 
   32100    1234.8983   -106.85883    1.1173619   -105.74147   -28241.956    4.3985192    4.3985192    4.3985192   -28241.956   -37852.935    12203.797   -59076.729    -5901.133    8163.2509   -9159.9759    85.098022 
   32200    1369.9123   -106.96052    1.2395255     -105.721    33813.195    4.3728194    4.3728194    4.3728194    33813.195    11569.165    62374.504    27495.915    6517.1211   -8561.6105    20947.337     83.61508 
   32300    1466.5153   -107.06569    1.3269339   -105.73876    -16730.31    4.3632731    4.3632731    4.3632731    -16730.31    3549.6895    -39056.85   -14683.771   -3366.0226    2173.8171   -12462.694    83.068658 
   32400    1367.5972     -106.993    1.2374307   -105.75557   -19728.689    4.3831478    4.3831478    4.3831478   -19728.689   -10177.156   -10743.514   -38265.398   -18294.162    12865.753   -12147.489    84.208969 
   32500    1835.5736   -107.40639    1.6608655   -105.74553   -13469.981    4.3841292    4.3841292    4.3841292   -13469.981   -7839.6185   -22107.928   -10462.398   -3067.4503   -20129.813    8840.3021    84.265547 
   32600    1001.7398   -106.66242   0.90639523   -105.75602    3264.0633    4.3766549    4.3766549    4.3766549    3264.0633    49426.186   -54499.833    14865.836   -15800.706    16031.749   -23272.691    83.835299 
   32700    2123.0248   -107.65906    1.9209575   -105.73811   -9607.4203    4.3704785    4.3704785    4.3704785   -9607.4203    -5159.753   -31825.038    8162.5305   -5367.8978   -4156.6561   -4478.1494     83.48087 
   32800    1071.2276   -106.72225   0.96926921   -105.75298     4499.003    4.3774399    4.3774399    4.3774399     4499.003     34196.19   -47583.003    26883.822   -10198.465   -4679.1493   -21491.121    83.880415 
   32900    1438.1091    -107.0497    1.3012314   -105.74847   -23050.097     4.389127     4.389127     4.389127   -23050.097   -14353.445   -33626.772   -21170.074   -11086.561    13095.115   -6557.3001    84.554054 
   33000    1920.0967   -107.46122    1.7373438   -105.72387   -1497.3728    4.3764435    4.3764435    4.3764435   -1497.3728    9699.3629    10206.117   -24397.598    1929.8015   -1148.5637   -8020.6058    83.823149 
   33100    1119.7458   -106.75408    1.0131696   -105.74091   -27434.009    4.3876609    4.3876609    4.3876609   -27434.009    17890.106   -63897.207   -36294.927   -16014.655    12889.238   -26193.582    84.469354 
   33200    1825.4899   -107.37201    1.6517416   -105.72027   -31460.853    4.3958234    4.3958234    4.3958234   -31460.853   -33388.568   -44291.394   -16702.597    4387.9599    14350.125    11784.685    84.941652 
   33300    1599.3964   -107.16452    1.4471674   -105.71736    831.21578    4.3781851    4.3781851    4.3781851    831.21578   -4889.8339    16693.222   -9309.7411   -9682.8696    6847.4426   -24165.264     83.92326 
   33400    1241.8726   -106.85471    1.1236724   -105.73103   -24185.094    4.3742597    4.3742597    4.3742597   -24185.094   -24214.702   -19646.924   -28693.656   -5240.7165    45720.082    9476.5515    83.697733 
   33500    1655.3237   -107.23382    1.4977717   -105.73605    3116.7742    4.3656173    4.3656173    4.3656173    3116.7742    24341.202   -29065.306    14074.427   -297.67439   -8039.2913   -10203.036    83.202615 
   33600    1244.3188   -106.88394    1.1258858   -105.75806    2281.5946     4.370454     4.370454     4.370454    2281.5946   -20325.846    28507.184   -1336.5547    -5724.954    8238.2797   -26313.332    83.479465 
   33700    1393.9933   -107.01677    1.2613144   -105.75546    4132.3251    4.3873654    4.3873654    4.3873654    4132.3251    19362.962   -14344.812    7378.8259   -9309.4769    1023.8933    20180.342    84.452285 
[...]
   91300    1034.2633   -106.69548   0.93582314   -105.75965   -6785.8836     4.355068     4.355068     4.355068   -6785.8836    -20625.27    19678.712   -19411.093   -26980.221   -3189.9411    16477.456     82.60091 
   91400    1522.3641   -107.13077    1.3774671    -105.7533    25062.723    4.3474133    4.3474133    4.3474133    25062.723    47970.934    30100.012   -2882.7781    19565.902   -783.06637    -13710.79    82.166123 
   91500    1418.4245    -107.0418    1.2834203   -105.75838   -23715.514      4.36291      4.36291      4.36291   -23715.514   -47120.113   -12067.841   -11958.589    24538.426    6087.7002    9633.0694     83.04792 
   91600    1282.0335   -106.91782    1.1600109   -105.75781    5244.0849    4.3561674    4.3561674    4.3561674    5244.0849    6378.9777    30536.244   -21182.967     -25032.1   -8203.5456    7892.0708    82.663478 
   91700    1378.8545   -107.00074    1.2476165   -105.75312   -6621.3517      4.36835      4.36835      4.36835   -6621.3517   -24314.358   -4769.8289    9220.1318    46480.503    2520.7117   -1170.9868    83.358956 
   91800    1379.0677   -106.99991    1.2478095    -105.7521   -23089.257    4.3572435    4.3572435    4.3572435   -23089.257   -30675.704   -14416.405   -24175.661   -11403.126    1654.2007    20131.178    82.724753 
   91900    1391.1653   -107.00757    1.2587556   -105.74881     21038.16    4.3513974    4.3513974    4.3513974     21038.16    40693.753    13344.331    9076.3949    16291.248    1574.0089   -2062.9751    82.392226 
   92000     1521.021   -107.13177    1.3762517   -105.75552   -34416.567    4.3632006    4.3632006    4.3632006   -34416.567   -55710.251   -56187.235    8647.7852    44663.697   -5074.8661    18012.009    83.064515 
   92100    1146.2374   -106.78748    1.0371397   -105.75035    39119.136    4.3530621    4.3530621    4.3530621    39119.136    88462.669    48594.818   -19700.079   -23001.151     15430.59    15835.608    82.486825 
   92200    1582.2613   -107.18892    1.4316633   -105.75726   -37862.712    4.3683907    4.3683907    4.3683907   -37862.712   -52724.935   -60310.016   -553.18511    54912.615     3630.449   -3194.4934    83.361287 
   92300    1628.1835   -107.22693    1.4732146   -105.75371    5657.2047    4.3615495    4.3615495    4.3615495    5657.2047    30105.395    12026.761   -25160.541   -7349.9963    4068.9794    29593.034    82.970251 
   92400    1105.5047   -106.75281    1.0002839   -105.75252     29140.65    4.3483202    4.3483202    4.3483202     29140.65    41534.267     29225.58    16662.102    39892.565    13770.456   -5855.3012    82.217553 
   92500    1703.2991    -107.2971    1.5411808   -105.75592   -14017.844    4.3629522    4.3629522    4.3629522   -14017.844   -34158.188   -16419.147    8523.8033    26773.077   -10707.174    10867.214    83.050329 
   92600    1320.7624   -106.94599    1.1950536   -105.75093    35607.071    4.3585814    4.3585814    4.3585814    35607.071    80442.696     41756.12   -15377.604   -7.3278694    617.48673    15708.633    82.800983 
   92700     1149.372   -106.79941    1.0399759   -105.75943   -2972.0455    4.3596648    4.3596648    4.3596648   -2972.0455    -41612.25    7355.3036     25340.81    52645.199    11519.819   -6343.2889    82.862743 
   92800    2094.3242   -107.63425    1.8949885   -105.73926    2786.3171    4.3592464    4.3592464    4.3592464    2786.3171     18609.18     32446.28   -42696.509   -15415.591   -33.457378     3139.758    82.838886 
   92900    699.86456   -106.38624   0.63325216   -105.75299    25264.918    4.3515352    4.3515352    4.3515352    25264.918    27176.582    38708.799    9909.3735    67545.324   -1299.6336    2532.7367    82.400057 
   93000    1987.0743   -107.54703    1.7979466   -105.74908   -30142.874    4.3659188    4.3659188    4.3659188   -30142.874   -29421.351   -22577.915   -38429.357     3740.059    2216.4007   -7446.1826    83.219859 
   93100    1239.9051   -106.87608    1.1218922   -105.75419    19254.288    4.3553838    4.3553838    4.3553838    19254.288    18065.727    47365.016   -7667.8782    31355.559    4915.8299    6366.4624     82.61888 
   93200    1310.3904   -106.94644    1.1856688   -105.76077    4605.9247    4.3520133    4.3520133    4.3520133    4605.9247    23695.122   -20923.357    11046.009    48649.717    2854.0253    5265.3953    82.427218 
   93300    1851.0657   -107.42546    1.6748832   -105.75057    16350.583    4.3585172    4.3585172    4.3585172    16350.583    14681.558    42331.648   -7961.4558   -15449.363    1844.0446    188.02537    82.797325 
   93400    808.90677   -106.50084   0.73191585   -105.76892    1413.6496    4.3604848    4.3604848    4.3604848    1413.6496    21104.976   -39280.422    22416.395    75966.242    268.34004      7554.76    82.909508 
   93500    2075.7929   -107.62269    1.8782211   -105.74447    5116.1748    4.3631239    4.3631239    4.3631239    5116.1748    19473.535     922.6461   -5047.6571   -24006.034     19345.35   -3810.6207    83.060137 
   93600    836.52875   -106.51781   0.75690879    -105.7609    32445.557    4.3505607    4.3505607    4.3505607    32445.557    14392.783    28470.294    54473.593    60923.077    -9204.658    9771.4729    82.344707 
   93700    1934.2745   -107.50443    1.7501722   -105.75425    -8665.038    4.3609484    4.3609484    4.3609484    -8665.038    -17488.25   -10486.592    1979.7281   -2543.9003    12151.678   -4293.9286    82.935954 
   93800    1185.5722   -106.82448    1.0727306   -105.75175    3883.2386     4.362637     4.362637     4.362637    3883.2386   -19909.345    21701.263    9857.7986    29036.222    3880.2968    3476.7724    83.032329 
   93900    1352.9404   -106.96968    1.2241689   -105.74551    15488.723    4.3607657    4.3607657    4.3607657    15488.723    38027.214    5650.9505    2788.0041    43352.191   -5861.2901    -2395.698    82.925531 
   94000    1681.0711   -107.25858    1.5210685   -105.73751    -6260.152    4.3638692    4.3638692    4.3638692    -6260.152   -2404.9958    4245.8217   -20621.282    316.51058     8139.927   -14622.858    83.102711 
   94100    1044.5068   -106.69027   0.94509174   -105.74517    7367.3826    4.3533039    4.3533039    4.3533039    7367.3826   -3768.6865   -5182.6318    31053.466    71015.835    -553.9777    10421.111    82.500571 
   94200    1793.4855   -107.35905    1.6227833   -105.73627    20079.117    4.3557143    4.3557143    4.3557143    20079.117     24235.38    52294.026   -16292.055   -11827.873   -3220.8539   -14033.397     82.63769 
   94300    946.05839   -106.61283   0.85601351   -105.75682   -26379.552    4.3560594    4.3560594    4.3560594   -26379.552   -69393.315   -48133.918    38388.577    69838.122     11328.38    10754.529     82.65733 
   94400    1820.3101   -107.38728    1.6470548   -105.74022    31128.799    4.3532686    4.3532686    4.3532686    31128.799    38558.265    50270.232    4557.8998   -12660.128   -5849.0837   -3711.3711    82.498562 
   94500    1082.5175   -106.73414   0.97948459   -105.75466   -50993.938    4.3672496    4.3672496    4.3672496   -50993.938   -101058.09   -42989.287   -8934.4374     58277.95   -8747.5655    4953.6254    83.295979 
   94600    1331.4183   -106.95173    1.2046953   -105.74704    13617.568    4.3523277    4.3523277    4.3523277    13617.568   -561.23935    27132.186    14281.759    26815.948    10592.994   -1423.5857    82.445082 
   94700    1648.1767   -107.23365    1.4913049   -105.74235   -16198.229    4.3543283    4.3543283    4.3543283   -16198.229   -48481.872    27518.161   -27630.977    16921.516     -18840.7    638.19781    82.558829 
   94800    719.40721   -106.40905   0.65093476   -105.75811    -28445.36     4.360992     4.360992     4.360992    -28445.36   -73671.811   -7386.8353   -4277.4347    67651.209    7312.1495    1112.6704    82.938444 
   94900    2286.8907   -107.80826    2.0692268   -105.73904   -1850.6785     4.355859     4.355859     4.355859   -1850.6785    316.23197    11191.071   -17059.338   -22834.551   -12349.314    2438.1888    82.645927 
   95000    508.87392   -106.22957   0.46043981   -105.76913   -24349.759    4.3648405    4.3648405    4.3648405   -24349.759   -59751.976   -36390.534    23093.232    76113.628   -13744.461   -7988.8162     83.15821 
   95100    1819.3735   -107.38979    1.6462074   -105.74358    19356.529    4.3571011    4.3571011    4.3571011    19356.529    5152.0499    55208.822   -2291.2841   -22238.256    1843.8243   -2493.2831    82.716646 
   95200    816.29686   -106.49509   0.73860256   -105.75649   -1133.5661    4.3639291    4.3639291    4.3639291   -1133.5661    -31036.75     1101.836    26534.216    51156.671   -16200.718   -4668.5175    83.106129 
   95300    1618.7732   -107.20825       1.4647   -105.74355   -18722.398    4.3658033    4.3658033    4.3658033   -18722.398   -55732.424    17575.859   -18010.628    27048.888    2848.5382    2691.1216    83.213254 
   95400    1486.0476   -107.07677    1.3446071   -105.73217    10078.443    4.3636671    4.3636671    4.3636671    10078.443    10856.089    13027.615    6351.6258    32613.214    2051.0379   -4771.4567     83.09116 
   95500     1035.321   -106.67484   0.93678018   -105.73806   -26112.511    4.3723085    4.3723085    4.3723085   -26112.511   -40269.294   -48802.778    10734.539    43183.128   -20028.398    1140.5089    83.585779 
   95600     1672.085   -107.22715    1.5129376   -105.71421    39143.985    4.3527846    4.3527846    4.3527846    39143.985    63859.049    25491.127    28081.781    8476.2592   -2505.1284    18655.464    82.471052 
   95700    895.08887    -106.5583   0.80989522   -105.74841    1339.3686    4.3579678    4.3579678    4.3579678    1339.3686   -41125.665   -2741.8945    47885.665    65019.294   -4070.1327   -8499.8678    82.766013 
   95800    2217.7916   -107.72993    2.0067044   -105.72322   -15640.136    4.3680286    4.3680286    4.3680286   -15640.136   -5697.9964    -5425.573    -35796.84   -26463.765   -22957.808    12685.493    83.340563 
   95900    807.30038   -106.47269   0.73046235   -105.74223    11620.444    4.3536532    4.3536532    4.3536532    11620.444   -26755.908   -7342.2185    68959.459    74992.803    14538.706    5806.6236    82.520432 
   96000    2044.7803   -107.57825    1.8501602   -105.72809    2230.9492    4.3566768    4.3566768    4.3566768    2230.9492   -1509.0744    30641.337   -22439.415    -27386.96   -24559.046   -2358.7938    82.692481 
   96100    760.68497   -106.43889   0.68828375   -105.75061   -15396.197     4.366293     4.366293     4.366293   -15396.197   -17538.613   -57456.927    28806.949     58829.99   -2788.3264   -4878.0996    83.241255 
   96200     1876.989   -107.43635    1.6983391   -105.73801    12547.275    4.3568711    4.3568711    4.3568711    12547.275    34050.957    -16584.32    20175.189    10284.381   -11131.958    1595.1276    82.703549 
   96300    1304.6454   -106.92872    1.1804706   -105.74825   -9978.0761    4.3628091    4.3628091    4.3628091   -9978.0761   -18750.115    -40765.98    29581.868      38487.3   -12380.922    66.998845    83.042156 
   96400    1404.8681    -107.0067    1.2711542   -105.73555   -25038.417    4.3613069    4.3613069    4.3613069   -25038.417   -12071.544   -62672.292     -371.417    56914.017    2254.2893   -5155.8257    82.956411 
   96500    1886.0851   -107.43477    1.7065694    -105.7282    15470.725     4.345398     4.345398     4.345398    15470.725   -1900.2647    18577.793    29734.645   -4226.3652    1601.8672    1268.5731    82.051908 
   96600    965.53526   -106.63344   0.87363659    -105.7598    1483.0015    4.3574117    4.3574117    4.3574117    1483.0015   -21612.049   -44894.345    70955.399    60035.717   -15442.677    6002.1686    82.734336 
   96700    1796.6485   -107.36663    1.6256453   -105.74099   -9218.4791    4.3716533    4.3716533    4.3716533   -9218.4791   -4610.8621    12074.374   -35118.949   -21980.961    26059.685    7420.0612     83.54821 
   96800    866.39152   -106.53138   0.78392926   -105.74745    1262.4345    4.3584794    4.3584794    4.3584794    1262.4345    968.88111   -3608.2368    6426.6593     36080.55    11169.018   -1299.8508     82.79517 
   96900    1488.7725   -107.08392    1.3470727   -105.73685    20081.585    4.3519352    4.3519352    4.3519352    20081.585    14038.222    36699.472    9507.0611     5320.161   -9055.8954    3572.7947    82.422783 
   97000    1414.0436   -107.02565    1.2794564   -105.74619   -30241.292    4.3647222    4.3647222    4.3647222   -30241.292   -57087.848    13874.718   -47510.747    11489.365    32049.311    1302.9758    83.151451 
   97100    1130.6824   -106.77405    1.0230652   -105.75098   -2112.9464    4.3578393    4.3578393    4.3578393   -2112.9464    14214.969   -42744.268     22190.46     50915.36    -14875.23    5627.5176    82.758693 
   97200     1884.943   -107.44592     1.705536   -105.74038   -3048.2747    4.3540207    4.3540207    4.3540207   -3048.2747    5389.5479    15380.755   -29915.127   -7992.0618     30356.04   -8906.8051    82.541328 
   97300    920.66362   -106.58902   0.83303579   -105.75598     10662.53    4.3550722    4.3550722    4.3550722     10662.53    30607.431   -6512.0172    7892.1768    56496.744    8111.0363    5813.1023    82.601145 
   97400    2002.7875   -107.55494    1.8121642   -105.74278   -10752.347     4.360721     4.360721     4.360721   -10752.347   -16903.897    2212.4183   -17565.562   -3567.6948     4898.511    1082.8455    82.922979 
   97500    1187.2101   -106.82601    1.0742126    -105.7518   -34313.054    4.3657753    4.3657753    4.3657753   -34313.054   -49228.847   -35827.053   -17883.262    42243.789     33190.31    4585.0774    83.211652 
   97600     1680.422   -107.26464    1.5204812   -105.74416   -1450.3996    4.3509459    4.3509459    4.3509459   -1450.3996    14084.805   -6128.7636    -12307.24    27439.446   -5738.7849    7211.5842    82.366586 
   97700    1598.9558   -107.19401    1.4467688   -105.74725   -15411.355    4.3620284    4.3620284    4.3620284   -15411.355   -16578.072   -8893.5921   -20762.402   -4476.4694    12311.578    4369.9221    82.997587 
   97800     914.6407   -106.57148   0.82758613   -105.74389   -12992.337    4.3621324    4.3621324    4.3621324   -12992.337      -6071.6   -50156.637    17251.225    56816.079     11396.81    5281.1557    83.003523 
   97900    2248.4627   -107.76521    2.0344563   -105.73075     -7115.66    4.3574098    4.3574098    4.3574098     -7115.66   -4434.8414    -7031.583   -9880.5555   -26832.831   -14522.154      9495.26     82.73423 
   98000    807.10651   -106.48678   0.73028693   -105.75649   -35921.604    4.3625684    4.3625684    4.3625684   -35921.604   -50336.489    -46336.25   -11092.073    66506.399    15583.264    -2626.905    83.028416 
   98100    2104.4937   -107.64381    1.9041901   -105.73962    580.64072    4.3501632    4.3501632    4.3501632    580.64072    3077.8984   -723.08109   -612.89515   -12740.985    400.82677    8264.7577    82.322142 
   98200    1194.6738   -106.83447     1.080966    -105.7535   -28122.752    4.3634682    4.3634682    4.3634682   -28122.752   -36625.615   -40357.962   -7384.6776    46899.007   -2146.7585     594.4219    83.079798 
   98300    1447.5368   -107.04841    1.3097617   -105.73865   -20499.959     4.372009     4.372009     4.372009   -20499.959   -28333.557   -9805.7438   -23360.577    8368.7083    17891.953    -752.2324    83.568602 
   98400    1584.1463   -107.16238    1.4333688   -105.72901   -4518.3216    4.3544086    4.3544086    4.3544086   -4518.3216    7558.1416   -21180.379    67.272411    11436.477   -10577.974    2836.0149    82.563396 
   98500    1466.0126   -107.06248     1.326479     -105.736   -12458.316    4.3518766    4.3518766    4.3518766   -12458.316   -49790.894   -23508.721    35924.669    41432.776   -5122.9785   -2069.5682     82.41945 
   98600    1323.1255    -106.9409    1.1971918   -105.74371   -9934.9244    4.3568861    4.3568861    4.3568861   -9934.9244   -20928.279    11810.306     -20686.8   -30735.709    12953.227    1427.9869    82.704399 
   98700     1498.393   -107.10626    1.3557775   -105.75049    8171.6185    4.3578222    4.3578222    4.3578222    8171.6185   -17923.623   -17049.863    59488.342    36438.637    -6457.518    13937.878    82.757719 
   98800    1464.0694   -107.07786    1.3247208   -105.75314   -11047.306    4.3602419    4.3602419    4.3602419   -11047.306   -18207.789   -7585.2127   -7348.9164   -24950.151    9766.8458   -2251.4659    82.895651 
   98900    1239.0676   -106.87395    1.1211344   -105.75282    13888.728    4.3489491    4.3489491    4.3489491    13888.728    8781.9722    -15892.75    48776.962   -8304.3917    16094.475   -3724.8043     82.25323 
   99000    1431.8349   -107.04334    1.2955543   -105.74779     18426.74    4.3604327    4.3604327    4.3604327     18426.74    18817.373    1705.4674    34757.379    4461.6667    14026.342    2978.7182    82.906533 
   99100     764.0509   -106.45355   0.69132931   -105.76222   -32028.763    4.3661906    4.3661906    4.3661906   -32028.763   -33263.837   -24016.785   -38805.667   -35359.015    25637.219    28.802049      83.2354 
   99200    1987.8675   -107.53416    1.7986643    -105.7355    37445.938    4.3474652    4.3474652    4.3474652    37445.938    52508.978      44.4702    59784.364      7643.44   -669.00511    5385.2809    82.169062 
   99300    876.58182    -106.5567   0.79314965   -105.76355   -2801.2666    4.3522242    4.3522242    4.3522242   -2801.2666   -6698.6521   -21297.069    19591.922   -33642.223    43316.329    5070.2228      82.4392 
   99400    1459.0617   -107.06894    1.3201897   -105.74875    3915.9252    4.3667303    4.3667303    4.3667303    3915.9252    22597.565    -17566.17    6716.3802   -19096.379   -12795.853    4189.0929     83.26627 
   99500    1706.1865   -107.28374    1.5437934   -105.73994    3318.2731    4.3579056    4.3579056    4.3579056    3318.2731   -7062.6707    3497.8942    13519.596    11689.213    24162.216    7930.5203    82.762471 
   99600    936.10552   -106.60522   0.84700795   -105.75821    1823.2126    4.3538532    4.3538532    4.3538532    1823.2126   -16580.469    36970.041   -14919.933   -27711.376    14884.175    6881.2128    82.531807 
   99700     1857.215   -107.42449    1.6804472   -105.74404    848.68076    4.3575224    4.3575224    4.3575224    848.68076   -19588.706    27215.725   -5080.9768    17493.913   -3394.0538    5838.5376    82.740641 
   99800    725.48919   -106.42352   0.65643786   -105.76708    620.34692    4.3516053    4.3516053    4.3516053    620.34692   -17208.023    22901.377   -3832.3136    9498.5565    35224.613   -2016.2348    82.404036 
   99900    2091.4074   -107.64955    1.8923494    -105.7572    -21978.04    4.3579758    4.3579758    4.3579758    -21978.04   -29036.097   -13593.394   -23304.628   -30774.596   -7884.4951    5704.7136    82.766469 
  100000    1263.5493   -106.90262     1.143286   -105.75933    -19523.06    4.3559412    4.3559412    4.3559412    -19523.06   -26685.988    1698.8671   -33582.059    45526.656    26835.802    5516.3601    82.650605 
Loop time of 21.4218 on 1 procs for 100000 steps with 8 atoms

Pair  time (%) = 6.55755 (30.6116)
Kspce time (%) = 5.24413 (24.4803)
Neigh time (%) = 0.109937 (0.513201)
Comm  time (%) = 0.974497 (4.54909)
Outpt time (%) = 0.0227132 (0.106028)
Other time (%) = 8.51298 (39.7398)

Nlocal:    8 ave 8 max 8 min
Histogram: 1 0 0 0 0 0 0 0 0 0
Nghost:    1864 ave 1864 max 1864 min
Histogram: 1 0 0 0 0 0 0 0 0 0
Neighs:    2136 ave 2136 max 2136 min
Histogram: 1 0 0 0 0 0 0 0 0 0

Total # of neighbors = 2136
Ave neighs/atom = 267
Neighbor list builds = 1363
Dangerous builds = 0
unfix 20
unfix 21
print "seeds:8590425"
seeds:8590425
