LAMMPS (11 Aug 2017)
Reading data file ...
  triclinic box = (0 0 0) to (2.4819 4.2987 6.0783) with tilt (0 0 0)
  1 by 1 by 1 MPI processor grid
  reading atoms ...
  6 atoms
6 atoms in group Ni
Neighbor list info ...
  update every 1 steps, delay 0 steps, check yes
  max neighbors/atom: 2000, page size: 100000
  master list distance cutoff = 11
  ghost atom cutoff = 11
  binsize = 5.5, bins = 1 1 2
  1 neighbor lists, perpetual/occasional/extra = 1 0 0
  (1) pair eam/alloy, perpetual
      attributes: half, newton on
      pair build: half/bin/newton/tri
      stencil: half/bin/3d/newton/tri
      bin: standard
Setting up cg style minimization ...
  Unit style    : metal
  Current step  : 0
WARNING: Energy due to 3 extra global DOFs will be included in minimizer energies
Per MPI rank memory allocation (min/avg/max) = 4.298 | 4.298 | 4.298 Mbytes
Step PotEng Xhi Xlo Yhi Ylo Zhi Xy Xz Yz Press Pxx Pyy Pzz Pxy Pxz Pyz c_eatoms 
       0   -27.031977       2.4819            0       4.2987            0       6.0783            0            0            0    10226.557    10185.338    10193.821    10300.511 -0.0008234291 -0.00030860403   -2.2521496   -27.031977 
      10   -27.033097    2.4840611  -0.00216105    4.3024728 -0.0037728465    6.0841293            0            0            0    -1.438973   -2.5328336  -0.66877983   -1.1153056 -3.11891e-07 5.3068915e-07  -0.49364858   -27.033097 
      20   -27.033097    2.4840579 -0.0021579367    4.3024761 -0.0037761009    6.0841301            0            0            0 -0.0029304534 -0.0029662976 -0.0019401636 -0.0038848989 6.0902927e-12 -2.703951e-11 -0.00027174414   -27.033097 
      30   -27.033097    2.4840579 -0.0021579357    4.3024761 -0.0037761038    6.0841301            0            0            0 2.2010322e-09 2.7952933e-09 1.5929184e-09 2.2148849e-09    2.062e-11 -4.5492033e-11 3.0349383e-10   -27.033097 
      40   -27.033097    2.4840579 -0.0021579357    4.3024761 -0.0037761038    6.0841301            0            0            0 6.6814332e-10 5.3132162e-10 6.8042417e-10 7.9268417e-10 -6.7256008e-11 -2.4072604e-11 -2.1582237e-11   -27.033097 
      41   -27.033097    2.4840579 -0.0021579357    4.3024761 -0.0037761038    6.0841301            0            0            0 8.4488925e-10 6.9868666e-10 8.2538248e-10 1.0105986e-09 -8.1196437e-11 3.6064613e-13 -5.5529888e-11   -27.033097 
Loop time of 0.010129 on 1 procs for 41 steps with 6 atoms

100.0% CPU use with 1 MPI tasks x no OpenMP threads

Minimization stats:
  Stopping criterion = energy tolerance
  Energy initial, next-to-last, final = 
        -27.0319766629     -27.0330965103     -27.0330965103
  Force two-norm initial, final = 0.71695 6.0677e-14
  Force max component initial, final = 0.416919 4.10477e-14
  Final line search alpha, max atom move = 1 4.10477e-14
  Iterations, force evaluations = 41 81

MPI task timing breakdown:
Section |  min time  |  avg time  |  max time  |%varavg| %total
---------------------------------------------------------------
Pair    | 0.0076237  | 0.0076237  | 0.0076237  |   0.0 | 75.27
Neigh   | 0          | 0          | 0          |   0.0 |  0.00
Comm    | 0.00061369 | 0.00061369 | 0.00061369 |   0.0 |  6.06
Output  | 5.6744e-05 | 5.6744e-05 | 5.6744e-05 |   0.0 |  0.56
Modify  | 0          | 0          | 0          |   0.0 |  0.00
Other   |            | 0.001835   |            |       | 18.12

Nlocal:    6 ave 6 max 6 min
Histogram: 1 0 0 0 0 0 0 0 0 0
Nghost:    1626 ave 1626 max 1626 min
Histogram: 1 0 0 0 0 0 0 0 0 0
Neighs:    1590 ave 1590 max 1590 min
Histogram: 1 0 0 0 0 0 0 0 0 0

Total # of neighbors = 1590
Ave neighs/atom = 265
Neighbor list builds = 0
Dangerous builds = 0
pypospack:output_section:begin
tot_energy = -27.0330965103106
num_atoms = 6
a11 = 2.48621587130909
a22 = 4.30625220769148
a33 = 6.08996027511637
a12 = 0
a13 = 0
a23 = 0
tot_press = 8.44889248962162e-10
pxx = 6.98686656925263e-10
pyy = 8.25382479218904e-10
pzz = 1.01059861074232e-09
pxy = -8.11964369976758e-11
pxz = 3.60646133239425e-13
pyz = -5.55298883987378e-11
pypospack:output_section:done
pypospack:lammps_sim:done
Total wall time: 0:00:00
