LAMMPS (11 Aug 2017)
Reading data file ...
  triclinic box = (0 0 0) to (2.3745 4.1129 34.893) with tilt (0 0 -0.0004)
  1 by 1 by 1 MPI processor grid
  reading atoms ...
  18 atoms
18 atoms in group Ni
Neighbor list info ...
  update every 1 steps, delay 0 steps, check yes
  max neighbors/atom: 2000, page size: 100000
  master list distance cutoff = 5.64464
  ghost atom cutoff = 5.64464
  binsize = 2.82232, bins = 1 2 13
  1 neighbor lists, perpetual/occasional/extra = 1 0 0
  (1) pair eam/alloy, perpetual
      attributes: half, newton on
      pair build: half/bin/newton/tri
      stencil: half/bin/3d/newton/tri
      bin: standard
Setting up cg style minimization ...
  Unit style    : metal
  Current step  : 0
Per MPI rank memory allocation (min/avg/max) = 4.217 | 4.217 | 4.217 Mbytes
Step PotEng Lx Ly Lz Xy Xz Yz Press Pxx Pyy Pzz Pxy Pxz Pyz c_eatoms 
       0   -77.278706       2.3745       4.1129       34.893            0            0      -0.0004   -9355.9835   -10720.178   -10751.009   -6596.7627 -0.00083955037 -0.00019357222     5.363555   -77.278706 
       1   -77.287209       2.3745       4.1129       34.893            0            0      -0.0004   -8031.3556   -9802.1318   -9832.8936   -4459.0414 -5.6043555e-05 6.2970575e-05    5.3514577   -77.287209 
       2   -77.289036       2.3745       4.1129       34.893            0            0      -0.0004   -7006.3245   -9099.5393   -9130.1384   -2789.2959 -1.2302149e-06 6.0625518e-07    5.2591933   -77.289036 
       3    -77.28942       2.3745       4.1129       34.893            0            0      -0.0004    -6736.694   -8923.3502   -8953.8137   -2332.9179 -4.692323e-06 -2.3557965e-06     5.156809    -77.28942 
       4   -77.289506       2.3745       4.1129       34.893            0            0      -0.0004   -6390.2935   -8688.1916   -8718.5134   -1764.1756 -4.701981e-07 -9.8354491e-07    5.0532397   -77.289506 
       5   -77.289593       2.3745       4.1129       34.893            0            0      -0.0004   -6013.7357   -8439.3166   -8469.2899   -1132.6008 4.0414538e-06 3.3776899e-06    4.7788236   -77.289593 
       6   -77.289761       2.3745       4.1129       34.893            0            0      -0.0004    -5293.737   -7966.7705   -7995.8785    81.437954 -9.9590359e-06 -1.5525962e-06    4.0891198   -77.289761 
       7   -77.289765       2.3745       4.1129       34.893            0            0      -0.0004   -5338.5614   -7997.2833   -8026.3105    7.9096757 -1.1416199e-05 -5.9735111e-06    4.0198347   -77.289765 
       8   -77.289765       2.3745       4.1129       34.893            0            0      -0.0004   -5339.6285   -7998.0387   -8027.0326    6.1859013 1.4310551e-06 2.448673e-06    3.9920462   -77.289765 
       9   -77.289765       2.3745       4.1129       34.893            0            0      -0.0004   -5339.4563   -7997.9373    -8026.869    6.4373987 1.0249895e-06 1.7206961e-06    3.9403898   -77.289765 
      10   -77.289765       2.3745       4.1129       34.893            0            0      -0.0004    -5341.109   -7999.2283   -8027.7414    3.6425612 -5.1800817e-06 -2.8427766e-06     3.592563   -77.289765 
      11   -77.289765       2.3745       4.1129       34.893            0            0      -0.0004   -5342.8318   -8000.5477   -8028.7168   0.76926107 -7.8032498e-07 4.1439694e-07    3.3068172   -77.289765 
      12   -77.289765       2.3745       4.1129       34.893            0            0      -0.0004   -5344.1081   -8001.5655   -8029.3899   -1.3687959 -9.1075749e-07 -7.6461263e-07    3.0205214   -77.289765 
      13   -77.289765       2.3745       4.1129       34.893            0            0      -0.0004   -5344.5986   -8002.0057   -8029.5982   -2.1918159 -2.2171953e-06 -2.3750446e-06    2.8277768   -77.289765 
      14   -77.289765       2.3745       4.1129       34.893            0            0      -0.0004   -5344.6778   -8002.1566   -8029.5486   -2.3280853 -1.1871145e-06 -9.7370169e-07    2.6610891   -77.289765 
      15   -77.289765       2.3745       4.1129       34.893            0            0      -0.0004   -5344.2695   -8002.1875   -8028.9686    -1.652264 1.415536e-06 3.2823787e-06    2.1529401   -77.289765 
      16   -77.289765       2.3745       4.1129       34.893            0            0      -0.0004   -5343.8855   -8002.3349    -8028.304   -1.0175747 6.0204539e-06 7.8703474e-06     1.477828   -77.289765 
      17   -77.289765       2.3745       4.1129       34.893            0            0      -0.0004   -5343.8322   -8002.7682   -8027.8207  -0.90788533 3.8351211e-06 7.6072277e-06    0.7162893   -77.289765 
      18   -77.289765       2.3745       4.1129       34.893            0            0      -0.0004   -5343.7353   -8002.9914   -8027.4838  -0.73074833 1.9458835e-06 3.5110222e-06   0.25139757   -77.289765 
      19   -77.289765       2.3745       4.1129       34.893            0            0      -0.0004   -5343.3851   -8002.8963   -8027.1024  -0.15641812 2.322759e-07 6.3355387e-07  0.013945357   -77.289765 
      20   -77.289765       2.3745       4.1129       34.893            0            0      -0.0004   -5343.3159    -8002.877   -8027.0291 -0.041697519 2.2545258e-08 1.3110881e-08 -0.030857036   -77.289765 
      21   -77.289765       2.3745       4.1129       34.893            0            0      -0.0004   -5343.3112   -8002.8773   -8027.0232 -0.033210024 -1.2975562e-07 -2.0832134e-07 -0.036023212   -77.289765 
      22   -77.289765       2.3745       4.1129       34.893            0            0      -0.0004   -5343.3057   -8002.8639   -8027.0295 -0.023711164 -1.7706759e-07 -2.7454924e-07 -0.019686944   -77.289765 
      23   -77.289765       2.3745       4.1129       34.893            0            0      -0.0004   -5343.3023    -8002.857   -8027.0319 -0.017843268 -1.6119056e-07 -2.6003655e-07 -0.011964568   -77.289765 
      24   -77.289765       2.3745       4.1129       34.893            0            0      -0.0004   -5343.2922   -8002.8438   -8027.0316 -0.0012161464 -1.0899465e-07 -1.8051697e-07 -0.0012911893   -77.289765 
      25   -77.289765       2.3745       4.1129       34.893            0            0      -0.0004   -5343.2922    -8002.843   -8027.0325 -0.001080717 -9.7986084e-08 -1.621229e-07 8.6945638e-05   -77.289765 
      26   -77.289765       2.3745       4.1129       34.893            0            0      -0.0004   -5343.2921   -8002.8428   -8027.0326 -0.00098829487 -9.292572e-08 -1.5417834e-07 0.0003570029   -77.289765 
      27   -77.289765       2.3745       4.1129       34.893            0            0      -0.0004   -5343.2918   -8002.8426   -8027.0324 -0.00053058138 -8.7086677e-08 -1.4470129e-07 0.00045100856   -77.289765 
      28   -77.289765       2.3745       4.1129       34.893            0            0      -0.0004   -5343.2921   -8002.8427   -8027.0326 -0.00089012196 -8.4039889e-08 -1.3959141e-07 0.00047187621   -77.289765 
      29   -77.289765       2.3745       4.1129       34.893            0            0      -0.0004    -5343.292   -8002.8427   -8027.0326 -0.00081261667 -8.2259382e-08 -1.3667492e-07 0.00047097046   -77.289765 
      30   -77.289765       2.3745       4.1129       34.893            0            0      -0.0004   -5343.2919   -8002.8426   -8027.0325 -0.00066024433 -7.9814512e-08 -1.3259348e-07 0.00046492421   -77.289765 
      31   -77.289765       2.3745       4.1129       34.893            0            0      -0.0004   -5343.2918   -8002.8425   -8027.0324 -0.00039589612 -7.3656861e-08 -1.2242212e-07 0.00044357899   -77.289765 
      32   -77.289765       2.3745       4.1129       34.893            0            0      -0.0004   -5343.2916   -8002.8425   -8027.0323 -0.00014587932 -6.6744673e-08 -1.1090964e-07 0.00041428602   -77.289765 
      33   -77.289765       2.3745       4.1129       34.893            0            0      -0.0004   -5343.2915   -8002.8424   -8027.0321 0.00014750202 -5.7554652e-08 -9.5627604e-08 0.00036434691   -77.289765 
      34   -77.289765       2.3745       4.1129       34.893            0            0      -0.0004   -5343.2914   -8002.8423   -8027.0321 0.00024068439 -5.500147e-08 -9.1397008e-08 0.00034509204   -77.289765 
      35   -77.289765       2.3745       4.1129       34.893            0            0      -0.0004   -5343.2914   -8002.8424   -8027.0321 0.00027799077 -5.2419187e-08 -8.7092615e-08 0.0003123058   -77.289765 
      36   -77.289765       2.3745       4.1129       34.893            0            0      -0.0004   -5343.2914   -8002.8424    -8027.032 0.00026412064 -4.2582878e-08 -7.0694699e-08 0.00020598101   -77.289765 
      37   -77.289765       2.3745       4.1129       34.893            0            0      -0.0004   -5343.2915   -8002.8425    -8027.032 0.00012315475 -2.6879339e-08 -4.4603304e-08 9.6544499e-05   -77.289765 
      38   -77.289765       2.3745       4.1129       34.893            0            0      -0.0004   -5343.2915   -8002.8426    -8027.032 2.3109173e-05 -1.279834e-08 -2.1235194e-08 1.7245637e-05   -77.289765 
      39   -77.289765       2.3745       4.1129       34.893            0            0      -0.0004   -5343.2915   -8002.8427    -8027.032 -9.7200562e-06 -6.9863105e-09 -1.1592283e-08 2.1923013e-06   -77.289765 
      40   -77.289765       2.3745       4.1129       34.893            0            0      -0.0004   -5343.2915   -8002.8426    -8027.032 -1.0900743e-06 -3.5670168e-09 -5.8799532e-09 -1.4187844e-06   -77.289765 
      41   -77.289765       2.3745       4.1129       34.893            0            0      -0.0004   -5343.2915   -8002.8426    -8027.032 6.6060378e-06 -2.3791639e-09 -3.9521799e-09 -1.3055053e-06   -77.289765 
      42   -77.289765       2.3745       4.1129       34.893            0            0      -0.0004   -5343.2915   -8002.8426    -8027.032 1.6046486e-06 -2.4187699e-10 -3.6767651e-10 6.9022897e-08   -77.289765 
      43   -77.289765       2.3745       4.1129       34.893            0            0      -0.0004   -5343.2915   -8002.8426    -8027.032 4.3148297e-07 -1.421117e-10 -2.2334635e-10 1.0869242e-07   -77.289765 
      44   -77.289765       2.3745       4.1129       34.893            0            0      -0.0004   -5343.2915   -8002.8426    -8027.032 3.9541243e-07 -1.1203204e-10 -2.006398e-10 1.0731972e-07   -77.289765 
      45   -77.289765       2.3745       4.1129       34.893            0            0      -0.0004   -5343.2915   -8002.8426    -8027.032 4.1046244e-07 -1.1066182e-10 -1.8452337e-10 1.0323515e-07   -77.289765 
      46   -77.289765       2.3745       4.1129       34.893            0            0      -0.0004   -5343.2915   -8002.8426    -8027.032 2.5567892e-07 -8.8607755e-11 -9.3501409e-11 7.2682371e-08   -77.289765 
      47   -77.289765       2.3745       4.1129       34.893            0            0      -0.0004   -5343.2915   -8002.8426    -8027.032 7.5734445e-08 -1.8987376e-11 -1.3832728e-11 4.9874095e-08   -77.289765 
      48   -77.289765       2.3745       4.1129       34.893            0            0      -0.0004   -5343.2915   -8002.8426    -8027.032 5.3753458e-08 1.8856879e-11 4.5674101e-12 4.8189373e-08   -77.289765 
      49   -77.289765       2.3745       4.1129       34.893            0            0      -0.0004   -5343.2915   -8002.8426    -8027.032 3.5331396e-08 -8.2213381e-12 -3.2232865e-11 4.8003806e-08   -77.289765 
      50   -77.289765       2.3745       4.1129       34.893            0            0      -0.0004   -5343.2915   -8002.8426    -8027.032 1.7987766e-09 -1.9509366e-11 -3.7452763e-11 4.832222e-08   -77.289765 
      51   -77.289765       2.3745       4.1129       34.893            0            0      -0.0004   -5343.2915   -8002.8426    -8027.032 -9.4104307e-09 -1.5333448e-11 -1.8595884e-11 4.6868348e-08   -77.289765 
      52   -77.289765       2.3745       4.1129       34.893            0            0      -0.0004   -5343.2915   -8002.8426    -8027.032 -1.728308e-08 1.2527753e-11 -1.01788e-11 4.4529834e-08   -77.289765 
      53   -77.289765       2.3745       4.1129       34.893            0            0      -0.0004   -5343.2915   -8002.8426    -8027.032 -2.5279962e-08 -1.4354717e-12 -2.7600207e-11 4.035346e-08   -77.289765 
      54   -77.289765       2.3745       4.1129       34.893            0            0      -0.0004   -5343.2915   -8002.8426    -8027.032 -2.7557925e-08 -4.1889675e-11 -4.9654272e-11 3.9683225e-08   -77.289765 
      55   -77.289765       2.3745       4.1129       34.893            0            0      -0.0004   -5343.2915   -8002.8426    -8027.032 -1.3358761e-08 -2.2641304e-11 -2.7861201e-11 3.5899974e-08   -77.289765 
      56   -77.289765       2.3745       4.1129       34.893            0            0      -0.0004   -5343.2915   -8002.8426    -8027.032 2.0065285e-09 -3.5821545e-11 -1.729091e-11 3.118347e-08   -77.289765 
      57   -77.289765       2.3745       4.1129       34.893            0            0      -0.0004   -5343.2915   -8002.8426    -8027.032 8.7015687e-09 1.6312179e-12 7.9603433e-12 2.6280356e-08   -77.289765 
      58   -77.289765       2.3745       4.1129       34.893            0            0      -0.0004   -5343.2915   -8002.8426    -8027.032 1.4684615e-08 1.1483774e-11 -1.6312179e-11 2.1777803e-08   -77.289765 
      59   -77.289765       2.3745       4.1129       34.893            0            0      -0.0004   -5343.2915   -8002.8426    -8027.032 1.8376126e-08 2.740446e-12 8.7433279e-12 1.8360728e-08   -77.289765 
      60   -77.289765       2.3745       4.1129       34.893            0            0      -0.0004   -5343.2915   -8002.8426    -8027.032 2.2765016e-08 -2.1010086e-11 -2.1597325e-11 1.4223894e-08   -77.289765 
      61   -77.289765       2.3745       4.1129       34.893            0            0      -0.0004   -5343.2915   -8002.8426    -8027.032 2.1297181e-08 -1.5007205e-12 1.6964666e-12  5.81353e-09   -77.289765 
      62   -77.289765       2.3745       4.1129       34.893            0            0      -0.0004   -5343.2915   -8002.8426    -8027.032 1.5494743e-08 5.4156434e-12 1.2397256e-11 3.883212e-09   -77.289765 
      63   -77.289765       2.3745       4.1129       34.893            0            0      -0.0004   -5343.2915   -8002.8426    -8027.032 1.2704186e-08 -2.9361922e-11 -3.0014409e-11 3.2634145e-09   -77.289765 
Loop time of 0.005234 on 1 procs for 63 steps with 18 atoms

87.8% CPU use with 1 MPI tasks x no OpenMP threads

Minimization stats:
  Stopping criterion = energy tolerance
  Energy initial, next-to-last, final = 
        -77.2787063554     -77.2897652693     -77.2897652693
  Force two-norm initial, final = 0.505468 2.44128e-13
  Force max component initial, final = 0.180728 7.76879e-14
  Final line search alpha, max atom move = 1 7.76879e-14
  Iterations, force evaluations = 63 126

MPI task timing breakdown:
Section |  min time  |  avg time  |  max time  |%varavg| %total
---------------------------------------------------------------
Pair    | 0.0036218  | 0.0036218  | 0.0036218  |   0.0 | 69.20
Neigh   | 0          | 0          | 0          |   0.0 |  0.00
Comm    | 0.00028944 | 0.00028944 | 0.00028944 |   0.0 |  5.53
Output  | 0.0011668  | 0.0011668  | 0.0011668  |   0.0 | 22.29
Modify  | 0          | 0          | 0          |   0.0 |  0.00
Other   |            | 0.0001559  |            |       |  2.98

Nlocal:    18 ave 18 max 18 min
Histogram: 1 0 0 0 0 0 0 0 0 0
Nghost:    490 ave 490 max 490 min
Histogram: 1 0 0 0 0 0 0 0 0 0
Neighs:    618 ave 618 max 618 min
Histogram: 1 0 0 0 0 0 0 0 0 0

Total # of neighbors = 618
Ave neighs/atom = 34.3333
Neighbor list builds = 0
Dangerous builds = 0
pypospack:output_section:begin
tot_energy = -77.2897652692859
num_atoms = 18
a11 = 2.3745
a22 = 4.1129
a33 = 34.893
a12 = 0
a13 = 0
a23 = -0.0004
tot_press = -5343.29154235398
pxx = -8002.84264779649
pyy = -8027.03197927814
pzz = 1.27041858755287e-08
pxy = -2.93619219121739e-11
pxz = -3.00144090657777e-11
pyz = 3.26341449874972e-09
pypospack:output_section:done
pypospack:lammps_sim:done
Total wall time: 0:00:00
