LAMMPS (11 Aug 2017)
Reading data file ...
  triclinic box = (0 0 0) to (3.6 6.2354 5.8788) with tilt (0 0 0)
  1 by 1 by 1 MPI processor grid
  reading atoms ...
  4 atoms
4 atoms in group Ni
Neighbor list info ...
  update every 1 steps, delay 0 steps, check yes
  max neighbors/atom: 2000, page size: 100000
  master list distance cutoff = 5.64464
  ghost atom cutoff = 5.64464
  binsize = 2.82232, bins = 2 3 3
  1 neighbor lists, perpetual/occasional/extra = 1 0 0
  (1) pair eam/alloy, perpetual
      attributes: half, newton on
      pair build: half/bin/newton/tri
      stencil: half/bin/3d/newton/tri
      bin: standard
Setting up cg style minimization ...
  Unit style    : metal
  Current step  : 0
WARNING: Energy due to 3 extra global DOFs will be included in minimizer energies
Per MPI rank memory allocation (min/avg/max) = 4.194 | 4.194 | 4.194 Mbytes
Step PotEng Xhi Xlo Yhi Ylo Zhi Xy Xz Yz Press Pxx Pyy Pzz Pxy Pxz Pyz c_eatoms 
       0   -5.7270366          3.6            0       6.2354            0       5.8788            0            0            0   -122047.69   -122049.16   -122046.89   -122047.04 -4.7177305e-12 -1.347923e-12 1.0783384e-11   -5.7270366 
      10   -6.0336933        3.582        0.018    6.2042236  0.031176417    5.8494065            0            0            0   -128747.02   -128748.56   -128746.17   -128746.33 -1.0429723e-11 3.5597805e-12            0   -6.0336933 
      20   -6.3507325        3.564        0.036    6.1730472  0.062352831     5.820013            0            0            0   -135830.09   -135831.71    -135829.2   -135829.37 3.748188e-12 -7.1607175e-12 -2.864287e-11   -6.3507325 
      30   -6.6784712        3.546        0.054    6.1418708  0.093529239    5.7906195            0            0            0   -143314.68   -143316.39   -143313.74   -143313.92 7.3383182e-12 -4.3845297e-12 8.8613653e-12   -6.6784712 
      40   -7.0172203        3.528        0.072    6.1106944   0.12470564    5.7612261            0            0            0   -151218.02   -151219.81   -151217.03   -151217.22 9.0935637e-12 -1.7472973e-11 6.094116e-12   -7.0172203 
      50   -7.3672813         3.51         0.09     6.079518   0.15588204    5.7318326            0            0            0   -159556.37   -159558.25   -159555.33   -159555.52 1.4247591e-12 -6.5342401e-12 2.5154368e-11   -7.3672813 
      60   -7.7289409        3.492        0.108    6.0483416   0.18705844    5.7024391            0            0            0   -168344.49   -168346.47    -168343.4    -168343.6 7.0492891e-12 -2.3835726e-11 -2.5965727e-11   -7.7289409 
      70    -8.102466        3.474        0.126    6.0171652   0.21823483    5.6730457            0            0            0   -177594.99   -177597.07   -177593.85   -177594.06 -1.8224025e-11 3.6762257e-11 6.7030895e-12    -8.102466 
      80   -8.4880972        3.456        0.144    5.9859888   0.24941122    5.6436522            0            0            0   -187317.48   -187319.66   -187316.29    -187316.5 3.2456484e-12 -2.3152292e-11  1.38481e-11   -8.4880972 
      90   -8.8860772        3.438        0.162    5.9548124   0.28058762    5.6142587            0            0            0   -197692.12   -197694.25   -197691.02    -197691.1 1.9230352e-11 1.3001318e-11 1.7797988e-11   -8.8860772 
     100    -9.297706         3.42         0.18     5.923636   0.31176405    5.5848653            0            0            0   -209223.88   -209226.08   -209222.74   -209222.81 2.2274613e-11 2.867387e-12 2.0281165e-11    -9.297706 
     110   -9.7235974        3.402        0.198    5.8924595   0.34294049    5.5554718            0            0            0   -221246.14   -221248.42   -221244.97   -221245.04 -4.2124254e-12 -1.2248897e-11 4.6306804e-12   -9.7235974 
     120   -10.163758        3.384        0.216    5.8612831   0.37411693    5.5260783            0            0            0   -233749.59   -233751.94   -233748.38   -233748.45 -7.5100217e-12 2.3488134e-11 1.2423986e-11   -10.163758 
     130    -10.61812        3.366        0.234    5.8301066   0.40529338    5.4966848            0            0            0   -246713.71   -246716.12   -246712.48   -246712.54 2.0405425e-11 2.6226409e-12 1.2921304e-11    -10.61812 
     140   -11.086523        3.348        0.252    5.7989302   0.43646983    5.4672913            0            0            0   -260103.79   -260106.25   -260102.54    -260102.6 8.8078278e-12 -2.0661972e-11 3.9734561e-13   -11.086523 
     150   -11.568691         3.33         0.27    5.7677537    0.4676463    5.4378978            0            0            0   -273867.19   -273869.67   -273865.92   -273865.99 4.1153502e-13 1.159157e-11 -6.1867431e-11   -11.568691 
     160   -12.064204        3.312        0.288    5.7365772   0.49882277    5.4085043            0            0            0   -287928.75   -287931.23   -287927.48   -287927.54 -4.1219456e-12 1.4924286e-11 2.5442354e-11   -12.064204 
     170   -12.572468        3.294        0.306    5.7054007   0.52999926    5.3791107            0            0            0    -302185.1   -302187.55   -302183.84    -302183.9 1.1492175e-11 -5.5103506e-11 2.5931062e-11   -12.572468 
     180   -13.092677        3.276        0.324    5.6742242   0.56117577    5.3497172            0            0            0   -316497.69   -316500.08   -316496.46   -316496.52 1.3751265e-12 2.4446694e-11 1.0542637e-11   -13.092677 
     190   -13.623768        3.258        0.342    5.6430477    0.5923523    5.3203236            0            0            0   -330684.18   -330686.46   -330683.01   -330683.07 -1.7754337e-11 1.0303857e-11 -3.64598e-11   -13.623768 
     200   -14.164368         3.24         0.36    5.6118711   0.62352886      5.29093            0            0            0   -344507.85   -344509.95   -344506.76   -344506.83 5.0020143e-11 -7.7333773e-12 4.6071184e-11   -14.164368 
     210   -14.712736        3.222        0.378    5.5806946   0.65470544    5.2615364            0            0            0   -357664.47   -357666.38   -357663.56   -357663.47            0 -2.7851426e-11 9.1926794e-11   -14.712736 
     220    -15.26651     3.204019   0.39598104    5.5495508   0.68584922    5.2321425            0            0            0   -370048.14   -369752.88   -369750.56   -370640.98 1.2426347e-11 1.3491463e-11 -4.4379812e-11    -15.26651 
     230   -15.822661    3.1860829   0.41391711    5.5184848   0.71691518    5.2027485            0            0            0   -380892.79   -380266.08   -380264.42   -382147.88 7.3803464e-13 1.0147976e-11 3.1181964e-11   -15.822661 
     240   -16.377807    3.1681944   0.43180557    5.4875013   0.74789871    5.1733545            0            0            0   -389592.75   -388603.16   -388602.35   -391572.74 -1.4964808e-11 3.0505186e-11 -6.5806785e-11   -16.377807 
     250   -16.927851     3.150357   0.44964301     5.456606   0.77879395    5.1439605            0            0            0   -395399.36   -394016.04   -394016.32   -398165.72 2.8341026e-11 -4.7501157e-11 4.1314031e-11   -16.927851 
     260   -17.468376    3.1325671   0.46743293    5.4257931   0.80960695    5.1145665            0            0            0   -398586.26   -397116.98   -397117.25   -401524.56 -2.1137007e-11 1.2758476e-11 3.4695525e-11   -17.468376 
     270   -17.997651    3.1147521   0.48524791    5.3949366   0.84046338    5.0851725            0            0            0   -398398.36   -397289.81   -397291.63   -400613.65 -2.0873834e-11 -2.2986229e-11 -3.7691872e-11   -17.997651 
     280   -18.509533    3.0968886   0.50311143     5.363996   0.87140403    5.0557785            0            0            0   -391939.73   -391249.32   -391253.06    -393316.8 2.7315268e-11 -2.1560608e-11 -7.0549182e-11   -18.509533 
     290   -18.995495    3.0789679   0.52103208    5.3329562   0.90244379    5.0263845            0            0            0   -377375.96   -377164.97   -377171.05   -377791.87 -8.7545548e-12 6.132595e-11 -6.286828e-12   -18.995495 
     300   -19.445068     3.060983   0.53901701    5.3018049   0.93359512    4.9970004            0            0            0   -352408.37   -352737.06   -352745.88   -351742.17 8.8587962e-12 1.6322868e-11 -7.0809063e-11   -19.445068 
     310   -19.844342    3.0429834   0.55701656    5.2706279   0.96477212    4.9677419            0            0            0   -314310.06   -315225.02   -315236.98   -312468.17 2.6978154e-11 2.7042159e-12 6.125289e-11   -19.844342 
     320    -20.17818    3.0249842   0.57501582    5.2394509   0.99594912    4.9386925            0            0            0    -259769.5      -261281   -261296.28   -256731.22 3.5768704e-11 1.8084924e-11 1.8586355e-11    -20.17818 
     330   -20.429386    3.0069854   0.59301457    5.2082739    1.0271261    4.9099574            0            0            0   -185415.86   -187075.95   -187094.19   -182077.45 7.7870698e-11 -2.934562e-11 3.6262801e-11   -20.429386 
     340   -20.579901    2.9889878   0.61101216    5.1770969    1.0583031    4.8813702            0            0            0    -86887.62   -87721.792    -87740.92   -85200.149 -4.0184012e-12 -1.351644e-12 1.079854e-10   -20.579901 
     350   -20.612981    2.9764313   0.62356868    5.1553267    1.0800733    4.8616386            0            0            0   0.11451533   -2.1740835    3.4760051  -0.95837563 -8.1428397e-12 1.5079333e-12 -3.4305482e-11   -20.612981 
     357   -20.612981     2.976428   0.62357196    5.1553331    1.0800669    4.8616379            0            0            0 -0.0001391317 0.0014146116 -0.0032792443 0.0014472376 4.2976097e-11 -3.6982063e-11 3.9809437e-11   -20.612981 
Loop time of 0.00421596 on 1 procs for 357 steps with 4 atoms

97.1% CPU use with 1 MPI tasks x no OpenMP threads

Minimization stats:
  Stopping criterion = energy tolerance
  Energy initial, next-to-last, final = 
        -5.72703664791     -20.6129805237     -20.6129805237
  Force two-norm initial, final = 17.4115 1.3715e-07
  Force max component initial, final = 10.0526 1.15441e-07
  Final line search alpha, max atom move = 1 1.15441e-07
  Iterations, force evaluations = 357 368

MPI task timing breakdown:
Section |  min time  |  avg time  |  max time  |%varavg| %total
---------------------------------------------------------------
Pair    | 0.0019541  | 0.0019541  | 0.0019541  |   0.0 | 46.35
Neigh   | 8.4877e-05 | 8.4877e-05 | 8.4877e-05 |   0.0 |  2.01
Comm    | 0.0004282  | 0.0004282  | 0.0004282  |   0.0 | 10.16
Output  | 0.00035334 | 0.00035334 | 0.00035334 |   0.0 |  8.38
Modify  | 0          | 0          | 0          |   0.0 |  0.00
Other   |            | 0.001395   |            |       | 33.10

Nlocal:    4 ave 4 max 4 min
Histogram: 1 0 0 0 0 0 0 0 0 0
Nghost:    284 ave 284 max 284 min
Histogram: 1 0 0 0 0 0 0 0 0 0
Neighs:    136 ave 136 max 136 min
Histogram: 1 0 0 0 0 0 0 0 0 0

Total # of neighbors = 136
Ave neighs/atom = 34
Neighbor list builds = 6
Dangerous builds = 0
pypospack:output_section:begin
tot_energy = -20.6129805237431
num_atoms = 4
a11 = 2.3528560863551
a22 = 4.07526629038906
a33 = 3.84447586781838
a12 = 0
a13 = 0
a23 = 0
tot_press = -0.000139131702739547
pxx = 0.00141461161465674
pyy = -0.00327924431458012
pzz = 0.00144723759170474
pxy = 4.29760972247761e-11
pxz = -3.69820626118468e-11
pyz = 3.98094374292663e-11
pypospack:output_section:done
pypospack:lammps_sim:done
Total wall time: 0:00:00
