# ['Ni']

28 atoms
1 atom types

    0.0000     2.4847 xlo xhi
    0.0000     4.3037 ylo yhi
    0.0000    28.4026 zlo zhi

    0.0000     0.0000     0.0000 xy xz yz

Atoms

1 1     0.0000     0.0000     0.0000
2 1     1.2424     2.1518     0.0000
3 1     1.2424     0.7173     2.0288
4 1     0.0000     2.8691     2.0288
5 1     0.0000     1.4345     4.0575
6 1     1.2424     3.5864     4.0575
7 1     0.0000     0.0000     6.0863
8 1     1.2424     2.1518     6.0863
9 1     1.2424     0.7173     8.1150
10 1     0.0000     2.8691     8.1150
11 1     0.0000     1.4345    10.1438
12 1     1.2424     3.5864    10.1438
13 1     0.0000     0.0000    12.1725
14 1     1.2424     2.1518    12.1725
15 1     0.0000     1.4345    14.2013
16 1     1.2424     3.5864    14.2013
17 1     0.0000     0.0000    16.2301
18 1     1.2424     2.1518    16.2301
19 1     1.2424     0.7173    18.2588
20 1     0.0000     2.8691    18.2588
21 1     0.0000     1.4345    20.2876
22 1     1.2424     3.5864    20.2876
23 1     0.0000     0.0000    22.3164
24 1     1.2424     2.1518    22.3164
25 1     1.2424     0.7173    24.3451
26 1     0.0000     2.8691    24.3451
27 1     0.0000     1.4345    26.3739
28 1     1.2424     3.5864    26.3739
