# ['Ni']

28 atoms
1 atom types

    0.0000     2.4877 xlo xhi
    0.0000     4.3089 ylo yhi
    0.0000    28.4370 zlo zhi

    0.0000     0.0000     0.0000 xy xz yz

Atoms

1 1     0.0000     0.0000     0.0000
2 1     1.2439     2.1544     0.0000
3 1     1.2439     0.7181     2.0312
4 1     0.0000     2.8726     2.0312
5 1     0.0000     1.4363     4.0624
6 1     1.2439     3.5907     4.0624
7 1     0.0000     0.0000     6.0936
8 1     1.2439     2.1544     6.0936
9 1     1.2439     0.7181     8.1248
10 1     0.0000     2.8726     8.1248
11 1     0.0000     1.4363    10.1561
12 1     1.2439     3.5907    10.1561
13 1     0.0000     0.0000    12.1873
14 1     1.2439     2.1544    12.1873
15 1     0.0000     1.4363    14.2185
16 1     1.2439     3.5907    14.2185
17 1     0.0000     0.0000    16.2497
18 1     1.2439     2.1544    16.2497
19 1     1.2439     0.7181    18.2809
20 1     0.0000     2.8726    18.2809
21 1     0.0000     1.4363    20.3121
22 1     1.2439     3.5907    20.3121
23 1     0.0000     0.0000    22.3433
24 1     1.2439     2.1544    22.3433
25 1     1.2439     0.7181    24.3746
26 1     0.0000     2.8726    24.3746
27 1     0.0000     1.4363    26.4058
28 1     1.2439     3.5907    26.4058
