LAMMPS (11 Aug 2017)
Reading data file ...
  triclinic box = (0 0 0) to (3.5167 3.5167 3.5167) with tilt (0 -0 0)
  1 by 1 by 1 MPI processor grid
  reading atoms ...
  4 atoms
4 atoms in group Ni
Neighbor list info ...
  update every 1 steps, delay 0 steps, check yes
  max neighbors/atom: 2000, page size: 100000
  master list distance cutoff = 11
  ghost atom cutoff = 11
  binsize = 5.5, bins = 1 1 1
  1 neighbor lists, perpetual/occasional/extra = 1 0 0
  (1) pair eam/alloy, perpetual
      attributes: half, newton on
      pair build: half/bin/newton/tri
      stencil: half/bin/3d/newton/tri
      bin: standard
Setting up cg style minimization ...
  Unit style    : metal
  Current step  : 0
WARNING: Energy due to 3 extra global DOFs will be included in minimizer energies
Per MPI rank memory allocation (min/avg/max) = 4.307 | 4.307 | 4.307 Mbytes
Step PotEng Xhi Xlo Yhi Ylo Zhi Xy Xz Yz Press Pxx Pyy Pzz Pxy Pxz Pyz c_eatoms 
       0   -17.951735       3.5167            0       3.5167            0       3.5167            0           -0            0   -1026.6721   -1026.6721   -1026.6721   -1026.6721 7.845365e-12 7.2115669e-11 9.0877707e-11   -17.951735 
      10   -17.951743    3.5163773 0.00032270794    3.5163773 0.00032270794    3.5163773            0           -0            0 -4.7395524e-10 -3.7902673e-10 -5.6243775e-10 -4.8040123e-10 6.4999772e-11 -8.5242956e-11 -5.5790702e-11   -17.951743 
      20   -17.951743    3.5163773 0.00032270794    3.5163773 0.00032270794    3.5163773            0           -0            0 -2.3646289e-10 -2.3940065e-10 -2.0894405e-10 -2.6104399e-10 9.3373036e-11 -5.5789672e-11 -6.13899e-11   -17.951743 
Loop time of 0.00401902 on 1 procs for 20 steps with 4 atoms

98.7% CPU use with 1 MPI tasks x no OpenMP threads

Minimization stats:
  Stopping criterion = energy tolerance
  Energy initial, next-to-last, final = 
        -17.9517349024     -17.9517426249     -17.9517426249
  Force two-norm initial, final = 0.0482835 1.1614e-14
  Force max component initial, final = 0.0278694 7.08353e-15
  Final line search alpha, max atom move = 1 7.08353e-15
  Iterations, force evaluations = 20 40

MPI task timing breakdown:
Section |  min time  |  avg time  |  max time  |%varavg| %total
---------------------------------------------------------------
Pair    | 0.0027354  | 0.0027354  | 0.0027354  |   0.0 | 68.06
Neigh   | 0          | 0          | 0          |   0.0 |  0.00
Comm    | 0.00030899 | 0.00030899 | 0.00030899 |   0.0 |  7.69
Output  | 1.5974e-05 | 1.5974e-05 | 1.5974e-05 |   0.0 |  0.40
Modify  | 0          | 0          | 0          |   0.0 |  0.00
Other   |            | 0.0009587  |            |       | 23.85

Nlocal:    4 ave 4 max 4 min
Histogram: 1 0 0 0 0 0 0 0 0 0
Nghost:    1684 ave 1684 max 1684 min
Histogram: 1 0 0 0 0 0 0 0 0 0
Neighs:    1060 ave 1060 max 1060 min
Histogram: 1 0 0 0 0 0 0 0 0 0

Total # of neighbors = 1060
Ave neighs/atom = 265
Neighbor list builds = 0
Dangerous builds = 0
pypospack:output_section:begin
tot_energy = -17.9517426249095
num_atoms = 4
a11 = 3.51605458411185
a22 = 3.51605458411185
a33 = 3.51605458411185
a12 = 0
a13 = -0
a23 = 0
tot_press = -2.36462894076615e-10
pxx = -2.39400645175163e-10
pyy = -2.08944050156155e-10
pzz = -2.61043986898528e-10
pxy = 9.33730355829477e-11
pxz = -5.57896716974041e-11
pyz = -6.13899002225487e-11
pypospack:output_section:done
pypospack:lammps_sim:done
Total wall time: 0:00:00
