LAMMPS (11 Aug 2017)
Reading data file ...
  triclinic box = (0 0 0) to (2.8005 2.8005 2.8005) with tilt (0 0 0)
  1 by 1 by 1 MPI processor grid
  reading atoms ...
  2 atoms
2 atoms in group Ni
Neighbor list info ...
  update every 1 steps, delay 0 steps, check yes
  max neighbors/atom: 2000, page size: 100000
  master list distance cutoff = 5.64464
  ghost atom cutoff = 5.64464
  binsize = 2.82232, bins = 1 1 1
  1 neighbor lists, perpetual/occasional/extra = 1 0 0
  (1) pair eam/alloy, perpetual
      attributes: half, newton on
      pair build: half/bin/newton/tri
      stencil: half/bin/3d/newton/tri
      bin: standard
Setting up cg style minimization ...
  Unit style    : metal
  Current step  : 0
WARNING: Energy due to 3 extra global DOFs will be included in minimizer energies
Per MPI rank memory allocation (min/avg/max) = 4.24 | 4.24 | 4.24 Mbytes
Step PotEng Xhi Xlo Yhi Ylo Zhi Xy Xz Yz Press Pxx Pyy Pzz Pxy Pxz Pyz c_eatoms 
       0   -9.8092846       2.8005            0       2.8005            0       2.8005            0            0            0   -306670.45   -306670.45   -306670.45   -306670.45  0.015933081  0.015933081  0.015933081   -9.8092846 
      10    -9.927746    2.7864975    0.0140025    2.7864975    0.0140025    2.7864975            0            0            0   -273777.65   -273777.65   -273777.65   -273777.65 0.0052199812 0.0052199812 0.0052199812    -9.927746 
      20   -10.029012     2.772495     0.028005     2.772495     0.028005     2.772495            0            0            0    -232062.4    -232062.4    -232062.4    -232062.4 0.0055127984 0.0055127985 0.0055127985   -10.029012 
      30   -10.109958    2.7584925    0.0420075    2.7584925    0.0420075    2.7584925            0            0            0   -179983.98   -179983.98   -179983.98   -179983.98 0.0055671355 0.0055671355 0.0055671355   -10.109958 
      40   -10.167056      2.74449      0.05601      2.74449      0.05601      2.74449            0            0            0   -115793.11   -115793.11   -115793.11   -115793.11 0.0051766273 0.0051766273 0.0051766273   -10.167056 
      50   -10.196418    2.7304875    0.0700125    2.7304875    0.0700125    2.7304875            0            0            0   -38145.602   -38145.602   -38145.602   -38145.602 0.0036331637  0.003633164  0.003633164   -10.196418 
      60   -10.199492    2.7244725  0.076027533    2.7244725  0.076027533    2.7244725            0            0            0 -1.9137955e-07 -1.9137065e-07 -1.9136668e-07 -1.9140132e-07 -2.9780361e-10 -2.9084663e-10 -4.0395365e-11   -10.199492 
      63   -10.199492    2.7244725  0.076027533    2.7244725  0.076027533    2.7244725            0            0            0 -1.4016942e-09 -1.4493707e-09 -1.4163812e-09 -1.3393308e-09 -7.1813982e-12 1.152016e-11 -1.7953495e-12   -10.199492 
Loop time of 0.00105691 on 1 procs for 63 steps with 2 atoms

100.1% CPU use with 1 MPI tasks x no OpenMP threads

Minimization stats:
  Stopping criterion = energy tolerance
  Energy initial, next-to-last, final = 
        -9.80928456763     -10.1994915025     -10.1994915025
  Force two-norm initial, final = 7.28164 5.98349e-14
  Force max component initial, final = 4.20405 2.32384e-14
  Final line search alpha, max atom move = 1 2.32384e-14
  Iterations, force evaluations = 63 72

MPI task timing breakdown:
Section |  min time  |  avg time  |  max time  |%varavg| %total
---------------------------------------------------------------
Pair    | 0.00047517 | 0.00047517 | 0.00047517 |   0.0 | 44.96
Neigh   | 0          | 0          | 0          |   0.0 |  0.00
Comm    | 0.00013304 | 0.00013304 | 0.00013304 |   0.0 | 12.59
Output  | 6.0797e-05 | 6.0797e-05 | 6.0797e-05 |   0.0 |  5.75
Modify  | 0          | 0          | 0          |   0.0 |  0.00
Other   |            | 0.0003879  |            |       | 36.70

Nlocal:    2 ave 2 max 2 min
Histogram: 1 0 0 0 0 0 0 0 0 0
Nghost:    339 ave 339 max 339 min
Histogram: 1 0 0 0 0 0 0 0 0 0
Neighs:    64 ave 64 max 64 min
Histogram: 1 0 0 0 0 0 0 0 0 0

Total # of neighbors = 64
Ave neighs/atom = 32
Neighbor list builds = 0
Dangerous builds = 0
pypospack:output_section:begin
tot_energy = -10.1994915024849
num_atoms = 2
a11 = 2.64844493493786
a22 = 2.64844493493786
a33 = 2.64844493493786
a12 = 0
a13 = 0
a23 = 0
tot_press = -1.40169422210478e-09
pxx = -1.44937072669739e-09
pyy = -1.41638117880198e-09
pzz = -1.33933076081497e-09
pxy = -7.18139818131353e-12
pxz = 1.15201595825238e-11
pyz = -1.79534954532838e-12
pypospack:output_section:done
pypospack:lammps_sim:done
Total wall time: 0:00:00
