# ['Ni']

20 atoms
1 atom types

    0.0000     3.6217 xlo xhi
    0.0000     3.6217 ylo yhi
    0.0000    36.2168 zlo zhi

    0.0000    -0.0000     0.0000 xy xz yz

Atoms

1 1     0.0000     0.0000     0.0000
2 1     1.8108     1.8108     0.0000
3 1     1.8108     0.0000     1.8108
4 1     0.0000     1.8108     1.8108
5 1     0.0000     0.0000     3.6217
6 1     1.8108     1.8108     3.6217
7 1     1.8108     0.0000     5.4325
8 1     0.0000     1.8108     5.4325
9 1     0.0000     0.0000     7.2434
10 1     1.8108     1.8108     7.2434
11 1     1.8108     0.0000     9.0542
12 1     0.0000     1.8108     9.0542
13 1     0.0000     0.0000    10.8650
14 1     1.8108     1.8108    10.8650
15 1     1.8108     0.0000    12.6759
16 1     0.0000     1.8108    12.6759
17 1     0.0000     0.0000    14.4867
18 1     1.8108     1.8108    14.4867
19 1     1.8108     0.0000    16.2976
20 1     0.0000     1.8108    16.2976
