LAMMPS (11 Aug 2017)
Reading data file ...
  triclinic box = (0 0 0) to (3.5167 3.5167 3.5167) with tilt (0 -0 0)
  1 by 1 by 1 MPI processor grid
  reading atoms ...
  4 atoms
4 atoms in group Ni
Neighbor list info ...
  update every 1 steps, delay 0 steps, check yes
  max neighbors/atom: 2000, page size: 100000
  master list distance cutoff = 5.64464
  ghost atom cutoff = 5.64464
  binsize = 2.82232, bins = 2 2 2
  1 neighbor lists, perpetual/occasional/extra = 1 0 0
  (1) pair eam/alloy, perpetual
      attributes: half, newton on
      pair build: half/bin/newton/tri
      stencil: half/bin/3d/newton/tri
      bin: standard
Setting up cg style minimization ...
  Unit style    : metal
  Current step  : 0
WARNING: Energy due to 3 extra global DOFs will be included in minimizer energies
Per MPI rank memory allocation (min/avg/max) = 4.086 | 4.086 | 4.086 Mbytes
Step Temp PotEng Press Pxx Pyy Pzz Pxy Pxz Pyz Lx Ly Lz Volume 
       0            0   -12.973101   -283862.53   -283862.53   -283862.53   -283862.53 -5.1123978e-13 8.9466961e-12 -3.0674387e-12       3.5167       3.5167       3.5167    43.491658 
       1            0   -12.975413   -283861.26   -283861.26   -283861.26   -283861.26 -2.3779783e-11 2.1478514e-11 2.3524086e-11    3.5163483    3.5163483    3.5163483    43.478612 
       2            0   -12.977724    -283859.8    -283859.8    -283859.8    -283859.8 -3.2483212e-11 -2.0717639e-11 -1.2532893e-11    3.5159967    3.5159967    3.5159967    43.465568 
       3            0   -12.980034   -283858.14   -283858.14   -283858.14   -283858.14 -9.9781533e-12 -2.3026508e-12 1.2280804e-11     3.515645     3.515645     3.515645    43.452527 
       4            0   -12.982344    -283856.3    -283856.3    -283856.3    -283856.3 8.7015138e-12 -5.3744644e-12 1.8170808e-11    3.5152933    3.5152933    3.5152933    43.439489 
       5            0   -12.984654   -283854.25   -283854.25   -283854.25   -283854.25 -2.0480296e-12 1.7152248e-11 -4.3520629e-12    3.5149417    3.5149417    3.5149417    43.426453 
       6            0   -12.986963   -283852.02   -283852.02   -283852.02   -283852.02            0 2.8168861e-11 1.9974283e-11      3.51459      3.51459      3.51459     43.41342 
       7            0   -12.989271   -283849.59   -283849.59   -283849.59   -283849.59 -2.0492595e-12 9.2216679e-12 -2.7408846e-11    3.5142383    3.5142383    3.5142383    43.400389 
       8            0   -12.991579   -283846.96   -283846.96   -283846.96   -283846.96 5.8933902e-12 -4.8684528e-12 -5.6371559e-12    3.5138866    3.5138866    3.5138866    43.387362 
       9            0   -12.993887   -283844.14   -283844.14   -283844.14   -283844.14 -7.9456505e-12 1.7941791e-12 -1.9223348e-11     3.513535     3.513535     3.513535    43.374336 
      10            0   -12.996194   -283841.12   -283841.12   -283841.12   -283841.12 -5.8969305e-12            0 -1.640885e-11    3.5131833    3.5131833    3.5131833    43.361313 
      11            0   -12.998501   -283837.91   -283837.91   -283837.91   -283837.91 8.2068894e-12 -1.2566799e-11 1.5387918e-12    3.5128316    3.5128316    3.5128316    43.348293 
      12            0   -13.000807    -283834.5    -283834.5    -283834.5    -283834.5 -1.5905625e-11 3.078508e-12 -7.9528123e-12      3.51248      3.51248      3.51248    43.335276 
      13            0   -13.003113    -283830.9    -283830.9    -283830.9    -283830.9 -1.1547873e-11 -2.9511231e-11 -1.6936881e-11    3.5121283    3.5121283    3.5121283    43.322261 
      14            0   -13.005418    -283827.1    -283827.1    -283827.1    -283827.1 1.617188e-11 6.4174126e-12 -4.6205371e-12    3.5117766    3.5117766    3.5117766    43.309249 
      15            0   -13.007722    -283823.1    -283823.1    -283823.1    -283823.1 3.671863e-11  2.82451e-12 7.9599827e-12     3.511425     3.511425     3.511425    43.296239 
      16            0   -13.010027    -283818.9    -283818.9    -283818.9    -283818.9 -9.7603304e-12 2.7483036e-11 -3.852762e-12    3.5110733    3.5110733    3.5110733    43.283232 
      17            0    -13.01233   -283814.51   -283814.51   -283814.51   -283814.51 -2.5692799e-11 2.8262079e-12 -2.8262079e-12    3.5107216    3.5107216    3.5107216    43.270227 
      18            0   -13.014633   -283809.92   -283809.92   -283809.92   -283809.92 3.8550783e-12 -1.2593256e-11 4.3690887e-12    3.5103699    3.5103699    3.5103699    43.257226 
      19            0   -13.016936   -283805.12   -283805.12   -283805.12   -283805.12 1.5939113e-11 2.8279072e-12 2.8279072e-12    3.5100183    3.5100183    3.5100183    43.244226 
      20            0   -13.019238   -283800.13   -283800.13   -283800.13   -283800.13 -2.0572781e-12 -1.8001183e-12 4.371716e-12    3.5096666    3.5096666    3.5096666     43.23123 
      21            0    -13.02154   -283794.94   -283794.94   -283794.94   -283794.94 -4.8875045e-12 -2.5980945e-11 -6.430927e-12    3.5093149    3.5093149    3.5093149    43.218236 
      22            0   -13.023841   -283789.56   -283789.56   -283789.56   -283789.56 1.7497381e-11 3.602402e-12 6.1755463e-12    3.5089633    3.5089633    3.5089633    43.205244 
      23            0   -13.026142   -283783.97   -283783.97   -283783.97   -283783.97 5.9200116e-12 -9.2661052e-12 1.0295672e-11    3.5086116    3.5086116    3.5086116    43.192255 
      24            0   -13.028442   -283778.18   -283778.18   -283778.18   -283778.18 -1.313093e-11 -2.0340068e-11 -3.1153776e-11    3.5082599    3.5082599    3.5082599    43.179269 
      25            0   -13.030742   -283772.18   -283772.18   -283772.18   -283772.18 -3.09056e-12 -2.008864e-11 5.4084799e-12    3.5079083    3.5079083    3.5079083    43.166285 
      26            0   -13.033041   -283765.99   -283765.99   -283765.99   -283765.99 -1.3911703e-11 -2.0867555e-11 -1.8291314e-11    3.5075566    3.5075566    3.5075566    43.153304 
      27            0   -13.035339    -283759.6    -283759.6    -283759.6    -283759.6 -3.2470407e-11 -5.1540328e-13 -9.5349607e-12    3.5072049    3.5072049    3.5072049    43.140326 
      28            0   -13.037637      -283753      -283753      -283753      -283753 4.6400252e-12 -7.9911544e-12 -2.1395672e-11    3.5068532    3.5068532    3.5068532     43.12735 
      29            0   -13.039935   -283746.21   -283746.21   -283746.21   -283746.21 2.0886396e-11 7.993559e-12 1.3150694e-11    3.5065016    3.5065016    3.5065016    43.114377 
      30            0   -13.042232    -283739.2    -283739.2    -283739.2    -283739.2 -1.186498e-11 -1.2638783e-11 -1.8829207e-11    3.5061499    3.5061499    3.5061499    43.101406 
      31            0   -13.044529      -283732      -283732      -283732      -283732 1.8060838e-12 6.9663232e-12 -7.2243351e-12    3.5057982    3.5057982    3.5057982    43.088438 
      32            0   -13.046825   -283724.59   -283724.59   -283724.59   -283724.59 1.6775826e-11 -9.5493163e-12 3.3551652e-12    3.5054466    3.5054466    3.5054466    43.075473 
      33            0    -13.04912   -283716.98   -283716.98   -283716.98   -283716.98 -4.6470117e-12 3.1496413e-11 2.2718724e-11    3.5050949    3.5050949    3.5050949     43.06251 
      34            0   -13.051415   -283709.17   -283709.17   -283709.17   -283709.17 1.2137517e-11 8.0055963e-12 -8.5220864e-12    3.5047432    3.5047432    3.5047432     43.04955 
      35            0    -13.05371   -283701.15   -283701.15   -283701.15   -283701.15 5.4247787e-12 -3.0998735e-12 -3.0998735e-12    3.5043916    3.5043916    3.5043916    43.036592 
      36            0   -13.056004   -283692.92   -283692.92   -283692.92   -283692.92 3.100807e-12 3.6176081e-12 -3.6176081e-12    3.5040399    3.5040399    3.5040399    43.023637 
      37            0   -13.058297   -283684.49   -283684.49   -283684.49   -283684.49 -1.8093488e-12 2.584784e-13 8.5297871e-12    3.5036882    3.5036882    3.5036882    43.010685 
      38            0    -13.06059   -283675.86   -283675.86   -283675.86   -283675.86 -1.8098937e-12 8.7909123e-12 2.7406962e-11    3.5033365    3.5033365    3.5033365    42.997735 
      39            0   -13.062882   -283667.02   -283667.02   -283667.02   -283667.02 9.8280966e-12 -6.9831213e-12 1.9656193e-11    3.5029849    3.5029849    3.5029849    42.984788 
      40            0   -13.065174   -283657.97   -283657.97   -283657.97   -283657.97 -3.3632564e-12 -3.44087e-11 1.4746586e-11    3.5026332    3.5026332    3.5026332    42.971843 
      41            0   -13.067465   -283648.72   -283648.72   -283648.72   -283648.72 5.1757994e-12 1.0351599e-12 2.3291097e-11    3.5022815    3.5022815    3.5022815    42.958901 
      42            0   -13.069756   -283639.26   -283639.26   -283639.26   -283639.26 -3.3652833e-12 5.9539627e-12 3.8830192e-12    3.5019299    3.5019299    3.5019299    42.945961 
      43            0   -13.072046   -283629.59   -283629.59   -283629.59   -283629.59 -8.0273244e-12 4.4020811e-12 3.3662973e-12    3.5015782    3.5015782    3.5015782    42.933025 
      44            0   -13.074336   -283619.71   -283619.71   -283619.71   -283619.71 -2.4607278e-11 -1.9426799e-11 -2.6420446e-11    3.5012265    3.5012265    3.5012265     42.92009 
      45            0   -13.076625   -283609.62   -283609.62   -283609.62   -283609.62 3.3683266e-12 -1.4509715e-11 -9.0685717e-12    3.5008749    3.5008749    3.5008749    42.907159 
      46            0   -13.078914   -283599.33   -283599.33   -283599.33   -283599.33 -1.5809989e-11 -5.4427831e-12 -3.8358662e-11    3.5005232    3.5005232    3.5005232     42.89423 
      47            0   -13.081202   -283588.83   -283588.83   -283588.83   -283588.83 -8.8147814e-12 -1.7888821e-11 1.5814755e-11    3.5001715    3.5001715    3.5001715    42.881303 
      48            0   -13.083489   -283578.12   -283578.12   -283578.12   -283578.12 2.5933644e-13 2.7748999e-11 9.5954481e-12    3.4998198    3.4998198    3.4998198    42.868379 
      49            0   -13.085776    -283567.2    -283567.2    -283567.2    -283567.2  -1.0636e-11 1.8159024e-12 2.4903804e-11    3.4994682    3.4994682    3.4994682    42.855458 
      50            0   -13.088063   -283556.06   -283556.06   -283556.06   -283556.06 -1.634805e-11 -1.1158193e-11 9.0822498e-12    3.4991165    3.4991165    3.4991165     42.84254 
      51            0   -13.090349   -283544.72   -283544.72   -283544.72   -283544.72 1.8169977e-11 1.8948691e-11 2.3101828e-11    3.4987648    3.4987648    3.4987648    42.829624 
      52            0   -13.092634   -283533.17   -283533.17   -283533.17   -283533.17 -1.8694756e-11 -1.1943872e-11 -3.5831616e-11    3.4984132    3.4984132    3.4984132     42.81671 
      53            0   -13.094919    -283521.4    -283521.4    -283521.4    -283521.4 -1.5064207e-11 -8.051559e-12 -1.1168292e-11    3.4980615    3.4980615    3.4980615    42.803799 
      54            0   -13.097203   -283509.43   -283509.43   -283509.43   -283509.43 -3.6372848e-12 4.416703e-12 -5.1961212e-12    3.4977098    3.4977098    3.4977098    42.790891 
      55            0   -13.099486   -283497.24   -283497.24   -283497.24   -283497.24 -2.8587288e-12 -2.3649484e-11 -2.5208791e-11    3.4973582    3.4973582    3.4973582    42.777985 
      56            0    -13.10177   -283484.84   -283484.84   -283484.84   -283484.84 -2.1576917e-11 -1.2218254e-11 4.9392942e-12    3.4970065    3.4970065    3.4970065    42.765082 
      57            0   -13.104052   -283472.23   -283472.23   -283472.23   -283472.23 -2.5224006e-11 -2.1063345e-11 -3.2245121e-11    3.4966548    3.4966548    3.4966548    42.752182 
      58            0   -13.106334    -283459.4    -283459.4    -283459.4    -283459.4 2.5751857e-11 2.3670899e-11 2.315066e-11    3.4963031    3.4963031    3.4963031    42.739284 
      59            0   -13.108615   -283446.36   -283446.36   -283446.36   -283446.36 5.2039656e-13 3.1223793e-12 8.0661466e-12    3.4959515    3.4959515    3.4959515    42.726389 
      60            0   -13.110896   -283433.11   -283433.11   -283433.11   -283433.11 2.3424914e-12 -1.9260484e-11 5.4658132e-12    3.4955998    3.4955998    3.4955998    42.713496 
      61            0   -13.113177   -283419.64   -283419.64   -283419.64   -283419.64 1.8224877e-12 8.071017e-12 7.5503062e-12    3.4952481    3.4952481    3.4952481    42.700606 
      62            0   -13.115456   -283405.96   -283405.96   -283405.96   -283405.96 1.5626039e-12 4.1409004e-11 3.3335551e-11    3.4948965    3.4948965    3.4948965    42.687718 
      63            0   -13.117735   -283392.06   -283392.06   -283392.06   -283392.06 -9.638967e-12 -3.3085103e-11 -2.8395876e-11    3.4945448    3.4945448    3.4945448    42.674833 
      64            0   -13.120014   -283377.95   -283377.95   -283377.95   -283377.95 -2.0847303e-12 1.1466017e-11 6.7753735e-12    3.4941931    3.4941931    3.4941931    42.661951 
      65            0   -13.122292   -283363.62   -283363.62   -283363.62   -283363.62 -7.0380896e-12 -4.4313897e-12 -1.3294169e-11    3.4938415    3.4938415    3.4938415    42.649071 
      66            0   -13.124569   -283349.07   -283349.07   -283349.07   -283349.07 -2.9725353e-11 -1.3037436e-12 -3.4940328e-11    3.4934898    3.4934898    3.4934898    42.636194 
      67            0   -13.126846   -283334.31   -283334.31   -283334.31   -283334.31 -1.8518751e-11 2.6082747e-12 -4.6948945e-12    3.4931381    3.4931381    3.4931381     42.62332 
      68            0   -13.129122   -283319.33   -283319.33   -283319.33   -283319.33 -1.5132563e-11 1.0436251e-12 1.8263439e-11    3.4927864    3.4927864    3.4927864    42.610448 
      69            0   -13.131398   -283304.14   -283304.14   -283304.14   -283304.14 1.331024e-11 3.1057226e-11 6.002657e-12    3.4924348    3.4924348    3.4924348    42.597578 
      70            0   -13.133673   -283288.72   -283288.72   -283288.72   -283288.72 3.1588737e-11 2.3234691e-11 -5.4823428e-12    3.4920831    3.4920831    3.4920831    42.584712 
      71            0   -13.135948   -283273.09   -283273.09   -283273.09   -283273.09 -1.0445713e-12 2.8725711e-11 2.4286283e-11    3.4917314    3.4917314    3.4917314    42.571847 
      72            0   -13.138222   -283257.24   -283257.24   -283257.24   -283257.24 5.4856568e-12 -2.0375297e-11 -1.2538644e-11    3.4913798    3.4913798    3.4913798    42.558986 
      73            0   -13.140495   -283241.17   -283241.17   -283241.17   -283241.17 -3.1617385e-11 -1.3326336e-11 3.1094783e-11    3.4910281    3.4910281    3.4910281    42.546127 
      74            0   -13.142768   -283224.88   -283224.88   -283224.88   -283224.88 -8.6255296e-12 3.293384e-11 1.7251059e-11    3.4906764    3.4906764    3.4906764     42.53327 
      75            0    -13.14504   -283208.37   -283208.37   -283208.37   -283208.37 -1.411877e-11 -3.3989631e-11 -3.7388594e-11    3.4903248    3.4903248    3.4903248    42.520417 
      76            0   -13.147311   -283191.64   -283191.64   -283191.64   -283191.64 5.7538304e-12 -1.4646114e-11 -7.8461323e-12    3.4899731    3.4899731    3.4899731    42.507565 
      77            0   -13.149582   -283174.69   -283174.69   -283174.69   -283174.69 -2.1714196e-11 -4.9707196e-12 -2.877785e-12    3.4896214    3.4896214    3.4896214    42.494717 
      78            0   -13.151853   -283157.52   -283157.52   -283157.52   -283157.52 -3.925439e-12 -4.7105268e-11 -5.1554099e-11    3.4892697    3.4892697    3.4892697    42.481871 
      79            0   -13.154123   -283140.13   -283140.13   -283140.13   -283140.13 -6.2826018e-12 1.0471003e-12 -3.1413009e-12    3.4889181    3.4889181    3.4889181    42.469027 
      80            0   -13.156392   -283122.52   -283122.52   -283122.52   -283122.52 6.0226477e-12 8.6411902e-12 8.1174817e-12    3.4885664    3.4885664    3.4885664    42.456186 
      81            0    -13.15866   -283104.68   -283104.68   -283104.68   -283104.68 -1.1787005e-11 -7.8580036e-13 -9.9534712e-12    3.4882147    3.4882147    3.4882147    42.443348 
      82            0   -13.160928   -283086.62   -283086.62   -283086.62   -283086.62 -6.81233e-12 -1.5982774e-11 2.3581142e-12    3.4878631    3.4878631    3.4878631    42.430512 
      83            0   -13.163196   -283068.34   -283068.34   -283068.34   -283068.34 7.8627588e-12 -1.5463426e-11 -1.4415058e-11    3.4875114    3.4875114    3.4875114    42.417679 
      84            0   -13.165463   -283049.84   -283049.84   -283049.84   -283049.84 -3.4082264e-12 -1.0224679e-11 -1.4419419e-11    3.4871597    3.4871597    3.4871597    42.404849 
      85            0   -13.167729   -283031.11   -283031.11   -283031.11   -283031.11 1.311253e-12 -2.0980048e-11 -2.0980048e-11    3.4868081    3.4868081    3.4868081    42.392021 
      86            0   -13.169994   -283012.16   -283012.16   -283012.16   -283012.16 2.6232996e-13 1.6789118e-11 -9.9685386e-12    3.4864564    3.4864564    3.4864564    42.379195 
      87            0   -13.172259   -282992.98   -282992.98   -282992.98   -282992.98 4.7233685e-12 -2.466648e-11 -3.0964304e-11    3.4861047    3.4861047    3.4861047    42.366373 
      88            0   -13.174524   -282973.58   -282973.58   -282973.58   -282973.58 -6.5622197e-12 -6.8247085e-12 -1.1549507e-11     3.485753     3.485753     3.485753    42.353553 
      89            0   -13.176787   -282953.96   -282953.96   -282953.96   -282953.96 7.8770475e-12 4.7262285e-12 2.0217755e-11    3.4854014    3.4854014    3.4854014    42.340735 
      90            0   -13.179051    -282934.1    -282934.1    -282934.1    -282934.1 -1.3395035e-11 9.1926711e-12 2.1799763e-11    3.4850497    3.4850497    3.4850497     42.32792 
      91            0   -13.181313   -282914.03   -282914.03   -282914.03   -282914.03   -2.312e-11 -3.1001818e-11   -1.734e-11     3.484698     3.484698     3.484698    42.315108 
      92            0   -13.183575   -282893.72   -282893.72   -282893.72   -282893.72 -1.1826307e-11 -2.8908751e-11 -6.465048e-11    3.4843464    3.4843464    3.4843464    42.302298 
      93            0   -13.185836   -282873.19   -282873.19   -282873.19   -282873.19 1.2881435e-11 -3.7066985e-11 6.3092741e-12    3.4839947    3.4839947    3.4839947    42.289491 
      94            0   -13.188097   -282852.43   -282852.43   -282852.43   -282852.43 -9.2038115e-12 -1.4989064e-11 3.4185585e-12     3.483643     3.483643     3.483643    42.276686 
      95            0   -13.190357   -282831.44   -282831.44   -282831.44   -282831.44 -1.3152285e-12 -7.3652795e-12 -2.630457e-12    3.4832914    3.4832914    3.4832914    42.263884 
      96            0   -13.192616   -282810.23   -282810.23   -282810.23   -282810.23 -1.9734404e-11 2.2365658e-11 2.0786905e-11    3.4829397    3.4829397    3.4829397    42.251084 
      97            0   -13.194875   -282788.79   -282788.79   -282788.79   -282788.79 -2.0529998e-11 -5.0008969e-12 -4.7376918e-12     3.482588     3.482588     3.482588    42.238287 
      98            0   -13.197133   -282767.11   -282767.11   -282767.11   -282767.11 -9.7415396e-12 3.0541043e-11 2.8961334e-12    3.4822363    3.4822363    3.4822363    42.225493 
      99            0   -13.199391   -282745.21   -282745.21   -282745.21   -282745.21 -3.4237403e-12 6.5841159e-12 -4.4771988e-12    3.4818847    3.4818847    3.4818847    42.212701 
     100            0   -13.201648   -282723.08   -282723.08   -282723.08   -282723.08 4.2151112e-12 -6.0592224e-12 -1.3435667e-11     3.481533     3.481533     3.481533    42.199912 
Loop time of 0.0479169 on 1 procs for 100 steps with 4 atoms

5.4% CPU use with 1 MPI tasks x no OpenMP threads

Minimization stats:
  Stopping criterion = max iterations
  Energy initial, next-to-last, final = 
        -12.9731013655     -13.1993907483     -13.2016476333
  Force two-norm initial, final = 13.3464 13.0283
  Force max component initial, final = 7.70555 7.52189
  Final line search alpha, max atom move = 1.32908e-05 9.9972e-05
  Iterations, force evaluations = 100 100

MPI task timing breakdown:
Section |  min time  |  avg time  |  max time  |%varavg| %total
---------------------------------------------------------------
Pair    | 0.00097132 | 0.00097132 | 0.00097132 |   0.0 |  2.03
Neigh   | 0          | 0          | 0          |   0.0 |  0.00
Comm    | 0.0001955  | 0.0001955  | 0.0001955  |   0.0 |  0.41
Output  | 0.046068   | 0.046068   | 0.046068   |   0.0 | 96.14
Modify  | 0          | 0          | 0          |   0.0 |  0.00
Other   |            | 0.0006816  |            |       |  1.42

Nlocal:    4 ave 4 max 4 min
Histogram: 1 0 0 0 0 0 0 0 0 0
Nghost:    360 ave 360 max 360 min
Histogram: 1 0 0 0 0 0 0 0 0 0
Neighs:    156 ave 156 max 156 min
Histogram: 1 0 0 0 0 0 0 0 0 0

Total # of neighbors = 156
Ave neighs/atom = 39
Neighbor list builds = 0
Dangerous builds = 0
System init for write_restart ...
Reading restart file ...
  restart file = 11 Aug 2017, LAMMPS = 11 Aug 2017
  triclinic box = (0.0175835 0.0175835 0.0175835) to (3.49912 3.49912 3.49912) with tilt (0 -0 0)
  1 by 1 by 1 MPI processor grid
  4 atoms
4 atoms in group Ni
Changing box ...
  triclinic box = (0.0175835 0.0175835 0.0175835) to (3.49911 3.49912 3.49912) with tilt (0 -0 0)
Neighbor list info ...
  update every 1 steps, delay 0 steps, check yes
  max neighbors/atom: 2000, page size: 100000
  master list distance cutoff = 5.64464
  ghost atom cutoff = 5.64464
  binsize = 2.82232, bins = 2 2 2
  1 neighbor lists, perpetual/occasional/extra = 1 0 0
  (1) pair eam/alloy, perpetual
      attributes: half, newton on
      pair build: half/bin/newton/tri
      stencil: half/bin/3d/newton/tri
      bin: standard
Setting up cg style minimization ...
  Unit style    : metal
  Current step  : 100
Per MPI rank memory allocation (min/avg/max) = 4.086 | 4.086 | 4.086 Mbytes
Step Temp PotEng Press Pxx Pyy Pzz Pxy Pxz Pyz Lx Ly Lz Volume 
     100            0   -13.201655   -282723.01    -282722.9   -282723.06   -282723.06 1.1064678e-11 -1.7650796e-11 -4.4785602e-12    3.4815295     3.481533     3.481533     42.19987 
     101            0   -13.201655   -282723.01    -282722.9   -282723.07   -282723.07 -1.1064678e-11 1.9494909e-11 5.2688943e-13    3.4815295     3.481533     3.481533     42.19987 
     102            0   -13.201655   -282723.01    -282722.9   -282723.07   -282723.07 -1.3699125e-11 -5.1635164e-11 -2.0548688e-11    3.4815295     3.481533     3.481533     42.19987 
Loop time of 8.89301e-05 on 1 procs for 2 steps with 4 atoms

74.2% CPU use with 1 MPI tasks x no OpenMP threads

Minimization stats:
  Stopping criterion = force tolerance
  Energy initial, next-to-last, final = 
        -13.2016550799     -13.2016550896     -13.2016550896
  Force two-norm initial, final = 0.000225838 2.53109e-15
  Force max component initial, final = 6.51941e-05 9.99201e-16
  Final line search alpha, max atom move = 1 9.99201e-16
  Iterations, force evaluations = 2 4

MPI task timing breakdown:
Section |  min time  |  avg time  |  max time  |%varavg| %total
---------------------------------------------------------------
Pair    | 5.4359e-05 | 5.4359e-05 | 5.4359e-05 |   0.0 | 61.13
Neigh   | 0          | 0          | 0          |   0.0 |  0.00
Comm    | 9.7752e-06 | 9.7752e-06 | 9.7752e-06 |   0.0 | 10.99
Output  | 9.0599e-06 | 9.0599e-06 | 9.0599e-06 |   0.0 | 10.19
Modify  | 0          | 0          | 0          |   0.0 |  0.00
Other   |            | 1.574e-05  |            |       | 17.69

Nlocal:    4 ave 4 max 4 min
Histogram: 1 0 0 0 0 0 0 0 0 0
Nghost:    360 ave 360 max 360 min
Histogram: 1 0 0 0 0 0 0 0 0 0
Neighs:    156 ave 156 max 156 min
Histogram: 1 0 0 0 0 0 0 0 0 0

Total # of neighbors = 156
Ave neighs/atom = 39
Neighbor list builds = 0
Dangerous builds = 0
Reading restart file ...
  restart file = 11 Aug 2017, LAMMPS = 11 Aug 2017
  triclinic box = (0.0175835 0.0175835 0.0175835) to (3.49912 3.49912 3.49912) with tilt (0 -0 0)
  1 by 1 by 1 MPI processor grid
  4 atoms
4 atoms in group Ni
Changing box ...
  triclinic box = (0.0175835 0.0175835 0.0175835) to (3.49912 3.49912 3.49912) with tilt (0 -0 0)
Neighbor list info ...
  update every 1 steps, delay 0 steps, check yes
  max neighbors/atom: 2000, page size: 100000
  master list distance cutoff = 5.64464
  ghost atom cutoff = 5.64464
  binsize = 2.82232, bins = 2 2 2
  1 neighbor lists, perpetual/occasional/extra = 1 0 0
  (1) pair eam/alloy, perpetual
      attributes: half, newton on
      pair build: half/bin/newton/tri
      stencil: half/bin/3d/newton/tri
      bin: standard
Setting up cg style minimization ...
  Unit style    : metal
  Current step  : 100
Per MPI rank memory allocation (min/avg/max) = 4.086 | 4.086 | 4.086 Mbytes
Step Temp PotEng Press Pxx Pyy Pzz Pxy Pxz Pyz Lx Ly Lz Volume 
     100            0    -13.20164   -282723.15   -282723.27    -282723.1    -282723.1 -2.8978861e-12 7.9033256e-13 -2.6344419e-11    3.4815365     3.481533     3.481533    42.199954 
     101            0    -13.20164   -282723.16   -282723.27    -282723.1    -282723.1 5.0054396e-12 4.8210286e-11 1.0274323e-11    3.4815365     3.481533     3.481533    42.199954 
     102            0    -13.20164   -282723.16   -282723.27    -282723.1    -282723.1 2.2392756e-11 -1.0010879e-11 -1.633354e-11    3.4815365     3.481533     3.481533    42.199954 
Loop time of 9.60827e-05 on 1 procs for 2 steps with 4 atoms

76.0% CPU use with 1 MPI tasks x no OpenMP threads

Minimization stats:
  Stopping criterion = force tolerance
  Energy initial, next-to-last, final = 
        -13.2016401866     -13.2016401962     -13.2016401962
  Force two-norm initial, final = 0.000225834 2.474e-15
  Force max component initial, final = 6.51926e-05 1.22125e-15
  Final line search alpha, max atom move = 1 1.22125e-15
  Iterations, force evaluations = 2 4

MPI task timing breakdown:
Section |  min time  |  avg time  |  max time  |%varavg| %total
---------------------------------------------------------------
Pair    | 5.4836e-05 | 5.4836e-05 | 5.4836e-05 |   0.0 | 57.07
Neigh   | 0          | 0          | 0          |   0.0 |  0.00
Comm    | 1.6928e-05 | 1.6928e-05 | 1.6928e-05 |   0.0 | 17.62
Output  | 1.0014e-05 | 1.0014e-05 | 1.0014e-05 |   0.0 | 10.42
Modify  | 0          | 0          | 0          |   0.0 |  0.00
Other   |            | 1.431e-05  |            |       | 14.89

Nlocal:    4 ave 4 max 4 min
Histogram: 1 0 0 0 0 0 0 0 0 0
Nghost:    360 ave 360 max 360 min
Histogram: 1 0 0 0 0 0 0 0 0 0
Neighs:    156 ave 156 max 156 min
Histogram: 1 0 0 0 0 0 0 0 0 0

Total # of neighbors = 156
Ave neighs/atom = 39
Neighbor list builds = 0
Dangerous builds = 0
Reading restart file ...
  restart file = 11 Aug 2017, LAMMPS = 11 Aug 2017
  triclinic box = (0.0175835 0.0175835 0.0175835) to (3.49912 3.49912 3.49912) with tilt (0 -0 0)
  1 by 1 by 1 MPI processor grid
  4 atoms
4 atoms in group Ni
Changing box ...
  triclinic box = (0.0175835 0.0175835 0.0175835) to (3.49912 3.49911 3.49912) with tilt (0 -0 0)
Neighbor list info ...
  update every 1 steps, delay 0 steps, check yes
  max neighbors/atom: 2000, page size: 100000
  master list distance cutoff = 5.64464
  ghost atom cutoff = 5.64464
  binsize = 2.82232, bins = 2 2 2
  1 neighbor lists, perpetual/occasional/extra = 1 0 0
  (1) pair eam/alloy, perpetual
      attributes: half, newton on
      pair build: half/bin/newton/tri
      stencil: half/bin/3d/newton/tri
      bin: standard
Setting up cg style minimization ...
  Unit style    : metal
  Current step  : 100
Per MPI rank memory allocation (min/avg/max) = 4.086 | 4.086 | 4.086 Mbytes
Step Temp PotEng Press Pxx Pyy Pzz Pxy Pxz Pyz Lx Ly Lz Volume 
     100            0   -13.201655   -282723.01   -282723.06    -282722.9   -282723.06 3.2667145e-11 -1.343568e-11 1.4752904e-11     3.481533    3.4815295     3.481533     42.19987 
     101            0   -13.201655   -282723.01   -282723.07    -282722.9   -282723.07 5.7957837e-12 2.2392801e-11 1.1328123e-11     3.481533    3.4815295     3.481533     42.19987 
     102            0   -13.201655   -282723.01   -282723.07    -282722.9   -282723.07 2.8188585e-11 1.7650796e-11 7.9033415e-12     3.481533    3.4815295     3.481533     42.19987 
Loop time of 8.70228e-05 on 1 procs for 2 steps with 4 atoms

79.3% CPU use with 1 MPI tasks x no OpenMP threads

Minimization stats:
  Stopping criterion = force tolerance
  Energy initial, next-to-last, final = 
        -13.2016550799     -13.2016550896     -13.2016550896
  Force two-norm initial, final = 0.000225838 3.12698e-15
  Force max component initial, final = 6.51941e-05 1.11369e-15
  Final line search alpha, max atom move = 1 1.11369e-15
  Iterations, force evaluations = 2 4

MPI task timing breakdown:
Section |  min time  |  avg time  |  max time  |%varavg| %total
---------------------------------------------------------------
Pair    | 5.2929e-05 | 5.2929e-05 | 5.2929e-05 |   0.0 | 60.82
Neigh   | 0          | 0          | 0          |   0.0 |  0.00
Comm    | 1.0729e-05 | 1.0729e-05 | 1.0729e-05 |   0.0 | 12.33
Output  | 1.0014e-05 | 1.0014e-05 | 1.0014e-05 |   0.0 | 11.51
Modify  | 0          | 0          | 0          |   0.0 |  0.00
Other   |            | 1.335e-05  |            |       | 15.34

Nlocal:    4 ave 4 max 4 min
Histogram: 1 0 0 0 0 0 0 0 0 0
Nghost:    360 ave 360 max 360 min
Histogram: 1 0 0 0 0 0 0 0 0 0
Neighs:    156 ave 156 max 156 min
Histogram: 1 0 0 0 0 0 0 0 0 0

Total # of neighbors = 156
Ave neighs/atom = 39
Neighbor list builds = 0
Dangerous builds = 0
Reading restart file ...
  restart file = 11 Aug 2017, LAMMPS = 11 Aug 2017
  triclinic box = (0.0175835 0.0175835 0.0175835) to (3.49912 3.49912 3.49912) with tilt (0 -0 0)
  1 by 1 by 1 MPI processor grid
  4 atoms
4 atoms in group Ni
Changing box ...
  triclinic box = (0.0175835 0.0175835 0.0175835) to (3.49912 3.49912 3.49912) with tilt (0 -0 0)
Neighbor list info ...
  update every 1 steps, delay 0 steps, check yes
  max neighbors/atom: 2000, page size: 100000
  master list distance cutoff = 5.64464
  ghost atom cutoff = 5.64464
  binsize = 2.82232, bins = 2 2 2
  1 neighbor lists, perpetual/occasional/extra = 1 0 0
  (1) pair eam/alloy, perpetual
      attributes: half, newton on
      pair build: half/bin/newton/tri
      stencil: half/bin/3d/newton/tri
      bin: standard
Setting up cg style minimization ...
  Unit style    : metal
  Current step  : 100
Per MPI rank memory allocation (min/avg/max) = 4.086 | 4.086 | 4.086 Mbytes
Step Temp PotEng Press Pxx Pyy Pzz Pxy Pxz Pyz Lx Ly Lz Volume 
     100            0    -13.20164   -282723.15    -282723.1   -282723.27    -282723.1 2.3973421e-11 -4.4258624e-11 -2.3446533e-11     3.481533    3.4815365     3.481533    42.199954 
     101            0    -13.20164   -282723.16    -282723.1   -282723.27    -282723.1 2.0021758e-11 1.0010879e-11 2.1075535e-12     3.481533    3.4815365     3.481533    42.199954 
     102            0    -13.20164   -282723.16    -282723.1   -282723.27    -282723.1 7.9033256e-13 2.8978861e-12 5.0054396e-12     3.481533    3.4815365     3.481533    42.199954 
Loop time of 8.70228e-05 on 1 procs for 2 steps with 4 atoms

82.7% CPU use with 1 MPI tasks x no OpenMP threads

Minimization stats:
  Stopping criterion = force tolerance
  Energy initial, next-to-last, final = 
        -13.2016401866     -13.2016401962     -13.2016401962
  Force two-norm initial, final = 0.000225834 2.73433e-15
  Force max component initial, final = 6.51926e-05 1.05471e-15
  Final line search alpha, max atom move = 1 1.05471e-15
  Iterations, force evaluations = 2 4

MPI task timing breakdown:
Section |  min time  |  avg time  |  max time  |%varavg| %total
---------------------------------------------------------------
Pair    | 5.126e-05  | 5.126e-05  | 5.126e-05  |   0.0 | 58.90
Neigh   | 0          | 0          | 0          |   0.0 |  0.00
Comm    | 1.0967e-05 | 1.0967e-05 | 1.0967e-05 |   0.0 | 12.60
Output  | 1.0014e-05 | 1.0014e-05 | 1.0014e-05 |   0.0 | 11.51
Modify  | 0          | 0          | 0          |   0.0 |  0.00
Other   |            | 1.478e-05  |            |       | 16.99

Nlocal:    4 ave 4 max 4 min
Histogram: 1 0 0 0 0 0 0 0 0 0
Nghost:    360 ave 360 max 360 min
Histogram: 1 0 0 0 0 0 0 0 0 0
Neighs:    156 ave 156 max 156 min
Histogram: 1 0 0 0 0 0 0 0 0 0

Total # of neighbors = 156
Ave neighs/atom = 39
Neighbor list builds = 0
Dangerous builds = 0
Reading restart file ...
  restart file = 11 Aug 2017, LAMMPS = 11 Aug 2017
  triclinic box = (0.0175835 0.0175835 0.0175835) to (3.49912 3.49912 3.49912) with tilt (0 -0 0)
  1 by 1 by 1 MPI processor grid
  4 atoms
4 atoms in group Ni
Changing box ...
  triclinic box = (0.0175835 0.0175835 0.0175835) to (3.49912 3.49912 3.49911) with tilt (0 -0 0)
Neighbor list info ...
  update every 1 steps, delay 0 steps, check yes
  max neighbors/atom: 2000, page size: 100000
  master list distance cutoff = 5.64464
  ghost atom cutoff = 5.64464
  binsize = 2.82232, bins = 2 2 2
  1 neighbor lists, perpetual/occasional/extra = 1 0 0
  (1) pair eam/alloy, perpetual
      attributes: half, newton on
      pair build: half/bin/newton/tri
      stencil: half/bin/3d/newton/tri
      bin: standard
Setting up cg style minimization ...
  Unit style    : metal
  Current step  : 100
Per MPI rank memory allocation (min/avg/max) = 4.086 | 4.086 | 4.086 Mbytes
Step Temp PotEng Press Pxx Pyy Pzz Pxy Pxz Pyz Lx Ly Lz Volume 
     100            0   -13.201655   -282723.01   -282723.06   -282723.06    -282722.9 1.2908791e-11 3.6618815e-11 3.1876811e-11     3.481533     3.481533    3.4815295     42.19987 
     101            0   -13.201655   -282723.01   -282723.07   -282723.07    -282722.9 7.9033415e-12 3.2140255e-11 1.2645346e-11     3.481533     3.481533    3.4815295     42.19987 
     102            0   -13.201655   -282723.01   -282723.07   -282723.07    -282722.9 2.4236914e-11 2.0021798e-11 5.0054496e-12     3.481533     3.481533    3.4815295     42.19987 
Loop time of 9.20296e-05 on 1 procs for 2 steps with 4 atoms

101.1% CPU use with 1 MPI tasks x no OpenMP threads

Minimization stats:
  Stopping criterion = force tolerance
  Energy initial, next-to-last, final = 
        -13.2016550799     -13.2016550896     -13.2016550896
  Force two-norm initial, final = 0.000225838 2.83799e-15
  Force max component initial, final = 6.51941e-05 1.13798e-15
  Final line search alpha, max atom move = 1 1.13798e-15
  Iterations, force evaluations = 2 4

MPI task timing breakdown:
Section |  min time  |  avg time  |  max time  |%varavg| %total
---------------------------------------------------------------
Pair    | 5.3167e-05 | 5.3167e-05 | 5.3167e-05 |   0.0 | 57.77
Neigh   | 0          | 0          | 0          |   0.0 |  0.00
Comm    | 1.0014e-05 | 1.0014e-05 | 1.0014e-05 |   0.0 | 10.88
Output  | 9.7752e-06 | 9.7752e-06 | 9.7752e-06 |   0.0 | 10.62
Modify  | 0          | 0          | 0          |   0.0 |  0.00
Other   |            | 1.907e-05  |            |       | 20.73

Nlocal:    4 ave 4 max 4 min
Histogram: 1 0 0 0 0 0 0 0 0 0
Nghost:    360 ave 360 max 360 min
Histogram: 1 0 0 0 0 0 0 0 0 0
Neighs:    156 ave 156 max 156 min
Histogram: 1 0 0 0 0 0 0 0 0 0

Total # of neighbors = 156
Ave neighs/atom = 39
Neighbor list builds = 0
Dangerous builds = 0
Reading restart file ...
  restart file = 11 Aug 2017, LAMMPS = 11 Aug 2017
  triclinic box = (0.0175835 0.0175835 0.0175835) to (3.49912 3.49912 3.49912) with tilt (0 -0 0)
  1 by 1 by 1 MPI processor grid
  4 atoms
4 atoms in group Ni
Changing box ...
  triclinic box = (0.0175835 0.0175835 0.0175835) to (3.49912 3.49912 3.49912) with tilt (0 -0 0)
Neighbor list info ...
  update every 1 steps, delay 0 steps, check yes
  max neighbors/atom: 2000, page size: 100000
  master list distance cutoff = 5.64464
  ghost atom cutoff = 5.64464
  binsize = 2.82232, bins = 2 2 2
  1 neighbor lists, perpetual/occasional/extra = 1 0 0
  (1) pair eam/alloy, perpetual
      attributes: half, newton on
      pair build: half/bin/newton/tri
      stencil: half/bin/3d/newton/tri
      bin: standard
Setting up cg style minimization ...
  Unit style    : metal
  Current step  : 100
Per MPI rank memory allocation (min/avg/max) = 4.086 | 4.086 | 4.086 Mbytes
Step Temp PotEng Press Pxx Pyy Pzz Pxy Pxz Pyz Lx Ly Lz Volume 
     100            0    -13.20164   -282723.15    -282723.1    -282723.1   -282723.27 -7.9033256e-12 5.532328e-12 -1.3435654e-11     3.481533     3.481533    3.4815365    42.199954 
     101            0    -13.20164   -282723.16    -282723.1    -282723.1   -282723.27 -1.3172209e-12 5.2688838e-12 -8.430214e-12     3.481533     3.481533    3.4815365    42.199954 
     102            0    -13.20164   -282723.16    -282723.1    -282723.1   -282723.27 -6.0592163e-12 6.5861047e-12  1.13281e-11     3.481533     3.481533    3.4815365    42.199954 
Loop time of 9.20296e-05 on 1 procs for 2 steps with 4 atoms

101.1% CPU use with 1 MPI tasks x no OpenMP threads

Minimization stats:
  Stopping criterion = force tolerance
  Energy initial, next-to-last, final = 
        -13.2016401866     -13.2016401962     -13.2016401962
  Force two-norm initial, final = 0.000225834 2.12071e-15
  Force max component initial, final = 6.51926e-05 8.01442e-16
  Final line search alpha, max atom move = 1 8.01442e-16
  Iterations, force evaluations = 2 4

MPI task timing breakdown:
Section |  min time  |  avg time  |  max time  |%varavg| %total
---------------------------------------------------------------
Pair    | 5.3167e-05 | 5.3167e-05 | 5.3167e-05 |   0.0 | 57.77
Neigh   | 0          | 0          | 0          |   0.0 |  0.00
Comm    | 1.0967e-05 | 1.0967e-05 | 1.0967e-05 |   0.0 | 11.92
Output  | 8.8215e-06 | 8.8215e-06 | 8.8215e-06 |   0.0 |  9.59
Modify  | 0          | 0          | 0          |   0.0 |  0.00
Other   |            | 1.907e-05  |            |       | 20.73

Nlocal:    4 ave 4 max 4 min
Histogram: 1 0 0 0 0 0 0 0 0 0
Nghost:    360 ave 360 max 360 min
Histogram: 1 0 0 0 0 0 0 0 0 0
Neighs:    156 ave 156 max 156 min
Histogram: 1 0 0 0 0 0 0 0 0 0

Total # of neighbors = 156
Ave neighs/atom = 39
Neighbor list builds = 0
Dangerous builds = 0
Reading restart file ...
  restart file = 11 Aug 2017, LAMMPS = 11 Aug 2017
  triclinic box = (0.0175835 0.0175835 0.0175835) to (3.49912 3.49912 3.49912) with tilt (0 -0 0)
  1 by 1 by 1 MPI processor grid
  4 atoms
4 atoms in group Ni
Changing box ...
  triclinic box = (0.0175835 0.0175835 0.0175835) to (3.49912 3.49912 3.49912) with tilt (0 -0 -3.48153e-06)
Neighbor list info ...
  update every 1 steps, delay 0 steps, check yes
  max neighbors/atom: 2000, page size: 100000
  master list distance cutoff = 5.64464
  ghost atom cutoff = 5.64464
  binsize = 2.82232, bins = 2 2 2
  1 neighbor lists, perpetual/occasional/extra = 1 0 0
  (1) pair eam/alloy, perpetual
      attributes: half, newton on
      pair build: half/bin/newton/tri
      stencil: half/bin/3d/newton/tri
      bin: standard
Setting up cg style minimization ...
  Unit style    : metal
  Current step  : 100
Per MPI rank memory allocation (min/avg/max) = 4.086 | 4.086 | 4.086 Mbytes
Step Temp PotEng Press Pxx Pyy Pzz Pxy Pxz Pyz Lx Ly Lz Volume 
     100            0   -13.201648   -282723.08   -282723.08   -282723.08   -282723.08 -2.6344445e-13 1.0010889e-11   0.20761876     3.481533     3.481533     3.481533    42.199912 
     101            0   -13.201648   -282723.09   -282723.09   -282723.09   -282723.09 4.7420001e-12 -4.1624223e-11   0.20761876     3.481533     3.481533     3.481533    42.199912 
     102            0   -13.201648   -282723.09   -282723.09   -282723.09   -282723.09 2.0812112e-11 -1.0274334e-11   0.20761876     3.481533     3.481533     3.481533    42.199912 
Loop time of 8.60691e-05 on 1 procs for 2 steps with 4 atoms

101.1% CPU use with 1 MPI tasks x no OpenMP threads

Minimization stats:
  Stopping criterion = force tolerance
  Energy initial, next-to-last, final = 
        -13.2016476332     -13.2016476429     -13.2016476429
  Force two-norm initial, final = 0.000225836 2.71163e-12
  Force max component initial, final = 6.51936e-05 7.87287e-13
  Final line search alpha, max atom move = 1 7.87287e-13
  Iterations, force evaluations = 2 4

MPI task timing breakdown:
Section |  min time  |  avg time  |  max time  |%varavg| %total
---------------------------------------------------------------
Pair    | 5.0068e-05 | 5.0068e-05 | 5.0068e-05 |   0.0 | 58.17
Neigh   | 0          | 0          | 0          |   0.0 |  0.00
Comm    | 1.0729e-05 | 1.0729e-05 | 1.0729e-05 |   0.0 | 12.47
Output  | 8.8215e-06 | 8.8215e-06 | 8.8215e-06 |   0.0 | 10.25
Modify  | 0          | 0          | 0          |   0.0 |  0.00
Other   |            | 1.645e-05  |            |       | 19.11

Nlocal:    4 ave 4 max 4 min
Histogram: 1 0 0 0 0 0 0 0 0 0
Nghost:    360 ave 360 max 360 min
Histogram: 1 0 0 0 0 0 0 0 0 0
Neighs:    156 ave 156 max 156 min
Histogram: 1 0 0 0 0 0 0 0 0 0

Total # of neighbors = 156
Ave neighs/atom = 39
Neighbor list builds = 0
Dangerous builds = 0
Reading restart file ...
  restart file = 11 Aug 2017, LAMMPS = 11 Aug 2017
  triclinic box = (0.0175835 0.0175835 0.0175835) to (3.49912 3.49912 3.49912) with tilt (0 -0 0)
  1 by 1 by 1 MPI processor grid
  4 atoms
4 atoms in group Ni
Changing box ...
  triclinic box = (0.0175835 0.0175835 0.0175835) to (3.49912 3.49912 3.49912) with tilt (0 -0 3.48153e-06)
Neighbor list info ...
  update every 1 steps, delay 0 steps, check yes
  max neighbors/atom: 2000, page size: 100000
  master list distance cutoff = 5.64464
  ghost atom cutoff = 5.64464
  binsize = 2.82232, bins = 2 2 2
  1 neighbor lists, perpetual/occasional/extra = 1 0 0
  (1) pair eam/alloy, perpetual
      attributes: half, newton on
      pair build: half/bin/newton/tri
      stencil: half/bin/3d/newton/tri
      bin: standard
Setting up cg style minimization ...
  Unit style    : metal
  Current step  : 100
Per MPI rank memory allocation (min/avg/max) = 4.086 | 4.086 | 4.086 Mbytes
Step Temp PotEng Press Pxx Pyy Pzz Pxy Pxz Pyz Lx Ly Lz Volume 
     100            0   -13.201648   -282723.08   -282723.08   -282723.08   -282723.08  -1.4226e-11 1.7650778e-11  -0.20761876     3.481533     3.481533     3.481533    42.199912 
     101            0   -13.201648   -282723.09   -282723.09   -282723.09   -282723.09 -2.5817556e-11 2.9242334e-11  -0.20761876     3.481533     3.481533     3.481533    42.199912 
     102            0   -13.201648   -282723.09   -282723.09   -282723.09   -282723.09 -1.4489445e-11 -2.3973445e-11  -0.20761876     3.481533     3.481533     3.481533    42.199912 
Loop time of 9.01222e-05 on 1 procs for 2 steps with 4 atoms

101.0% CPU use with 1 MPI tasks x no OpenMP threads

Minimization stats:
  Stopping criterion = force tolerance
  Energy initial, next-to-last, final = 
        -13.2016476332     -13.2016476429     -13.2016476429
  Force two-norm initial, final = 0.000225836 2.71165e-12
  Force max component initial, final = 6.51936e-05 7.87268e-13
  Final line search alpha, max atom move = 1 7.87268e-13
  Iterations, force evaluations = 2 4

MPI task timing breakdown:
Section |  min time  |  avg time  |  max time  |%varavg| %total
---------------------------------------------------------------
Pair    | 5.1022e-05 | 5.1022e-05 | 5.1022e-05 |   0.0 | 56.61
Neigh   | 0          | 0          | 0          |   0.0 |  0.00
Comm    | 1.4067e-05 | 1.4067e-05 | 1.4067e-05 |   0.0 | 15.61
Output  | 9.0599e-06 | 9.0599e-06 | 9.0599e-06 |   0.0 | 10.05
Modify  | 0          | 0          | 0          |   0.0 |  0.00
Other   |            | 1.597e-05  |            |       | 17.72

Nlocal:    4 ave 4 max 4 min
Histogram: 1 0 0 0 0 0 0 0 0 0
Nghost:    360 ave 360 max 360 min
Histogram: 1 0 0 0 0 0 0 0 0 0
Neighs:    156 ave 156 max 156 min
Histogram: 1 0 0 0 0 0 0 0 0 0

Total # of neighbors = 156
Ave neighs/atom = 39
Neighbor list builds = 0
Dangerous builds = 0
Reading restart file ...
  restart file = 11 Aug 2017, LAMMPS = 11 Aug 2017
  triclinic box = (0.0175835 0.0175835 0.0175835) to (3.49912 3.49912 3.49912) with tilt (0 -0 0)
  1 by 1 by 1 MPI processor grid
  4 atoms
4 atoms in group Ni
Changing box ...
  triclinic box = (0.0175835 0.0175835 0.0175835) to (3.49912 3.49912 3.49912) with tilt (0 -3.48153e-06 0)
Neighbor list info ...
  update every 1 steps, delay 0 steps, check yes
  max neighbors/atom: 2000, page size: 100000
  master list distance cutoff = 5.64464
  ghost atom cutoff = 5.64464
  binsize = 2.82232, bins = 2 2 2
  1 neighbor lists, perpetual/occasional/extra = 1 0 0
  (1) pair eam/alloy, perpetual
      attributes: half, newton on
      pair build: half/bin/newton/tri
      stencil: half/bin/3d/newton/tri
      bin: standard
Setting up cg style minimization ...
  Unit style    : metal
  Current step  : 100
Per MPI rank memory allocation (min/avg/max) = 4.086 | 4.086 | 4.086 Mbytes
Step Temp PotEng Press Pxx Pyy Pzz Pxy Pxz Pyz Lx Ly Lz Volume 
     100            0   -13.201648   -282723.08   -282723.08   -282723.08   -282723.08 -2.6344445e-13   0.20761876 -5.0054446e-12     3.481533     3.481533     3.481533    42.199912 
     101            0   -13.201648   -282723.09   -282723.09   -282723.09   -282723.09 1.3435667e-11   0.20761876 -2.8715445e-11     3.481533     3.481533     3.481533    42.199912 
     102            0   -13.201648   -282723.09   -282723.09   -282723.09   -282723.09 3.3984334e-11   0.20761876 9.2205558e-12     3.481533     3.481533     3.481533    42.199912 
Loop time of 8.67844e-05 on 1 procs for 2 steps with 4 atoms

93.3% CPU use with 1 MPI tasks x no OpenMP threads

Minimization stats:
  Stopping criterion = force tolerance
  Energy initial, next-to-last, final = 
        -13.2016476332     -13.2016476429     -13.2016476429
  Force two-norm initial, final = 0.000225836 2.71124e-12
  Force max component initial, final = 6.51936e-05 7.87287e-13
  Final line search alpha, max atom move = 1 7.87287e-13
  Iterations, force evaluations = 2 4

MPI task timing breakdown:
Section |  min time  |  avg time  |  max time  |%varavg| %total
---------------------------------------------------------------
Pair    | 5.3883e-05 | 5.3883e-05 | 5.3883e-05 |   0.0 | 62.09
Neigh   | 0          | 0          | 0          |   0.0 |  0.00
Comm    | 1.0252e-05 | 1.0252e-05 | 1.0252e-05 |   0.0 | 11.81
Output  | 1.0014e-05 | 1.0014e-05 | 1.0014e-05 |   0.0 | 11.54
Modify  | 0          | 0          | 0          |   0.0 |  0.00
Other   |            | 1.264e-05  |            |       | 14.56

Nlocal:    4 ave 4 max 4 min
Histogram: 1 0 0 0 0 0 0 0 0 0
Nghost:    360 ave 360 max 360 min
Histogram: 1 0 0 0 0 0 0 0 0 0
Neighs:    156 ave 156 max 156 min
Histogram: 1 0 0 0 0 0 0 0 0 0

Total # of neighbors = 156
Ave neighs/atom = 39
Neighbor list builds = 0
Dangerous builds = 0
Reading restart file ...
  restart file = 11 Aug 2017, LAMMPS = 11 Aug 2017
  triclinic box = (0.0175835 0.0175835 0.0175835) to (3.49912 3.49912 3.49912) with tilt (0 -0 0)
  1 by 1 by 1 MPI processor grid
  4 atoms
4 atoms in group Ni
Changing box ...
  triclinic box = (0.0175835 0.0175835 0.0175835) to (3.49912 3.49912 3.49912) with tilt (0 3.48153e-06 0)
Neighbor list info ...
  update every 1 steps, delay 0 steps, check yes
  max neighbors/atom: 2000, page size: 100000
  master list distance cutoff = 5.64464
  ghost atom cutoff = 5.64464
  binsize = 2.82232, bins = 2 2 2
  1 neighbor lists, perpetual/occasional/extra = 1 0 0
  (1) pair eam/alloy, perpetual
      attributes: half, newton on
      pair build: half/bin/newton/tri
      stencil: half/bin/3d/newton/tri
      bin: standard
Setting up cg style minimization ...
  Unit style    : metal
  Current step  : 100
Per MPI rank memory allocation (min/avg/max) = 4.086 | 4.086 | 4.086 Mbytes
Step Temp PotEng Press Pxx Pyy Pzz Pxy Pxz Pyz Lx Ly Lz Volume 
     100            0   -13.201648   -282723.08   -282723.08   -282723.08   -282723.08 6.5861113e-12  -0.20761876 -7.3764446e-12     3.481533     3.481533     3.481533    42.199912 
     101            0   -13.201648   -282723.09   -282723.09   -282723.09   -282723.09 2.3973445e-11  -0.20761876 -7.1130002e-12     3.481533     3.481533     3.481533    42.199912 
     102            0   -13.201648   -282723.09   -282723.09   -282723.09   -282723.09 -7.3764446e-12  -0.20761876 1.5016334e-11     3.481533     3.481533     3.481533    42.199912 
Loop time of 8.60691e-05 on 1 procs for 2 steps with 4 atoms

101.1% CPU use with 1 MPI tasks x no OpenMP threads

Minimization stats:
  Stopping criterion = force tolerance
  Energy initial, next-to-last, final = 
        -13.2016476332     -13.2016476429     -13.2016476429
  Force two-norm initial, final = 0.000225836 2.71199e-12
  Force max component initial, final = 6.51936e-05 7.87462e-13
  Final line search alpha, max atom move = 1 7.87462e-13
  Iterations, force evaluations = 2 4

MPI task timing breakdown:
Section |  min time  |  avg time  |  max time  |%varavg| %total
---------------------------------------------------------------
Pair    | 5.2214e-05 | 5.2214e-05 | 5.2214e-05 |   0.0 | 60.66
Neigh   | 0          | 0          | 0          |   0.0 |  0.00
Comm    | 9.0599e-06 | 9.0599e-06 | 9.0599e-06 |   0.0 | 10.53
Output  | 8.8215e-06 | 8.8215e-06 | 8.8215e-06 |   0.0 | 10.25
Modify  | 0          | 0          | 0          |   0.0 |  0.00
Other   |            | 1.597e-05  |            |       | 18.56

Nlocal:    4 ave 4 max 4 min
Histogram: 1 0 0 0 0 0 0 0 0 0
Nghost:    360 ave 360 max 360 min
Histogram: 1 0 0 0 0 0 0 0 0 0
Neighs:    156 ave 156 max 156 min
Histogram: 1 0 0 0 0 0 0 0 0 0

Total # of neighbors = 156
Ave neighs/atom = 39
Neighbor list builds = 0
Dangerous builds = 0
Reading restart file ...
  restart file = 11 Aug 2017, LAMMPS = 11 Aug 2017
  triclinic box = (0.0175835 0.0175835 0.0175835) to (3.49912 3.49912 3.49912) with tilt (0 -0 0)
  1 by 1 by 1 MPI processor grid
  4 atoms
4 atoms in group Ni
Changing box ...
  triclinic box = (0.0175835 0.0175835 0.0175835) to (3.49912 3.49912 3.49912) with tilt (-3.48153e-06 -0 0)
Neighbor list info ...
  update every 1 steps, delay 0 steps, check yes
  max neighbors/atom: 2000, page size: 100000
  master list distance cutoff = 5.64464
  ghost atom cutoff = 5.64464
  binsize = 2.82232, bins = 2 2 2
  1 neighbor lists, perpetual/occasional/extra = 1 0 0
  (1) pair eam/alloy, perpetual
      attributes: half, newton on
      pair build: half/bin/newton/tri
      stencil: half/bin/3d/newton/tri
      bin: standard
Setting up cg style minimization ...
  Unit style    : metal
  Current step  : 100
Per MPI rank memory allocation (min/avg/max) = 4.086 | 4.086 | 4.086 Mbytes
Step Temp PotEng Press Pxx Pyy Pzz Pxy Pxz Pyz Lx Ly Lz Volume 
     100            0   -13.201648   -282723.08   -282723.08   -282723.08   -282723.08   0.20761876 -2.2656223e-11 5.743089e-11     3.481533     3.481533     3.481533    42.199912 
     101            0   -13.201648   -282723.09   -282723.09   -282723.09   -282723.09   0.20761876 4.7420001e-12 -2.1075556e-11     3.481533     3.481533     3.481533    42.199912 
     102            0   -13.201648   -282723.09   -282723.09   -282723.09   -282723.09   0.20761876 2.1075556e-12 1.6860445e-11     3.481533     3.481533     3.481533    42.199912 
Loop time of 8.70228e-05 on 1 procs for 2 steps with 4 atoms

101.1% CPU use with 1 MPI tasks x no OpenMP threads

Minimization stats:
  Stopping criterion = force tolerance
  Energy initial, next-to-last, final = 
        -13.2016476332     -13.2016476429     -13.2016476429
  Force two-norm initial, final = 0.000225836 2.71185e-12
  Force max component initial, final = 6.51936e-05 7.87426e-13
  Final line search alpha, max atom move = 1 7.87426e-13
  Iterations, force evaluations = 2 4

MPI task timing breakdown:
Section |  min time  |  avg time  |  max time  |%varavg| %total
---------------------------------------------------------------
Pair    | 5.2214e-05 | 5.2214e-05 | 5.2214e-05 |   0.0 | 60.00
Neigh   | 0          | 0          | 0          |   0.0 |  0.00
Comm    | 1.0729e-05 | 1.0729e-05 | 1.0729e-05 |   0.0 | 12.33
Output  | 8.8215e-06 | 8.8215e-06 | 8.8215e-06 |   0.0 | 10.14
Modify  | 0          | 0          | 0          |   0.0 |  0.00
Other   |            | 1.526e-05  |            |       | 17.53

Nlocal:    4 ave 4 max 4 min
Histogram: 1 0 0 0 0 0 0 0 0 0
Nghost:    360 ave 360 max 360 min
Histogram: 1 0 0 0 0 0 0 0 0 0
Neighs:    156 ave 156 max 156 min
Histogram: 1 0 0 0 0 0 0 0 0 0

Total # of neighbors = 156
Ave neighs/atom = 39
Neighbor list builds = 0
Dangerous builds = 0
Reading restart file ...
  restart file = 11 Aug 2017, LAMMPS = 11 Aug 2017
  triclinic box = (0.0175835 0.0175835 0.0175835) to (3.49912 3.49912 3.49912) with tilt (0 -0 0)
  1 by 1 by 1 MPI processor grid
  4 atoms
4 atoms in group Ni
Changing box ...
  triclinic box = (0.0175835 0.0175835 0.0175835) to (3.49912 3.49912 3.49912) with tilt (3.48153e-06 -0 0)
Neighbor list info ...
  update every 1 steps, delay 0 steps, check yes
  max neighbors/atom: 2000, page size: 100000
  master list distance cutoff = 5.64464
  ghost atom cutoff = 5.64464
  binsize = 2.82232, bins = 2 2 2
  1 neighbor lists, perpetual/occasional/extra = 1 0 0
  (1) pair eam/alloy, perpetual
      attributes: half, newton on
      pair build: half/bin/newton/tri
      stencil: half/bin/3d/newton/tri
      bin: standard
Setting up cg style minimization ...
  Unit style    : metal
  Current step  : 100
Per MPI rank memory allocation (min/avg/max) = 4.086 | 4.086 | 4.086 Mbytes
Step Temp PotEng Press Pxx Pyy Pzz Pxy Pxz Pyz Lx Ly Lz Volume 
     100            0   -13.201648   -282723.08   -282723.08   -282723.08   -282723.08  -0.20761876 -1.4752889e-11 4.9791001e-11     3.481533     3.481533     3.481533    42.199912 
     101            0   -13.201648   -282723.09   -282723.09   -282723.09   -282723.09  -0.20761876 2.1075556e-11 1.3172223e-12     3.481533     3.481533     3.481533    42.199912 
     102            0   -13.201648   -282723.09   -282723.09   -282723.09   -282723.09  -0.20761876 3.7936001e-11 3.0559556e-11     3.481533     3.481533     3.481533    42.199912 
Loop time of 8.70228e-05 on 1 procs for 2 steps with 4 atoms

89.6% CPU use with 1 MPI tasks x no OpenMP threads

Minimization stats:
  Stopping criterion = force tolerance
  Energy initial, next-to-last, final = 
        -13.2016476332     -13.2016476429     -13.2016476429
  Force two-norm initial, final = 0.000225836 2.71204e-12
  Force max component initial, final = 6.51936e-05 7.87675e-13
  Final line search alpha, max atom move = 1 7.87675e-13
  Iterations, force evaluations = 2 4

MPI task timing breakdown:
Section |  min time  |  avg time  |  max time  |%varavg| %total
---------------------------------------------------------------
Pair    | 5.1022e-05 | 5.1022e-05 | 5.1022e-05 |   0.0 | 58.63
Neigh   | 0          | 0          | 0          |   0.0 |  0.00
Comm    | 1.0967e-05 | 1.0967e-05 | 1.0967e-05 |   0.0 | 12.60
Output  | 1.0014e-05 | 1.0014e-05 | 1.0014e-05 |   0.0 | 11.51
Modify  | 0          | 0          | 0          |   0.0 |  0.00
Other   |            | 1.502e-05  |            |       | 17.26

Nlocal:    4 ave 4 max 4 min
Histogram: 1 0 0 0 0 0 0 0 0 0
Nghost:    360 ave 360 max 360 min
Histogram: 1 0 0 0 0 0 0 0 0 0
Neighs:    156 ave 156 max 156 min
Histogram: 1 0 0 0 0 0 0 0 0 0

Total # of neighbors = 156
Ave neighs/atom = 39
Neighbor list builds = 0
Dangerous builds = 0
c11 = 18.4347701491788 GPa
c22 = 18.4347701491788 GPa
c33 = 18.4347701491788 GPa
c12 = 1.79450839932542 GPa
c13 = 1.79450839932542 GPa
c23 = 1.79450839932542 GPa
c44 = 20.7618760495187 GPa
c55 = 20.7618760522454 GPa
c66 = 20.7618760502695 GPa
c14 = 2.46328772965144e-08 GPa
c15 = -1.04060712532557e-09 GPa
c16 = -9.022970296966e-10 GPa
c24 = 7.2447546934205e-11 GPa
c25 = 2.51070787453286e-08 GPa
c26 = 6.8495629886626e-10 GPa
c34 = -1.58066262675105e-10 GPa
c35 = 3.35892341101998e-10 GPa
c36 = 7.5740325305045e-10 GPa
c45 = 1.97583338767305e-10 GPa
c46 = 5.40061125963975e-10 GPa
c56 = 1.38308337137115e-10 GPa
lammps_sim_done
Total wall time: 0:00:00
