# ['Ni']

18 atoms
1 atom types

    0.0000     2.3596 xlo xhi
    0.0000     4.0869 ylo yhi
    0.0000    34.6731 zlo zhi

    0.0000     0.0000    -0.0004 xy xz yz

Atoms

1 1     0.0000     0.0000     0.0000
2 1     1.1798     0.6812     1.9263
3 1     0.0000     1.3623     3.8526
4 1     1.1798     2.0435     0.0000
5 1     0.0000     2.7246     1.9263
6 1     1.1798     3.4058     3.8526
7 1     0.0000     0.0000     5.7789
8 1     1.1798     0.6812     7.7051
9 1     0.0000     1.3623     9.6314
10 1     1.1798     2.0435     5.7789
11 1     0.0000     2.7246     7.7051
12 1     1.1798     3.4058     9.6314
13 1     0.0000     0.0000    11.5577
14 1     1.1798     0.6812    13.4840
15 1     0.0000     1.3623    15.4102
16 1     1.1798     2.0435    11.5577
17 1     0.0000     2.7246    13.4840
18 1     1.1798     3.4058    15.4102
