# ['Ni']

10 atoms
1 atom types

    0.0000     4.1149 xlo xhi
    0.0000     2.9456 ylo yhi
    0.0000    29.4560 zlo zhi

    0.0000     0.0000     0.0000 xy xz yz

Atoms

1 1     0.0000     0.0000     0.0000
2 1     2.0574     1.4728     1.4728
3 1     0.0000     0.0000     2.9456
4 1     2.0574     1.4728     4.4184
5 1     0.0000     0.0000     5.8912
6 1     2.0574     1.4728     7.3640
7 1     0.0000     0.0000     8.8368
8 1     2.0574     1.4728    10.3096
9 1     0.0000     0.0000    11.7824
10 1     2.0574     1.4728    13.2552
