   2   2   0   0
  0.9639684E+01  0.3009788E-09  0.3009788E-09  0.3009788E-09  0.5000000E-15
  1.000000000000000E-004
  CAR 
 automatically generated by pyflamestk   
     43.83093770    -16.34292816  301      3.53952002      1.00000000
    -16.343  0.0000E+00  0.0000E+00
    -16.142  0.0000E+00  0.0000E+00
    -15.942  0.0000E+00  0.0000E+00
    -15.741  0.0000E+00  0.0000E+00
    -15.541  0.0000E+00  0.0000E+00
    -15.340  0.0000E+00  0.0000E+00
    -15.139  0.0000E+00  0.0000E+00
    -14.939  0.0000E+00  0.0000E+00
    -14.738  0.0000E+00  0.0000E+00
    -14.538  0.0000E+00  0.0000E+00
    -14.337  0.0000E+00  0.0000E+00
    -14.137  0.0000E+00  0.0000E+00
    -13.936  0.0000E+00  0.0000E+00
    -13.735  0.4766E-04  0.9560E-05
    -13.535  0.3055E+00  0.6128E-01
    -13.334  0.1226E-01  0.6374E-01
    -13.134  0.9280E+00  0.2499E+00
    -12.933  0.7228E+00  0.3948E+00
    -12.732  0.8523E+00  0.5658E+00
    -12.532  0.2638E+01  0.1095E+01
    -12.331  0.2996E+01  0.1696E+01
    -12.131  0.1517E+01  0.2000E+01
    -11.930  0.1350E-06  0.2000E+01
    -11.730  0.0000E+00  0.2000E+01
    -11.529  0.0000E+00  0.2000E+01
    -11.328  0.0000E+00  0.2000E+01
    -11.128  0.0000E+00  0.2000E+01
    -10.927  0.0000E+00  0.2000E+01
    -10.727  0.0000E+00  0.2000E+01
    -10.526  0.0000E+00  0.2000E+01
    -10.326  0.0000E+00  0.2000E+01
    -10.125  0.0000E+00  0.2000E+01
     -9.924  0.0000E+00  0.2000E+01
     -9.724  0.0000E+00  0.2000E+01
     -9.523  0.0000E+00  0.2000E+01
     -9.323  0.0000E+00  0.2000E+01
     -9.122  0.0000E+00  0.2000E+01
     -8.921  0.0000E+00  0.2000E+01
     -8.721  0.0000E+00  0.2000E+01
     -8.520  0.0000E+00  0.2000E+01
     -8.320  0.0000E+00  0.2000E+01
     -8.119  0.0000E+00  0.2000E+01
     -7.919  0.0000E+00  0.2000E+01
     -7.718  0.0000E+00  0.2000E+01
     -7.517  0.0000E+00  0.2000E+01
     -7.317  0.0000E+00  0.2000E+01
     -7.116  0.0000E+00  0.2000E+01
     -6.916  0.0000E+00  0.2000E+01
     -6.715  0.0000E+00  0.2000E+01
     -6.515  0.0000E+00  0.2000E+01
     -6.314  0.0000E+00  0.2000E+01
     -6.113  0.0000E+00  0.2000E+01
     -5.913  0.0000E+00  0.2000E+01
     -5.712  0.0000E+00  0.2000E+01
     -5.512  0.0000E+00  0.2000E+01
     -5.311  0.0000E+00  0.2000E+01
     -5.110  0.0000E+00  0.2000E+01
     -4.910  0.0000E+00  0.2000E+01
     -4.709  0.0000E+00  0.2000E+01
     -4.509  0.0000E+00  0.2000E+01
     -4.308  0.0000E+00  0.2000E+01
     -4.108  0.0000E+00  0.2000E+01
     -3.907  0.0000E+00  0.2000E+01
     -3.706  0.0000E+00  0.2000E+01
     -3.506  0.0000E+00  0.2000E+01
     -3.305  0.0000E+00  0.2000E+01
     -3.105  0.0000E+00  0.2000E+01
     -2.904  0.0000E+00  0.2000E+01
     -2.704  0.0000E+00  0.2000E+01
     -2.503  0.0000E+00  0.2000E+01
     -2.302  0.0000E+00  0.2000E+01
     -2.102  0.0000E+00  0.2000E+01
     -1.901  0.0000E+00  0.2000E+01
     -1.701  0.0000E+00  0.2000E+01
     -1.500  0.0000E+00  0.2000E+01
     -1.299  0.0000E+00  0.2000E+01
     -1.099  0.1898E-10  0.2000E+01
     -0.898  0.1650E+00  0.2033E+01
     -0.698  0.7706E+00  0.2188E+01
     -0.497  0.3139E+00  0.2251E+01
     -0.297  0.1381E+01  0.2528E+01
     -0.096  0.2468E+01  0.3023E+01
      0.105  0.2514E+01  0.3527E+01
      0.305  0.1035E+01  0.3735E+01
      0.506  0.7654E-01  0.3750E+01
      0.706  0.3296E-11  0.3750E+01
      0.907  0.1869E+00  0.3787E+01
      1.107  0.2731E+01  0.4335E+01
      1.308  0.8209E+00  0.4500E+01
      1.509  0.9669E-06  0.4500E+01
      1.709  0.1971E+01  0.4895E+01
      1.910  0.8340E+00  0.5063E+01
      2.110  0.2026E+01  0.5469E+01
      2.311  0.2600E+01  0.5991E+01
      2.512  0.3495E+01  0.6691E+01
      2.712  0.2466E+01  0.7186E+01
      2.913  0.2065E+01  0.7600E+01
      3.113  0.1369E+01  0.7875E+01
      3.314  0.5961E+00  0.7995E+01
      3.514  0.2703E-01  0.8000E+01
      3.715  0.0000E+00  0.8000E+01
      3.916  0.0000E+00  0.8000E+01
      4.116  0.0000E+00  0.8000E+01
      4.317  0.0000E+00  0.8000E+01
      4.517  0.0000E+00  0.8000E+01
      4.718  0.0000E+00  0.8000E+01
      4.919  0.0000E+00  0.8000E+01
      5.119  0.0000E+00  0.8000E+01
      5.320  0.0000E+00  0.8000E+01
      5.520  0.0000E+00  0.8000E+01
      5.721  0.0000E+00  0.8000E+01
      5.921  0.0000E+00  0.8000E+01
      6.122  0.0000E+00  0.8000E+01
      6.323  0.0000E+00  0.8000E+01
      6.523  0.0000E+00  0.8000E+01
      6.724  0.0000E+00  0.8000E+01
      6.924  0.0000E+00  0.8000E+01
      7.125  0.0000E+00  0.8000E+01
      7.325  0.0000E+00  0.8000E+01
      7.526  0.0000E+00  0.8000E+01
      7.727  0.0000E+00  0.8000E+01
      7.927  0.0000E+00  0.8000E+01
      8.128  0.0000E+00  0.8000E+01
      8.328  0.0000E+00  0.8000E+01
      8.529  0.4531E-06  0.8000E+01
      8.730  0.2619E+00  0.8053E+01
      8.930  0.4973E-01  0.8062E+01
      9.131  0.0000E+00  0.8062E+01
      9.331  0.0000E+00  0.8062E+01
      9.532  0.0000E+00  0.8062E+01
      9.732  0.0000E+00  0.8062E+01
      9.933  0.0000E+00  0.8062E+01
     10.134  0.1013E-04  0.8063E+01
     10.334  0.8629E+00  0.8236E+01
     10.535  0.7188E-01  0.8250E+01
     10.735  0.9392E-08  0.8250E+01
     10.936  0.1872E+00  0.8288E+01
     11.136  0.7937E+00  0.8447E+01
     11.337  0.2655E+00  0.8500E+01
     11.538  0.9164E-07  0.8500E+01
     11.738  0.6365E+00  0.8628E+01
     11.939  0.2983E+00  0.8687E+01
     12.139  0.1620E-01  0.8691E+01
     12.340  0.9184E+00  0.8875E+01
     12.541  0.2117E+00  0.8917E+01
     12.741  0.1659E+01  0.9250E+01
     12.942  0.9282E+00  0.9436E+01
     13.142  0.9166E+00  0.9620E+01
     13.343  0.2411E-01  0.9625E+01
     13.543  0.8877E+00  0.9803E+01
     13.744  0.6799E+00  0.9939E+01
     13.945  0.2027E+01  0.1035E+02
     14.145  0.1446E+00  0.1037E+02
     14.346  0.0000E+00  0.1038E+02
     14.546  0.3177E-09  0.1038E+02
     14.747  0.6961E+00  0.1051E+02
     14.947  0.3043E+01  0.1112E+02
     15.148  0.9730E-02  0.1113E+02
     15.349  0.1877E+01  0.1150E+02
     15.549  0.2748E+01  0.1205E+02
     15.750  0.1286E+01  0.1231E+02
     15.950  0.3948E-01  0.1232E+02
     16.151  0.1632E+01  0.1265E+02
     16.352  0.1979E+00  0.1269E+02
     16.552  0.0000E+00  0.1269E+02
     16.753  0.3731E-06  0.1269E+02
     16.953  0.1359E+01  0.1296E+02
     17.154  0.8992E+00  0.1314E+02
     17.354  0.8261E+00  0.1331E+02
     17.555  0.3148E-01  0.1331E+02
     17.756  0.5624E-05  0.1331E+02
     17.956  0.8437E+00  0.1348E+02
     18.157  0.9109E-01  0.1350E+02
     18.357  0.8396E-13  0.1350E+02
     18.558  0.4256E-01  0.1351E+02
     18.758  0.8922E+00  0.1369E+02
     18.959  0.3175E-04  0.1369E+02
     19.160  0.2529E-05  0.1369E+02
     19.360  0.6009E+00  0.1381E+02
     19.561  0.2738E+01  0.1436E+02
     19.761  0.1527E+01  0.1466E+02
     19.962  0.1003E+01  0.1486E+02
     20.163  0.1725E+01  0.1521E+02
     20.363  0.1145E+01  0.1544E+02
     20.564  0.9204E+00  0.1562E+02
     20.764  0.2956E+00  0.1568E+02
     20.965  0.6406E+00  0.1581E+02
     21.165  0.9508E+00  0.1600E+02
     21.366  0.9187E+00  0.1619E+02
     21.567  0.1853E+01  0.1656E+02
     21.767  0.1508E-01  0.1656E+02
     21.968  0.1637E-04  0.1656E+02
     22.168  0.8765E+00  0.1674E+02
     22.369  0.5834E-01  0.1675E+02
     22.570  0.8963E+00  0.1693E+02
     22.770  0.1873E+01  0.1731E+02
     22.971  0.5591E+00  0.1742E+02
     23.171  0.1345E+01  0.1769E+02
     23.372  0.3038E-05  0.1769E+02
     23.572  0.5547E+00  0.1780E+02
     23.773  0.9874E+00  0.1800E+02
     23.974  0.1672E-01  0.1800E+02
     24.174  0.3101E+00  0.1806E+02
     24.375  0.8543E+00  0.1823E+02
     24.575  0.7042E+00  0.1837E+02
     24.776  0.1945E-02  0.1838E+02
     24.976  0.1216E+01  0.1862E+02
     25.177  0.2863E-01  0.1863E+02
     25.378  0.1385E+01  0.1890E+02
     25.578  0.1229E+01  0.1915E+02
     25.779  0.1902E+00  0.1919E+02
     25.979  0.8494E+00  0.1936E+02
     26.180  0.1020E+01  0.1956E+02
     26.381  0.2600E+00  0.1961E+02
     26.581  0.2544E+01  0.2012E+02
     26.782  0.5710E-02  0.2013E+02
     26.982  0.9305E+00  0.2031E+02
     27.183  0.9361E+00  0.2050E+02
     27.383  0.3089E+00  0.2056E+02
     27.584  0.6695E-04  0.2056E+02
     27.785  0.0000E+00  0.2056E+02
     27.985  0.0000E+00  0.2056E+02
     28.186  0.0000E+00  0.2056E+02
     28.386  0.3459E-16  0.2056E+02
     28.587  0.2602E-02  0.2056E+02
     28.787  0.6494E+00  0.2069E+02
     28.988  0.2768E+01  0.2125E+02
     29.189  0.9415E+00  0.2144E+02
     29.389  0.4497E+00  0.2153E+02
     29.590  0.4858E+00  0.2162E+02
     29.790  0.2744E-05  0.2163E+02
     29.991  0.2117E+01  0.2205E+02
     30.192  0.1555E+01  0.2236E+02
     30.392  0.1400E+01  0.2264E+02
     30.593  0.5369E+00  0.2275E+02
     30.793  0.5740E-07  0.2275E+02
     30.994  0.6081E+00  0.2287E+02
     31.194  0.1261E+01  0.2312E+02
     31.395  0.8111E+00  0.2329E+02
     31.596  0.1622E+01  0.2361E+02
     31.796  0.2241E+01  0.2406E+02
     31.997  0.1194E+01  0.2430E+02
     32.197  0.1278E+01  0.2456E+02
     32.398  0.4350E+01  0.2543E+02
     32.598  0.1122E+00  0.2545E+02
     32.799  0.2742E+01  0.2600E+02
     33.000  0.9175E+00  0.2619E+02
     33.200  0.7507E+00  0.2634E+02
     33.401  0.1742E+01  0.2669E+02
     33.601  0.2287E-05  0.2669E+02
     33.802  0.0000E+00  0.2669E+02
     34.003  0.0000E+00  0.2669E+02
     34.203  0.0000E+00  0.2669E+02
     34.404  0.0000E+00  0.2669E+02
     34.604  0.4826E-09  0.2669E+02
     34.805  0.3404E+00  0.2676E+02
     35.005  0.2464E+01  0.2725E+02
     35.206  0.4133E-03  0.2725E+02
     35.407  0.8241E+00  0.2742E+02
     35.607  0.2737E+01  0.2796E+02
     35.808  0.7809E+00  0.2812E+02
     36.008  0.3325E+00  0.2819E+02
     36.209  0.3795E-03  0.2819E+02
     36.409  0.1891E+01  0.2857E+02
     36.610  0.9131E+00  0.2875E+02
     36.811  0.1318E+00  0.2878E+02
     37.011  0.4914E+00  0.2888E+02
     37.212  0.9895E+00  0.2907E+02
     37.412  0.8853E+00  0.2925E+02
     37.613  0.9287E+00  0.2944E+02
     37.814  0.7213E+00  0.2958E+02
     38.014  0.1149E+01  0.2981E+02
     38.215  0.8456E+00  0.2998E+02
     38.415  0.8922E-01  0.3000E+02
     38.616  0.2342E-10  0.3000E+02
     38.816  0.2416E+00  0.3005E+02
     39.017  0.3775E+01  0.3081E+02
     39.218  0.3366E-01  0.3081E+02
     39.418  0.0000E+00  0.3081E+02
     39.619  0.0000E+00  0.3081E+02
     39.819  0.1038E-15  0.3081E+02
     40.020  0.5003E-02  0.3081E+02
     40.221  0.9289E+00  0.3100E+02
     40.421  0.8423E-03  0.3100E+02
     40.622  0.4913E-07  0.3100E+02
     40.822  0.2219E+00  0.3104E+02
     41.023  0.1437E+01  0.3133E+02
     41.223  0.3326E+01  0.3200E+02
     41.424  0.2360E-03  0.3200E+02
     41.625  0.0000E+00  0.3200E+02
     41.825  0.0000E+00  0.3200E+02
     42.026  0.0000E+00  0.3200E+02
     42.226  0.0000E+00  0.3200E+02
     42.427  0.0000E+00  0.3200E+02
     42.627  0.0000E+00  0.3200E+02
     42.828  0.0000E+00  0.3200E+02
     43.029  0.0000E+00  0.3200E+02
     43.229  0.0000E+00  0.3200E+02
     43.430  0.0000E+00  0.3200E+02
     43.630  0.0000E+00  0.3200E+02
     43.831  0.0000E+00  0.3200E+02
