LAMMPS (10 Feb 2015)
# ---- initialize simulations
clear
units metal
dimension 3
boundary p p p
atom_style charge
atom_modify map array
# ---- create atoms
read_data /Users/eugeneragasa/pyflamestk_git/pypospack/tests/tests_integration/workflow/WorkflowLammpsThermalExpansion/param_2424/MgO_NaCl_unit.npt.T1700/lammps.structure
  triclinic box = (0 0 0) to (4.2565 4.2565 4.2565) with tilt (0 0 0)
  1 by 1 by 1 MPI processor grid
  reading atoms ...
  8 atoms
# ---- define interatomic potential
include potential.mod
mass 1 24.305
mass 2 15.999

group Mg type 1
4 atoms in group Mg
group O type 2
4 atoms in group O

set group Mg charge 1.67924051174
  4 settings made for charge
set group O charge -1.67924051174
  4 settings made for charge

variable R_cut equal 10.0

pair_style buck/coul/long ${R_cut}
pair_style buck/coul/long 10
pair_coeff 1 1 0.0 0.5 0.0 ${R_cut}
pair_coeff 1 1 0.0 0.5 0.0 10
pair_coeff 1 2 1306.98043044 0.288034123545 0.0 ${R_cut}
pair_coeff 1 2 1306.98043044 0.288034123545 0.0 10
pair_coeff 2 2 2032.48006166 0.252585756474 14.8401495582 ${R_cut}
pair_coeff 2 2 2032.48006166 0.252585756474 14.8401495582 10

kspace_style pppm 1.0e-5

neighbor 1.0 bin
neigh_modify every 1 delay 0 check yes
# ---- define settings
compute eng all pe/atom
compute eatoms all reduce sum c_eng
# ---- run minimization
reset_timestep 0
fix 1 all box/relax iso 0.0 vmax 0.001
thermo 10
thermo_style custom step pe lx ly lz xy xz yz press pxx pyy pzz pxy pxz pyz c_eatoms
min_style cg
minimize 1e-25 1e-25 5000 10000
PPPM initialization ...
  G vector (1/distance) = 0.352997
  grid = 8 8 8
  stencil order = 5
  estimated absolute RMS force accuracy = 4.02799e-05
  estimated relative force accuracy = 2.79728e-06
  using double precision FFTs
  3d grid and FFT values/proc = 3375 512
Neighbor list info ...
  1 neighbor list requests
  update every 1 steps, delay 0 steps, check yes
  master list distance cutoff = 11
Memory usage per processor = 4.06549 Mbytes
Step PotEng Lx Ly Lz Xy Xz Yz Press Pxx Pyy Pzz Pxy Pxz Pyz eatoms 
       0   -114.09861       4.2565       4.2565       4.2565            0            0            0    83013.551    83013.551    83013.551    83013.551 1.023811e-10 -6.100653e-11 -2.0427431e-10   -114.09861 
      10   -114.17745     4.299065     4.299065     4.299065            0            0            0    27173.213    27173.213    27173.213    27173.213 -1.7620305e-11 8.177727e-11 3.0587737e-11   -114.17745 
      19   -114.18814    4.3219883    4.3219883    4.3219883            0            0            0 -0.014642896 -0.014642896 -0.014642896 -0.014642896 -4.2788838e-11 1.5607732e-10 -4.5124802e-11   -114.18814 
Loop time of 0.00848508 on 1 procs for 19 steps with 8 atoms

Minimization stats:
  Stopping criterion = linesearch alpha is zero
  Energy initial, next-to-last, final = 
        -114.098610965     -114.188144107     -114.188144107
  Force two-norm initial, final = 11.9872 7.95763e-05
  Force max component initial, final = 11.9872 1.65313e-05
  Final line search alpha, max atom move = 0.5 8.26564e-06
  Iterations, force evaluations = 19 24

Pair  time (%) = 0.00228381 (26.9156)
Kspce time (%) = 0.00133181 (15.6959)
Neigh time (%) = 0 (0)
Comm  time (%) = 0.000272274 (3.20886)
Outpt time (%) = 1.19209e-05 (0.140493)
Other time (%) = 0.00458527 (54.0392)

Nlocal:    8 ave 8 max 8 min
Histogram: 1 0 0 0 0 0 0 0 0 0
Nghost:    2189 ave 2189 max 2189 min
Histogram: 1 0 0 0 0 0 0 0 0 0
Neighs:    2344 ave 2344 max 2344 min
Histogram: 1 0 0 0 0 0 0 0 0 0

Total # of neighbors = 2344
Ave neighs/atom = 293
Neighbor list builds = 0
Dangerous builds = 0
unfix 1
# ---- define output variables ----
variable natoms equal "count(all)"
variable tot_energy equal "c_eatoms"
variable length_x equal "lx"
variable length_y equal "ly"
variable length_z equal "lz"
variable tilt_xy equal "xy"
variable tilt_xz equal "xz"
variable tilt_yz equal "yz"
variable tot_press equal "press"
variable press_xx equal "pxx"
variable press_yy equal "pyy"
variable press_zz equal "pzz"
variable press_xy equal "pxy"
variable press_xz equal "pxz"
variable press_yz equal "pyz"

# ---- output ----
print "pypospack:output_section:begin"
pypospack:output_section:begin
print "tot_energy = ${tot_energy}"
tot_energy = -114.188144106894
print "num_atoms = ${natoms}"
num_atoms = 8
print "xx = ${length_x}"
xx = 4.32198834005221
print "yy = ${length_y}"
yy = 4.32198834005221
print "zz = ${length_z}"
zz = 4.32198834005221
print "xy = ${tilt_xy}"
xy = 0
print "xz = ${tilt_xz}"
xz = 0
print "yz = ${tilt_yz}"
yz = 0
print "tot_press = ${tot_press}"
tot_press = -0.0146428956780545
print "pxx = ${press_xx}"
pxx = -0.0146428956419126
print "pyy = ${press_yy}"
pyy = -0.0146428958165915
print "pzz = ${press_zz}"
pzz = -0.0146428955756593
print "pxy = ${press_xy}"
pxy = -4.27888380608005e-11
print "pxz = ${press_xz}"
pxz = 1.56077321107314e-10
print "pyz = ${press_yz}"
pyz = -4.51248020389503e-11
print "pypospack:output_section:done"
pypospack:output_section:done
print "pypospack:lammps_sim:done"
pypospack:lammps_sim:done
#------------------------------------------------------------------------------
# RUN THERMOSTAT
# running using an NPT Nose-Hoover style thermostat
#------------------------------------------------------------------------------
variable tempdamp equal 0.1
variable pressdamp equal 1.0
# set initial velocities
velocity all create 1700 2249205 mom yes dist gaussian loop all
# fix for Nose-Hoover style thermostat
fix 20 all npt temp 1700 1700 0.1 aniso 0.0 0.0 1.0 drag 1.0 couple xyz
variable boxx equal lx
variable boxy equal ly
variable boxz equal lz
variable boxp equal press
variable boxt equal temp
# calculate averages every 10000 steps
reset_timestep 0
fix 21 all ave/time 10 10 100 v_boxx v_boxy v_boxz v_boxp v_boxt file lattice.out
thermo_style custom step temp pe ke etotal press lx ly lz press pxx pyy pzz pxy pxz pyz vol
thermo_modify flush yes
thermo 100
run 100000
PPPM initialization ...
  G vector (1/distance) = 0.35233
  grid = 8 8 8
  stencil order = 5
  estimated absolute RMS force accuracy = 4.15437e-05
  estimated relative force accuracy = 2.88505e-06
  using double precision FFTs
  3d grid and FFT values/proc = 3375 512
Memory usage per processor = 3.06549 Mbytes
Step Temp PotEng KinEng TotEng Press Lx Ly Lz Press Pxx Pyy Pzz Pxy Pxz Pyz Volume 
       0         1700   -114.18815    1.5381957   -112.64996    20348.882    4.3219883    4.3219883    4.3219883    20348.882    11684.182    34730.356    14632.108    -3111.394    7835.0521   -1322.6731    80.732941 
     100    950.49962   -113.30944   0.86003203   -112.44941    18467.373    4.3434299    4.3434299    4.3434299    18467.373    946.47317    51467.129     2988.516   -5504.6097   -7848.2211      278.649     81.94047 
     200    1003.4141   -112.94307   0.90791016   -112.03516   -27674.127     4.377312     4.377312     4.377312   -27674.127   -63667.452    24129.834   -43484.763   -3367.9723   -802.46437    13944.916    83.873064 
     300    1862.8406    -113.3351    1.6855373   -111.64956   -14196.695    4.3772662    4.3772662    4.3772662   -14196.695   -19910.653    -3044.771   -19634.662    10636.505    8040.0169    7062.4193    83.870433 
     400     2102.167    -113.2705    1.9020849   -111.36842    14562.252    4.3514938    4.3514938    4.3514938    14562.252    21532.984     2904.839    19248.932   -3495.7548   -7032.1899   -11021.501    82.397706 
     500    996.29444   -112.10347   0.90146814     -111.202    24342.232    4.3547095    4.3547095    4.3547095    24342.232   -2959.7369     32716.46    43269.972   -16591.278   -11153.934    9066.4418    82.580513 
     600    1291.7425   -112.28372    1.1687958   -111.11492   -23083.962    4.3852411    4.3852411    4.3852411   -23083.962   -68058.552    19246.045    -20439.38    22046.424    22463.373   -5570.3398    84.329675 
     700    2366.4399   -113.18595    2.1412045   -111.04474   -17624.479    4.3934111    4.3934111    4.3934111   -17624.479   -27054.164   -4477.4303   -21341.843    14497.257    16138.191    4676.6042    84.801888 
     800    2007.0273   -112.84265    1.8160005   -111.02665    547.61643    4.3811293    4.3811293    4.3811293    547.61643   -21174.086   -730.77905    23547.714    -6505.416   -18947.655    29066.635    84.092684 
     900    1103.2186   -112.04434   0.99821535   -111.04612   -16988.169    4.3768606    4.3768606    4.3768606   -16988.169   -71785.271    20322.337    498.42829    17427.545    12211.666    -13023.96    83.847122 
    1000    1830.7763   -112.71003    1.6565249    -111.0535    1526.6857    4.3771594    4.3771594    4.3771594    1526.6857   -22319.067    43524.593   -16625.469   -3570.7319    3846.1171    61.930404    83.864294 
    1100    1904.8832   -112.78779    1.7235783   -111.06421   -27545.675    4.3894923    4.3894923    4.3894923   -27545.675   -19282.702    3786.3728   -67140.696   -1329.7679   -5630.3541    1899.8951     84.57517 
    1200    1137.1718   -112.10727    1.0289369   -111.07833   -35524.719    4.3819818    4.3819818    4.3819818   -35524.719    -49179.44    10815.263   -68209.978    14225.065    15702.387    4311.7645    84.141785 
    1300    1165.1751   -112.13903    1.0542749   -111.08476    14675.101    4.3577842    4.3577842    4.3577842    14675.101   -10849.416    46642.625    8232.0953   -5464.2143    -949.2437   -29073.808    82.755555 
    1400    2247.6172   -113.12719    2.0336913    -111.0935    13846.767    4.3600509    4.3600509    4.3600509    13846.767    -12155.23    39585.246    14110.287   -11264.825   -8689.5759    -3264.921    82.884759 
    1500    2234.7972   -113.12489    2.0220915    -111.1028     23725.65    4.3719095    4.3719095    4.3719095     23725.65   -830.30603    43124.647    28882.608    2312.0992    -741.0675    18260.724      83.5629 
    1600     1416.747    -112.3958    1.2819025    -111.1139   -18023.456    4.3884107    4.3884107    4.3884107   -18023.456   -31784.597   -37860.498    15574.727   -17517.679   -5973.4246   -7545.0898    84.512663 
    1700    1788.4991   -112.71026    1.6182715   -111.09199   -34183.722    4.3806888    4.3806888    4.3806888   -34183.722   -59904.472   -57224.619    14577.924   -1460.3622   -13986.061    -5312.501    84.067322 
    1800    2006.5267   -112.87813    1.8155475   -111.06259    52280.587    4.3518544    4.3518544    4.3518544    52280.587    18133.003    27525.148    111183.61   -979.17296   -7272.0387    16661.021    82.418189 
    1900    1755.6708   -112.68616    1.5885678   -111.09759   -3551.7311    4.3730106    4.3730106    4.3730106   -3551.7311   -11722.759   -19639.818    20707.383    -20612.57    877.74645   -7190.1974    83.626051 
    2000    1415.2349   -112.35868    1.2805343   -111.07814    -22601.07    4.3902864    4.3902864    4.3902864    -22601.07   -30491.552   -37910.026    598.36796   -5362.8115   -16706.666   -16675.067    84.621081 
    2100    1347.6897   -112.28993     1.219418   -111.07051    37204.514    4.3717827    4.3717827    4.3717827    37204.514    53582.459     45576.25    12454.832    7816.9982   -9398.4678    29624.075    83.555625 
    2200    2271.0925   -113.12926    2.0549322   -111.07433   -5412.6972    4.3706674    4.3706674    4.3706674   -5412.6972   -19009.584    41745.621   -38974.129    6577.8829    9827.8524    2421.9986    83.491697 
    2300    1856.1927    -112.7667    1.6795222   -111.08718    21149.275    4.3728566    4.3728566    4.3728566    21149.275    9348.3732    47294.037    6805.4135    -13691.62    -12240.39   -13924.365    83.617214 
    2400    1697.9511   -112.63042    1.5363419   -111.09407    8680.3394     4.393431     4.393431     4.393431    8680.3394   -4810.3714     43823.41   -12972.021    9926.9072   -14060.723    24616.034    84.803039 
    2500    2017.2367   -112.87051    1.8252381   -111.04527    -1650.804    4.4146087    4.4146087    4.4146087    -1650.804   -13536.869     48152.52   -39568.063    5420.8233    7639.4978    15974.902    86.035295 
    2600    1921.6649   -112.75735    1.7387628   -111.01858   -14206.734    4.3987292    4.3987292    4.3987292   -14206.734   -20651.648    21496.371   -43464.927    -11882.55   -13153.841   -5470.2975    85.110216 
    2700    916.01939    -111.8692    0.8288336   -111.04036   -5769.3025    4.3668733    4.3668733    4.3668733   -5769.3025    31307.306   -38672.852   -9942.3619    19107.605   -5429.4922    14599.291    83.274453 
    2800    1291.2841   -112.23013     1.168381   -111.06175    14540.742    4.3491075    4.3491075    4.3491075    14540.742    7122.9634    42251.001   -5751.7395     6080.331    20616.413    1971.1337     82.26222 
    2900    1663.3209   -112.60826    1.5050077   -111.10325    12813.867    4.3753302    4.3753302    4.3753302    12813.867   -26188.836    77986.144   -13355.706   -11404.646   -12356.998   -10953.382    83.759199 
    3000    1449.7995    -112.4075     1.311809   -111.09569   -24667.367      4.40281      4.40281      4.40281   -24667.367   -37724.523   -7716.9079    -28560.67    17246.423    1316.3949    11705.824    85.347312 
    3100    1030.0848   -111.99703   0.93204242   -111.06499     10460.44    4.3967885    4.3967885    4.3967885     10460.44    45821.449    27282.251    -41722.38    4538.8414    18485.757   -564.40328    84.997613 
    3200    2072.5054   -112.91155    1.8752464    -111.0363    7651.8951    4.3898324    4.3898324    4.3898324    7651.8951   -4679.8049    45039.015   -17403.525    -12227.04   -7493.0092   -15098.025    84.594828 
    3300    2039.6046   -112.88888    1.8454771    -111.0434    786.96908    4.3784603    4.3784603    4.3784603    786.96908   -25940.014    12638.251    15662.671    12739.446    8707.1008    9341.0284     83.93909 
    3400    1504.5354   -112.43234    1.3613353     -111.071    14338.863    4.3795003    4.3795003    4.3795003    14338.863     754.3654    22268.183    19994.039      5124.61    14404.152    17451.779    83.998914 
    3500    2376.1892   -113.20672     2.150026    -111.0567   -8361.9157    4.3959817    4.3959817    4.3959817   -8361.9157   -26453.613   -21877.321    23245.187   -5681.7159   -12160.905    9884.9022    84.950828 
    3600    2059.2659   -112.90235    1.8632671   -111.03909   -14528.165    4.3985785    4.3985785    4.3985785   -14528.165   -24432.379   -17884.641   -1267.4743    11939.836    11204.781    2004.8057    85.101465 
    3700    1801.4086   -112.64878    1.6299524   -111.01883   -8390.8059    4.3867751    4.3867751    4.3867751   -8390.8059    14823.451   -11441.287   -28554.581   -9841.6835   -4693.2949    23353.963    84.418206 
    3800    1459.8617   -112.34025    1.3209136   -111.01934    15761.898     4.379266     4.379266     4.379266    15761.898   -18330.591    38378.789    27237.496   -9088.6237    3278.9234    4497.1927    83.985432 
    3900    1803.3912   -112.66386    1.6317462   -111.03211   -10475.136    4.3859685    4.3859685    4.3859685   -10475.136   -24614.114   -12953.033    6141.7396    7682.0749    20414.406   -2975.3567    84.371646 
    4000    1656.4311   -112.54437    1.4987737   -111.04559     5053.033    4.3720142    4.3720142    4.3720142     5053.033    9714.4096     7798.377   -2353.6877    -12619.58   -5003.8586    19921.114    83.568902 
    4100    989.87915   -111.96917   0.89566345   -111.07351    16127.351    4.3679852    4.3679852    4.3679852    16127.351    28144.243    1554.9538    18682.856   -18276.411   -453.85177   -3210.5886    83.338075 
    4200    2281.1612   -113.12458    2.0640426   -111.06054   -15424.148    4.3816944    4.3816944    4.3816944   -15424.148   -31142.269    163.26031   -15293.436    8279.1317     15284.87     -5462.95    84.125227 
    4300    1768.1835   -112.66398    1.5998896    -111.0641    38153.829    4.3755679    4.3755679    4.3755679    38153.829    84784.772    30886.634   -1209.9199   -14710.767    5940.1596    24347.335    83.772848 
    4400    1773.0436   -112.67788    1.6042871   -111.07359   -15514.364    4.3897279    4.3897279    4.3897279   -15514.364    28203.152   -22000.147   -52746.097    -13378.93    23610.221    6499.1547    84.588789 
    4500    2550.5435   -113.35685    2.3077853   -111.04906   -7914.1264     4.382604     4.382604     4.382604   -7914.1264    9266.3059    24198.766   -57207.451     12069.43    13636.211   -11594.574    84.177631 
    4600    1788.9409   -112.66823    1.6186713   -111.04956     26723.86    4.3547453    4.3547453    4.3547453     26723.86    68590.893    23111.678   -11530.993    7904.8269   -13305.563     13626.24    82.582549 
    4700    1377.6855   -112.32779    1.2465588   -111.08123    5719.4571    4.3727453    4.3727453    4.3727453    5719.4571    40768.531      2670.77    -26280.93   -30603.513    5251.3638    11688.891    83.610833 
    4800    1961.2505   -112.81822    1.7745807   -111.04363   -31714.356    4.4049534    4.4049534    4.4049534   -31714.356   -38827.333   -22578.081   -33737.655    27492.994   -20579.635   -8307.8309    85.472019 
    4900    1021.5663   -111.94688   0.92433465   -111.02254   -22783.278    4.3962011    4.3962011    4.3962011   -22783.278    10106.516   -68250.436   -10205.915    1937.4891    6717.4536    24914.199    84.963552 
    5000    1500.6441   -112.36666    1.3578143   -111.00884    20480.983    4.3763915    4.3763915    4.3763915    20480.983    80421.343   -21740.417    2762.0225   -9367.5715    11779.662    3799.6346     83.82016 
    5100    2184.8444   -113.00606    1.9768931   -111.02917   -6361.2649    4.3555457    4.3555457    4.3555457   -6361.2649    12845.759   -22500.858    -9428.696    17210.414   -20403.955   -22987.342    82.628094 
    5200    1055.5037    -112.0255   0.95504193   -111.07045    47232.021    4.3495288    4.3495288    4.3495288    47232.021    78466.457    62030.623    1198.9843    1104.5791    924.53762    31750.876    82.286129 
    5300    2309.8478   -113.17176    2.0899989   -111.08176   -12659.026     4.390697     4.390697     4.390697   -12659.026    6254.6031     12560.97   -56792.652    12268.572   -5515.9921    4649.1328    84.644821 
    5400    1745.2913   -112.63374    1.5791763   -111.05456    2984.6116    4.3916052    4.3916052    4.3916052    2984.6116    22916.876    57104.474   -71067.516    7472.4934   -8083.2756   -22782.529    84.697358 
    5500    1719.8732   -112.59878    1.5561774    -111.0426    13018.708     4.363262     4.363262     4.363262    13018.708    45229.071   -668.43514   -5504.5118    825.26089    7730.8298    33887.253    83.068021 
    5600    2277.0529   -113.09788    2.0603253   -111.03755     34087.28    4.3600532    4.3600532    4.3600532     34087.28    53871.225    43883.634    4506.9808    13363.893   -1587.2657   -8870.7625    82.884888 
    5700    1697.7653   -112.60211    1.5361738   -111.06594   -14595.419    4.3778312    4.3778312    4.3778312   -14595.419    19723.051   -4869.7995   -58639.509    -1190.085     3403.051   -23537.653    83.902912 
    5800     1589.556   -112.50413    1.4382636   -111.06587   -10846.691    4.3858743    4.3858743    4.3858743   -10846.691    27691.351   -31232.091   -28999.335    17131.066    10853.068    43176.933    84.366209 
    5900    2254.7651   -113.08069    2.0401588   -111.04053    5890.8355    4.3790265    4.3790265    4.3790265    5890.8355   -7765.3587    18244.307    7193.5578   -8398.7071    491.49203   -12344.787    83.971655 
    6000    1284.9708   -112.22343    1.1626686   -111.06076   -4126.3484    4.3793628    4.3793628    4.3793628   -4126.3484   -11189.209    47568.016   -48757.852    11380.271    1518.8122   -10453.689    83.991005 
    6100    1150.2342   -112.11419    1.0407561   -111.07344   -26831.031     4.383778     4.383778     4.383778   -26831.031    21614.264   -14605.616   -87501.741    29889.845   -6974.9437    56014.178    84.245294 
    6200     1798.264   -112.67642     1.627107   -111.04931   -5062.9703    4.3743672    4.3743672    4.3743672   -5062.9703    4347.5804    25907.751   -45444.242   -33875.881   -3561.6211    -15825.01    83.703905 
    6300    1022.8527   -111.99276   0.92549863   -111.06726   -40587.112    4.3749635    4.3749635    4.3749635   -40587.112    6947.8739   -55076.497   -73632.712   -9271.8921    6103.7959    10488.174     83.73814 
    6400    1331.0953   -112.26793     1.204403   -111.06353   -17547.381    4.3683809    4.3683809    4.3683809   -17547.381    12745.176   -9624.4421   -55762.876    25334.645    2627.2742    35015.319    83.360727 
    6500    2030.4769   -112.90241    1.8372182   -111.06519    7408.7996    4.3721654    4.3721654    4.3721654    7408.7996    8801.5027    43072.562   -29647.666   -36515.079    8437.1382   -13397.749    83.577572 
    6600    1259.8368   -112.22334    1.1399268   -111.08342    16335.789    4.3885461    4.3885461    4.3885461    16335.789    42446.671    26643.453   -20082.757   -10558.146   -269.60353    30895.178    84.520487 
    6700    1875.2623   -112.75845    1.6967768   -111.06167    11284.821    4.4129474    4.4129474    4.4129474    11284.821    23146.565     25064.71   -14356.813   -12329.833   -5394.4565   -5695.0541    85.938199 
    6800    1776.8195   -112.62996    1.6077037   -111.02226   -36928.621    4.4250533    4.4250533    4.4250533   -36928.621    -20935.88   -50096.269   -39753.713   -9646.3584   -15258.809    11953.209    86.647399 
    6900    1768.6908   -112.59677    1.6003486   -110.99642   -18818.668    4.3896289    4.3896289    4.3896289   -18818.668    71301.058   -61219.957   -66537.104   -5097.7731     3425.928    38099.094    84.583065 
    7000    2582.2129   -113.32201    2.3364405   -110.98557    8137.9118    4.3714284    4.3714284    4.3714284    8137.9118    15344.419    19626.146    -10556.83    22836.826    -724.2447   -7774.4047    83.535314 
    7100    1477.0051   -112.37794    1.3364253   -111.04151   -9632.8653    4.3940349    4.3940349    4.3940349   -9632.8653    19963.595   -17005.608   -31856.583   -3467.2806    9694.1418     49284.36    84.838015 
    7200    1948.6742   -112.79531    1.7632014    -111.0321   -32206.393    4.4182168    4.4182168    4.4182168   -32206.393   -44453.063    6462.7542   -58628.869    6808.4215   -2494.0891    10983.957    86.246418 
    7300    2093.8262   -112.90914    1.8945379    -111.0146   -27438.495    4.4025902    4.4025902    4.4025902   -27438.495   -2733.3834   -37040.425   -42541.675    11090.778   -10569.868    11876.999    85.334526 
    7400    1464.2284   -112.32822    1.3248646   -111.00336    18543.211    4.3605715    4.3605715    4.3605715    18543.211      37358.2    3030.7166    15240.716   -310.99583   -14798.238    47752.577    82.914453 
    7500    1900.9511   -112.75507    1.7200205   -111.03505    47012.655    4.3630304    4.3630304    4.3630304    47012.655    40564.634    31070.576    69402.757   -12402.112   -11696.481   -35230.835    83.054796 
    7600    1144.6481   -112.09333    1.0357017   -111.05763   -28791.294     4.411691     4.411691     4.411691   -28791.294   -13549.646    -57544.55   -15279.685   -4527.2875   -15685.804    39059.604    85.864817 
    7700    1219.3979    -112.1159    1.1033368   -111.01256   -18394.346    4.4157767    4.4157767    4.4157767   -18394.346   -16010.281   -18449.186   -20723.572   -14688.318    -2506.633    23993.977      86.1036 
    7800    1802.9055   -112.61508    1.6313068   -110.98377    16047.635    4.3810286    4.3810286    4.3810286    16047.635    3465.1006     20821.25    23856.555   -6050.9311    2215.6749    -11954.24    84.086887 
    7900    1041.1342   -111.95348   0.94204014   -111.01144    16364.435    4.3661129    4.3661129    4.3661129    16364.435    66128.967     -35354.2    18318.539    10012.163   -10919.972    54957.851    83.230958 
    8000    1989.8251   -112.84202    1.8004356   -111.04158    297.67424    4.3715872    4.3715872    4.3715872    297.67424     -10667.3     23913.58   -12353.257   -19098.619     10446.87    7396.7375    83.544419 
    8100    1949.4195   -112.81945    1.7638757   -111.05557    19069.241    4.3812362    4.3812362    4.3812362    19069.241    17109.812    6744.1571    33353.753    1387.6973   -5062.1534    5385.3545    84.098839 
    8200    1957.1585   -112.81985    1.7708781   -111.04897    592.69616    4.3884413    4.3884413    4.3884413    592.69616    4744.4976   -31681.551    28715.142    12069.726    9356.7871    53863.483     84.51443 
    8300    2527.3386   -113.31017    2.2867891   -111.02338   -125.57775    4.3875274    4.3875274    4.3875274   -125.57775    -17762.49    17795.503   -409.74639   -14692.972    18765.607    -7129.079    84.461642 
    8400    1564.3278   -112.44435    1.4154366   -111.02891    8557.9506    4.3811013    4.3811013    4.3811013    8557.9506    76564.176   -34245.442   -16644.882    -6390.629   -4182.9094    30100.178    84.091071 
    8500    2002.8754   -112.83949    1.8122438   -111.02725    10888.958    4.3766214    4.3766214    4.3766214    10888.958    12879.265   -14219.387    34006.995   -4101.9089    11845.732     9039.913    83.833373 
    8600    1586.7945   -112.47367     1.435765    -111.0379   -6777.4649    4.3821913    4.3821913    4.3821913   -6777.4649   -1842.3212   -37645.072    19154.999   -3184.1224   -11057.755    555.91506    84.153854 
    8700    919.82307   -111.87306   0.83227525   -111.04079   -10322.862    4.3842075    4.3842075    4.3842075   -10322.862    13158.354   -34353.834   -9773.1051    4326.3063    -4763.784    44871.513    84.270059 
    8800    1388.2767   -112.28259    1.2561419   -111.02645    -1017.559    4.3881369    4.3881369    4.3881369    -1017.559   -62946.457    17678.884    42214.896   -7180.4938   -13808.028   -14621.992    84.496849 
    8900    1274.2636   -112.18036    1.1529805   -111.02738    7271.5569    4.3893319    4.3893319    4.3893319    7271.5569   -2077.9741    5011.0226    18881.622   -10906.211   -4288.5573    2638.9562    84.565896 
    9000    1329.7316   -112.23155    1.2031691   -111.02838    13731.108    4.3909479    4.3909479    4.3909479    13731.108    31034.066     28653.24    -18493.98   -463.94382    2416.0752    22849.336    84.659333 
    9100    2028.9722   -112.86374    1.8358567   -111.02788    5315.1798    4.3901903    4.3901903    4.3901903    5315.1798   -57941.212    66127.149    7759.6021   -3305.4622   -7834.3912   -20400.849    84.615519 
    9200    1881.5795   -112.73658    1.7024927   -111.03409    34674.181    4.3772955    4.3772955    4.3772955    34674.181    25262.888    35723.142    43036.514    -2380.729    7651.7823    6236.4461    83.872114 
    9300    1457.5534   -112.37929     1.318825   -111.06047    6061.4357    4.3858034    4.3858034    4.3858034    6061.4357    17263.663    3747.2324    -2826.588    8869.1821   -1457.0338    31238.128    84.362121 
    9400    2055.4204   -112.90714    1.8597876   -111.04736   -15319.007    4.3913505    4.3913505    4.3913505   -15319.007   -59124.411    18949.809   -5782.4179    3108.1173    -16195.27   -16360.039    84.682626 
    9500    1704.3108   -112.57268    1.5420962   -111.03058    21878.784     4.378356     4.378356     4.378356    21878.784    8471.8912    6786.6717    50377.789   -4244.7281     13616.84    11815.112    83.933092 
    9600    1148.8835   -112.09402    1.0395339   -111.05448   -26461.828     4.387569     4.387569     4.387569   -26461.828    2747.0876   -48563.148   -33569.424    8229.7228   -1752.2841    27727.599    84.464048 
    9700     1826.948   -112.68965    1.6530609   -111.03659   -2196.1016    4.3829603    4.3829603    4.3829603   -2196.1016   -12346.028   -15227.105    20984.828    4848.1507   -125.84569   -13005.178    84.198163 
    9800    1327.3428   -112.23925    1.2010077   -111.03824    29119.459    4.3702005    4.3702005    4.3702005    29119.459    35608.522    6503.5093    45246.345    3103.7246    7516.9851    37851.744    83.464939 
    9900     1224.394   -112.16269    1.1078574   -111.05484   -44148.556    4.3912052    4.3912052    4.3912052   -44148.556   -25792.963   -37496.509   -69156.197    9028.2834   -501.09111   -5418.6778    84.674218 
   10000    2132.6916   -112.96389    1.9297041   -111.03418    3305.1273    4.3720952    4.3720952    4.3720952    3305.1273   -32.482906     384.9555    9562.9092   -8165.4124     3280.392   -17096.649    83.573548 
   10100    1253.5886   -112.18038    1.1342733   -111.04611    41571.841    4.3542405    4.3542405    4.3542405    41571.841    62867.192    50895.125    10953.206    4157.8876   -7118.3131    55882.297     82.55383 
   10200    1857.1153   -112.74254     1.680357   -111.06219   -22925.092    4.3910814    4.3910814    4.3910814   -22925.092    236.22453   -15710.035   -53301.465    -2850.182    501.02906   -14223.616    84.667057 
   10300    1986.2734   -112.83208     1.797222   -111.03485    8923.2162    4.3870862    4.3870862    4.3870862    8923.2162    29322.041    14436.466   -16988.859    1768.7943    13157.233    16134.809    84.436166 
   10400    1325.0599   -112.23889    1.1989421   -111.03995    30413.831    4.3802487    4.3802487    4.3802487    30413.831    38856.847    14661.529    37723.116    8624.9315   -8332.7535     42944.01    84.041985 
   10500    2292.5695   -113.09838    2.0743651   -111.02401   -20960.305    4.3966407    4.3966407    4.3966407   -20960.305   -33350.839    7383.9393   -36914.015    -8201.815    19993.922    -15027.84    84.989039 
   10600    1239.0929   -112.15641    1.1211573   -111.03525    14209.919    4.3705111    4.3705111    4.3705111    14209.919    106161.71    -25076.34   -38455.609    15750.106   -6161.4581    68204.829    83.482735 
   10700    2275.4281   -113.09369    2.0588552   -111.03483    13352.503    4.3655032    4.3655032    4.3655032    13352.503    14902.373    29529.366   -4374.2289   -18672.508     12461.33     4179.486    83.196095 
   10800     1677.829   -112.56246     1.518135   -111.04432   -29250.411    4.3927654    4.3927654    4.3927654   -29250.411    27387.051   -39498.674   -75639.611    1618.1567   -2074.7058    45500.781    84.764503 
   10900    1693.9192   -112.57031    1.5326937   -111.03762    -19143.76    4.3777744    4.3777744    4.3777744    -19143.76    23957.276   -51813.961   -29574.597    -4715.116    6053.9911    64759.034    83.899647 
   11000    2277.2701    -113.0849    2.0605218   -111.02437    2313.4749    4.3712184    4.3712184    4.3712184    2313.4749    12896.882   -9310.6674    3354.2098    3727.9256    -7174.725   -24346.903    83.523277 
   11100    925.62079   -111.89741   0.83752114   -111.05988   -37393.298    4.3816993    4.3816993    4.3816993   -37393.298    28576.715    -69852.09   -70904.519   -6647.4619   -4491.4992    84422.503    84.125512 
   11200    1841.9567   -112.72191    1.6666411   -111.05527     11757.42    4.3680144    4.3680144    4.3680144     11757.42    44830.285    6064.5282   -15622.553    12081.833   -7803.8032    1465.2915    83.339749 
   11300    1363.0936   -112.29939    1.2333557   -111.06603    6820.2355    4.3640432    4.3640432    4.3640432    6820.2355    68270.386   -20410.337   -27399.343    7006.2748    1912.2329    23290.496    83.112649 
   11400    1169.5369   -112.13518    1.0582216   -111.07696   -12779.901    4.3776851    4.3776851    4.3776851   -12779.901    56319.387   -19486.099   -75172.991   -715.74679   -12371.209    46684.298    83.894515 
   11500    2013.0973   -112.86351    1.8214927   -111.04202    7454.1156    4.3904334    4.3904334    4.3904334    7454.1156    42849.721    295.66803   -20783.042    3541.3795    6355.6907   -19591.852    84.629578 
   11600    1203.2948   -112.13195    1.0887664   -111.04319   -13805.021    4.3947194    4.3947194    4.3947194   -13805.021    35665.546   -93480.943    16400.335    3817.8521    16067.638    66913.252    84.877671 
   11700    2242.5402   -113.05211    2.0290975   -111.02301    12191.741    4.3729966    4.3729966    4.3729966    12191.741    49674.683   -37496.295    24396.836    4651.2145    -11844.82    1579.3411    83.625246 
   11800    1832.0591   -112.68598    1.6576856   -111.02829    34726.315    4.3531831    4.3531831    4.3531831    34726.315    61629.364    28980.506    13569.075   -16307.547    -8729.272    37256.359    82.493701 
   11900    1749.4547   -112.65218    1.5829434   -111.06924    5280.6006     4.380683     4.380683     4.380683    5280.6006    66016.742   -50608.053    433.11223    6287.5039   -4989.1576    35595.339    84.066986 
   12000    2429.6904   -113.22998    2.1984349   -111.03155   -25241.182    4.4027678    4.4027678    4.4027678   -25241.182   -6824.0301   -23307.723   -45591.793   -7171.7635    3936.8929   -22322.187    85.344857 
   12100    1042.3766   -111.98882   0.94316428   -111.04565   -33007.366    4.3857663    4.3857663    4.3857663   -33007.366    27982.171    -48391.74   -78612.529    315.04915    268.31852    69499.224     84.35998 
   12200    1994.6386   -112.82931    1.8047909   -111.02452    7377.5019    4.3613157    4.3613157    4.3613157    7377.5019    26679.652    25325.828   -29872.974    4129.0986     22465.24    359.38423    82.956914 
   12300    1517.4096   -112.42066    1.3729841   -111.04767   -4699.6226    4.3650947    4.3650947    4.3650947   -4699.6226    22001.932   -13358.992   -22741.808    14033.182   -17277.309    27179.833    83.172739 
   12400    774.41671   -111.77541   0.70070852    -111.0747   -11052.534    4.3857533    4.3857533    4.3857533   -11052.534    8577.9576    12316.704   -54052.265   -9902.8813    3423.7773    54252.534    84.359229 
   12500    2428.9389   -113.23804     2.197755   -111.04028   -10290.144    4.3910764    4.3910764    4.3910764   -10290.144    495.79883   -14040.026   -17326.206   -4969.0831     20857.73   -16918.602    84.666769 
   12600    1343.7076   -112.26077    1.2158149   -111.04496    6821.2696    4.3741075    4.3741075    4.3741075    6821.2696    36839.917   -3217.3182    -13158.79    2347.0559   -17589.628    62367.616    83.688996 
   12700    2117.7355   -112.95295    1.9161716   -111.03677    10716.129    4.3674181    4.3674181    4.3674181    10716.129   -21225.684    34913.489    18460.582   -14250.522   -105.86476    6446.5111    83.305623 
   12800    2393.8793   -113.20925    2.1660323   -111.04322    -19287.69    4.3820838    4.3820838    4.3820838    -19287.69   -4595.8283   -27420.183   -25847.058    11549.846   -6798.3706    10899.568    84.147659 
   12900    1008.8768    -111.9693   0.91285296   -111.05644   -15503.591    4.3731165    4.3731165    4.3731165   -15503.591    34300.374   -7416.0096   -73395.137   -3388.2649   -11550.956    77220.022    83.632125 
   13000    2223.5947   -113.04345    2.0119552   -111.03149    7525.4705    4.3603075    4.3603075    4.3603075    7525.4705    10812.747      17615.5   -5851.8352   -2165.6137   -7390.0119   -20636.866    82.899393 
   13100    1147.3034   -112.10228    1.0381042   -111.06418   -26905.494    4.3784387    4.3784387    4.3784387   -26905.494    29214.112   -30288.769   -79641.824    -1930.524   -4823.7154    66702.535    83.937848 
   13200    1290.7061   -112.22881     1.167858   -111.06095   -14581.075    4.3773852    4.3773852    4.3773852   -14581.075    5103.2097    27752.076   -76598.512   -11876.008    4674.1824    30824.657    83.877269 
   13300    2084.2174   -112.93934    1.8858437   -111.05349   -1586.3559    4.3737713    4.3737713    4.3737713   -1586.3559   -21759.309    9311.1513      7689.09    6658.8222   -15885.174   -32076.822    83.669698 
   13400    1062.3204    -112.0324   0.96120984   -111.07119    13150.726    4.3738318    4.3738318    4.3738318    13150.726    13145.408    26368.288   -61.517224   -2326.0757   -13949.041    66201.797    83.673174 
   13500    2419.3699     -113.241    2.1890967    -111.0519    1046.6797    4.3799221    4.3799221    4.3799221    1046.6797   -25532.446   -7474.6622    36147.148   -10296.205   -1087.2973    16629.404     84.02319 
   13600    1717.2225   -112.60408     1.553779    -111.0503    12261.826    4.3833865    4.3833865    4.3833865    12261.826   -17697.577    31833.582    22649.474   -3694.1779   -12383.986    14888.151    84.222725 
   13700    1506.5966   -112.40541    1.3632003   -111.04221    219.06193    4.3778579    4.3778579    4.3778579    219.06193    6225.6124   -6675.3363    1106.9096    8155.6567    8094.4114    53531.968    83.904445 
   13800    2196.6341   -113.01716    1.9875607    -111.0296    8839.5626    4.3816798    4.3816798    4.3816798    8839.5626   -20309.477    35891.903    10936.262   -13627.448    11102.168    -19653.72    84.124385 
   13900    939.34077   -111.89329   0.84993527   -111.04335   -9490.9111    4.3935874    4.3935874    4.3935874   -9490.9111    9751.4208     19186.38   -57410.535     112.7162    -10295.83    57319.661    84.812098 
   14000    1649.6556   -112.52178    1.4926431   -111.02914   -21234.974    4.3924455    4.3924455    4.3924455   -21234.974     853.4185   -8563.0691   -55995.273    7169.6073    4712.2871    17568.634    84.745987 
   14100     2099.395   -112.92501    1.8995768   -111.02543    1392.2816     4.372798     4.372798     4.372798    1392.2816    15600.205    8553.0572   -19976.418    3594.2554    -15511.44   -24360.815    83.613854 
   14200     1122.534   -112.06472    1.0156924   -111.04903    26473.551    4.3610888    4.3610888    4.3610888    26473.551    48916.878    8384.0735    22119.702    4819.6592   -15078.548    82115.097    82.943965 
   14300     2533.272   -113.34252    2.2921578   -111.05036    11925.571    4.3788584    4.3788584    4.3788584    11925.571   -3876.5787     17664.43    21988.861   -1946.3997    7427.7441   -5521.7406    83.961987 
   14400    1732.9903   -112.62008    1.5680461   -111.05204    6299.3192    4.3867683    4.3867683    4.3867683    6299.3192    31635.125   -9763.8543   -2973.3129    12984.027   -1464.1734     25565.42    84.417812 
   14500    1875.5146   -112.72629    1.6970051   -111.02929    12963.712    4.3819135    4.3819135    4.3819135    12963.712    32077.656   -3419.1607    10232.641   -11221.023    21945.953    18930.284     84.13785 
   14600    1874.7768   -112.70271    1.6963374   -111.00637   -19319.658    4.3910909    4.3910909    4.3910909   -19319.658   -6299.0241   -12703.967   -38955.983   -7996.6858    11325.648    -2278.327    84.667604 
   14700    934.23569   -111.86828   0.84531609   -111.02296   -37955.072    4.3751015    4.3751015    4.3751015   -37955.072    22853.445   -44933.499   -91785.161    8752.6292   -2893.4283    74750.946    83.746061 
   14800    2172.4994   -112.97779    1.9657231   -111.01207    11263.559    4.3582251    4.3582251    4.3582251    11263.559    3512.4753    21392.215    8885.9876   -3057.1522    7934.2271    -10098.88    82.780677 
   14900    946.31782   -111.91519   0.85624825   -111.05894   -18244.065     4.377288     4.377288     4.377288   -18244.065   -3443.4494    -20032.62   -31256.125   -10740.961   -5625.0738    39933.746    83.871682 
   15000    1041.4049   -112.00245   0.94228499   -111.06016    -3859.172    4.3856573    4.3856573    4.3856573    -3859.172    17288.471    5669.0083   -34534.995   -8613.0722    10567.657    42466.506    84.353688 
   15100    2582.1716   -113.36428    2.3364032   -111.02788    2072.4687    4.3778005    4.3778005    4.3778005    2072.4687   -2405.3885   -3527.3288    12150.124   -4409.9104   -303.78344   -12215.468    83.901145 
   15200    1138.3064   -112.07648    1.0299636   -111.04652    2321.7278    4.3748181    4.3748181    4.3748181    2321.7278    7504.2789   -36780.935     36241.84   -6111.0626   -87.216493     73331.92    83.729787 
   15300    2027.7025   -112.87331    1.8347078    -111.0386   -7218.9212     4.385431     4.385431     4.385431   -7218.9212     -94.0697   -14383.593   -7179.1004   -2964.8058    12470.405     8999.226    84.340631 
   15400     1822.765   -112.67976    1.6492761   -111.03048   -4836.7314    4.3823702    4.3823702    4.3823702   -4836.7314    10210.598    -30765.63    6044.8382    5645.5572    13856.313    16947.114     84.16416 
   15500    1570.8216   -112.46362    1.4213124   -111.04231    3183.8336    4.3816288    4.3816288    4.3816288    3183.8336    46223.618    -52462.56    15790.442   -13284.552   -1333.3176    20145.062    84.121451 
   15600    2040.4953   -112.88716     1.846283   -111.04088   -9356.3489     4.383915     4.383915     4.383915   -9356.3489    49215.934    -20869.68     -56415.3   -4528.9685    6759.4122   -9689.7756    84.253194 
   15700     1336.166   -112.25853    1.2089911   -111.04954   -22990.727     4.368944     4.368944     4.368944   -22990.727    31345.679   -36182.278   -64135.581    16154.263    19121.711    50828.203    83.392968 
   15800    1881.2559   -112.75012    1.7021999   -111.04792    25910.581    4.3773139    4.3773139    4.3773139    25910.581    69780.715   -6647.5434    14598.571    15385.496   -10254.969   -6484.0987    83.873173 
   15900    1236.5337   -112.16516    1.1188417   -111.04631   -30837.983    4.4016201    4.4016201    4.4016201   -30837.983    59595.692   -76401.871   -75707.769   -4673.9843   -4615.9187    49561.545    85.278129 
   16000    1751.0355   -112.60337    1.5843737     -111.019   -11293.131    4.3768791    4.3768791    4.3768791   -11293.131    16088.905    -23951.37   -26016.928   -1029.8894    2639.5148     22441.52    83.848183 
   16100    2507.3338   -113.27506    2.2686883   -111.00637    4722.1106    4.3653521    4.3653521    4.3653521    4722.1106    9675.4856   -19496.448    23987.294    2637.8064   -2753.5438    -12836.06    83.187452 
   16200    918.42933   -111.88053   0.83101415   -111.04951   -36045.087    4.3913885    4.3913885    4.3913885   -36045.087     42749.84   -69307.829   -81577.273    759.87404   -6756.2658    65380.556    84.684822 
   16300    1798.3453   -112.65201    1.6271807   -111.02483    -9707.609     4.379612     4.379612     4.379612    -9707.609   -25790.813    22910.541   -26242.555    -5187.769     11504.57   -17019.827    84.005341 
   16400    1222.7214   -112.15212     1.106344   -111.04578    3663.9938     4.377803     4.377803     4.377803    3663.9938    8210.2948   -15454.843     18236.53    17988.577   -2754.6038    19552.365     83.90129 
   16500    1365.7243    -112.2829    1.2357361   -111.04716   -37432.477     4.392948     4.392948     4.392948   -37432.477    1989.4326   -54539.116   -59747.746     2659.442   -370.98142    47219.595    84.775077 
   16600    1984.8138     -112.823    1.7959012    -111.0271    17132.868    4.3766563    4.3766563    4.3766563    17132.868    33580.776    37046.279   -19228.451   -4821.8075      8455.56   -30456.416    83.835376 
   16700    1323.0273   -112.25134    1.1971029   -111.05424   -21716.371     4.377139     4.377139     4.377139   -21716.371    45198.611   -73190.496   -37157.227    13798.391    5171.5362      54011.8     83.86312 
   16800    2288.7968    -113.1218    2.0709514   -111.05085   -19570.787    4.3872752    4.3872752    4.3872752   -19570.787    21695.772   -48983.586   -31424.547    20472.469    357.85294    12523.077     84.44708 
   16900    2007.4503   -112.86192    1.8163832   -111.04554     1194.854     4.388023     4.388023     4.388023     1194.854     32750.58   -33399.603    4233.5845    -5166.379   -9788.9206     2110.733    84.490269 
   17000    1503.8377   -112.41147    1.3607039   -111.05076   -13911.197    4.3856817    4.3856817    4.3856817   -13911.197    27733.447   -46621.081   -22845.958   -231.79802   -2836.4151    50006.056    84.355099 
   17100     1929.543   -112.78301     1.745891   -111.03712    5946.3264    4.3794398    4.3794398    4.3794398    5946.3264      37957.7    4732.5254   -24851.246    3752.4056    -5872.906   -19924.126    83.995436 
   17200    756.55621   -111.75583   0.68454796   -111.07128     35838.58    4.3774349    4.3774349    4.3774349     35838.58    40357.895    55347.449    11810.396    -654.7229   -3592.9326    42555.371    83.880127 
   17300    1758.4128   -112.65915    1.5910488    -111.0681    1101.7298    4.4008322    4.4008322    4.4008322    1101.7298    50481.804   -4500.5217   -42676.093    1317.3602    1365.7128   -10907.053    85.232341 
   17400    1614.2363   -112.49718     1.460595   -111.03659   -5973.2673    4.4053443    4.4053443    4.4053443   -5973.2673   -19674.657   -4767.2296    6522.0846   -3726.4547    1832.9648   -1782.2133    85.494776 
   17500    1612.9325   -112.48365    1.4594152   -111.02424   -6618.8146     4.390531     4.390531     4.390531   -6618.8146    -1154.346    -21119.83    2417.7323    -3226.313    6594.2067    42542.131    84.635222 
   17600    2404.9536    -113.2022    2.1760525   -111.02615    23688.922    4.3797717    4.3797717    4.3797717    23688.922    54573.484   -659.71391    17152.995    21048.136   -23174.703   -31241.918    84.014535 
   17700    1286.8484   -112.22206    1.1643675   -111.05769    31551.467    4.3722447    4.3722447    4.3722447    31551.467      76556.4    12705.112    5392.8888   -15852.802   -6171.5739    55576.603     83.58212 
   17800    1852.4039   -112.75119     1.676094    -111.0751   -2469.4857    4.3860211    4.3860211    4.3860211   -2469.4857    59658.593   -44209.051       -22858   -479.13886   -19381.368    15431.759    84.374681 
   17900    1845.8109   -112.72774    1.6701285   -111.05762    15262.459    4.3903461    4.3903461    4.3903461    15262.459    64056.219    -49890.66    31621.819    3891.4376    8339.6755   -10180.991    84.624531 
   18000    1578.0075   -112.48201    1.4278143    -111.0542    12742.171     4.377334     4.377334     4.377334    12742.171     48918.09   -5969.4136   -4722.1618   -10902.988   -7630.4095    60901.635     83.87433 
   18100    2423.3435   -113.23576    2.1926921   -111.04307    24267.295    4.3788017    4.3788017    4.3788017    24267.295    56224.035   -10169.724    26747.575    -16521.05    18454.741   -16935.344    83.958727 
   18200    1226.9065   -112.17186    1.1101308   -111.06173    839.30582     4.385336     4.385336     4.385336    839.30582    37969.555   -31296.052   -4155.5851   -1514.2087   -12080.475    50489.753    84.335149 
   18300     1630.458    -112.5326    1.4752726   -111.05732   -9482.7767    4.3925259    4.3925259    4.3925259   -9482.7767    -22831.65    17555.794   -23172.474    -16816.48    8662.5121    7283.9264    84.750639 
   18400    2025.5593   -112.86977    1.8327687     -111.037    -10961.35    4.3927588    4.3927588    4.3927588    -10961.35    7407.2689   -28258.222   -12033.096   -7663.5026     11670.09    1556.0593    84.764122 
   18500    876.19105   -111.83778   0.79279607   -111.04498    29207.151    4.3686804    4.3686804    4.3686804    29207.151    107720.06   -19099.055   -999.55012   -979.43039   -21657.515    52194.052    83.377878 
   18600    1815.1959   -112.69406    1.6424274   -111.05164    14335.911    4.3696138    4.3696138    4.3696138    14335.911   -6979.6827    15756.137    34231.278   -14256.675    23259.298   -22493.874    83.431331 
   18700    1387.6702   -112.32221    1.2555932   -111.06662   -31913.432    4.3986369    4.3986369    4.3986369   -31913.432   -462.75009   -52412.231   -42865.315    1355.2742   -4751.2502    43746.328    85.104853 
   18800     1679.623   -112.56781    1.5197582   -111.04805   -28488.756       4.3924       4.3924       4.3924   -28488.756    13627.325    -55929.41   -43164.184   -12766.651    840.59762    26971.723    84.743357 
   18900    1877.8166   -112.73286    1.6990879   -111.03377    31618.261    4.3812493    4.3812493    4.3812493    31618.261    60632.375    21424.205    12798.203    16020.639    -5094.019   -26527.113    84.099595 
   19000    1428.2264   -112.35151    1.2922893   -111.05922   -22592.256    4.4008898    4.4008898    4.4008898   -22592.256    48704.857   -44736.883   -71744.741   -5901.3816    1661.8793    59533.545    85.235689 
   19100    2222.4812   -113.04377    2.0109477   -111.03282   -23770.748    4.3939513    4.3939513    4.3939513   -23770.748    8799.6507    -23105.69   -57006.204    4953.4367    6379.2152    9250.7338    84.833176 
   19200    2194.2648   -113.00832    1.9854169    -111.0229   -2121.3948    4.3772901    4.3772901    4.3772901   -2121.3948    35122.026   -12203.309   -29282.901    2366.1982    179.39761    1611.7891    83.871807 
   19300     1653.778   -112.55542    1.4963731   -111.05905   -38639.865    4.3920702    4.3920702    4.3920702   -38639.865    26592.132   -83271.614   -59240.112    3705.9995    -3627.324    69043.034    84.724267 
   19400    1911.8283   -112.77579    1.7298624   -111.04593    38648.718    4.3931769    4.3931769    4.3931769    38648.718    99119.307   -4118.6643    20945.512    3164.6245    10715.789   -6416.6114    84.788329 
   19500    1448.2743   -112.37944     1.310429   -111.06901   -14202.174    4.4031812    4.4031812    4.4031812   -14202.174    3161.5141   -56000.441    10232.406    13161.063   -8085.4833    41215.341    85.368895 
   19600    2118.2691   -112.98002    1.9166544   -111.06337    -42805.55     4.408781     4.408781     4.408781    -42805.55    -56626.72   -54277.587   -17512.342   -17873.896    4197.0396    17488.463    85.695021 
   19700    1418.4924   -112.33445    1.2834818   -111.05097    51818.137    4.3832332    4.3832332    4.3832332    51818.137    99350.729   -17493.428    73597.109   -3361.7488    11201.788    5663.9534    84.213891 
   19800    1498.7759   -112.42705    1.3561239   -111.07093   -2650.9809     4.378914     4.378914     4.378914   -2650.9809    11235.528   -14120.697   -5067.7744   -1225.6279     5085.447    66859.178    83.965183 
   19900    1843.9543   -112.73489    1.6684486   -111.06644   -13637.225    4.3946329    4.3946329    4.3946329   -13637.225   -35695.264    16410.621   -21627.033    20861.826   -18024.551   -14316.965     84.87266 
   20000    881.71015   -111.86187   0.79778987   -111.06408    41517.724    4.3889451    4.3889451    4.3889451    41517.724    105798.15   -25373.324    44128.342      -8672.3   -17725.047    37468.834    84.543543 
   20100    1844.7718   -112.74619    1.6691883     -111.077   -5591.9705    4.3942795    4.3942795    4.3942795   -5591.9705    15990.982   -15808.655   -16958.238    8327.5317   -19913.749     18646.61    84.852187 
   20200    1880.4805   -112.77673    1.7014983   -111.07523   -10444.341    4.3964919    4.3964919    4.3964919   -10444.341   -30459.637    13290.886   -14164.273   -12294.348    4720.9529   -2424.9843    84.980411 
   20300    1229.1423   -112.18919    1.1121538   -111.07704    12929.163    4.3891659    4.3891659    4.3891659    12929.163    67506.174   -43274.641    14555.956    4246.6736    15259.112    21006.491    84.556306 
   20400    2257.5167   -113.09688    2.0426485   -111.05423    13108.704    4.3884432    4.3884432    4.3884432    13108.704    18492.925    9445.2368    11387.949   -24687.413   -2117.7992   -22039.477     84.51454 
   20500    1078.7029   -112.04527    0.9760331   -111.06924    9301.1193    4.4096612    4.4096612    4.4096612    9301.1193    29427.961    7632.3375   -9156.9406    9949.1173   -4860.5678    28069.795    85.746357 
   20600    2329.5188   -113.11913    2.1077976   -111.01133   -30430.726    4.4151577    4.4151577    4.4151577   -30430.726    -21865.32    -26924.69   -42502.168    5603.0087    19473.634    21150.494    86.067394 
   20700     1468.328    -112.3381    1.3285741   -111.00953   -14455.192    4.3897507    4.3897507    4.3897507   -14455.192   -42490.367   -28396.139    27520.931    1611.0117     2811.532   -10430.213    84.590104 
   20800    1422.9759   -112.32143    1.2875385   -111.03389    8101.1641    4.3760131    4.3760131    4.3760131    8101.1641    31692.546   -4191.1639   -3197.8903    2690.0498    7003.1422    28253.153    83.798423 
   20900    1885.8532   -112.75332    1.7063596   -111.04696    26554.107    4.3832749    4.3832749    4.3832749    26554.107     4994.898    15683.423        58984     7541.291    4511.6407   -10257.645    84.216294 
   21000    1098.5374   -112.06158   0.99397975    -111.0676   -27769.648    4.3962252    4.3962252    4.3962252   -27769.648   -81838.857   -291.04852   -1179.0374   -1494.0441   -8813.4423    1516.3238    84.964949 
   21100    1626.5363   -112.52164    1.4717242   -111.04991   -17470.381    4.4064842    4.4064842    4.4064842   -17470.381   -23342.384   -23104.423   -5964.3352   -16990.903   -393.83366    19958.429    85.561157 
   21200    1832.2912   -112.68104    1.6578956   -111.02315   -9715.6401    4.4117532    4.4117532    4.4117532   -9715.6401   -39796.852    11518.978     -869.047    19872.098   -3422.6743   -10899.057    85.868452 
   21300    1832.3377   -112.66706    1.6579376   -111.00912    -11908.55    4.4033863    4.4033863    4.4033863    -11908.55   -27814.046    1946.9982   -9858.6022    1618.7414   -8089.3478    29174.446    85.380829 
   21400    2202.6723   -113.00097    1.9930242   -111.00795    1186.6413    4.4041018    4.4041018    4.4041018    1186.6413   -27613.105   -976.74072     32149.77   -9338.3677    4521.4489    7461.2067    85.422457 
   21500    1615.4648   -112.47972    1.4617065   -111.01802   -16996.253    4.4122588    4.4122588    4.4122588   -16996.253   -51818.218    -18507.41     19336.87    4893.4425    296.29622    2098.4128    85.897975 
   21600    1639.2079   -112.49131    1.4831897   -111.00812   -28006.094     4.401142     4.401142     4.401142   -28006.094   -35676.597   -19225.314    -29116.37    1941.1388    13029.878     6692.934    85.250343 
   21700    1699.8664   -112.55149    1.5380749   -111.01341    12697.561    4.3892267    4.3892267    4.3892267    12697.561    21609.831    23625.822   -7142.9711    797.59138    44.143696    18686.374    84.559815 
   21800    1924.9686   -112.77415    1.7417521    -111.0324   -32554.384    4.3968604    4.3968604    4.3968604   -32554.384   -55136.985   -31439.259   -11086.908    4731.3661   -9292.0382    1019.4857    85.001782 
   21900    1633.5105   -112.52155    1.4780346   -111.04352    20554.933    4.3873087    4.3873087    4.3873087    20554.933   -25410.489    13629.189    73446.099   -18185.788    3485.0832    6477.6333    84.449016 
   22000    2474.1406   -113.27717    2.2386545   -111.03851    1181.9334    4.3822995    4.3822995    4.3822995    1181.9334   -8190.1178    27350.123   -15614.204    19444.192    1733.1391    32410.514    84.160083 
   22100    1236.2897   -112.18945    1.1186209   -111.07083   -7014.8802    4.3912424    4.3912424    4.3912424   -7014.8802   -34867.129   -34342.176    48164.664    4275.2962   -12210.348   -6406.4773    84.676373 
   22200    1767.6447   -112.65755    1.5994021   -111.05815   -2998.1167    4.3855788    4.3855788    4.3855788   -2998.1167   -60221.572   -9692.0032    60919.226   -31959.161   -10435.196    13828.199    84.349159 
   22300    2326.3276   -113.15521    2.1049101    -111.0503     9138.066    4.3882583    4.3882583    4.3882583     9138.066     -33796.7    27651.578     33559.32    8973.9568   -8544.8813    3594.7498     84.50386 
   22400    1380.4312   -112.29912    1.2490432   -111.05007   -29816.807    4.4088113    4.4088113    4.4088113   -29816.807   -71908.386   -29014.912    11472.877   -3152.5214   -8589.2749    -13933.09    85.696785 
   22500    1427.1202    -112.3202    1.2912884   -111.02891   -852.61713    4.4010502    4.4010502    4.4010502   -852.61713   -22480.728   -33334.664    53257.541    -16550.11   -5139.6298    9050.2714    85.245008 
   22600    1914.5183   -112.73921    1.7322964   -111.00692    22585.255    4.3808943    4.3808943    4.3808943    22585.255   -6517.8179    27045.885    47227.698    18536.365    1478.7163   -4726.0199    84.079153 
   22700    1545.1028   -112.43583    1.3980415   -111.03779    -47292.17    4.3884898    4.3884898    4.3884898    -47292.17   -81901.105   -66106.077    6130.6732   -23575.635    1456.0893    1979.8953    84.517237 
   22800    2168.6992    -113.0102    1.9622846   -111.04791    -34224.45    4.3965772    4.3965772    4.3965772    -34224.45    -60966.67   -20013.156   -21693.523   -33129.093    10649.425   -27268.308    84.985358 
   22900    1641.3816   -112.53166    1.4851566    -111.0465    2399.3245    4.4022125    4.4022125    4.4022125    2399.3245   -51523.199   -43543.945    102265.12    8844.2458   -518.05923    7324.9318    85.312565 
   23000    1436.7301   -112.35818    1.2999836    -111.0582   -33545.484    4.3923011    4.3923011    4.3923011   -33545.484   -63916.658   -63307.168    26587.374   -29717.837   -4886.5871   -361.35899     84.73763 
   23100    2415.1743   -113.24209    2.1853004   -111.05679    1817.9877    4.3710557    4.3710557    4.3710557    1817.9877    3202.0032    9523.2993   -7271.3393   -133.71797    4462.8657    11136.892    83.513949 
   23200    1394.8107   -112.36271    1.2620541   -111.10065    18590.012    4.3804834    4.3804834    4.3804834    18590.012   -34598.592   -7815.0219    98183.648    -18761.67    -8897.198   -19243.895    84.055497 
   23300    1643.8682   -112.58001    1.4874065    -111.0926   -23769.024    4.3980098    4.3980098    4.3980098   -23769.024   -84104.987   -19422.708    32220.624   -21758.011    7637.4478    24858.934    85.068461 
   23400    2101.8618   -112.95271    1.9018087    -111.0509   -5653.1394    4.4015292    4.4015292    4.4015292   -5653.1394    -52906.37    8811.1546    27135.797    18712.695   -12522.148   -15568.669    85.272846 
   23500    1752.8258   -112.63748    1.5859936   -111.05148   -23675.293    4.3819076    4.3819076    4.3819076   -23675.293   -53200.945   -55119.065     37294.13   -45208.764    5320.8643   -13849.498    84.137508 
   23600    2081.2747    -112.9336    1.8831811   -111.05041    16699.584    4.3703009    4.3703009    4.3703009    16699.584   -15704.689    23273.118    42530.322    13085.645   -6033.5438   -7283.3837    83.470693 
   23700    1987.5323   -112.88519     1.798361   -111.08683   -1427.6202    4.3941797    4.3941797    4.3941797   -1427.6202   -44965.668   -28025.315    68708.122   -6655.0379    382.21959    3568.6712    84.846404 
   23800    1205.9363    -112.1841    1.0911565   -111.09294   -7423.5295    4.3981659    4.3981659    4.3981659   -7423.5295   -43209.423   -28022.369    48961.203   -38476.455   -7290.2734    1718.0474    85.077519 
   23900    1983.3683   -112.85162    1.7945933   -111.05702    14327.657    4.3816857    4.3816857    4.3816857    14327.657   -9732.1412    13693.501     39021.61    35691.243    20902.089    2935.1184    84.124729 
   24000    1360.8877   -112.29186    1.2313598    -111.0605    13546.449    4.3873624    4.3873624    4.3873624    13546.449   -32664.958   -704.00164    74008.308   -19886.401   -2631.4451   -6051.0498    84.452116 
   24100    1539.7844   -112.44634    1.3932293   -111.05311     3511.583    4.3916748    4.3916748    4.3916748     3511.583   -48520.071    9246.7542    49808.066   -13083.615    14837.528   -14490.194    84.701389 
   24200    1990.3275   -112.85734    1.8008902   -111.05645   -25243.833    4.4137298    4.4137298    4.4137298   -25243.833    -56013.29     -23846.3    4128.0917    22884.567   -4555.6365    822.30521    85.983919 
   24300    1734.8573   -112.60827    1.5697353   -111.03853   -38208.857      4.40958      4.40958      4.40958   -38208.857   -56372.916   -61186.322    2932.6663   -45795.349   -720.87267   -7213.1433    85.741619 
   24400    1740.1075   -112.59731    1.5744859   -111.02283    28264.012    4.3689652    4.3689652    4.3689652    28264.012    7992.6095    36960.235     39839.19    2302.3009   -7557.3945   -18073.426    83.394181 
   24500    2226.2532   -113.06233    2.0143607   -111.04796    20512.211    4.3676755    4.3676755    4.3676755    20512.211    15422.432    10857.601      35256.6    7341.7266   -16586.835    9181.5386    83.320352 
   24600    1154.7178   -112.13963     1.044813   -111.09482    10431.678    4.3944722    4.3944722    4.3944722    10431.678   -39296.973    34806.768    35785.239   -19927.136   -32536.907    9818.9092    84.863351 
   24700    1711.9138   -112.60657    1.5489756   -111.05759    174.27892    4.4203551    4.4203551    4.4203551    174.27892    8556.5451     29624.56   -37658.268    23179.327    9839.4397    -12573.97    86.371704 
   24800    1610.4661   -112.47184    1.4571835   -111.01465   -12564.336     4.422473     4.422473     4.422473   -12564.336   -42913.553   -38746.824    43967.368   -14278.866    11619.093   -3182.0093     86.49591 
   24900    1484.8965   -112.34404    1.3435656   -111.00047    6461.9133    4.3830811    4.3830811    4.3830811    6461.9133   -49095.921   -1936.1355    70417.796   -12297.964    6874.1865   -2553.4316    84.205122 
   25000    2472.9767   -113.25302    2.2376013   -111.01542    10657.971    4.3733646    4.3733646    4.3733646    10657.971   -13415.486    6097.6645    39291.735    1447.8588    3749.9129   -16667.074    83.646361 
   25100    1539.7898   -112.46755    1.3932341   -111.07431    1184.0527    4.4060824    4.4060824    4.4060824    1184.0527    -24940.41   -43436.203    71928.771   -26279.413    10856.325    5188.2802    85.537756 
   25200    2023.1966   -112.87911    1.8306308   -111.04848   -42591.396    4.4212173    4.4212173    4.4212173   -42591.396    14855.397   -64948.479   -77681.106   -4693.2454    -9576.707   -6085.4835    86.422255 
   25300    1923.2779   -112.74786    1.7402223   -111.00764   -22317.267    4.4015694    4.4015694    4.4015694   -22317.267    5545.7579   -8626.6999   -63870.859    7912.8017    3824.4786   -2727.1755    85.275184 
   25400    1623.0606   -112.47055    1.4685794   -111.00197    35170.672    4.3807748    4.3807748    4.3807748    35170.672    43513.962   -9506.0656     71504.12   -10876.324    21841.143    2706.5315     84.07227 
   25500    1319.6474   -112.22523    1.1940447   -111.03119    14841.059    4.3956954    4.3956954    4.3956954    14841.059     77618.89   -38544.313    5448.5993   -531.51462    23939.616   -17260.343    84.934236 
   25600    1488.1953   -112.37745    1.3465504    -111.0309   -30279.937    4.3925629    4.3925629    4.3925629   -30279.937   -53583.943    20204.104   -57459.973    344.06285    56769.216    651.01493    84.752785 
   25700    2348.8593   -113.14363    2.1252973   -111.01833    -6367.745     4.378432     4.378432     4.378432    -6367.745   -30346.785    3168.8636    8074.6863   -3938.4713   -10827.284   -7274.5666    83.937462 
   25800    1416.2968   -112.33397    1.2814951   -111.05248   -16913.146    4.4053582    4.4053582    4.4053582   -16913.146    71906.137   -40763.792   -81881.783   -3974.2883    8520.5675   -17695.976    85.495582 
   25900    1531.4997   -112.43694    1.3857331   -111.05121   -33463.898    4.3982386    4.3982386    4.3982386   -33463.898   -33408.137    9860.3698   -76843.927   -6005.0846    44100.045    5135.9966    85.081737 
   26000    1783.1071   -112.66679    1.6133928   -111.05339    24841.822    4.3784306    4.3784306    4.3784306    24841.822    69723.536    31691.025   -26889.095    7897.0583   -14159.919   -6312.8002    83.937378 
   26100    1791.9593   -112.70141    1.6214025   -111.08001   -20454.516    4.4006337    4.4006337    4.4006337   -20454.516   -27319.779   -1179.0727   -32864.696    1412.8282    8998.4609   -6435.7927    85.220809 
   26200    1634.2315   -112.53319     1.478687    -111.0545   -28925.867     4.401016     4.401016     4.401016   -28925.867   -52605.447   -3830.8353   -30341.317    10116.482    21870.353   -1051.8312    85.243026 
   26300    1944.2711   -112.80113    1.7592174   -111.04191    3478.8356    4.3959117    4.3959117    4.3959117    3478.8356   -19178.907   -18791.418    48406.832    -10943.01   -5457.6286    7295.1027    84.946772 
   26400     1389.105   -112.30014    1.2568914   -111.04325   -35745.076    4.4059591    4.4059591    4.4059591   -35745.076   -53939.015    2248.9861     -55545.2   -7627.4147    19918.286   -15977.632    85.530576 
   26500    1634.3352   -112.50842    1.4787808   -111.02964   -7562.8544    4.3751999    4.3751999    4.3751999   -7562.8544   -3981.4662    22140.285   -40847.381    6044.3863    24861.465    -2708.013    83.751712 
   26600    2432.3741   -113.22923    2.2008632   -111.02836    25644.777    4.3672957    4.3672957    4.3672957    25644.777    22921.716    62261.114   -8248.4984    5844.7504   -12934.723   -11078.563    83.298616 
   26700    1839.0357   -112.72297    1.6639981   -111.05897   -29341.617    4.4094222    4.4094222    4.4094222   -29341.617    -69410.88    32897.902   -51511.875   -11060.782    6555.8926   -10838.524    85.732415 
   26800    1142.3578   -112.07577    1.0336294   -111.04214   -278.56709    4.4047997    4.4047997    4.4047997   -278.56709    20387.461    -19216.11   -2007.0526    5541.0654    12946.326    7689.3192    85.463072 
   26900    2243.8577   -113.04341    2.0302896   -111.01312    31834.462    4.3742865    4.3742865    4.3742865    31834.462    37283.619    35664.175    22555.591    26611.488    2217.0316   -1338.2121    83.699268 
   27000    1598.3595   -112.49108    1.4462293   -111.04485    45097.381    4.3747872    4.3747872    4.3747872    45097.381    70729.706    64783.698   -221.26153   -7322.4958   -5451.1634   -8293.0967    83.728017 
   27100    1354.6005   -112.31641     1.225671   -111.09074   -26595.402    4.3982234    4.3982234    4.3982234   -26595.402    -54283.36   -16871.713   -8631.1341    33906.194    9727.0463   -12464.231    85.080858 
   27200    1699.1599   -112.60817    1.5374356   -111.07073     -14106.7    4.4128842    4.4128842    4.4128842     -14106.7   -33484.623    13571.868   -22407.346   -12191.452    8846.4924   -194.58918    85.934507 
   27300    1622.7257    -112.4959    1.4682763   -111.02763   -24167.504    4.4086673    4.4086673    4.4086673   -24167.504    2728.8803   -67122.739   -8108.6528   -738.13668   -9760.0498    5236.7101    85.688391 
   27400    1416.5337   -112.28378    1.2817094   -111.00207   -19457.312    4.3958746    4.3958746    4.3958746   -19457.312    1712.8188   -54800.126   -5284.6277    52769.776    5382.3858    1137.2285     84.94462 
   27500    1494.7839    -112.3635    1.3525119   -111.01099    12105.199     4.382988     4.382988     4.382988    12105.199    68060.524   -26269.335   -5475.5916   -20976.603   -321.65218   -1152.0551    84.199759 
   27600    2137.1325    -112.9753    1.9337224   -111.04158    7401.9461    4.3832308    4.3832308    4.3832308    7401.9461    1911.3981   -7250.4019    27544.842   -6302.5598   -4329.9419     4247.391     84.21375 
   27700    1879.6827   -112.75957    1.7007765   -111.05879   -11141.587    4.4017469    4.4017469    4.4017469   -11141.587   -41703.142   -24348.446    32626.828    22691.997    3985.1565   -2656.5985    85.285499 
   27800    1656.3329   -112.54703    1.4986848   -111.04835   -15609.652    4.3946946    4.3946946    4.3946946   -15609.652   -33974.986   -31554.317    18700.346   -34125.254    7318.0893   -11160.223    84.876235 
   27900    2129.3646    -112.9552    1.9266938    -111.0285    7976.0397     4.399117     4.399117     4.399117    7976.0397    11789.244    5727.8643    6411.0111    15827.029   -12685.979   -12400.835    85.132728 
   28000    1350.9915   -112.24969    1.2224055   -111.02729   -54905.516    4.4196823    4.4196823    4.4196823   -54905.516   -62000.331   -71916.724   -30799.493   -5260.3702    14273.105   -2762.6244    86.332269 
   28100    1293.3227    -112.1934    1.1702255   -111.02317   -27892.481    4.3938659    4.3938659    4.3938659   -27892.481   -7863.4278   -27489.849   -48324.167   -32505.837    1789.4549   -10235.145    84.828231 
   28200    2234.9074   -113.04459    2.0221912    -111.0224    46527.399    4.3608058    4.3608058    4.3608058    46527.399     59338.29    78466.591    1777.3148     13312.34    -14043.28   -11087.978    82.927816 
   28300    2197.0313   -113.05654    1.9879201   -111.06862    3544.7728    4.3693759    4.3693759    4.3693759    3544.7728    15798.979   -11682.657    6517.9969   -20045.263    11433.241   -1865.4028    83.417705 
   28400    1075.4441   -112.08423   0.97308441   -111.11114    17037.682    4.3925689    4.3925689    4.3925689    17037.682    16502.492    47979.786   -13369.234   -10112.132   -2580.0577    5649.2586     84.75313 
   28500    2006.4221   -112.87708    1.8154529   -111.06162   -7491.5048    4.4088075    4.4088075    4.4088075   -7491.5048   -23636.494    27715.842   -26553.862    19194.106   -4951.8412    17328.944    85.696565 
   28600    1809.3465   -112.66802    1.6371347   -111.03088    7870.2202    4.3910647    4.3910647    4.3910647    7870.2202   -8338.8209    34860.671   -2911.1893   -25289.325    16250.346   -3119.2048    84.666089 
   28700    1929.1679   -112.77222    1.7455516   -111.02667   -5221.7418    4.3767806    4.3767806    4.3767806   -5221.7418   -16616.783     13051.11   -12099.552   -13789.923    6499.2023   -10490.956    83.842524 
   28800    1617.3107   -112.51917    1.4633767    -111.0558    10684.822    4.3836201    4.3836201    4.3836201    10684.822   -5805.5571    29954.747    7905.2765    27927.683   -11745.356    4824.1704    84.236195 
   28900    1289.8028    -112.2298    1.1670407   -111.06276    29915.427    4.3918754    4.3918754    4.3918754    29915.427    14175.677    23092.333     52478.27     661.3138    4679.2178    10753.185    84.712996 
   29000    1843.1516   -112.71897    1.6677223   -111.05124   -33049.499      4.39622      4.39622      4.39622   -33049.499   -26323.369   -36998.088    -35827.04   -12728.749    1096.8487   -11207.062    84.964647 
   29100    1535.4462    -112.4362     1.389304    -111.0469    10578.504    4.3776035    4.3776035    4.3776035    10578.504     8130.888    29015.565   -5410.9409    22578.267   -5529.0498   -9890.9304    83.889823 
   29200    1697.0663   -112.59763    1.5355412   -111.06209     17834.47    4.3740277    4.3740277    4.3740277     17834.47    19641.274   -3247.0156    37109.151    16785.793   -4734.8982    18185.751    83.684414 
   29300    1639.1894   -112.56322     1.483173   -111.08005   -10689.395    4.3940468    4.3940468    4.3940468   -10689.395    32567.882    -4136.355   -60499.711   -8084.3384    1813.2741   -3464.9535    84.838709 
   29400    2591.2054   -113.40261    2.3445771   -111.05804   -10673.783    4.3860268    4.3860268    4.3860268   -10673.783   -23625.308    3799.6186    -12195.66    5075.7252   -7020.8931   -1252.8943    84.375013 
   29500    1967.5747   -112.83282    1.7803029   -111.05252    31636.493    4.3725257    4.3725257    4.3725257    31636.493    6241.3034    25995.431    62672.744     13013.04      3234.41    15492.215    83.598237 
   29600    1134.2564   -112.10641     1.026299   -111.08011    -19005.58    4.3824839    4.3824839    4.3824839    -19005.58   -14147.319   -11918.245   -30951.177   -16866.849    9573.7254    -18994.61    84.170712 
   29700      1724.05   -112.63758    1.5599567   -111.07762   -21387.365    4.3918768    4.3918768    4.3918768   -21387.365   -30224.368   -27047.228   -6890.4982   -10318.323    5311.5145   -4926.5183    84.713075 
   29800     1984.742   -112.85991    1.7958363   -111.06408    5855.6692    4.3892135    4.3892135    4.3892135    5855.6692    -31918.29   -17529.467    67014.764     19391.04   -3496.2408    10061.835    84.559055 
   29900    1582.5399   -112.50156    1.4319154   -111.06965   -16564.565    4.3890868    4.3890868    4.3890868   -16564.565   -22164.536   -21897.772   -5631.3876   -19562.437    8741.9418   -6957.2247    84.551731 
   30000     1114.459   -112.07276    1.0083859   -111.06437    24972.955    4.3844461    4.3844461    4.3844461    24972.955    23526.909   -3637.9574    55029.915   -8080.8528    2556.3575    13780.435    84.283821 
   30100    2208.4558   -113.05621    1.9982572   -111.05795    15948.428    4.3786635    4.3786635    4.3786635    15948.428    28939.236    21698.042    -2791.994    9006.8586   -33566.382    8507.0518    83.950776 
   30200    2015.5791   -112.89335    1.8237383   -111.06961    866.22706    4.3920806    4.3920806    4.3920806    866.22706    40671.368    3290.8246   -41363.511   -18615.633    10729.087   -1113.5478     84.72487 
   30300    1250.4868   -112.19549    1.1314668   -111.06402   -8463.6399    4.3964799    4.3964799    4.3964799   -8463.6399    41958.247   -52852.727    -14496.44    9401.5953   -4856.3592    14923.387    84.979714 
   30400    1602.0585   -112.49308    1.4495762    -111.0435    14218.513     4.386729     4.386729     4.386729    14218.513    77842.573   -38404.527    3217.4928    24866.965   -19851.811   -15486.615     84.41554 
   30500    1985.1287   -112.85523    1.7961862   -111.05904   -25896.277    4.3887385    4.3887385    4.3887385   -25896.277    22434.441   -62982.827   -37140.446   -31464.838    8872.7902    19321.384    84.531606 
   30600    1115.1995   -112.08385    1.0090559    -111.0748    4620.5783    4.3804558    4.3804558    4.3804558    4620.5783      75800.9   -43531.117   -18408.048    11543.022   -7561.7344    33804.524    84.053907 
   30700    1918.1007   -112.80312    1.7355378   -111.06759    17204.602    4.3622216    4.3622216    4.3622216    17204.602   -5609.7969     -8215.42    65439.022    18026.452   -9401.3941   -16230.579    83.008613 
   30800    2124.2192   -113.01069    1.9220382   -111.08866   -15659.485     4.380368     4.380368     4.380368   -15659.485    -19454.36   -15011.794     -12512.3   -23469.513   -7013.0422   -380.02691    84.048856 
   30900    1310.0641   -112.26544    1.1853735   -111.08007   -8413.2322    4.3990332    4.3990332    4.3990332   -8413.2322    5923.3512   -28943.028   -2220.0202   -2117.7045   -13471.318    18587.953    85.127861 
   31000    1437.7104    -112.3618    1.3008705   -111.06093    9339.6016    4.3879345    4.3879345    4.3879345    9339.6016   -1534.8239    -14718.41    44272.039    43125.204   -4409.0032   -10939.676    84.485155 
   31100    2561.9802   -113.35758    2.3181335   -111.03944   -20449.648    4.3776035    4.3776035    4.3776035   -20449.648   -6922.5969   -37068.854   -17357.493   -4345.1338    9716.3527     5751.138    83.889822 
   31200    1312.4761   -112.24643    1.1875559   -111.05887    10987.334    4.3750703    4.3750703    4.3750703    10987.334   -5188.9388   -14484.121    52635.062    11083.962    4939.5506    12844.834    83.744271 
   31300    1011.5224   -112.00311    0.9152467   -111.08787   -251.76958    4.3873293    4.3873293    4.3873293   -251.76958     46079.41   -18861.805   -27972.914    10951.735    3509.7478   -14890.632    84.450205 
   31400    1786.4862   -112.68483    1.6164502   -111.06838   -32723.993    4.4040038    4.4040038    4.4040038   -32723.993    6512.7997   -59502.223   -45182.555   -16810.324   -5775.9246   -44723.709    85.416752 
   31500    2109.4212   -112.96573    1.9086486   -111.05709     23411.93    4.3709203    4.3709203    4.3709203     23411.93   -15381.761    59690.146    25927.403    15323.361    20.692382    8789.5697    83.506191 
   31600    1495.6779    -112.4206    1.3533208   -111.06728    22097.159    4.3552494    4.3552494    4.3552494    22097.159   -399.30556    38112.488    28578.295    18209.759    14150.757   -38977.787     82.61123 
   31700    1370.1556   -112.34342    1.2397455   -111.10368    321.36176    4.3913699    4.3913699    4.3913699    321.36176    5034.0373    1062.7181   -5132.6702   -22441.797    462.65412   -35390.684    84.683747 
   31800    2250.2696   -113.10129    2.0360912    -111.0652   -9167.4916    4.4014079    4.4014079    4.4014079   -9167.4916   -33785.312    52532.215   -46249.378   -6572.5147   -7272.0843    22822.174    85.265795 
   31900     1653.624   -112.55467    1.4962338   -111.05843   -14710.577     4.392934     4.392934     4.392934   -14710.577    -34512.01    17175.706   -26795.425   -2980.5907   -60.873304   -38654.249    84.774268 
   32000    819.01323   -111.81104   0.74106038   -111.06998   -5222.6815    4.3752124    4.3752124    4.3752124   -5222.6815    5274.4652    3954.0635   -24896.573   -13136.309    3932.7318   -17715.126    83.752429 
   32100    1524.7867   -112.43911    1.3796591   -111.05945     33274.42      4.35644      4.35644      4.35644     33274.42    30502.596   -1902.5977     71223.26    11271.787    6570.0572    24269.147    82.678997 
   32200    1964.7723   -112.86631    1.7777672   -111.08854   -2566.3525     4.385526     4.385526     4.385526   -2566.3525   -2756.1015     -17271.8    12328.844   -3748.0581   -1740.7144   -28655.478    84.346114 
   32300    1635.8556   -112.54661    1.4801565   -111.06645   -8175.4273     4.395049     4.395049     4.395049   -8175.4273   -17083.159   -5617.6165   -1825.5066   -12178.865    2659.4364   -2696.5383    84.896768 
   32400    1528.9174   -112.42632    1.3833966   -111.04292    48832.854     4.374771     4.374771     4.374771    48832.854    55763.112     71978.04    18757.409    2539.5191    11157.039    28548.817    83.727085 
   32500    2210.2733   -113.03633    1.9999017   -111.03642      23653.8    4.3890112    4.3890112    4.3890112      23653.8   -9352.6252    84501.376   -4187.3494    16936.072    6138.6297   -34888.372    84.547365 
   32600    1579.9292   -112.47023    1.4295532   -111.04068   -20807.135    4.3965067    4.3965067    4.3965067   -20807.135    -43089.86    51968.799   -71300.343    2148.1097    2037.7119    33559.592    84.981269 
   32700    1810.6659   -112.67918    1.6383285   -111.04085   -18620.421    4.3784587    4.3784587    4.3784587   -18620.421   -37236.157    3152.4427   -21777.547    1433.9446    -10136.84    24424.337    83.938998 
   32800    1673.5459   -112.56965    1.5142595   -111.05539    15791.125     4.370434     4.370434     4.370434    15791.125   -38887.546    93975.703   -7714.7815    14006.114    5590.3042   -30897.079    83.478318 
   32900    1229.5387   -112.19523    1.1125124   -111.08272    5001.3173    4.3748989    4.3748989    4.3748989    5001.3173   -11670.856    90531.452   -63856.645    11858.316    1216.0464    47454.794    83.734427 
   33000    1910.6131   -112.81823    1.7287629   -111.08947   -22151.276    4.3818988    4.3818988    4.3818988   -22151.276   -8782.8277   -19584.398   -38086.601   -11304.206    4280.0751    5039.8425    84.137002 
   33100    1358.2948   -112.31986    1.2290137   -111.09085   -39510.425    4.3994674    4.3994674    4.3994674   -39510.425   -62060.033   -45713.907   -10757.335    21972.989    12333.715   -6065.2522     85.15307 
   33200    2256.2253   -113.09849    2.0414801   -111.05701   -9021.6886    4.3798137    4.3798137    4.3798137   -9021.6886   -11132.834    18467.601   -34399.832    17427.498    9477.9255    19244.629    84.016952 
   33300    2069.0783   -112.92477    1.8721455   -111.05263    11178.555    4.3643571    4.3643571    4.3643571    11178.555    16926.976     28901.59   -12292.901   -18934.645   -8190.4138   -20790.562    83.130586 
   33400    1170.1894   -112.14112     1.058812    -111.0823   -19591.871    4.3749145    4.3749145    4.3749145   -19591.871    -42639.39   -21584.934    5448.7104    31105.368    14839.984    -3746.216    83.735323 
   33500    2103.1145   -112.98862    1.9029422   -111.08568   -802.88659    4.3803829    4.3803829    4.3803829   -802.88659   -49688.504    74844.292   -27564.447    2154.3684    3450.0651     820.3378    84.049711 
   33600    2264.0135   -113.13862     2.048527   -111.09009   -30510.317    4.3939191    4.3939191    4.3939191   -30510.317   -33925.469   -6127.2466   -51478.236   -1818.5558   -4963.6102   -13605.228    84.831311 
[...]
   91300    2626.9846   -113.40735    2.3769509    -111.0304   -24722.283    4.3813896    4.3813896    4.3813896   -24722.283    14458.897   -56532.941   -32092.804   -7585.7245    2489.9659    27509.506    84.107676 
   91400    962.24362    -111.9148   0.87065825   -111.04414    32931.281    4.3636965    4.3636965    4.3636965    32931.281    51621.147    43628.839    3543.8581   -1053.8561    32164.424   -18163.386    83.092839 
   91500    1815.3081    -112.6912    1.6425289   -111.04867   -1263.6338    4.3645003    4.3645003    4.3645003   -1263.6338    57611.453   -17137.597   -44264.757   -716.48212   -30525.483   -16562.944     83.13877 
   91600    2494.0629   -113.29536    2.2566805   -111.03868    16633.972    4.3575503    4.3575503    4.3575503    16633.972    45443.474   -9164.0733    13622.515   -7871.2652    22042.908    5235.2313    82.742232 
   91700    1034.5199   -112.00703   0.93605539   -111.07098     15190.49     4.357599     4.357599     4.357599     15190.49    9595.3482    38460.423   -2484.3028    4395.6859    39178.316   -17677.685    82.745004 
   91800    1720.5618   -112.61699    1.5568005   -111.06019   -19195.606    4.3797982    4.3797982    4.3797982   -19195.606    34718.479   -26026.879   -66278.417    7242.8813   -44568.479   -25693.603    84.016061 
   91900    1927.0304   -112.78888    1.7436176   -111.04526    4689.8957     4.364009     4.364009     4.364009    4689.8957   -8131.2055    -5187.206    27388.099   -1801.5473    43300.606    23040.436    83.110694 
   92000    1432.2193   -112.35091    1.2959022   -111.05501    483.58784    4.3479261    4.3479261    4.3479261    483.58784    10715.003    12556.597   -21820.836    4782.7074      24173.9   -25070.557      82.1952 
   92100    1628.0684   -112.53643    1.4731105   -111.06332    9261.1733    4.3527861    4.3527861    4.3527861    9261.1733    31707.841     1135.005   -5059.3258   -4353.0176   -37159.668   -30088.484    82.471134 
   92200    1940.4888   -112.82857     1.755795   -111.07277   -7770.8442     4.364339     4.364339     4.364339   -7770.8442   -17482.143   -882.82855   -4947.5614    9488.1487    24878.084    44000.032     83.12955 
   92300    1637.9529   -112.55096    1.4820542   -111.06891   -25323.399     4.378105     4.378105     4.378105   -25323.399    8424.6601   -14293.186   -70101.669   -1311.8073     13090.82   -35774.971    83.918653 
   92400    1664.7889   -112.56385     1.506336   -111.05751    1847.5812    4.3617959    4.3617959    4.3617959    1847.5812    30940.338    3421.6361    -28819.23   -8551.0505   -8678.3984   -22973.982    82.984318 
   92500    1556.7573   -112.46887    1.4085867   -111.06028    3570.6658    4.3499381    4.3499381    4.3499381    3570.6658    15370.002   -2742.2934   -1915.7111    16953.882    1997.0745    69490.313    82.309364 
   92600    2057.0686   -112.92213    1.8612789   -111.06085   -4019.3802    4.3569331    4.3569331    4.3569331   -4019.3802   -14528.318    16883.217    -14413.04   -18906.663    16409.147   -37182.943    82.707075 
   92700    1466.9898   -112.39777    1.3273632   -111.07041   -15882.204    4.3687677    4.3687677    4.3687677   -15882.204    17309.314   -21226.126   -43729.799   -2316.6631    11154.942    2488.3574    83.382873 
   92800    1287.3191    -112.2333    1.1647933   -111.06851    -5449.232    4.3723113    4.3723113    4.3723113    -5449.232    29149.468   -28127.914    -17369.25    14784.422   -17392.743    59190.426    83.585938 
   92900    2301.3142   -113.12939    2.0822775   -111.04711    4839.0133    4.3597786    4.3597786    4.3597786    4839.0133   -1299.1376    32234.139   -16417.962   -31894.389   -14783.603   -22076.019    82.869228 
   93000    1246.8069   -112.18575    1.1281371   -111.05761   -7374.4892    4.3578692    4.3578692    4.3578692   -7374.4892    56180.933   -12187.918   -66116.483    4344.7359     4859.553    56286.793    82.760401 
   93100    1991.6731   -112.85248    1.8021077   -111.05037   -18592.439    4.3673953    4.3673953    4.3673953   -18592.439    14537.858   -14180.549   -56134.626   -5692.1045   -4688.7183    6558.5406    83.304314 
   93200    1771.1758   -112.65545    1.6025971   -111.05285    9319.7436    4.3625949    4.3625949    4.3625949    9319.7436    44710.324    19700.753   -36451.846   -18798.662   -26831.774    4768.9201    83.029927 
   93300    1247.1854   -112.20146    1.1284796   -111.07298   -14571.422    4.3605957    4.3605957    4.3605957   -14571.422    56088.321   -44387.801   -55414.787   -9179.7928    6706.8098      74099.7    82.915833 
   93400    2531.8467   -113.34782    2.2908681   -111.05696   -5133.7732    4.3659115    4.3659115    4.3659115   -5133.7732    23504.748   -16235.585   -22670.482   -7530.8062   -1153.1114   -25997.183    83.219441 
   93500    1435.3841   -112.37415    1.2987657   -111.07538   -10682.902    4.3625165    4.3625165    4.3625165   -10682.902      46734.8   -20407.775   -58375.732   -529.94198    -25281.19    46892.311    83.025452 
   93600    1083.7326   -112.05851   0.98058403   -111.07793   -533.15201    4.3615715    4.3615715    4.3615715   -533.15201    18232.039   -5695.3802   -14136.115    -20977.84   -8752.1914    52782.802     82.97151 
   93700    2499.8329   -113.30879    2.2619013   -111.04689   -3564.9627    4.3771544    4.3771544    4.3771544   -3564.9627    13833.588    -36596.69    12068.214   -1292.5215   -704.21213    -18903.31    83.864003 
   93800    840.26745   -111.80034   0.76029164   -111.04005   -4990.1902    4.3912537    4.3912537    4.3912537   -4990.1902    65096.414   -58697.564   -21369.421    1581.9459   -8163.5165    75350.746    84.677025 
   93900      1999.38   -112.79356     1.809081   -110.98448   -9304.5596      4.39268      4.39268      4.39268   -9304.5596   -40153.804   -44119.601    56359.726   -26775.838    -16448.83   -27229.133     84.75956 
   94000    1363.6074   -112.22631    1.2338206   -110.99249   -15422.011    4.3794155    4.3794155    4.3794155   -15422.011    7777.2593   -58750.205    4706.9128    2300.1997    18797.031    56718.811    83.994035 
   94100     1613.464   -112.47095    1.4598962   -111.01105    11460.581    4.3554848    4.3554848    4.3554848    11460.581    20597.826   -5326.5221     19110.44    -5573.212    19744.725    29746.185    82.624624 
   94200    2325.5581   -113.12876    2.1042138   -111.02454    9491.0523    4.3619159    4.3619159    4.3619159    9491.0523    20309.603   -9701.8615    17865.415   -14428.693   -4058.7364    367.76389    82.991168 
   94300    871.40763   -111.84342   0.78846793   -111.05495   -42260.505    4.3815233    4.3815233    4.3815233   -42260.505    34033.549   -52542.362    -108272.7    13275.759    12021.279    94383.756    84.115375 
   94400    1953.7438   -112.79255    1.7677884   -111.02477    4610.1908    4.3627799    4.3627799    4.3627799    4610.1908   -13334.913    18379.145    8786.3411    1819.9834    23469.531   -22017.376    83.040492 
   94500     1498.457   -112.39029    1.3558354   -111.03446   -10165.844    4.3583277    4.3583277    4.3583277   -10165.844    59513.926   -54935.443   -35076.014   -6884.5191   -2853.4274    59067.029    82.786525 
   94600    1355.8802   -112.26881    1.2268289   -111.04198   -20703.483     4.367982     4.367982     4.367982   -20703.483    47922.303   -54756.231   -55276.522    7943.0954   -13312.334    57137.141    83.337894 
   94700    2170.3052   -112.99193    1.9637378    -111.0282    11177.038    4.3594877    4.3594877    4.3594877    11177.038    -22360.78    658.41107    55233.482    9.3572674    17822.027    -17010.77    82.852646 
   94800    1189.8457   -112.13231    1.0765974   -111.05571   -7802.7255    4.3706032    4.3706032    4.3706032   -7802.7255    22350.033   -21776.949   -23981.261    5149.7362   -8856.2708    77034.956    83.488013 
   94900    2338.4757   -113.14471    2.1159019   -111.02881   -18060.896    4.3753801    4.3753801    4.3753801   -18060.896   -13062.583   -7778.7289   -33341.375   -3009.1463    -22605.99    1088.4641    83.762062 
   95000     1468.548   -112.36316    1.3287731   -111.03438    4687.3427    4.3604394    4.3604394    4.3604394    4687.3427    -11221.49   -6727.7797    32011.297    8628.1981    6870.7566    32581.487    82.906915 
   95100    1448.7299   -112.36065    1.3108412   -111.04981    4868.0914    4.3662173    4.3662173    4.3662173    4868.0914    50343.834   -29013.829    -6725.731    8377.5641   -10886.602    57997.121    83.236925 
   95200     2218.836   -113.04942    2.0076495   -111.04177   -3895.6518    4.3641829    4.3641829    4.3641829   -3895.6518   -14879.699    7717.9402   -4525.1965   -12036.293   -13003.651   -45876.535     83.12063 
   95300    1216.9695   -112.16011    1.1011395   -111.05897   -3401.9475    4.3608037    4.3608037    4.3608037   -3401.9475     7982.821   -8476.7049   -9711.9586    20205.384   -162.36866    53471.156    82.927697 
   95400    1988.3388   -112.85284    1.7990907   -111.05374   -30578.601    4.3710149    4.3710149    4.3710149   -30578.601    992.16622    -62655.53    -30072.44     6044.312    7088.7401    18979.844    83.511613 
   95500    1223.5717   -112.15845    1.1071134   -111.05133    915.99006    4.3692952    4.3692952    4.3692952    915.99006    23529.458   -3579.5368   -17201.951    -4535.545   -12470.707   -53658.043    83.413079 
   95600    1706.8086    -112.5814    1.5443563   -111.03704    1922.9607    4.3736652    4.3736652    4.3736652    1922.9607   -44.823967    6138.3788   -324.67283   -10413.176    -4408.693    47755.125     83.66361 
   95700    1801.5268   -112.65729    1.6300593   -111.02723   -9687.7171    4.3768106    4.3768106    4.3768106   -9687.7171    32179.565   -46090.702   -15152.014    6573.4829    1003.0901   -34695.384    83.844247 
   95800    1356.2651    -112.2598    1.2271772   -111.03262    11320.715    4.3677939    4.3677939    4.3677939    11320.715    18275.052    6239.6476     9447.444     2795.148   -25048.622   -25052.902     83.32713 
   95900    2227.2874   -113.03975    2.0152964   -111.02446    29501.804    4.3679838    4.3679838    4.3679838    29501.804    33579.728    23414.008    31511.676   -4238.2015    390.26361    21231.426    83.337994 
   96000    1459.2323   -112.36455     1.320344   -111.04421    276.20878     4.371039     4.371039     4.371039    276.20878    44954.681   -54384.636    10258.581    7215.6768   -4858.2382   -78305.126    83.512991 
   96100    2221.5352   -113.03509    2.0100917     -111.025    691.26642    4.3704125    4.3704125    4.3704125    691.26642   -15261.198    3191.1694    14143.828    4947.7961   -17851.245    15633.377    83.477088 
   96200    1042.4078   -111.97748   0.94319249   -111.03429    213.98208    4.3723699    4.3723699    4.3723699    213.98208    25408.325   -56227.181    31460.802   -205.18967    20874.392   -56891.029    83.589299 
   96300    1452.8024   -112.34965    1.3145261   -111.03513   -12392.563    4.3716412    4.3716412    4.3716412   -12392.563    32464.616   -70232.647    590.34263   -2939.5013    8013.8117   -48439.792    83.547511 
   96400    2426.2255   -113.21336    2.1952998   -111.01806    22745.015    4.3579421    4.3579421    4.3579421    22745.015    18158.498   -5443.5931    55520.139    8231.5297   -17524.469    5774.2719    82.764552 
   96500    983.38369    -111.9468   0.88978623   -111.05702   -17292.795    4.3685062    4.3685062    4.3685062   -17292.795    49605.622   -33603.962   -67880.045   -4107.8485    21395.241   -100275.61      83.3679 
   96600    2224.9978   -113.04185    2.0132248   -111.02862   -14317.404    4.3692197    4.3692197    4.3692197   -14317.404   -17067.526    17600.228   -43484.913   -19774.334    9862.5793        45301    83.408755 
   96700     1299.803    -112.2199    1.1760891   -111.04381    2691.1449    4.3538018    4.3538018    4.3538018    2691.1449    56849.328   -8239.0091   -40536.884    13453.818   -3683.9949    -45308.82    82.528883 
   96800    2077.4128   -112.93265    1.8796868   -111.05296   -22465.479    4.3662778    4.3662778    4.3662778   -22465.479    736.82269   -4100.7661   -64032.493     -1361.36     521.9868   -49382.566    83.240389 
   96900    1831.9912   -112.70138    1.6576241   -111.04375    4494.6219    4.3679388    4.3679388    4.3679388    4494.6219   -10168.728    74601.288   -50948.694   -656.36969    23703.675    10600.385     83.33542 
   97000    1220.1322    -112.1529    1.1040013    -111.0489     11449.57     4.365517     4.365517     4.365517     11449.57    55268.548    33250.224   -54170.062     1155.854    9362.4019   -35025.067    83.196884 
   97100    2267.7747    -113.0811    2.0519302   -111.02917   -9949.3974    4.3746676    4.3746676    4.3746676   -9949.3974   -33312.568    26901.078   -23436.702   -14117.749   -11210.296    2217.4035     83.72115 
   97200    1265.4201    -112.1871    1.1449787   -111.04212    14543.372    4.3650063    4.3650063    4.3650063    14543.372    12879.263    51273.068   -20522.216   -4820.9087    5452.9716   -15854.334     83.16769 
   97300    1607.3568   -112.49763    1.4543702   -111.04326    15969.278    4.3645338    4.3645338    4.3645338    15969.278    38730.764    8987.9654    189.10498   -8837.7969    5805.5592   -36785.187    83.140682 
   97400    2100.9785   -112.93498    1.9010095   -111.03397    4140.9949    4.3703891    4.3703891    4.3703891    4140.9949   -33506.802    15124.573    30805.213    8105.5479    5858.2055    22615.125    83.475747 
   97500    703.26106   -111.69498   0.63632539   -111.05866     11147.46    4.3660299    4.3660299    4.3660299     11147.46   -14512.248    66171.037   -18216.409   -2101.8808   -441.34345   -38620.248    83.226209 
   97600    2125.7911   -112.96289    1.9234605   -111.03943    29067.959    4.3686905    4.3686905    4.3686905    29067.959    33342.113    13045.627    40816.138   -8135.2122    6167.9411   -6382.7307    83.378453 
   97700    1767.2431   -112.64453    1.5990387   -111.04549   -1896.0946    4.3749607    4.3749607    4.3749607   -1896.0946    11199.926   -25536.931    8648.7211    3711.4386    13991.147    11443.082    83.737978 
   97800    1325.4238   -112.25038    1.1992713   -111.05111    4506.9159    4.3729717    4.3729717    4.3729717    4506.9159    33474.641    4875.0893   -24828.982   -676.22761     1332.427   -56623.201    83.623822 
   97900    2333.6008   -113.13677    2.1114911   -111.02528   -11905.408    4.3747982    4.3747982    4.3747982   -11905.408    22839.126   -39649.147   -18906.203   -13066.332   -2445.9478    56703.963    83.728648 
   98000    1264.0246   -112.18212     1.143716   -111.03841   -13860.777    4.3669564    4.3669564    4.3669564   -13860.777    64096.009   -42588.821    -63089.52   -2260.6748    12701.195    -29967.29    83.279202 
   98100    2088.3878    -112.9206    1.8896172   -111.03098    5998.6098    4.3638145    4.3638145    4.3638145    5998.6098    31803.619    10237.338   -24045.127   -6720.8644   -2354.1046   -39068.928    83.099583 
   98200    1928.1061   -112.78637     1.744591   -111.04178   -26694.007     4.366263     4.366263     4.366263   -26694.007    20948.271   -52758.149   -48272.141     1950.966    1614.1894    75581.024    83.239544 
   98300    1063.6246   -112.02177   0.96238989   -111.05938    98.659481    4.3568086    4.3568086    4.3568086    98.659481    74239.746   -28722.829   -45220.938   -4079.3207    11319.739   -49587.231    82.699989 
   98400    2436.6456   -113.26047    2.2047281   -111.05574   -1211.6896    4.3667482    4.3667482    4.3667482   -1211.6896    3871.8152    16374.444   -23881.328    2131.1448    7843.9409   -19196.729    83.267293 
   98500    1285.0569   -112.22253    1.1627465   -111.05979    -22317.43    4.3795816    4.3795816    4.3795816    -22317.43   -8000.6717   -5645.8097   -53305.809   -9540.8177   -16854.054    25768.316    84.003593 
   98600     1317.539   -112.24162     1.192137   -111.04948   -6800.1088    4.3648466    4.3648466    4.3648466   -6800.1088    41564.655    4649.4821   -66614.464    3430.9526   -3316.5547   -51379.951    83.158562 
   98700    2682.3537   -113.45992      2.42705   -111.03287   -16834.286    4.3659284    4.3659284    4.3659284   -16834.286   -22893.319   -2936.5793    -24672.96    16963.112   -8176.2588    8547.4857    83.220406 
   98800    856.71737    -111.8292   0.77517588   -111.05402   -41037.723    4.3765699    4.3765699    4.3765699   -41037.723   -25364.756   -46668.204   -51080.209    9738.9321   -16618.099   -4839.0342    83.830416 
   98900    2249.8169   -113.06177    2.0356816   -111.02608    4242.5806    4.3631385    4.3631385    4.3631385    4242.5806    19110.905    37868.628    -44251.79   -12874.331    8999.8182   -34734.923     83.06097 
   99000     1541.207   -112.43657    1.3945165   -111.04205   -23719.373    4.3723697    4.3723697    4.3723697   -23719.373   -35064.527   -45472.583    9378.9914    28780.647    3276.0124    10429.505     83.58929 
   99100    1469.1555   -112.36239    1.3293228   -111.03307   -2715.9602    4.3698315    4.3698315    4.3698315   -2715.9602   -3260.3217    2434.5126   -7322.0715      5083.47   -20333.898    4216.0723    83.443799 
   99200    2202.5343    -113.0139    1.9928993     -111.021    22368.112    4.3585048    4.3585048    4.3585048    22368.112    42684.623    25418.743   -999.03098    11384.724    28706.948   -3023.0798    82.796618 
   99300    844.14115   -111.81948   0.76379665   -111.05569   -19016.882    4.3750651    4.3750651    4.3750651   -19016.882   -22147.755   -49495.475    14592.583    55188.039    8617.8359     9772.505    83.743973 
   99400    2293.3563   -113.09826    2.0750769   -111.02318    1377.8463    4.3740776    4.3740776    4.3740776    1377.8463    27703.007   -14186.795   -9382.6736   -17340.679   -9403.5634    9418.1049    83.687279 
   99500    1342.4039   -112.25422    1.2146353   -111.03958    17272.088    4.3613651    4.3613651    4.3613651    17272.088   -21427.966    49637.627    23606.603    47254.331    12668.173   -5181.7033    82.959729 
   99600    1151.6296    -112.1025    1.0420187   -111.06048   -9797.6803    4.3717829    4.3717829    4.3717829   -9797.6803   -26890.702   -7066.8158    4564.4771    48577.966   -298.41519    1564.2026    83.555637 
   99700    2391.1897   -113.19755    2.1635987   -111.03395    41742.234    4.3622695    4.3622695    4.3622695    41742.234    45954.287    41364.229    37908.186   -15509.439   -4552.5712   -541.08291     83.01135 
   99800    882.52059   -111.86435   0.79852318   -111.06583    20759.635    4.3745815    4.3745815    4.3745815    20759.635    10991.726    23676.468    27610.711    66975.408    5680.8631   -3793.7275    83.716208 
   99900    1979.0646   -112.80643    1.7906992   -111.01573   -13657.793    4.3987635    4.3987635    4.3987635   -13657.793    41121.813   -26386.311    -55708.88    6660.9722   -2311.3233    9959.3046    85.112206 
  100000    1378.7865   -112.26294     1.247555   -111.01539    2159.8376    4.3747093    4.3747093    4.3747093    2159.8376    8541.0286   -72857.208    70795.692     14351.72   -13496.284    14533.636     83.72354 
Loop time of 22.1315 on 1 procs for 100000 steps with 8 atoms

Pair  time (%) = 6.77137 (30.596)
Kspce time (%) = 5.31356 (24.009)
Neigh time (%) = 0.198642 (0.897554)
Comm  time (%) = 0.986219 (4.45618)
Outpt time (%) = 0.0236104 (0.106682)
Other time (%) = 8.83811 (39.9345)

Nlocal:    8 ave 8 max 8 min
Histogram: 1 0 0 0 0 0 0 0 0 0
Nghost:    1828 ave 1828 max 1828 min
Histogram: 1 0 0 0 0 0 0 0 0 0
Neighs:    2093 ave 2093 max 2093 min
Histogram: 1 0 0 0 0 0 0 0 0 0

Total # of neighbors = 2093
Ave neighs/atom = 261.625
Neighbor list builds = 2481
Dangerous builds = 0
unfix 20
unfix 21
print "seeds:2249205"
seeds:2249205
