    2    2    1    1
  0.9563318E+01  0.3001819E-09  0.3001820E-09  0.3001819E-09  0.5000000E-15
  1.000000000000000E-004
  CAR 
 automatically generated by pyflamestk   
      8     10     16
 
  0.1250000E+00  0.1250000E+00  0.1250000E+00  0.3125000E-01
    1      -13.572997   1.000000
    2        2.468582   1.000000
    3        3.315101   1.000000
    4        3.315103   1.000000
    5        8.833771   0.000000
    6       17.412472   0.000000
    7       19.429029   0.000000
    8       19.429032   0.000000
    9       23.679281   0.000000
   10       23.679285   0.000000
   11       25.017818   0.000000
   12       27.455229   0.000000
   13       28.886252   0.000000
   14       28.886256   0.000000
   15       39.150793   0.000000
   16       41.053147   0.000000
 
  0.3750000E+00  0.1250000E+00  0.1250000E+00  0.9375000E-01
    1      -12.913980   1.000000
    2        0.296147   1.000000
    3        2.453460   1.000000
    4        3.016882   1.000000
    5       11.250061   0.000000
    6       15.350734   0.000000
    7       18.762847   0.000000
    8       20.430587   0.000000
    9       22.251232   0.000000
   10       24.482010   0.000000
   11       26.600434   0.000000
   12       31.261509   0.000000
   13       32.535483   0.000000
   14       33.410473   0.000000
   15       35.780901   0.000000
   16       39.074341   0.000000
 
 -0.3750000E+00  0.1250000E+00  0.1250000E+00  0.9375000E-01
    1      -12.472921   1.000000
    2       -0.837699   1.000000
    3        2.302355   1.000000
    4        2.677182   1.000000
    5       11.837321   0.000000
    6       15.561722   0.000000
    7       18.052222   0.000000
    8       19.868433   0.000000
    9       23.858558   0.000000
   10       26.108356   0.000000
   11       26.204258   0.000000
   12       32.487837   0.000000
   13       33.084111   0.000000
   14       33.429429   0.000000
   15       36.010969   0.000000
   16       37.721805   0.000000
 
 -0.1250000E+00  0.1250000E+00  0.1250000E+00  0.9375000E-01
    1      -13.206083   1.000000
    2        1.185233   1.000000
    3        2.944441   1.000000
    4        2.948310   1.000000
    5       10.422509   0.000000
    6       15.591584   0.000000
    7       19.556944   0.000000
    8       20.037626   0.000000
    9       21.212993   0.000000
   10       25.058785   0.000000
   11       27.058081   0.000000
   12       30.156073   0.000000
   13       30.440902   0.000000
   14       31.194188   0.000000
   15       37.415999   0.000000
   16       39.178247   0.000000
 
  0.3750000E+00  0.3750000E+00  0.1250000E+00  0.9375000E-01
    1      -12.675982   1.000000
    2        0.109693   1.000000
    3        2.253002   1.000000
    4        2.486154   1.000000
    5       12.353070   0.000000
    6       13.995137   0.000000
    7       17.306561   0.000000
    8       20.936497   0.000000
    9       21.393520   0.000000
   10       27.239430   0.000000
   11       30.345318   0.000000
   12       30.614007   0.000000
   13       32.527563   0.000000
   14       35.019312   0.000000
   15       36.672317   0.000000
   16       38.088463   0.000000
 
 -0.3750000E+00  0.3750000E+00  0.1250000E+00  0.1875000E+00
    1      -12.259781   1.000000
    2       -0.008579   1.000000
    3        0.991906   1.000000
    4        2.074492   1.000000
    5       13.867322   0.000000
    6       14.905995   0.000000
    7       15.697860   0.000000
    8       19.711310   0.000000
    9       23.156941   0.000000
   10       26.610126   0.000000
   11       30.173282   0.000000
   12       31.595838   0.000000
   13       32.863951   0.000000
   14       36.538006   0.000000
   15       39.109529   0.000000
   16       41.328923   0.000000
 
 -0.1250000E+00  0.3750000E+00  0.1250000E+00  0.1875000E+00
    1      -12.518728   1.000000
    2       -0.211915   1.000000
    3        1.734795   1.000000
    4        2.575491   1.000000
    5       12.711101   0.000000
    6       14.905022   0.000000
    7       17.078953   0.000000
    8       20.274357   0.000000
    9       22.843834   0.000000
   10       25.518307   0.000000
   11       29.053155   0.000000
   12       31.844883   0.000000
   13       32.426584   0.000000
   14       35.091277   0.000000
   15       35.734272   0.000000
   16       41.235813   0.000000
 
 -0.3750000E+00 -0.3750000E+00  0.1250000E+00  0.9375000E-01
    1      -12.296506   1.000000
    2       -0.373193   1.000000
    3        1.734566   1.000000
    4        2.191510   1.000000
    5       12.941641   0.000000
    6       13.624215   0.000000
    7       16.148597   0.000000
    8       21.647485   0.000000
    9       21.658432   0.000000
   10       29.126945   0.000000
   11       29.558731   0.000000
   12       32.141647   0.000000
   13       32.856264   0.000000
   14       38.004983   0.000000
   15       38.386756   0.000000
   16       41.317751   0.000000
 
  0.3750000E+00  0.3750000E+00  0.3750000E+00  0.3125000E-01
    1      -12.712247   1.000000
    2       -0.567165   1.000000
    3        2.872536   1.000000
    4        2.872536   1.000000
    5       11.047493   0.000000
    6       15.567036   0.000000
    7       19.664035   0.000000
    8       19.664037   0.000000
    9       24.253428   0.000000
   10       24.593464   0.000000
   11       24.593467   0.000000
   12       32.107875   0.000000
   13       33.427983   0.000000
   14       33.427985   0.000000
   15       37.041771   0.000000
   16       37.041777   0.000000
 
 -0.3750000E+00  0.3750000E+00  0.3750000E+00  0.9375000E-01
    1      -12.344146   1.000000
    2       -0.250750   1.000000
    3        1.097897   1.000000
    4        2.545124   1.000000
    5       13.190106   0.000000
    6       15.364209   0.000000
    7       16.270215   0.000000
    8       20.586180   0.000000
    9       22.669951   0.000000
   10       25.694555   0.000000
   11       29.273347   0.000000
   12       31.815170   0.000000
   13       32.238020   0.000000
   14       35.576700   0.000000
   15       37.461354   0.000000
   16       40.335191   0.000000
