 vasp.5.4.1 24Jun15 (build Jun 05 2017 10:38:15) complex                        
  
 executed on           IFC91_ompi date 2017.08.29  20:22:03
 running on   16 total cores
 distrk:  each k-point on   16 cores,    1 groups
 distr:  one band on NCORES_PER_BAND=   1 cores,   16 groups


--------------------------------------------------------------------------------------------------------


 INCAR:
 POTCAR:    PAW_PBE O_h 06Feb2004                 
 POTCAR:    PAW_PBE Mg 13Apr2007                  

 ----------------------------------------------------------------------------- 
|                                                                             |
|           W    W    AA    RRRRR   N    N  II  N    N   GGGG   !!!           |
|           W    W   A  A   R    R  NN   N  II  NN   N  G    G  !!!           |
|           W    W  A    A  R    R  N N  N  II  N N  N  G       !!!           |
|           W WW W  AAAAAA  RRRRR   N  N N  II  N  N N  G  GGG   !            |
|           WW  WW  A    A  R   R   N   NN  II  N   NN  G    G                |
|           W    W  A    A  R    R  N    N  II  N    N   GGGG   !!!           |
|                                                                             |
|      For optimal performance we recommend to set                            |
|        NCORE= 4 - approx SQRT( number of cores)                             |
|      NCORE specifies how many cores store one orbital (NPAR=cpu/NCORE).     |
|      This setting can  greatly improve the performance of VASP for DFT.     |
|      The default, NPAR=number of cores might be grossly inefficient         |
|      on modern multi-core architectures or massively parallel machines.     |
|      Do your own testing !!!!                                               |
|      Unfortunately you need to use the default for GW and RPA calculations. |
|      (for HF NCORE is supported but not extensively tested yet)             |
|                                                                             |
 ----------------------------------------------------------------------------- 

 POTCAR:    PAW_PBE O_h 06Feb2004                 
   VRHFIN =O: s2p4                                                              
   LEXCH  = PE                                                                  
   EATOM  =   432.3788 eV,   31.7789 Ry                                         
                                                                                
   TITEL  = PAW_PBE O_h 06Feb2004                                               
   LULTRA =        F    use ultrasoft PP ?                                      
   IUNSCR =        1    unscreen: 0-lin 1-nonlin 2-no                           
   RPACOR =     .800    partial core radius                                     
   POMASS =   16.000; ZVAL   =    6.000    mass and valenz                      
   RCORE  =    1.100    outmost cutoff radius                                   
   RWIGS  =    1.400; RWIGS  =     .741    wigner-seitz radius (au A)           
   ENMAX  =  700.000; ENMIN  =  500.000 eV                                      
   ICORE  =        2    local potential                                         
   LCOR   =        T    correct aug charges                                     
   LPAW   =        T    paw PP                                                  
   EAUG   =  888.804                                                            
   DEXC   =     .000                                                            
   RMAX   =    1.666    core radius for proj-oper                               
   RAUG   =    1.300    factor for augmentation sphere                          
   RDEP   =    1.125    radius for radial grids                                 
   QCUT   =   -7.501; QGAM   =   15.002    optimization parameters              
                                                                                
   Description                                                                  
     l     E      TYP  RCUT    TYP  RCUT                                        
     0   .000     23  1.100                                                     
     0   .000     23  1.100                                                     
     1   .000     23  1.100                                                     
     1   .000     23  1.100                                                     
     2   .000      7  1.100                                                     
  local pseudopotential read in
  partial core-charges read in
  atomic valenz-charges read in
  non local Contribution for L=           0  read in
    real space projection operators read in
  non local Contribution for L=           0  read in
    real space projection operators read in
  non local Contribution for L=           1  read in
    real space projection operators read in
  non local Contribution for L=           1  read in
    real space projection operators read in
    PAW grid and wavefunctions read in
 
   number of l-projection  operators is LMAX  =           4
   number of lm-projection operators is LMMAX =           8
 
 POTCAR:    PAW_PBE Mg 13Apr2007                  
   VRHFIN =Mg: s2p0                                                             
   LEXCH  = PE                                                                  
   EATOM  =    23.0369 eV,    1.6932 Ry                                         
                                                                                
   TITEL  = PAW_PBE Mg 13Apr2007                                                
   LULTRA =        F    use ultrasoft PP ?                                      
   IUNSCR =        1    unscreen: 0-lin 1-nonlin 2-no                           
   RPACOR =    1.500    partial core radius                                     
   POMASS =   24.305; ZVAL   =    2.000    mass and valenz                      
   RCORE  =    2.000    outmost cutoff radius                                   
   RWIGS  =    2.880; RWIGS  =    1.524    wigner-seitz radius (au A)           
   ENMAX  =  126.143; ENMIN  =   94.607 eV                                      
   RCLOC  =    1.506    cutoff for local pot                                    
   LCOR   =        T    correct aug charges                                     
   LPAW   =        T    paw PP                                                  
   EAUG   =  454.734                                                            
   DEXC   =     .000                                                            
   RMAX   =    4.105    core radius for proj-oper                               
   RAUG   =    1.300    factor for augmentation sphere                          
   RDEP   =    2.025    radius for radial grids                                 
   QCUT   =   -3.045; QGAM   =    6.090    optimization parameters              
                                                                                
   Description                                                                  
     l     E      TYP  RCUT    TYP  RCUT                                        
     0   .000     23  2.000                                                     
     0  2.000     23  2.000                                                     
     1   .100     23  2.000                                                     
     1  2.000     23  2.000                                                     
     2   .000     23  2.000                                                     
  local pseudopotential read in
  partial core-charges read in
  atomic valenz-charges read in
  non local Contribution for L=           0  read in
    real space projection operators read in
  non local Contribution for L=           0  read in
    real space projection operators read in
  non local Contribution for L=           1  read in
    real space projection operators read in
  non local Contribution for L=           1  read in
    real space projection operators read in
  non local Contribution for L=           2  read in
    real space projection operators read in
    PAW grid and wavefunctions read in
 
   number of l-projection  operators is LMAX  =           5
   number of lm-projection operators is LMMAX =          13
 
  PAW_PBE O_h 06Feb2004                 :
 energy of atom  1       EATOM= -432.3788
 kinetic energy error for atom=    0.0182 (will be added to EATOM!!)
  PAW_PBE Mg 13Apr2007                  :
 energy of atom  2       EATOM=  -23.0369
 kinetic energy error for atom=    0.0000 (will be added to EATOM!!)
 
 
 POSCAR: Mg1 O1                                  
  positions in direct lattice
  No initial velocities read in
 exchange correlation table for  LEXCH =        8
   RHO(1)=    0.500       N(1)  =     2000
   RHO(2)=  100.500       N(2)  =     4000
 


--------------------------------------------------------------------------------------------------------


 ion  position               nearest neighbor table
   1  0.500  0.500  0.500-   2 2.12   2 2.12   2 2.12   2 2.12   2 2.12   2 2.12
   2  0.000  0.000  0.000-   1 2.12   1 2.12   1 2.12   1 2.12   1 2.12   1 2.12
 
  LATTYP: Found a face centered cubic cell.
 ALAT       =     4.2452137554
  
  Lattice vectors:
  
 A1 = (   3.0018190000,   0.0000000000,   0.0000000000)
 A2 = (   1.5009100000,   2.5996520000,   0.0000000000)
 A3 = (   1.5009100000,   0.8665510000,   2.4509750000)


Analysis of symmetry for initial positions (statically):
=====================================================================
 Subroutine PRICEL returns:
 Original cell was already a primitive cell.
 

 Routine SETGRP: Setting up the symmetry group for a 
 face centered cubic supercell.


 Subroutine GETGRP returns: Found 48 space group operations
 (whereof 48 operations were pure point group operations)
 out of a pool of 48 trial point group operations.


The static configuration has the point symmetry O_h .


Analysis of symmetry for dynamics (positions and initial velocities):
=====================================================================
 Subroutine PRICEL returns:
 Original cell was already a primitive cell.
 

 Routine SETGRP: Setting up the symmetry group for a 
 face centered cubic supercell.


 Subroutine GETGRP returns: Found 48 space group operations
 (whereof 48 operations were pure point group operations)
 out of a pool of 48 trial point group operations.


The dynamic configuration has the point symmetry O_h .


 Subroutine INISYM returns: Found 48 space group operations
 (whereof 48 operations are pure point group operations),
 and found     1 'primitive' translations

 
 
 KPOINTS: Automatic Mesh                          

Automatic generation of k-mesh.
Space group operators:
 irot       det(A)        alpha          n_x          n_y          n_z        tau_x        tau_y        tau_z
    1     1.000000     0.000000     1.000000     0.000000     0.000000     0.000000     0.000000     0.000000
    2    -1.000000     0.000000     1.000000     0.000000     0.000000     0.000000     0.000000     0.000000
    3     1.000000   120.000000    -0.816497    -0.471404    -0.333333     0.000000     0.000000     0.000000
    4    -1.000000   120.000000    -0.816497    -0.471404    -0.333333     0.000000     0.000000     0.000000
    5     1.000000   120.000000     0.816497     0.471405     0.333333     0.000000     0.000000     0.000000
    6    -1.000000   120.000000     0.816497     0.471405     0.333333     0.000000     0.000000     0.000000
    7     1.000000    90.000000    -0.707107    -0.408248     0.577350     0.000000     0.000000     0.000000
    8    -1.000000    90.000000    -0.707107    -0.408248     0.577350     0.000000     0.000000     0.000000
    9     1.000000   180.000000     1.000000    -0.000000    -0.000000     0.000000     0.000000     0.000000
   10    -1.000000   180.000000     1.000000    -0.000000    -0.000000     0.000000     0.000000     0.000000
   11     1.000000    90.000000     0.707107    -0.408248     0.577350     0.000000     0.000000     0.000000
   12    -1.000000    90.000000     0.707107    -0.408248     0.577350     0.000000     0.000000     0.000000
   13     1.000000   180.000000    -0.707107    -0.408248     0.577350     0.000000     0.000000     0.000000
   14    -1.000000   180.000000    -0.707107    -0.408248     0.577350     0.000000     0.000000     0.000000
   15     1.000000   120.000000     0.816497    -0.471405    -0.333333     0.000000     0.000000     0.000000
   16    -1.000000   120.000000     0.816497    -0.471405    -0.333333     0.000000     0.000000     0.000000
   17     1.000000   120.000000    -0.000000    -0.942809     0.333334     0.000000     0.000000     0.000000
   18    -1.000000   120.000000    -0.000000    -0.942809     0.333334     0.000000     0.000000     0.000000
   19     1.000000    90.000000     0.707107     0.408248    -0.577350     0.000000     0.000000     0.000000
   20    -1.000000    90.000000     0.707107     0.408248    -0.577350     0.000000     0.000000     0.000000
   21     1.000000    90.000000    -0.000000    -0.816497    -0.577350     0.000000     0.000000     0.000000
   22    -1.000000    90.000000    -0.000000    -0.816497    -0.577350     0.000000     0.000000     0.000000
   23     1.000000   180.000000     0.500000     0.866025    -0.000000     0.000000     0.000000     0.000000
   24    -1.000000   180.000000     0.500000     0.866025    -0.000000     0.000000     0.000000     0.000000
   25     1.000000   120.000000    -0.000000     0.942809    -0.333333     0.000000     0.000000     0.000000
   26    -1.000000   120.000000    -0.000000     0.942809    -0.333333     0.000000     0.000000     0.000000
   27     1.000000   120.000000     0.000000    -0.000000    -1.000000     0.000000     0.000000     0.000000
   28    -1.000000   120.000000     0.000000    -0.000000    -1.000000     0.000000     0.000000     0.000000
   29     1.000000   180.000000     0.000000    -0.816497    -0.577350     0.000000     0.000000     0.000000
   30    -1.000000   180.000000     0.000000    -0.816497    -0.577350     0.000000     0.000000     0.000000
   31     1.000000    90.000000    -0.707107     0.408248    -0.577350     0.000000     0.000000     0.000000
   32    -1.000000    90.000000    -0.707107     0.408248    -0.577350     0.000000     0.000000     0.000000
   33     1.000000   180.000000    -0.500000    -0.288675    -0.816497     0.000000     0.000000     0.000000
   34    -1.000000   180.000000    -0.500000    -0.288675    -0.816497     0.000000     0.000000     0.000000
   35     1.000000    90.000000     0.000000     0.816497     0.577350     0.000000     0.000000     0.000000
   36    -1.000000    90.000000     0.000000     0.816497     0.577350     0.000000     0.000000     0.000000
   37     1.000000   120.000000    -0.816496     0.471405     0.333333     0.000000     0.000000     0.000000
   38    -1.000000   120.000000    -0.816496     0.471405     0.333333     0.000000     0.000000     0.000000
   39     1.000000   180.000000    -0.707107     0.408248    -0.577350     0.000000     0.000000     0.000000
   40    -1.000000   180.000000    -0.707107     0.408248    -0.577350     0.000000     0.000000     0.000000
   41     1.000000   120.000000     0.000000    -0.000000     1.000000     0.000000     0.000000     0.000000
   42    -1.000000   120.000000     0.000000    -0.000000     1.000000     0.000000     0.000000     0.000000
   43     1.000000   180.000000     0.000000    -0.577350     0.816497     0.000000     0.000000     0.000000
   44    -1.000000   180.000000     0.000000    -0.577350     0.816497     0.000000     0.000000     0.000000
   45     1.000000   180.000000    -0.500000     0.866025    -0.000000     0.000000     0.000000     0.000000
   46    -1.000000   180.000000    -0.500000     0.866025    -0.000000     0.000000     0.000000     0.000000
   47     1.000000   180.000000    -0.500000     0.288675     0.816497     0.000000     0.000000     0.000000
   48    -1.000000   180.000000    -0.500000     0.288675     0.816497     0.000000     0.000000     0.000000
 
 Subroutine IBZKPT returns following result:
 ===========================================
 
 Found     10 irreducible k-points:
 
 Following reciprocal coordinates:
            Coordinates               Weight
  0.125000  0.125000  0.125000     96.000000
  0.375000  0.125000  0.125000    288.000000
 -0.375000  0.125000  0.125000    288.000000
 -0.125000  0.125000  0.125000    288.000000
  0.375000  0.375000  0.125000    288.000000
 -0.375000  0.375000  0.125000    576.000000
 -0.125000  0.375000  0.125000    576.000000
 -0.375000 -0.375000  0.125000    288.000000
  0.375000  0.375000  0.375000     96.000000
 -0.375000  0.375000  0.375000    288.000000
 
 Following cartesian coordinates:
            Coordinates               Weight
  0.041641  0.024042  0.017000     96.000000
  0.124924 -0.024042 -0.017000    288.000000
 -0.124924  0.120208  0.085000    288.000000
 -0.041641  0.072125  0.051000    288.000000
  0.124924  0.072125 -0.051000    288.000000
 -0.124924  0.216375  0.051000    576.000000
 -0.041641  0.168292  0.017000    576.000000
 -0.124924 -0.072125  0.153000    288.000000
  0.124924  0.072125  0.051000     96.000000
 -0.124924  0.216375  0.153000    288.000000
 


--------------------------------------------------------------------------------------------------------




 Dimension of arrays:
   k-points           NKPTS =     10   k-points in BZ     NKDIM =     10   number of bands    NBANDS=     16
   number of dos      NEDOS =    301   number of ions     NIONS =      2
   non local maximal  LDIM  =      5   non local SUM 2l+1 LMDIM =     13
   total plane-waves  NPLWV =  27000
   max r-space proj   IRMAX =      1   max aug-charges    IRDMAX=  17965
   dimension x,y,z NGX =    30 NGY =   30 NGZ =   30
   dimension x,y,z NGXF=    40 NGYF=   40 NGZF=   40
   support grid    NGXF=    40 NGYF=   40 NGZF=   40
   ions per type =               1   1
 NGX,Y,Z   is equivalent  to a cutoff of  16.61, 16.61, 16.61 a.u.
 NGXF,Y,Z  is equivalent  to a cutoff of  22.15, 22.15, 22.15 a.u.


 I would recommend the setting:
   dimension x,y,z NGX =    30 NGY =   30 NGZ =   30
 SYSTEM =  automatically generated by pyflamestk   
 POSCAR =  Mg1 O1                                  

 Startparameter for this run:
   NWRITE =      2    write-flag & timer
   PREC   = high      normal or accurate (medium, high low for compatibility)
   ISTART =      0    job   : 0-new  1-cont  2-samecut
   ICHARG =      0    charge: 1-file 2-atom 10-const
   ISPIN  =      1    spin polarized calculation?
   LNONCOLLINEAR =      F non collinear calculations
   LSORBIT =      F    spin-orbit coupling
   INIWAV =      1    electr: 0-lowe 1-rand  2-diag
   LASPH  =      F    aspherical Exc in radial PAW
   METAGGA=      F    non-selfconsistent MetaGGA calc.

 Electronic Relaxation 1
   ENCUT  =  925.0 eV  67.99 Ry    8.25 a.u.   7.44  7.44  7.44*2*pi/ulx,y,z
   ENINI  =  925.0     initial cutoff
   ENAUG  =  888.8 eV  augmentation charge cutoff
   NELM   =     40;   NELMIN=  2; NELMDL= -5     # of ELM steps 
   EDIFF  = 0.1E-05   stopping-criterion for ELM
   LREAL  =      F    real-space projection
   NLSPLINE    = F    spline interpolate recip. space projectors
   LCOMPAT=      F    compatible to vasp.4.4
   GGA_COMPAT  = T    GGA compatible to vasp.4.4-vasp.4.6
   LMAXPAW     = -100 max onsite density
   LMAXMIX     =    2 max onsite mixed and CHGCAR
   VOSKOWN=      0    Vosko Wilk Nusair interpolation
   ROPT   =    0.00000   0.00000
 Ionic relaxation
   EDIFFG = 0.1E-04   stopping-criterion for IOM
   NSW    =      0    number of steps for IOM
   NBLOCK =      1;   KBLOCK =      1    inner block; outer block 
   IBRION =     -1    ionic relax: 0-MD 1-quasi-New 2-CG
   NFREE  =      0    steps in history (QN), initial steepest desc. (CG)
   ISIF   =      2    stress and relaxation
   IWAVPR =     10    prediction:  0-non 1-charg 2-wave 3-comb
   ISYM   =      2    0-nonsym 1-usesym 2-fastsym
   LCORR  =      T    Harris-Foulkes like correction to forces

   POTIM  = 0.5000    time-step for ionic-motion
   TEIN   =    0.0    initial temperature
   TEBEG  =    0.0;   TEEND  =   0.0 temperature during run
   SMASS  =  -3.00    Nose mass-parameter (am)
   estimated Nose-frequenzy (Omega)   =  0.10E-29 period in steps =****** mass=  -0.206E-27a.u.
   SCALEE = 1.0000    scale energy and forces
   NPACO  =    256;   APACO  = 16.0  distance and # of slots for P.C.
   PSTRESS=    0.0 pullay stress

  Mass of Ions in am
   POMASS =  16.00 24.30
  Ionic Valenz
   ZVAL   =   6.00  2.00
  Atomic Wigner-Seitz radii
   RWIGS  =  -1.00 -1.00
  virtual crystal weights 
   VCA    =   1.00  1.00
   NELECT =       8.0000    total number of electrons
   NUPDOWN=      -1.0000    fix difference up-down

 DOS related values:
   EMIN   =  10.00;   EMAX   =-10.00  energy-range for DOS
   EFERMI =   0.00
   ISMEAR =     0;   SIGMA  =   0.05  broadening in eV -4-tet -1-fermi 0-gaus

 Electronic relaxation 2 (details)
   IALGO  =     38    algorithm
   LDIAG  =      T    sub-space diagonalisation (order eigenvalues)
   LSUBROT=      F    optimize rotation matrix (better conditioning)
   TURBO    =      0    0=normal 1=particle mesh
   IRESTART =      0    0=no restart 2=restart with 2 vectors
   NREBOOT  =      0    no. of reboots
   NMIN     =      0    reboot dimension
   EREF     =   0.00    reference energy to select bands
   IMIX   =      4    mixing-type and parameters
     AMIX     =   0.40;   BMIX     =  1.00
     AMIX_MAG =   1.60;   BMIX_MAG =  1.00
     AMIN     =   0.10
     WC   =   100.;   INIMIX=   1;  MIXPRE=   1;  MAXMIX= -45

 Intra band minimization:
   WEIMIN = 0.0000     energy-eigenvalue tresh-hold
   EBREAK =  0.16E-07  absolut break condition
   DEPER  =   0.30     relativ break condition  

   TIME   =   0.40     timestep for ELM

  volume/ion in A,a.u.               =       9.56        64.54
  Fermi-wavevector in a.u.,A,eV,Ry     =   1.224312  2.313613 20.394301  1.498939
  Thomas-Fermi vector in A             =   2.359391
 
 Write flags
   LWAVE  =      F    write WAVECAR
   LCHARG =      F    write CHGCAR
   LVTOT  =      F    write LOCPOT, total local potential
   LVHAR  =      F    write LOCPOT, Hartree potential only
   LELF   =      F    write electronic localiz. function (ELF)
   LORBIT =      0    0 simple, 1 ext, 2 COOP (PROOUT)


 Dipole corrections
   LMONO  =      F    monopole corrections only (constant potential shift)
   LDIPOL =      F    correct potential (dipole corrections)
   IDIPOL =      0    1-x, 2-y, 3-z, 4-all directions 
   EPSILON=  1.0000000 bulk dielectric constant

 Exchange correlation treatment:
   GGA     =    --    GGA type
   LEXCH   =     8    internal setting for exchange type
   VOSKOWN=      0    Vosko Wilk Nusair interpolation
   LHFCALC =     F    Hartree Fock is set to
   LHFONE  =     F    Hartree Fock one center treatment
   AEXX    =    0.0000 exact exchange contribution

 Linear response parameters
   LEPSILON=     F    determine dielectric tensor
   LRPA    =     F    only Hartree local field effects (RPA)
   LNABLA  =     F    use nabla operator in PAW spheres
   LVEL    =     F    velocity operator in full k-point grid
   LINTERFAST=   F  fast interpolation
   KINTER  =     0    interpolate to denser k-point grid
   CSHIFT  =0.1000    complex shift for real part using Kramers Kronig
   OMEGAMAX=  -1.0    maximum frequency
   DEG_THRESHOLD= 0.2000000E-02 threshold for treating states as degnerate
   RTIME   =    0.100 relaxation time in fs

 Orbital magnetization related:
   ORBITALMAG=     F  switch on orbital magnetization
   LCHIMAG   =     F  perturbation theory with respect to B field
   DQ        =  0.001000  dq finite difference perturbation B field



--------------------------------------------------------------------------------------------------------


 Static calculation
 charge density and potential will be updated during run
 non-spin polarized calculation
 Variant of blocked Davidson
 Davidson routine will perform the subspace rotation
 perform sub-space diagonalisation
    after iterative eigenvector-optimisation
 modified Broyden-mixing scheme, WC =      100.0
 initial mixing is a Kerker type mixing with AMIX =  0.4000 and BMIX =      1.0000
 Hartree-type preconditioning will be used
 using additional bands           12
 reciprocal scheme for non local part
 use partial core corrections
 calculate Harris-corrections to forces 
   (improved forces if not selfconsistent)
 use gradient corrections 
 use of overlap-Matrix (Vanderbilt PP)
 Gauss-broadening in eV      SIGMA  =   0.05


--------------------------------------------------------------------------------------------------------


  energy-cutoff  :      925.00
  volume of cell :       19.13
      direct lattice vectors                 reciprocal lattice vectors
     3.001819000  0.000000000  0.000000000     0.333131345 -0.192333499 -0.136000318
     1.500910000  2.599652000  0.000000000     0.000000000  0.384666871 -0.136000352
     1.500910000  0.866551000  2.450975000     0.000000000  0.000000000  0.408000898

  length of vectors
     3.001819000  3.001819673  3.001819434     0.408000925  0.408000854  0.408000898


 
 k-points in units of 2pi/SCALE and weight: Automatic Mesh                          
   0.04164142  0.02404167  0.01700003       0.031
   0.12492425 -0.02404170 -0.01700005       0.094
  -0.12492425  0.12020842  0.08500019       0.094
  -0.04164142  0.07212505  0.05100011       0.094
   0.12492425  0.07212501 -0.05100014       0.094
  -0.12492425  0.21637514  0.05100010       0.188
  -0.04164142  0.16829176  0.01700002       0.188
  -0.12492425 -0.07212501  0.15300036       0.094
   0.12492425  0.07212501  0.05100009       0.031
  -0.12492425  0.21637514  0.15300032       0.094
 
 k-points in reciprocal lattice and weights: Automatic Mesh                          
   0.12500000  0.12500000  0.12500000       0.031
   0.37500000  0.12500000  0.12500000       0.094
  -0.37500000  0.12500000  0.12500000       0.094
  -0.12500000  0.12500000  0.12500000       0.094
   0.37500000  0.37500000  0.12500000       0.094
  -0.37500000  0.37500000  0.12500000       0.188
  -0.12500000  0.37500000  0.12500000       0.188
  -0.37500000 -0.37500000  0.12500000       0.094
   0.37500000  0.37500000  0.37500000       0.031
  -0.37500000  0.37500000  0.37500000       0.094
 
 position of ions in fractional coordinates (direct lattice) 
   0.50000000  0.50000000  0.50000000
   0.00000000  0.00000000  0.00000000
 
 position of ions in cartesian coordinates  (Angst):
   3.00181950  1.73310150  1.22548750
   0.00000000  0.00000000  0.00000000
 


--------------------------------------------------------------------------------------------------------


 k-point  1 :   0.1250 0.1250 0.1250  plane waves:    1242
 k-point  2 :   0.3750 0.1250 0.1250  plane waves:    1232
 k-point  3 :  -0.3750 0.1250 0.1250  plane waves:    1215
 k-point  4 :  -0.1250 0.1250 0.1250  plane waves:    1233
 k-point  5 :   0.3750 0.3750 0.1250  plane waves:    1234
 k-point  6 :  -0.3750 0.3750 0.1250  plane waves:    1213
 k-point  7 :  -0.1250 0.3750 0.1250  plane waves:    1228
 k-point  8 :  -0.3750-0.3750 0.1250  plane waves:    1223
 k-point  9 :   0.3750 0.3750 0.3750  plane waves:    1221
 k-point 10 :  -0.3750 0.3750 0.3750  plane waves:    1217

 maximum and minimum number of plane-waves per node :      1242     1213

 maximum number of plane-waves:      1242
 maximum index in each direction: 
   IXMAX=    7   IYMAX=    7   IZMAX=    7
   IXMIN=   -7   IYMIN=   -7   IZMIN=   -7

 NGX is ok and might be reduce to  30
 NGY is ok and might be reduce to  30
 NGZ is ok and might be reduce to  30

 serial   3D FFT for wavefunctions
 parallel 3D FFT for charge:
    minimum data exchange during FFTs selected (reduces bandwidth)


 total amount of memory used by VASP on root node    34518. kBytes
========================================================================

   base      :      30000. kBytes
   nonl-proj :       2635. kBytes
   fftplans  :        291. kBytes
   grid      :       1372. kBytes
   one-center:         16. kBytes
   wavefun   :        204. kBytes
 
     INWAV:  cpu time    0.0010: real time    0.0001
 Broyden mixing: mesh for mixing (old mesh)
   NGX = 15   NGY = 15   NGZ = 15
  (NGX  = 40   NGY  = 40   NGZ  = 40)
  gives a total of   3375 points

 charge density for first step will be calculated from the start-wavefunctions


--------------------------------------------------------------------------------------------------------


 Maximum index for augmentation-charges         1453 (set IRDMAX)


--------------------------------------------------------------------------------------------------------


 initial charge from wavefunction
 First call to EWALD:  gamma=   0.663
 Maximum number of real-space cells 3x 3x 3
 Maximum number of reciprocal cells 3x 3x 3

 FEWALD executed in parallel
    FEWALD:  cpu time    0.0020: real time    0.0015


----------------------------------------- Iteration    1(   1)  ---------------------------------------


    POTLOK:  cpu time    0.0060: real time    0.0054
    SETDIJ:  cpu time    0.0030: real time    0.0028
     EDDAV:  cpu time    0.0580: real time    0.0585
       DOS:  cpu time    0.0000: real time    0.0002
    --------------------------------------------
      LOOP:  cpu time    0.0700: real time    0.0725

 eigenvalue-minimisations  :   352
 total energy-change (2. order) :-0.2362680E+03  (-0.1026295E+04)
 number of electron       8.0000000 magnetization 
 augmentation part       -0.8516176 magnetization 

 Free energy of the ion-electron system (eV)
  ---------------------------------------------------
  alpha Z        PSCENC =        15.91937336
  Ewald energy   TEWEN  =      -355.39410472
  -Hartree energ DENC   =       -27.43953258
  -exchange      EXHF   =         0.00000000
  -V(xc)+E(xc)   XCENC  =       -29.86544887
  PAW double counting   =    118694.31927751  -118640.94069789
  entropy T*S    EENTRO =        -0.00000000
  eigenvalues    EBANDS =      -348.26433092
  atomic energy  EATOM  =       455.39746584
  Solvation  Ediel_sol  =         0.00000000
  ---------------------------------------------------
  free energy    TOTEN  =      -236.26799827 eV

  energy without entropy =     -236.26799827  energy(sigma->0) =     -236.26799827


--------------------------------------------------------------------------------------------------------




----------------------------------------- Iteration    1(   2)  ---------------------------------------


     EDDAV:  cpu time    0.0650: real time    0.0654
       DOS:  cpu time    0.0000: real time    0.0001
    --------------------------------------------
      LOOP:  cpu time    0.0660: real time    0.0680

 eigenvalue-minimisations  :   400
 total energy-change (2. order) :-0.6498111E+02  (-0.6498111E+02)
 number of electron       8.0000000 magnetization 
 augmentation part       -0.8516176 magnetization 

 Free energy of the ion-electron system (eV)
  ---------------------------------------------------
  alpha Z        PSCENC =        15.91937336
  Ewald energy   TEWEN  =      -355.39410472
  -Hartree energ DENC   =       -27.43953258
  -exchange      EXHF   =         0.00000000
  -V(xc)+E(xc)   XCENC  =       -29.86544887
  PAW double counting   =    118694.31927751  -118640.94069789
  entropy T*S    EENTRO =        -0.00000000
  eigenvalues    EBANDS =      -413.24544143
  atomic energy  EATOM  =       455.39746584
  Solvation  Ediel_sol  =         0.00000000
  ---------------------------------------------------
  free energy    TOTEN  =      -301.24910878 eV

  energy without entropy =     -301.24910878  energy(sigma->0) =     -301.24910878


--------------------------------------------------------------------------------------------------------




----------------------------------------- Iteration    1(   3)  ---------------------------------------


     EDDAV:  cpu time    0.0620: real time    0.0620
       DOS:  cpu time    0.0010: real time    0.0001
    --------------------------------------------
      LOOP:  cpu time    0.0630: real time    0.0653

 eigenvalue-minimisations  :   384
 total energy-change (2. order) :-0.6385392E+00  (-0.6385392E+00)
 number of electron       8.0000000 magnetization 
 augmentation part       -0.8516176 magnetization 

 Free energy of the ion-electron system (eV)
  ---------------------------------------------------
  alpha Z        PSCENC =        15.91937336
  Ewald energy   TEWEN  =      -355.39410472
  -Hartree energ DENC   =       -27.43953258
  -exchange      EXHF   =         0.00000000
  -V(xc)+E(xc)   XCENC  =       -29.86544887
  PAW double counting   =    118694.31927751  -118640.94069789
  entropy T*S    EENTRO =        -0.00000000
  eigenvalues    EBANDS =      -413.88398060
  atomic energy  EATOM  =       455.39746584
  Solvation  Ediel_sol  =         0.00000000
  ---------------------------------------------------
  free energy    TOTEN  =      -301.88764795 eV

  energy without entropy =     -301.88764795  energy(sigma->0) =     -301.88764795


--------------------------------------------------------------------------------------------------------




----------------------------------------- Iteration    1(   4)  ---------------------------------------


     EDDAV:  cpu time    0.0920: real time    0.0918
       DOS:  cpu time    0.0000: real time    0.0001
    --------------------------------------------
      LOOP:  cpu time    0.0920: real time    0.0953

 eigenvalue-minimisations  :   528
 total energy-change (2. order) :-0.1453968E-02  (-0.1453968E-02)
 number of electron       8.0000000 magnetization 
 augmentation part       -0.8516176 magnetization 

 Free energy of the ion-electron system (eV)
  ---------------------------------------------------
  alpha Z        PSCENC =        15.91937336
  Ewald energy   TEWEN  =      -355.39410472
  -Hartree energ DENC   =       -27.43953258
  -exchange      EXHF   =         0.00000000
  -V(xc)+E(xc)   XCENC  =       -29.86544887
  PAW double counting   =    118694.31927751  -118640.94069789
  entropy T*S    EENTRO =        -0.00000000
  eigenvalues    EBANDS =      -413.88543457
  atomic energy  EATOM  =       455.39746584
  Solvation  Ediel_sol  =         0.00000000
  ---------------------------------------------------
  free energy    TOTEN  =      -301.88910192 eV

  energy without entropy =     -301.88910192  energy(sigma->0) =     -301.88910192


--------------------------------------------------------------------------------------------------------




----------------------------------------- Iteration    1(   5)  ---------------------------------------


     EDDAV:  cpu time    0.0800: real time    0.0800
       DOS:  cpu time    0.0000: real time    0.0001
    CHARGE:  cpu time    0.0100: real time    0.0098
    MIXING:  cpu time    0.0010: real time    0.0005
    --------------------------------------------
      LOOP:  cpu time    0.0910: real time    0.0942

 eigenvalue-minimisations  :   464
 total energy-change (2. order) :-0.6334625E-06  (-0.6334619E-06)
 number of electron       7.9999984 magnetization 
 augmentation part        0.5971238 magnetization 

 Broyden mixing:
  rms(total) = 0.93220E+01    rms(broyden)= 0.93098E+01
  rms(prec ) = 0.28848E+02
  weight for this iteration     100.00

 Free energy of the ion-electron system (eV)
  ---------------------------------------------------
  alpha Z        PSCENC =        15.91937336
  Ewald energy   TEWEN  =      -355.39410472
  -Hartree energ DENC   =       -27.43953258
  -exchange      EXHF   =         0.00000000
  -V(xc)+E(xc)   XCENC  =       -29.86544887
  PAW double counting   =    118694.31927751  -118640.94069789
  entropy T*S    EENTRO =        -0.00000000
  eigenvalues    EBANDS =      -413.88543521
  atomic energy  EATOM  =       455.39746584
  Solvation  Ediel_sol  =         0.00000000
  ---------------------------------------------------
  free energy    TOTEN  =      -301.88910256 eV

  energy without entropy =     -301.88910256  energy(sigma->0) =     -301.88910256


--------------------------------------------------------------------------------------------------------




----------------------------------------- Iteration    1(   6)  ---------------------------------------


    POTLOK:  cpu time    0.0040: real time    0.0043
    SETDIJ:  cpu time    0.0030: real time    0.0027
     EDDAV:  cpu time    0.0510: real time    0.0515
       DOS:  cpu time    0.0010: real time    0.0001
    CHARGE:  cpu time    0.0090: real time    0.0097
    MIXING:  cpu time    0.0010: real time    0.0003
    --------------------------------------------
      LOOP:  cpu time    0.0690: real time    0.0718

 eigenvalue-minimisations  :   320
 total energy-change (2. order) : 0.2367907E+03  (-0.2824897E+02)
 number of electron       7.9999993 magnetization 
 augmentation part        0.2551707 magnetization 

 Broyden mixing:
  rms(total) = 0.39395E+01    rms(broyden)= 0.39378E+01
  rms(prec ) = 0.13269E+02
  weight for this iteration     100.00

 eigenvalues of (default mixing * dielectric matrix)
  average eigenvalue GAMMA=   1.4655
  1.4655

 Free energy of the ion-electron system (eV)
  ---------------------------------------------------
  alpha Z        PSCENC =        15.91937336
  Ewald energy   TEWEN  =      -355.39410472
  -Hartree energ DENC   =       -66.10389042
  -exchange      EXHF   =         0.00000000
  -V(xc)+E(xc)   XCENC  =       -26.06042619
  PAW double counting   =    358207.62052313  -358157.96608090
  entropy T*S    EENTRO =        -0.00000000
  eigenvalues    EBANDS =      -138.51124965
  atomic energy  EATOM  =       455.39746584
  Solvation  Ediel_sol  =         0.00000000
  ---------------------------------------------------
  free energy    TOTEN  =       -65.09838955 eV

  energy without entropy =      -65.09838955  energy(sigma->0) =      -65.09838955


--------------------------------------------------------------------------------------------------------




----------------------------------------- Iteration    1(   7)  ---------------------------------------


    POTLOK:  cpu time    0.0040: real time    0.0037
    SETDIJ:  cpu time    0.0020: real time    0.0027
     EDDAV:  cpu time    0.0820: real time    0.0819
       DOS:  cpu time    0.0010: real time    0.0001
    CHARGE:  cpu time    0.0090: real time    0.0098
    MIXING:  cpu time    0.0010: real time    0.0002
    --------------------------------------------
      LOOP:  cpu time    0.0990: real time    0.1020

 eigenvalue-minimisations  :   496
 total energy-change (2. order) : 0.4278880E+02  (-0.3803332E+02)
 number of electron       8.0000001 magnetization 
 augmentation part       -0.0129687 magnetization 

 Broyden mixing:
  rms(total) = 0.25686E+01    rms(broyden)= 0.25671E+01
  rms(prec ) = 0.68510E+01
  weight for this iteration     100.00

 eigenvalues of (default mixing * dielectric matrix)
  average eigenvalue GAMMA=   1.3245
  1.3245  1.3245

 Free energy of the ion-electron system (eV)
  ---------------------------------------------------
  alpha Z        PSCENC =        15.91937336
  Ewald energy   TEWEN  =      -355.39410472
  -Hartree energ DENC   =      -177.56017796
  -exchange      EXHF   =         0.00000000
  -V(xc)+E(xc)   XCENC  =       -18.79604427
  PAW double counting   =     53054.37922382   -53006.16201667
  entropy T*S    EENTRO =        -0.00000000
  eigenvalues    EBANDS =         9.90669162
  atomic energy  EATOM  =       455.39746584
  Solvation  Ediel_sol  =         0.00000000
  ---------------------------------------------------
  free energy    TOTEN  =       -22.30958898 eV

  energy without entropy =      -22.30958898  energy(sigma->0) =      -22.30958898


--------------------------------------------------------------------------------------------------------




----------------------------------------- Iteration    1(   8)  ---------------------------------------


    POTLOK:  cpu time    0.0040: real time    0.0039
    SETDIJ:  cpu time    0.0030: real time    0.0027
     EDDAV:  cpu time    0.0530: real time    0.0541
       DOS:  cpu time    0.0010: real time    0.0001
    CHARGE:  cpu time    0.0090: real time    0.0097
    MIXING:  cpu time    0.0010: real time    0.0002
    --------------------------------------------
      LOOP:  cpu time    0.0710: real time    0.0745

 eigenvalue-minimisations  :   336
 total energy-change (2. order) : 0.1588117E+01  (-0.1749111E+02)
 number of electron       7.9999996 magnetization 
 augmentation part        0.1493097 magnetization 

 Broyden mixing:
  rms(total) = 0.16496E+01    rms(broyden)= 0.16494E+01
  rms(prec ) = 0.59265E+01
  weight for this iteration     100.00

 eigenvalues of (default mixing * dielectric matrix)
  average eigenvalue GAMMA=   1.5658
  2.6005  1.3311  0.7659

 Free energy of the ion-electron system (eV)
  ---------------------------------------------------
  alpha Z        PSCENC =        15.91937336
  Ewald energy   TEWEN  =      -355.39410472
  -Hartree energ DENC   =      -100.81395463
  -exchange      EXHF   =         0.00000000
  -V(xc)+E(xc)   XCENC  =       -23.91626872
  PAW double counting   =     62182.66953450   -62132.64846643
  entropy T*S    EENTRO =        -0.00000000
  eigenvalues    EBANDS =       -61.93505089
  atomic energy  EATOM  =       455.39746584
  Solvation  Ediel_sol  =         0.00000000
  ---------------------------------------------------
  free energy    TOTEN  =       -20.72147170 eV

  energy without entropy =      -20.72147170  energy(sigma->0) =      -20.72147170


--------------------------------------------------------------------------------------------------------




----------------------------------------- Iteration    1(   9)  ---------------------------------------


    POTLOK:  cpu time    0.0040: real time    0.0038
    SETDIJ:  cpu time    0.0020: real time    0.0027
     EDDAV:  cpu time    0.0510: real time    0.0511
       DOS:  cpu time    0.0010: real time    0.0001
    CHARGE:  cpu time    0.0090: real time    0.0097
    MIXING:  cpu time    0.0010: real time    0.0003
    --------------------------------------------
      LOOP:  cpu time    0.0680: real time    0.0711

 eigenvalue-minimisations  :   320
 total energy-change (2. order) : 0.8754801E+01  (-0.3116196E+01)
 number of electron       7.9999998 magnetization 
 augmentation part        0.0807610 magnetization 

 Broyden mixing:
  rms(total) = 0.24529E+00    rms(broyden)= 0.24506E+00
  rms(prec ) = 0.66947E+00
  weight for this iteration     100.00

 eigenvalues of (default mixing * dielectric matrix)
  average eigenvalue GAMMA=   1.4943
  2.5790  1.3229  1.3229  0.7525

 Free energy of the ion-electron system (eV)
  ---------------------------------------------------
  alpha Z        PSCENC =        15.91937336
  Ewald energy   TEWEN  =      -355.39410472
  -Hartree energ DENC   =      -137.89899725
  -exchange      EXHF   =         0.00000000
  -V(xc)+E(xc)   XCENC  =       -20.89819789
  PAW double counting   =      1099.20536770    -1048.70116318
  entropy T*S    EENTRO =        -0.00000000
  eigenvalues    EBANDS =       -19.59641406
  atomic energy  EATOM  =       455.39746584
  Solvation  Ediel_sol  =         0.00000000
  ---------------------------------------------------
  free energy    TOTEN  =       -11.96667021 eV

  energy without entropy =      -11.96667021  energy(sigma->0) =      -11.96667021


--------------------------------------------------------------------------------------------------------




----------------------------------------- Iteration    1(  10)  ---------------------------------------


    POTLOK:  cpu time    0.0040: real time    0.0037
    SETDIJ:  cpu time    0.0020: real time    0.0027
     EDDAV:  cpu time    0.0690: real time    0.0686
       DOS:  cpu time    0.0000: real time    0.0001
    CHARGE:  cpu time    0.0100: real time    0.0097
    MIXING:  cpu time    0.0000: real time    0.0003
    --------------------------------------------
      LOOP:  cpu time    0.0850: real time    0.0884

 eigenvalue-minimisations  :   416
 total energy-change (2. order) :-0.1533019E-01  (-0.2121732E+00)
 number of electron       7.9999999 magnetization 
 augmentation part        0.0615751 magnetization 

 Broyden mixing:
  rms(total) = 0.19042E+00    rms(broyden)= 0.19028E+00
  rms(prec ) = 0.60161E+00
  weight for this iteration     100.00

 eigenvalues of (default mixing * dielectric matrix)
  average eigenvalue GAMMA=   1.6456
  2.7313  2.5511  1.2291  0.8583  0.8583

 Free energy of the ion-electron system (eV)
  ---------------------------------------------------
  alpha Z        PSCENC =        15.91937336
  Ewald energy   TEWEN  =      -355.39410472
  -Hartree energ DENC   =      -144.96641544
  -exchange      EXHF   =         0.00000000
  -V(xc)+E(xc)   XCENC  =       -20.44314354
  PAW double counting   =       849.53930807     -799.21833540
  entropy T*S    EENTRO =        -0.00000000
  eigenvalues    EBANDS =       -12.81614856
  atomic energy  EATOM  =       455.39746584
  Solvation  Ediel_sol  =         0.00000000
  ---------------------------------------------------
  free energy    TOTEN  =       -11.98200040 eV

  energy without entropy =      -11.98200040  energy(sigma->0) =      -11.98200040


--------------------------------------------------------------------------------------------------------




----------------------------------------- Iteration    1(  11)  ---------------------------------------


    POTLOK:  cpu time    0.0040: real time    0.0038
    SETDIJ:  cpu time    0.0030: real time    0.0027
     EDDAV:  cpu time    0.0550: real time    0.0558
       DOS:  cpu time    0.0000: real time    0.0001
    CHARGE:  cpu time    0.0090: real time    0.0097
    MIXING:  cpu time    0.0010: real time    0.0003
    --------------------------------------------
      LOOP:  cpu time    0.0730: real time    0.0764

 eigenvalue-minimisations  :   352
 total energy-change (2. order) : 0.5904293E-01  (-0.6727869E-01)
 number of electron       7.9999998 magnetization 
 augmentation part        0.0724596 magnetization 

 Broyden mixing:
  rms(total) = 0.37778E-01    rms(broyden)= 0.37746E-01
  rms(prec ) = 0.13824E+00
  weight for this iteration     100.00

 eigenvalues of (default mixing * dielectric matrix)
  average eigenvalue GAMMA=   1.5781
  2.9056  2.5364  1.3087  0.8405  0.9386  0.9386

 Free energy of the ion-electron system (eV)
  ---------------------------------------------------
  alpha Z        PSCENC =        15.91937336
  Ewald energy   TEWEN  =      -355.39410472
  -Hartree energ DENC   =      -140.38856350
  -exchange      EXHF   =         0.00000000
  -V(xc)+E(xc)   XCENC  =       -20.72345442
  PAW double counting   =       669.90534903     -619.51546178
  entropy T*S    EENTRO =        -0.00000000
  eigenvalues    EBANDS =       -17.12356128
  atomic energy  EATOM  =       455.39746584
  Solvation  Ediel_sol  =         0.00000000
  ---------------------------------------------------
  free energy    TOTEN  =       -11.92295747 eV

  energy without entropy =      -11.92295747  energy(sigma->0) =      -11.92295747


--------------------------------------------------------------------------------------------------------




----------------------------------------- Iteration    1(  12)  ---------------------------------------


    POTLOK:  cpu time    0.0040: real time    0.0037
    SETDIJ:  cpu time    0.0030: real time    0.0027
     EDDAV:  cpu time    0.0660: real time    0.0663
       DOS:  cpu time    0.0000: real time    0.0001
    CHARGE:  cpu time    0.0100: real time    0.0098
    MIXING:  cpu time    0.0000: real time    0.0003
    --------------------------------------------
      LOOP:  cpu time    0.0830: real time    0.0865

 eigenvalue-minimisations  :   400
 total energy-change (2. order) : 0.3174484E-02  (-0.2683010E-02)
 number of electron       7.9999999 magnetization 
 augmentation part        0.0705520 magnetization 

 Broyden mixing:
  rms(total) = 0.28930E-02    rms(broyden)= 0.28883E-02
  rms(prec ) = 0.10420E-01
  weight for this iteration     100.00

 eigenvalues of (default mixing * dielectric matrix)
  average eigenvalue GAMMA=   1.5226
  2.8801  2.5355  1.4127  1.1949  0.8314  0.8314  0.9723

 Free energy of the ion-electron system (eV)
  ---------------------------------------------------
  alpha Z        PSCENC =        15.91937336
  Ewald energy   TEWEN  =      -355.39410472
  -Hartree energ DENC   =      -141.29935013
  -exchange      EXHF   =         0.00000000
  -V(xc)+E(xc)   XCENC  =       -20.65438935
  PAW double counting   =       604.91540981     -554.53997268
  entropy T*S    EENTRO =        -0.00000000
  eigenvalues    EBANDS =       -16.26421511
  atomic energy  EATOM  =       455.39746584
  Solvation  Ediel_sol  =         0.00000000
  ---------------------------------------------------
  free energy    TOTEN  =       -11.91978298 eV

  energy without entropy =      -11.91978298  energy(sigma->0) =      -11.91978298


--------------------------------------------------------------------------------------------------------




----------------------------------------- Iteration    1(  13)  ---------------------------------------


    POTLOK:  cpu time    0.0040: real time    0.0038
    SETDIJ:  cpu time    0.0030: real time    0.0027
     EDDAV:  cpu time    0.0660: real time    0.0663
       DOS:  cpu time    0.0000: real time    0.0001
    CHARGE:  cpu time    0.0100: real time    0.0097
    MIXING:  cpu time    0.0010: real time    0.0003
    --------------------------------------------
      LOOP:  cpu time    0.0840: real time    0.0865

 eigenvalue-minimisations  :   400
 total energy-change (2. order) :-0.3700474E-04  (-0.8035663E-04)
 number of electron       7.9999999 magnetization 
 augmentation part        0.0701889 magnetization 

 Broyden mixing:
  rms(total) = 0.44032E-02    rms(broyden)= 0.44014E-02
  rms(prec ) = 0.12092E-01
  weight for this iteration     100.00

 eigenvalues of (default mixing * dielectric matrix)
  average eigenvalue GAMMA=   1.6824
  3.2923  2.6916  2.5267  1.2843  0.8928  0.8928  0.9009  0.9781

 Free energy of the ion-electron system (eV)
  ---------------------------------------------------
  alpha Z        PSCENC =        15.91937336
  Ewald energy   TEWEN  =      -355.39410472
  -Hartree energ DENC   =      -141.42152185
  -exchange      EXHF   =         0.00000000
  -V(xc)+E(xc)   XCENC  =       -20.64721753
  PAW double counting   =       623.80131155     -573.42834556
  entropy T*S    EENTRO =        -0.00000000
  eigenvalues    EBANDS =       -16.14678107
  atomic energy  EATOM  =       455.39746584
  Solvation  Ediel_sol  =         0.00000000
  ---------------------------------------------------
  free energy    TOTEN  =       -11.91981999 eV

  energy without entropy =      -11.91981999  energy(sigma->0) =      -11.91981999


--------------------------------------------------------------------------------------------------------




----------------------------------------- Iteration    1(  14)  ---------------------------------------


    POTLOK:  cpu time    0.0040: real time    0.0037
    SETDIJ:  cpu time    0.0020: real time    0.0027
     EDDAV:  cpu time    0.0770: real time    0.0767
       DOS:  cpu time    0.0000: real time    0.0001
    CHARGE:  cpu time    0.0100: real time    0.0096
    MIXING:  cpu time    0.0000: real time    0.0003
    --------------------------------------------
      LOOP:  cpu time    0.0930: real time    0.0968

 eigenvalue-minimisations  :   464
 total energy-change (2. order) : 0.2414438E-04  (-0.2364394E-04)
 number of electron       7.9999999 magnetization 
 augmentation part        0.0704201 magnetization 

 Broyden mixing:
  rms(total) = 0.97645E-03    rms(broyden)= 0.97562E-03
  rms(prec ) = 0.24763E-02
  weight for this iteration     100.00

 eigenvalues of (default mixing * dielectric matrix)
  average eigenvalue GAMMA=   1.5815
  2.9864  2.6804  2.5202  1.2095  1.2095  0.8817  0.8817  0.9145  0.9493

 Free energy of the ion-electron system (eV)
  ---------------------------------------------------
  alpha Z        PSCENC =        15.91937336
  Ewald energy   TEWEN  =      -355.39410472
  -Hartree energ DENC   =      -141.35950215
  -exchange      EXHF   =         0.00000000
  -V(xc)+E(xc)   XCENC  =       -20.65091509
  PAW double counting   =       640.93467047     -590.55956596
  entropy T*S    EENTRO =        -0.00000000
  eigenvalues    EBANDS =       -16.20721760
  atomic energy  EATOM  =       455.39746584
  Solvation  Ediel_sol  =         0.00000000
  ---------------------------------------------------
  free energy    TOTEN  =       -11.91979584 eV

  energy without entropy =      -11.91979584  energy(sigma->0) =      -11.91979584


--------------------------------------------------------------------------------------------------------




----------------------------------------- Iteration    1(  15)  ---------------------------------------


    POTLOK:  cpu time    0.0040: real time    0.0037
    SETDIJ:  cpu time    0.0030: real time    0.0027
     EDDAV:  cpu time    0.0590: real time    0.0591
       DOS:  cpu time    0.0000: real time    0.0001
    CHARGE:  cpu time    0.0090: real time    0.0096
    MIXING:  cpu time    0.0010: real time    0.0004
    --------------------------------------------
      LOOP:  cpu time    0.0760: real time    0.0793

 eigenvalue-minimisations  :   368
 total energy-change (2. order) : 0.5012789E-06  (-0.1377020E-05)
 number of electron       7.9999999 magnetization 
 augmentation part        0.0703696 magnetization 

 Broyden mixing:
  rms(total) = 0.29752E-03    rms(broyden)= 0.29746E-03
  rms(prec ) = 0.11190E-02
  weight for this iteration     100.00

 eigenvalues of (default mixing * dielectric matrix)
  average eigenvalue GAMMA=   1.6898
  3.2310  2.8278  2.5253  2.4141  1.2791  0.8914  0.8914  1.0186  0.8811  0.9383

 Free energy of the ion-electron system (eV)
  ---------------------------------------------------
  alpha Z        PSCENC =        15.91937336
  Ewald energy   TEWEN  =      -355.39410472
  -Hartree energ DENC   =      -141.37617428
  -exchange      EXHF   =         0.00000000
  -V(xc)+E(xc)   XCENC  =       -20.65009246
  PAW double counting   =       638.66839579     -588.29376947
  entropy T*S    EENTRO =        -0.00000000
  eigenvalues    EBANDS =       -16.19088940
  atomic energy  EATOM  =       455.39746584
  Solvation  Ediel_sol  =         0.00000000
  ---------------------------------------------------
  free energy    TOTEN  =       -11.91979534 eV

  energy without entropy =      -11.91979534  energy(sigma->0) =      -11.91979534


--------------------------------------------------------------------------------------------------------




----------------------------------------- Iteration    1(  16)  ---------------------------------------


    POTLOK:  cpu time    0.0040: real time    0.0037
    SETDIJ:  cpu time    0.0030: real time    0.0027
     EDDAV:  cpu time    0.0300: real time    0.0301
       DOS:  cpu time    0.0000: real time    0.0001
    --------------------------------------------
      LOOP:  cpu time    0.0370: real time    0.0406

 eigenvalue-minimisations  :   160
 total energy-change (2. order) : 0.4041385E-07  (-0.6629073E-07)
 number of electron       7.9999999 magnetization 
 augmentation part        0.0703696 magnetization 

 Free energy of the ion-electron system (eV)
  ---------------------------------------------------
  alpha Z        PSCENC =        15.91937336
  Ewald energy   TEWEN  =      -355.39410472
  -Hartree energ DENC   =      -141.37101897
  -exchange      EXHF   =         0.00000000
  -V(xc)+E(xc)   XCENC  =       -20.65052462
  PAW double counting   =       636.53660304     -586.16194147
  entropy T*S    EENTRO =        -0.00000000
  eigenvalues    EBANDS =       -16.19564776
  atomic energy  EATOM  =       455.39746584
  Solvation  Ediel_sol  =         0.00000000
  ---------------------------------------------------
  free energy    TOTEN  =       -11.91979530 eV

  energy without entropy =      -11.91979530  energy(sigma->0) =      -11.91979530


--------------------------------------------------------------------------------------------------------




 average (electrostatic) potential at core
  the test charge radii are     0.5955  1.0714
  (the norm of the test charge is              1.0000)
       1-108.4550       2 -34.8735
 
 
 
 E-fermi :   3.6365     XC(G=0): -10.9721     alpha+bet :-13.2242


 k-point     1 :       0.1250    0.1250    0.1250
  band No.  band energies     occupation 
      1     -13.5730      2.00000
      2       2.4686      2.00000
      3       3.3151      2.00000
      4       3.3151      2.00000
      5       8.8338      0.00000
      6      17.4125      0.00000
      7      19.4290      0.00000
      8      19.4290      0.00000
      9      23.6793      0.00000
     10      23.6793      0.00000
     11      25.0178      0.00000
     12      27.4552      0.00000
     13      28.8863      0.00000
     14      28.8863      0.00000
     15      39.1508      0.00000
     16      41.0531      0.00000

 k-point     2 :       0.3750    0.1250    0.1250
  band No.  band energies     occupation 
      1     -12.9140      2.00000
      2       0.2961      2.00000
      3       2.4535      2.00000
      4       3.0169      2.00000
      5      11.2501      0.00000
      6      15.3507      0.00000
      7      18.7628      0.00000
      8      20.4306      0.00000
      9      22.2512      0.00000
     10      24.4820      0.00000
     11      26.6004      0.00000
     12      31.2615      0.00000
     13      32.5355      0.00000
     14      33.4105      0.00000
     15      35.7809      0.00000
     16      39.0743      0.00000

 k-point     3 :      -0.3750    0.1250    0.1250
  band No.  band energies     occupation 
      1     -12.4729      2.00000
      2      -0.8377      2.00000
      3       2.3024      2.00000
      4       2.6772      2.00000
      5      11.8373      0.00000
      6      15.5617      0.00000
      7      18.0522      0.00000
      8      19.8684      0.00000
      9      23.8586      0.00000
     10      26.1084      0.00000
     11      26.2043      0.00000
     12      32.4878      0.00000
     13      33.0841      0.00000
     14      33.4294      0.00000
     15      36.0110      0.00000
     16      37.7218      0.00000

 k-point     4 :      -0.1250    0.1250    0.1250
  band No.  band energies     occupation 
      1     -13.2061      2.00000
      2       1.1852      2.00000
      3       2.9444      2.00000
      4       2.9483      2.00000
      5      10.4225      0.00000
      6      15.5916      0.00000
      7      19.5569      0.00000
      8      20.0376      0.00000
      9      21.2130      0.00000
     10      25.0588      0.00000
     11      27.0581      0.00000
     12      30.1561      0.00000
     13      30.4409      0.00000
     14      31.1942      0.00000
     15      37.4160      0.00000
     16      39.1782      0.00000

 k-point     5 :       0.3750    0.3750    0.1250
  band No.  band energies     occupation 
      1     -12.6760      2.00000
      2       0.1097      2.00000
      3       2.2530      2.00000
      4       2.4862      2.00000
      5      12.3531      0.00000
      6      13.9951      0.00000
      7      17.3066      0.00000
      8      20.9365      0.00000
      9      21.3935      0.00000
     10      27.2394      0.00000
     11      30.3453      0.00000
     12      30.6140      0.00000
     13      32.5276      0.00000
     14      35.0193      0.00000
     15      36.6723      0.00000
     16      38.0885      0.00000

 k-point     6 :      -0.3750    0.3750    0.1250
  band No.  band energies     occupation 
      1     -12.2598      2.00000
      2      -0.0086      2.00000
      3       0.9919      2.00000
      4       2.0745      2.00000
      5      13.8673      0.00000
      6      14.9060      0.00000
      7      15.6979      0.00000
      8      19.7113      0.00000
      9      23.1569      0.00000
     10      26.6101      0.00000
     11      30.1733      0.00000
     12      31.5958      0.00000
     13      32.8640      0.00000
     14      36.5380      0.00000
     15      39.1095      0.00000
     16      41.3289      0.00000

 k-point     7 :      -0.1250    0.3750    0.1250
  band No.  band energies     occupation 
      1     -12.5187      2.00000
      2      -0.2119      2.00000
      3       1.7348      2.00000
      4       2.5755      2.00000
      5      12.7111      0.00000
      6      14.9050      0.00000
      7      17.0790      0.00000
      8      20.2744      0.00000
      9      22.8438      0.00000
     10      25.5183      0.00000
     11      29.0532      0.00000
     12      31.8449      0.00000
     13      32.4266      0.00000
     14      35.0913      0.00000
     15      35.7343      0.00000
     16      41.2358      0.00000

 k-point     8 :      -0.3750   -0.3750    0.1250
  band No.  band energies     occupation 
      1     -12.2965      2.00000
      2      -0.3732      2.00000
      3       1.7346      2.00000
      4       2.1915      2.00000
      5      12.9416      0.00000
      6      13.6242      0.00000
      7      16.1486      0.00000
      8      21.6475      0.00000
      9      21.6584      0.00000
     10      29.1269      0.00000
     11      29.5587      0.00000
     12      32.1416      0.00000
     13      32.8563      0.00000
     14      38.0050      0.00000
     15      38.3868      0.00000
     16      41.3178      0.00000

 k-point     9 :       0.3750    0.3750    0.3750
  band No.  band energies     occupation 
      1     -12.7122      2.00000
      2      -0.5672      2.00000
      3       2.8725      2.00000
      4       2.8725      2.00000
      5      11.0475      0.00000
      6      15.5670      0.00000
      7      19.6640      0.00000
      8      19.6640      0.00000
      9      24.2534      0.00000
     10      24.5935      0.00000
     11      24.5935      0.00000
     12      32.1079      0.00000
     13      33.4280      0.00000
     14      33.4280      0.00000
     15      37.0418      0.00000
     16      37.0418      0.00000

 k-point    10 :      -0.3750    0.3750    0.3750
  band No.  band energies     occupation 
      1     -12.3441      2.00000
      2      -0.2508      2.00000
      3       1.0979      2.00000
      4       2.5451      2.00000
      5      13.1901      0.00000
      6      15.3642      0.00000
      7      16.2702      0.00000
      8      20.5862      0.00000
      9      22.6700      0.00000
     10      25.6946      0.00000
     11      29.2733      0.00000
     12      31.8152      0.00000
     13      32.2380      0.00000
     14      35.5767      0.00000
     15      37.4614      0.00000
     16      40.3352      0.00000


--------------------------------------------------------------------------------------------------------


 soft charge-density along one line, spin component           1
         0         1         2         3         4         5         6         7         8         9
 total charge-density along one line
 
 pseudopotential strength for first ion, spin component:           1
 25.182  -0.005  -0.000  -0.000  -0.000   0.000   0.000   0.000
 -0.005   0.001  -0.000  -0.000  -0.000  -0.000  -0.000  -0.000
 -0.000  -0.000  -8.627   0.000   0.000   0.014   0.000   0.000
 -0.000  -0.000   0.000  -8.627   0.000   0.000   0.014   0.000
 -0.000  -0.000   0.000   0.000  -8.627   0.000   0.000   0.014
  0.000  -0.000   0.014   0.000   0.000   0.018   0.000   0.000
  0.000  -0.000   0.000   0.014   0.000   0.000   0.018   0.000
  0.000  -0.000   0.000   0.000   0.014   0.000   0.000   0.018
 total augmentation occupancy for first ion, spin component:           1
  1.786   2.151   0.000   0.000   0.000   0.000   0.000   0.000
  2.151   4.162   0.000   0.000   0.000   0.000   0.000   0.000
  0.000   0.000   1.498   0.000   0.000  -0.985  -0.000  -0.000
  0.000   0.000   0.000   1.498   0.000  -0.000  -0.985  -0.000
  0.000   0.000   0.000   0.000   1.498  -0.000  -0.000  -0.985
  0.000   0.000  -0.985  -0.000  -0.000   0.711   0.000   0.000
  0.000   0.000  -0.000  -0.985  -0.000   0.000   0.711   0.000
  0.000   0.000  -0.000  -0.000  -0.985   0.000   0.000   0.711


------------------------ aborting loop because EDIFF is reached ----------------------------------------


    CHARGE:  cpu time    0.0090: real time    0.0097
    FORLOC:  cpu time    0.0010: real time    0.0002
    FORNL :  cpu time    0.0060: real time    0.0067
    STRESS:  cpu time    0.0570: real time    0.0568
    FORCOR:  cpu time    0.0030: real time    0.0032
    FORHAR:  cpu time    0.0010: real time    0.0008
    MIXING:  cpu time    0.0000: real time    0.0005
    OFIELD:  cpu time    0.0000: real time    0.0000

  FORCE on cell =-STRESS in cart. coord.  units (eV):
  Direction    XX          YY          ZZ          XY          YZ          ZX
  --------------------------------------------------------------------------------------
  Alpha Z    15.91937    15.91937    15.91937
  Ewald    -118.46471  -118.46474  -118.46473     0.00000    -0.00002     0.00000
  Hartree    47.12081    47.12082    47.12082     0.00000     0.00001     0.00000
  E(xc)     -36.97473   -36.97473   -36.97473    -0.00000     0.00000    -0.00000
  Local     -88.72348   -88.72351   -88.72348    -0.00002    -0.00001    -0.00001
  n-local    -9.05925    -9.26540   -10.39340     0.23256     0.47497    -1.15498
  augment     0.83993     0.83994     0.83994    -0.00000    -0.00000    -0.00000
  Kinetic   185.89388   188.91733   194.75708     0.68040    -1.76604     4.00365
  Fock        0.00000     0.00000     0.00000     0.00000     0.00000     0.00000
  -------------------------------------------------------------------------------------
  Total       0.00060     0.00060     0.00060     0.00000     0.00000     0.00000
  in kB       0.05004     0.05004     0.05004     0.00000     0.00000     0.00000
  external pressure =        0.05 kB  Pullay stress =        0.00 kB


 VOLUME and BASIS-vectors are now :
 -----------------------------------------------------------------------------
  energy-cutoff  :      925.00
  volume of cell :       19.13
      direct lattice vectors                 reciprocal lattice vectors
     3.001819000  0.000000000  0.000000000     0.333131345 -0.192333499 -0.136000318
     1.500910000  2.599652000  0.000000000     0.000000000  0.384666871 -0.136000352
     1.500910000  0.866551000  2.450975000     0.000000000  0.000000000  0.408000898

  length of vectors
     3.001819000  3.001819673  3.001819434     0.408000925  0.408000854  0.408000898


 FORCES acting on ions
    electron-ion (+dipol)            ewald-force                    non-local-force                 convergence-correction
 -----------------------------------------------------------------------------------------------
   0.751E-12 0.784E-12 0.377E-12   -.125E-14 0.936E-15 0.445E-15   0.103E-23 -.934E-24 0.985E-24   0.614E-14 -.197E-14 -.624E-14
   -.191E-14 -.130E-15 -.809E-15   0.194E-15 -.884E-15 -.477E-15   0.125E-24 0.321E-24 0.770E-24   -.468E-17 -.392E-17 -.139E-16
 -----------------------------------------------------------------------------------------------
   0.749E-12 0.784E-12 0.376E-12   -.105E-14 0.525E-16 -.315E-16   0.116E-23 -.613E-24 0.175E-23   0.614E-14 -.197E-14 -.626E-14
 
 
 POSITION                                       TOTAL-FORCE (eV/Angst)
 -----------------------------------------------------------------------------------
      3.00182      1.73310      1.22549        -0.000000      0.000000     -0.000000
      0.00000      0.00000      0.00000         0.000000     -0.000000      0.000000
 -----------------------------------------------------------------------------------
    total drift:                                0.000000      0.000000      0.000000


--------------------------------------------------------------------------------------------------------



  FREE ENERGIE OF THE ION-ELECTRON SYSTEM (eV)
  ---------------------------------------------------
  free  energy   TOTEN  =       -11.91979530 eV

  energy  without entropy=      -11.91979530  energy(sigma->0) =      -11.91979530
 


--------------------------------------------------------------------------------------------------------


    POTLOK:  cpu time    0.0070: real time    0.0066


--------------------------------------------------------------------------------------------------------


     LOOP+:  cpu time    1.3118: real time    1.3696
    4ORBIT:  cpu time    0.0000: real time    0.0000

 total amount of memory used by VASP on root node    34518. kBytes
========================================================================

   base      :      30000. kBytes
   nonl-proj :       2635. kBytes
   fftplans  :        291. kBytes
   grid      :       1372. kBytes
   one-center:         16. kBytes
   wavefun   :        204. kBytes
 
  
  
 General timing and accounting informations for this job:
 ========================================================
  
                  Total CPU time used (sec):        2.242
                            User time (sec):        1.856
                          System time (sec):        0.386
                         Elapsed time (sec):        2.597
  
                   Maximum memory used (kb):       42484.
                   Average memory used (kb):           0.
  
                          Minor page faults:        37015
                          Major page faults:            6
                 Voluntary context switches:          694
