# ['Ni']

28 atoms
1 atom types

    0.0000     2.3898 xlo xhi
    0.0000     4.1392 ylo yhi
    0.0000    27.3172 zlo zhi

    0.0000     0.0000     0.0000 xy xz yz

Atoms

1 1     0.0000     0.0000     0.0000
2 1     1.1949     2.0696     0.0000
3 1     1.1949     0.6899     1.9512
4 1     0.0000     2.7595     1.9512
5 1     0.0000     1.3797     3.9024
6 1     1.1949     3.4493     3.9024
7 1     0.0000     0.0000     5.8537
8 1     1.1949     2.0696     5.8537
9 1     1.1949     0.6899     7.8049
10 1     0.0000     2.7595     7.8049
11 1     0.0000     1.3797     9.7561
12 1     1.1949     3.4493     9.7561
13 1     0.0000     0.0000    11.7073
14 1     1.1949     2.0696    11.7073
15 1     0.0000     1.3797    13.6586
16 1     1.1949     3.4493    13.6586
17 1     0.0000     0.0000    15.6098
18 1     1.1949     2.0696    15.6098
19 1     1.1949     0.6899    17.5610
20 1     0.0000     2.7595    17.5610
21 1     0.0000     1.3797    19.5123
22 1     1.1949     3.4493    19.5123
23 1     0.0000     0.0000    21.4635
24 1     1.1949     2.0696    21.4635
25 1     1.1949     0.6899    23.4147
26 1     0.0000     2.7595    23.4147
27 1     0.0000     1.3797    25.3659
28 1     1.1949     3.4493    25.3659
