LAMMPS (11 Aug 2017)
Reading data file ...
  triclinic box = (0 0 0) to (9.936 7.1126 71.1263) with tilt (0 0 0)
  1 by 1 by 1 MPI processor grid
  reading atoms ...
  10 atoms
10 atoms in group Ni
Neighbor list info ...
  update every 1 steps, delay 0 steps, check yes
  max neighbors/atom: 2000, page size: 100000
  master list distance cutoff = 11
  ghost atom cutoff = 11
  binsize = 5.5, bins = 2 2 13
  1 neighbor lists, perpetual/occasional/extra = 1 0 0
  (1) pair eam/alloy, perpetual
      attributes: half, newton on
      pair build: half/bin/newton/tri
      stencil: half/bin/3d/newton/tri
      bin: standard
Setting up cg style minimization ...
  Unit style    : metal
  Current step  : 0
Per MPI rank memory allocation (min/avg/max) = 4.205 | 4.205 | 4.205 Mbytes
Step PotEng Lx Ly Lz Xy Xz Yz Press Pxx Pyy Pzz Pxy Pxz Pyz c_eatoms 
       0   -7.6034552        9.936       7.1126      71.1263            0            0            0     -16.0281   -16.318696   -16.718091   -15.047512 8.9851182e-16 -8.9851182e-16 -2.1426051e-15   -7.6034552 
       1   -7.6034583        9.936       7.1126      71.1263            0            0            0   -16.033168   -16.324014   -16.720823   -15.054668 -2.0734888e-16 2.0734888e-16 2.5573029e-15   -7.6034583 
       2   -7.6034614        9.936       7.1126      71.1263            0            0            0   -16.038255    -16.32935   -16.723564   -15.061852 -4.1469776e-16 5.5293035e-16 -8.9851182e-16   -7.6034614 
       3   -7.6034645        9.936       7.1126      71.1263            0            0            0   -16.043354   -16.334697   -16.726311   -15.069056 -4.8381406e-16 -8.9851182e-16 -5.183722e-16   -7.6034645 
       4   -7.6034676        9.936       7.1126      71.1263            0            0            0   -16.048466   -16.340055   -16.729063    -15.07628 -6.2204664e-16            0 -7.9483738e-16   -7.6034676 
       5   -7.6034708        9.936       7.1126      71.1263            0            0            0    -16.05359   -16.345424   -16.731822   -15.083524 -4.8381406e-16 -5.5293035e-16 3.4558147e-17   -7.6034708 
       6   -7.6034739        9.936       7.1126      71.1263            0            0            0   -16.058726   -16.350805   -16.734586   -15.090788 -7.6027923e-16 3.4558147e-16 1.5551166e-15   -7.6034739 
       7    -7.603477        9.936       7.1126      71.1263            0            0            0   -16.063875   -16.356197   -16.737355   -15.098073            0 1.1058607e-15 -8.9851182e-16    -7.603477 
       8   -7.6034802        9.936       7.1126      71.1263            0            0            0   -16.069037     -16.3616   -16.740131   -15.105379 -2.7646517e-16 3.4558147e-16 1.5205585e-15   -7.6034802 
       9   -7.6034834        9.936       7.1126      71.1263            0            0            0   -16.074211   -16.367015   -16.742913   -15.112705 -8.2939552e-16 -5.5293035e-16 4.2160939e-15   -7.6034834 
      10   -7.6034865        9.936       7.1126      71.1263            0            0            0   -16.079398   -16.372441     -16.7457   -15.120052 6.9116294e-17 2.0734888e-16 5.183722e-16   -7.6034865 
      11   -7.6034897        9.936       7.1126      71.1263            0            0            0   -16.084597   -16.377878   -16.748493    -15.12742 1.3823259e-16 -6.2204664e-16 -4.8035824e-15   -7.6034897 
      12   -7.6034929        9.936       7.1126      71.1263            0            0            0    -16.08981   -16.383328   -16.751293   -15.134809 -1.4514422e-15 -8.9851182e-16 -6.5660479e-16   -7.6034929 
      13   -7.6034961        9.936       7.1126      71.1263            0            0            0   -16.095036   -16.388789   -16.754098    -15.14222 -5.5293035e-16 -1.3823259e-16 -3.6977217e-15   -7.6034961 
      14   -7.6034993        9.936       7.1126      71.1263            0            0            0   -16.100274   -16.394262    -16.75691   -15.149652 4.8381406e-16 5.5293035e-16 6.5660479e-16   -7.6034993 
      15   -7.6035025        9.936       7.1126      71.1263            0            0            0   -16.105526   -16.399746   -16.759727   -15.157106 -1.0367444e-15 -8.2939552e-16 -3.4212565e-15   -7.6035025 
      16   -7.6035057        9.936       7.1126      71.1263            0            0            0   -16.110791   -16.405243   -16.762551   -15.164581 1.174977e-15            0 1.1404188e-15   -7.6035057 
      17    -7.603509        9.936       7.1126      71.1263            0            0            0    -16.11607   -16.410751    -16.76538   -15.172079 -5.5293035e-16 -4.8381406e-16 1.3132096e-15    -7.603509 
      18   -7.6035122        9.936       7.1126      71.1263            0            0            0   -16.121362   -16.416271   -16.768216   -15.179598 1.5205585e-15 -8.2939552e-16 -3.766838e-15   -7.6035122 
      19   -7.6035155        9.936       7.1126      71.1263            0            0            0   -16.126668   -16.421804   -16.771058    -15.18714 -1.3132096e-15 6.9116294e-16 -4.1469776e-16   -7.6035155 
      20   -7.6035187        9.936       7.1126      71.1263            0            0            0   -16.131987   -16.427348   -16.773907   -15.194705 8.2939552e-16 -6.9116294e-16 -1.8661399e-15   -7.6035187 
      21    -7.603522        9.936       7.1126      71.1263            0            0            0   -16.137319   -16.432905   -16.776761   -15.202292 4.8381406e-16 -3.4558147e-16 -1.5205585e-15    -7.603522 
      22   -7.6035253        9.936       7.1126      71.1263            0            0            0   -16.142666   -16.438474   -16.779622   -15.209902 4.8381406e-16 -1.3823259e-16 1.7279073e-16   -7.6035253 
      23   -7.6035286        9.936       7.1126      71.1263            0            0            0   -16.148027   -16.444056   -16.782489   -15.217535            0 -5.5293035e-16 -3.4212565e-15   -7.6035286 
      24   -7.6035318        9.936       7.1126      71.1263            0            0            0   -16.153401   -16.449649   -16.785363   -15.225191 -1.1058607e-15 -6.2204664e-16 1.174977e-15   -7.6035318 
      25   -7.6035352        9.936       7.1126      71.1263            0            0            0    -16.15879   -16.455256   -16.788243   -15.232871 -6.9116294e-17 -6.2204664e-16 -2.6609773e-15   -7.6035352 
      26   -7.6035385        9.936       7.1126      71.1263            0            0            0   -16.164193   -16.460874   -16.791129   -15.240574 2.7646517e-16 -4.1469776e-16 -1.416884e-15   -7.6035385 
      27   -7.6035418        9.936       7.1126      71.1263            0            0            0    -16.16961   -16.466506   -16.794022   -15.248301 6.9116294e-17 -4.1469776e-16 -4.8381406e-15   -7.6035418 
      28   -7.6035451        9.936       7.1126      71.1263            0            0            0   -16.175041    -16.47215   -16.796922   -15.256052 1.3823259e-16 1.3132096e-15 1.3823259e-16   -7.6035451 
      29   -7.6035485        9.936       7.1126      71.1263            0            0            0   -16.180487   -16.477807   -16.799828   -15.263826 1.1058607e-15 -6.9116294e-17 -8.2939552e-16   -7.6035485 
      30   -7.6035518        9.936       7.1126      71.1263            0            0            0    -16.18594   -16.483468   -16.802736   -15.271614 -5.5293035e-16 6.2204664e-16 -3.2484658e-15   -7.6035518 
      31   -7.6035552        9.936       7.1126      71.1263            0            0            0   -16.191415   -16.489151   -16.805655   -15.279438 6.2204664e-16 -6.9116294e-17 1.1058607e-15   -7.6035552 
      32   -7.6035585        9.936       7.1126      71.1263            0            0            0   -16.196904   -16.494846   -16.808581   -15.287286 4.1469776e-16            0 -6.9116294e-17   -7.6035585 
      33   -7.6035619        9.936       7.1126      71.1263            0            0            0   -16.202409   -16.500555   -16.811514   -15.295159 4.8381406e-16 1.2440933e-15 1.1058607e-15   -7.6035619 
      34   -7.6035653        9.936       7.1126      71.1263            0            0            0   -16.207929   -16.506276   -16.814453   -15.303057 -1.3823259e-16 -6.9116294e-17 -2.3845121e-15   -7.6035653 
      35   -7.6035687        9.936       7.1126      71.1263            0            0            0   -16.213464   -16.512011   -16.817399   -15.310981 -3.4558147e-16            0 -1.0713026e-15   -7.6035687 
      36   -7.6035721        9.936       7.1126      71.1263            0            0            0   -16.219014   -16.517759   -16.820352   -15.318929 2.0734888e-15 2.7646517e-16 1.0021863e-15   -7.6035721 
      37   -7.6035755        9.936       7.1126      71.1263            0            0            0   -16.224579   -16.523521   -16.823312   -15.326904 -6.9116294e-17 6.9116294e-17 -6.5660479e-16   -7.6035755 
      38    -7.603579        9.936       7.1126      71.1263            0            0            0   -16.230159   -16.529296   -16.826278   -15.334904 -4.1469776e-16 -6.9116294e-17 6.5660479e-16    -7.603579 
      39   -7.6035824        9.936       7.1126      71.1263            0            0            0   -16.235756   -16.535084   -16.829252   -15.342931 1.174977e-15 -1.2440933e-15 1.3823259e-16   -7.6035824 
      40   -7.6035858        9.936       7.1126      71.1263            0            0            0   -16.241367   -16.540886   -16.832233   -15.350983 1.7279073e-15 6.9116294e-16 -6.5660479e-16   -7.6035858 
      41   -7.6035893        9.936       7.1126      71.1263            0            0            0   -16.246995   -16.546702    -16.83522   -15.359063 -5.5293035e-16 3.4558147e-16 -1.7624655e-15   -7.6035893 
      42   -7.6035928        9.936       7.1126      71.1263            0            0            0   -16.252638   -16.552531   -16.838215   -15.367169 -1.2440933e-15 -2.0734888e-16 -1.6933492e-15   -7.6035928 
      43   -7.6035963        9.936       7.1126      71.1263            0            0            0   -16.258297   -16.558374   -16.841217   -15.375301 4.1469776e-16 -4.1469776e-16 -5.0454894e-15   -7.6035963 
      44   -7.6035997        9.936       7.1126      71.1263            0            0            0   -16.263973   -16.564231   -16.844225   -15.383461 1.0367444e-15 -1.0367444e-15 -1.9006981e-15   -7.6035997 
      45   -7.6036032        9.936       7.1126      71.1263            0            0            0   -16.269664   -16.570102   -16.847242   -15.391649 8.2939552e-16 -3.4558147e-16 -4.1124195e-15   -7.6036032 
      46   -7.6036068        9.936       7.1126      71.1263            0            0            0   -16.275372   -16.575987   -16.850265   -15.399864 1.0367444e-15 1.3823259e-16 -3.9741869e-15   -7.6036068 
      47   -7.6036103        9.936       7.1126      71.1263            0            0            0   -16.281096   -16.581887   -16.853295   -15.408107 8.9851182e-16 1.1058607e-15 3.3175821e-15   -7.6036103 
      48   -7.6036138        9.936       7.1126      71.1263            0            0            0   -16.286837     -16.5878   -16.856333   -15.416378 -6.2204664e-16 1.2440933e-15 -1.7970236e-15   -7.6036138 
      49   -7.6036174        9.936       7.1126      71.1263            0            0            0   -16.292594   -16.593728   -16.859379   -15.424677 -8.2939552e-16 6.9116294e-17 6.9116294e-16   -7.6036174 
      50   -7.6036209        9.936       7.1126      71.1263            0            0            0   -16.298369    -16.59967   -16.862431   -15.433004 -8.9851182e-16 7.6027923e-16 -1.2786514e-15   -7.6036209 
      51   -7.6036245        9.936       7.1126      71.1263            0            0            0    -16.30416   -16.605627   -16.865491   -15.441361 6.2204664e-16 -9.6762811e-16 -1.2440933e-15   -7.6036245 
      52   -7.6036281        9.936       7.1126      71.1263            0            0            0   -16.309968   -16.611598   -16.868559   -15.449746 6.2204664e-16 -7.6027923e-16 -6.9116294e-16   -7.6036281 
      53   -7.6036317        9.936       7.1126      71.1263            0            0            0   -16.315793   -16.617584   -16.871634   -15.458161 -1.3132096e-15 1.3823259e-16 2.1426051e-15   -7.6036317 
      54   -7.6036353        9.936       7.1126      71.1263            0            0            0   -16.321636   -16.623585   -16.874717   -15.466605 -6.9116294e-17 2.0734888e-16 1.3823259e-15   -7.6036353 
      55   -7.6036389        9.936       7.1126      71.1263            0            0            0   -16.327496   -16.629601   -16.877807   -15.475079 -2.7646517e-16 2.0734888e-16 -2.7300936e-15   -7.6036389 
      56   -7.6036425        9.936       7.1126      71.1263            0            0            0   -16.333373   -16.635631   -16.880905   -15.483583 -1.174977e-15 2.7646517e-16 -7.6027923e-16   -7.6036425 
      57   -7.6036461        9.936       7.1126      71.1263            0            0            0   -16.339268   -16.641677   -16.884011   -15.492117 1.3823259e-15 4.1469776e-16 1.0713026e-15   -7.6036461 
      58   -7.6036498        9.936       7.1126      71.1263            0            0            0   -16.345181   -16.647737   -16.887124   -15.500682 2.0734888e-16 -6.9116294e-17 -1.3132096e-15   -7.6036498 
      59   -7.6036534        9.936       7.1126      71.1263            0            0            0   -16.351112   -16.653813   -16.890246   -15.509277 2.0734888e-16 -6.9116294e-17 2.2117214e-15   -7.6036534 
      60   -7.6036571        9.936       7.1126      71.1263            0            0            0   -16.357051   -16.659895    -16.89337    -15.51789 -5.5293035e-16 -5.5293035e-16 -3.524931e-15   -7.6036571 
      61   -7.6036608        9.936       7.1126      71.1263            0            0            0   -16.363019   -16.666001   -16.896507   -15.526548 -1.4514422e-15 -9.6762811e-16 -3.1102332e-15   -7.6036608 
      62   -7.6036645        9.936       7.1126      71.1263            0            0            0   -16.369004   -16.672123   -16.899652   -15.535237 6.9116294e-16 -1.5205585e-15            0   -7.6036645 
      63   -7.6036682        9.936       7.1126      71.1263            0            0            0   -16.375008   -16.678261   -16.902805   -15.543958 6.2204664e-16 -4.1469776e-16 3.1102332e-16   -7.6036682 
      64   -7.6036719        9.936       7.1126      71.1263            0            0            0   -16.381031   -16.684414   -16.905966   -15.552712 9.6762811e-16 8.9851182e-16 -1.0367444e-15   -7.6036719 
      65   -7.6036756        9.936       7.1126      71.1263            0            0            0   -16.387072   -16.690583   -16.909136   -15.561498 -2.7646517e-16 2.7646517e-16 -1.7279073e-15   -7.6036756 
      66   -7.6036794        9.936       7.1126      71.1263            0            0            0   -16.393133   -16.696768   -16.912313   -15.570316 -2.7646517e-16 -2.7646517e-16 -1.1058607e-15   -7.6036794 
      67   -7.6036831        9.936       7.1126      71.1263            0            0            0   -16.399209    -16.70297   -16.915495   -15.579164 8.2939552e-16 -2.0734888e-16 -1.0021863e-15   -7.6036831 
      68   -7.6036869        9.936       7.1126      71.1263            0            0            0   -16.405306   -16.709187   -16.918685   -15.588045 6.2204664e-16 6.9116294e-17 -2.2462795e-15   -7.6036869 
      69   -7.6036907        9.936       7.1126      71.1263            0            0            0   -16.411421    -16.71542   -16.921884    -15.59696 6.9116294e-17 9.6762811e-16 4.8381406e-16   -7.6036907 
      70   -7.6036945        9.936       7.1126      71.1263            0            0            0   -16.417556    -16.72167   -16.925091   -15.605909 -5.5293035e-16 3.4558147e-16 -3.1793495e-15   -7.6036945 
      71   -7.6036983        9.936       7.1126      71.1263            0            0            0   -16.423711   -16.727936   -16.928307   -15.614892            0 6.9116294e-16 2.5573029e-15   -7.6036983 
      72   -7.6037021        9.936       7.1126      71.1263            0            0            0   -16.429886   -16.734218   -16.931531   -15.623909 -3.4558147e-16 1.0367444e-15 3.4558147e-17   -7.6037021 
      73   -7.6037059        9.936       7.1126      71.1263            0            0            0   -16.436081   -16.740518   -16.934763   -15.632961 -6.2204664e-16 4.8381406e-16 -8.9851182e-16   -7.6037059 
      74   -7.6037098        9.936       7.1126      71.1263            0            0            0   -16.442295   -16.746833   -16.938004   -15.642049 4.8381406e-16 6.9116294e-17 -2.0734888e-15   -7.6037098 
      75   -7.6037136        9.936       7.1126      71.1263            0            0            0   -16.448531   -16.753166   -16.941254   -15.651171 4.1469776e-16 -2.7646517e-16 -4.1469776e-16   -7.6037136 
      76   -7.6037175        9.936       7.1126      71.1263            0            0            0   -16.454786   -16.759516   -16.944513    -15.66033 -6.9116294e-17 -1.4514422e-15 -2.0389307e-15   -7.6037175 
      77   -7.6037214        9.936       7.1126      71.1263            0            0            0   -16.461062   -16.765883    -16.94778   -15.669524 -6.9116294e-16 -5.5293035e-16 -2.7646517e-16   -7.6037214 
      78   -7.6037253        9.936       7.1126      71.1263            0            0            0   -16.467359   -16.772267   -16.951056   -15.678755 -7.6027923e-16 4.8381406e-16 -1.416884e-15   -7.6037253 
      79   -7.6037292        9.936       7.1126      71.1263            0            0            0   -16.473677   -16.778668   -16.954341   -15.688023 -9.6762811e-16 -1.2440933e-15 2.0734888e-15   -7.6037292 
      80   -7.6037332        9.936       7.1126      71.1263            0            0            0   -16.480016   -16.785087   -16.957635   -15.697327            0 -3.4558147e-16 5.5293035e-16   -7.6037332 
      81   -7.6037371        9.936       7.1126      71.1263            0            0            0   -16.486377   -16.791523   -16.960938    -15.70667 6.9116294e-16 -8.9851182e-16 -1.0021863e-15   -7.6037371 
      82   -7.6037411        9.936       7.1126      71.1263            0            0            0   -16.492759   -16.797977    -16.96425   -15.716049 7.6027923e-16 2.7646517e-16 1.0367444e-16   -7.6037411 
      83    -7.603745        9.936       7.1126      71.1263            0            0            0   -16.499162   -16.804448   -16.967571   -15.725467 2.0734888e-16 -2.0734888e-16 -8.9851182e-16    -7.603745 
      84    -7.603749        9.936       7.1126      71.1263            0            0            0   -16.505588   -16.810938   -16.970901   -15.734924 8.2939552e-16 3.4558147e-16 -3.4558147e-16    -7.603749 
      85    -7.603753        9.936       7.1126      71.1263            0            0            0   -16.512035   -16.817445   -16.974241   -15.744419 -1.3823259e-16 -2.0734888e-16 -2.591861e-15    -7.603753 
      86    -7.603757        9.936       7.1126      71.1263            0            0            0   -16.518505   -16.823971    -16.97759   -15.753954 1.4514422e-15            0 -1.9698144e-15    -7.603757 
      87   -7.6037611        9.936       7.1126      71.1263            0            0            0   -16.524997   -16.830514   -16.980948   -15.763528 -1.4514422e-15 -6.9116294e-17 -3.0756751e-15   -7.6037611 
      88   -7.6037651        9.936       7.1126      71.1263            0            0            0   -16.531511   -16.837077   -16.984316   -15.773141 2.0734888e-16 -1.2440933e-15 9.6762811e-16   -7.6037651 
      89   -7.6037692        9.936       7.1126      71.1263            0            0            0   -16.538049   -16.843657   -16.987693   -15.782796 8.9851182e-16 -1.3823259e-16 1.9698144e-15   -7.6037692 
      90   -7.6037732        9.936       7.1126      71.1263            0            0            0   -16.544597   -16.850244   -16.991073   -15.792472 8.2939552e-16 -1.3823259e-16 -2.2462795e-15   -7.6037732 
      91   -7.6037773        9.936       7.1126      71.1263            0            0            0    -16.55118   -16.856862    -16.99447   -15.802208 4.1469776e-16 6.9116294e-17            0   -7.6037773 
      92   -7.6037814        9.936       7.1126      71.1263            0            0            0   -16.557787   -16.863499   -16.997876   -15.811986            0 -3.4558147e-16 -8.2939552e-16   -7.6037814 
      93   -7.6037856        9.936       7.1126      71.1263            0            0            0   -16.564417   -16.870155   -17.001291   -15.821805 -2.7646517e-16 -4.8381406e-16 -2.6609773e-15   -7.6037856 
      94   -7.6037897        9.936       7.1126      71.1263            0            0            0   -16.571071    -16.87683   -17.004717   -15.831666 -1.1058607e-15 -4.1469776e-16 6.5660479e-16   -7.6037897 
      95   -7.6037939        9.936       7.1126      71.1263            0            0            0   -16.577749   -16.883524   -17.008152   -15.841571 -1.0367444e-15 2.7646517e-16 -2.0389307e-15   -7.6037939 
      96    -7.603798        9.936       7.1126      71.1263            0            0            0   -16.584451   -16.890238   -17.011598   -15.851518 4.8381406e-16            0 3.8013961e-16    -7.603798 
      97   -7.6038022        9.936       7.1126      71.1263            0            0            0   -16.591178   -16.896971   -17.015054   -15.861509 3.4558147e-16 -5.5293035e-16 -3.9741869e-15   -7.6038022 
      98   -7.6038064        9.936       7.1126      71.1263            0            0            0   -16.597929   -16.903724   -17.018519   -15.871544 -1.0367444e-15 -6.2204664e-16 -3.9396287e-15   -7.6038064 
      99   -7.6038106        9.936       7.1126      71.1263            0            0            0   -16.604705   -16.910497   -17.021995   -15.881623 3.4558147e-16 -4.8381406e-16 -1.658791e-15   -7.6038106 
     100   -7.6038149        9.936       7.1126      71.1263            0            0            0   -16.611506    -16.91729   -17.025481   -15.891747 3.4558147e-16 3.4558147e-16 -6.9116294e-16   -7.6038149 
     101   -7.6038191        9.936       7.1126      71.1263            0            0            0   -16.618332   -16.924102   -17.028978   -15.901916 -1.1058607e-15 6.9116294e-16 -2.0389307e-15   -7.6038191 
     102   -7.6038234        9.936       7.1126      71.1263            0            0            0   -16.625184   -16.930936   -17.032484   -15.912131 1.4514422e-15            0 -1.9698144e-15   -7.6038234 
     103   -7.6038277        9.936       7.1126      71.1263            0            0            0   -16.632061   -16.937789   -17.036002   -15.922392 1.3823259e-16 -1.3823259e-16 -5.5293035e-16   -7.6038277 
     104    -7.603832        9.936       7.1126      71.1263            0            0            0   -16.638964   -16.944663    -17.03953     -15.9327 -6.2204664e-16 -2.0734888e-16 1.5896748e-15    -7.603832 
     105   -7.6038363        9.936       7.1126      71.1263            0            0            0   -16.645893   -16.951558   -17.043068   -15.943054 1.2440933e-15 2.0734888e-16 -1.6933492e-15   -7.6038363 
     106   -7.6038406        9.936       7.1126      71.1263            0            0            0   -16.652849   -16.958474   -17.046617   -15.953457 4.1469776e-16 8.2939552e-16 -2.9028843e-15   -7.6038406 
     107    -7.603845        9.936       7.1126      71.1263            0            0            0   -16.659832    -16.96541   -17.050177   -15.963907 -6.9116294e-17 -6.9116294e-17 -6.9116294e-17    -7.603845 
     108   -7.6038494        9.936       7.1126      71.1263            0            0            0   -16.666841   -16.972368   -17.053748   -15.974406 -4.8381406e-16 -8.9851182e-16 -3.3175821e-15   -7.6038494 
     109   -7.6038538        9.936       7.1126      71.1263            0            0            0   -16.673877   -16.979347    -17.05733   -15.984954 2.7646517e-16 6.9116294e-17 -3.2830239e-15   -7.6038538 
     110   -7.6038582        9.936       7.1126      71.1263            0            0            0   -16.680941   -16.986348   -17.060923   -15.995551 -1.1058607e-15 6.9116294e-17 -3.1447914e-15   -7.6038582 
     111   -7.6038626        9.936       7.1126      71.1263            0            0            0   -16.688032    -16.99337   -17.064527   -16.006199 1.0367444e-15            0 -2.2808377e-15   -7.6038626 
     112   -7.6038671        9.936       7.1126      71.1263            0            0            0   -16.695151   -17.000414   -17.068142   -16.016897 -2.7646517e-16 -6.9116294e-17 -2.3153958e-15   -7.6038671 
     113   -7.6038715        9.936       7.1126      71.1263            0            0            0   -16.702298    -17.00748   -17.071769   -16.027646 9.6762811e-16 5.5293035e-16 -1.2786514e-15   -7.6038715 
     114    -7.603876        9.936       7.1126      71.1263            0            0            0   -16.709474   -17.014568   -17.075406   -16.038446 -6.9116294e-17 -6.9116294e-16 -4.5271172e-15    -7.603876 
     115   -7.6038805        9.936       7.1126      71.1263            0            0            0   -16.716678   -17.021679   -17.079056   -16.049299 -3.4558147e-16            0 3.8013961e-16   -7.6038805 
     116    -7.603885        9.936       7.1126      71.1263            0            0            0   -16.723911   -17.028812   -17.082717   -16.060204 -8.2939552e-16 1.3823259e-16 -3.3175821e-15    -7.603885 
     117   -7.6038896        9.936       7.1126      71.1263            0            0            0   -16.731173   -17.035967   -17.086389   -16.071163 -3.4558147e-16 -2.7646517e-16 -3.6286054e-15   -7.6038896 
     118   -7.6038942        9.936       7.1126      71.1263            0            0            0   -16.738465   -17.043145   -17.090073   -16.082175 -2.7646517e-16 -3.4558147e-16 -3.8705124e-15   -7.6038942 
     119   -7.6038987        9.936       7.1126      71.1263            0            0            0   -16.745786   -17.050347   -17.093769   -16.093242 -7.6027923e-16 1.0367444e-15 1.0367444e-16   -7.6038987 
     120   -7.6039033        9.936       7.1126      71.1263            0            0            0   -16.753121   -17.057555   -17.097469    -16.10434 2.0734888e-16            0 -5.0454894e-15   -7.6039033 
     121    -7.603908        9.936       7.1126      71.1263            0            0            0   -16.760503   -17.064803   -17.101189   -16.115516 -9.6762811e-16 -6.9116294e-17 -3.8013961e-16    -7.603908 
     122   -7.6039126        9.936       7.1126      71.1263            0            0            0   -16.767915   -17.072074   -17.104921   -16.126749 -4.1469776e-16 6.9116294e-17 -3.2484658e-15   -7.6039126 
     123   -7.6039173        9.936       7.1126      71.1263            0            0            0   -16.775358   -17.079369   -17.108665   -16.138039 -4.8381406e-16 -2.0734888e-16 8.2939552e-16   -7.6039173 
     124    -7.603922        9.936       7.1126      71.1263            0            0            0   -16.782832   -17.086688   -17.112421   -16.149386 -1.658791e-15 -9.6762811e-16 -3.7322799e-15    -7.603922 
     125   -7.6039267        9.936       7.1126      71.1263            0            0            0   -16.790338   -17.094031    -17.11619   -16.160791 -1.3823259e-16 2.7646517e-16 1.1058607e-15   -7.6039267 
     126   -7.6039314        9.936       7.1126      71.1263            0            0            0   -16.797875   -17.101398   -17.119972   -16.172255 -1.3823259e-16 -4.1469776e-16 -2.0389307e-15   -7.6039314 
     127   -7.6039361        9.936       7.1126      71.1263            0            0            0   -16.805444    -17.10879   -17.123765   -16.183777 1.3823259e-16 -4.8381406e-16 1.0713026e-15   -7.6039361 
     128   -7.6039409        9.936       7.1126      71.1263            0            0            0   -16.813046   -17.116206   -17.127572    -16.19536 -6.2204664e-16 -6.9116294e-17 3.8013961e-16   -7.6039409 
     129   -7.6039457        9.936       7.1126      71.1263            0            0            0    -16.82068   -17.123647   -17.131391   -16.207003 -1.2440933e-15 -2.0734888e-16 -2.4881866e-15   -7.6039457 
     130   -7.6039505        9.936       7.1126      71.1263            0            0            0   -16.828348   -17.131114   -17.135223   -16.218707 2.0734888e-16 -3.4558147e-16 -1.3823259e-16   -7.6039505 
     131   -7.6039554        9.936       7.1126      71.1263            0            0            0   -16.836049   -17.138605   -17.139068   -16.230472 -1.5896748e-15 6.2204664e-16 -6.2550246e-15   -7.6039554 
     132   -7.6039602        9.936       7.1126      71.1263            0            0            0   -16.843783   -17.146122   -17.142927     -16.2423 1.3823259e-16 -1.3823259e-15 -1.2095351e-15   -7.6039602 
     133   -7.6039651        9.936       7.1126      71.1263            0            0            0   -16.851551   -17.153665   -17.146798   -16.254192 -8.2939552e-16 -1.1058607e-15 -2.108047e-15   -7.6039651 
     134     -7.60397        9.936       7.1126      71.1263            0            0            0   -16.859354   -17.161233   -17.150683   -16.266147 3.4558147e-16 -7.6027923e-16 1.7279073e-16     -7.60397 
     135    -7.603975        9.936       7.1126      71.1263            0            0            0   -16.867192   -17.168828   -17.154581   -16.278167 -1.3132096e-15 -2.7646517e-16 -2.349954e-15    -7.603975 
     136   -7.6039799        9.936       7.1126      71.1263            0            0            0   -16.875064   -17.176448   -17.158492   -16.290252 2.7646517e-16 -5.5293035e-16 -2.4881866e-15   -7.6039799 
     137   -7.6039849        9.936       7.1126      71.1263            0            0            0   -16.882972   -17.184096   -17.162418   -16.302403 2.7646517e-16 6.9116294e-16 -7.9483738e-16   -7.6039849 
     138   -7.6039899        9.936       7.1126      71.1263            0            0            0   -16.890916    -17.19177   -17.166356   -16.314621 6.9116294e-16 -2.7646517e-16 1.1404188e-15   -7.6039899 
     139   -7.6039949        9.936       7.1126      71.1263            0            0            0   -16.898895   -17.199471   -17.170309   -16.326906 6.2204664e-16 -1.3823259e-15 -2.2808377e-15   -7.6039949 
     140       -7.604        9.936       7.1126      71.1263            0            0            0   -16.906912   -17.207199   -17.174276    -16.33926 6.9116294e-17 -6.9116294e-16 9.3306996e-16       -7.604 
     141    -7.604005        9.936       7.1126      71.1263            0            0            0   -16.914965   -17.214955   -17.178257   -16.351682 -6.9116294e-17            0 3.8013961e-16    -7.604005 
     142   -7.6040101        9.936       7.1126      71.1263            0            0            0   -16.923055   -17.222738   -17.182252   -16.364175 -1.3823259e-15            0 -2.5573029e-15   -7.6040101 
     143   -7.6040153        9.936       7.1126      71.1263            0            0            0   -16.931183   -17.230549   -17.186261   -16.376738 4.1469776e-16 5.5293035e-16 4.9072568e-15   -7.6040153 
     144   -7.6040204        9.936       7.1126      71.1263            0            0            0   -16.939349   -17.238388   -17.190285   -16.389373 -1.5896748e-15 4.8381406e-16 -1.6242329e-15   -7.6040204 
     145   -7.6040256        9.936       7.1126      71.1263            0            0            0   -16.947553   -17.246256   -17.194324    -16.40208            0 -8.9851182e-16 1.2095351e-15   -7.6040256 
     146   -7.6040308        9.936       7.1126      71.1263            0            0            0   -16.955796   -17.254152   -17.198377    -16.41486            0 9.6762811e-16 -5.5293035e-15   -7.6040308 
     147    -7.604036        9.936       7.1126      71.1263            0            0            0   -16.964078   -17.262077   -17.202445   -16.427714 -1.2440933e-15 -6.9116294e-17 -3.4903728e-15    -7.604036 
     148   -7.6040413        9.936       7.1126      71.1263            0            0            0     -16.9724   -17.270031   -17.206528   -16.440643 4.1469776e-16 1.3823259e-16 -3.5940473e-15   -7.6040413 
     149   -7.6040466        9.936       7.1126      71.1263            0            0            0   -16.980762   -17.278014   -17.210626   -16.453647 4.1469776e-16 6.2204664e-16 -2.9374425e-15   -7.6040466 
     150   -7.6040519        9.936       7.1126      71.1263            0            0            0   -16.989143   -17.286006   -17.214728   -16.466694 4.1469776e-16 -4.8381406e-16 -1.4514422e-15   -7.6040519 
     151   -7.6040572        9.936       7.1126      71.1263            0            0            0   -16.997586   -17.294049   -17.218856   -16.479853 8.9851182e-16 -1.5896748e-15 1.658791e-15   -7.6040572 
     152   -7.6040626        9.936       7.1126      71.1263            0            0            0   -17.006071   -17.302122      -17.223    -16.49309 -6.9116294e-17 -6.9116294e-17 -2.591861e-15   -7.6040626 
     153    -7.604068        9.936       7.1126      71.1263            0            0            0   -17.014597   -17.310225    -17.22716   -16.506406 1.3823259e-15 1.7970236e-15 -2.2462795e-15    -7.604068 
     154   -7.6040734        9.936       7.1126      71.1263            0            0            0   -17.023166   -17.318359   -17.231335   -16.519803 -4.1469776e-16 1.3823259e-16 -6.0822338e-15   -7.6040734 
     155   -7.6040789        9.936       7.1126      71.1263            0            0            0   -17.031777   -17.326524   -17.235527    -16.53328 -5.5293035e-16 6.9116294e-17 -4.5271172e-15   -7.6040789 
     156   -7.6040844        9.936       7.1126      71.1263            0            0            0   -17.040431    -17.33472   -17.239734    -16.54684 -1.3823259e-16 4.1469776e-16            0   -7.6040844 
     157   -7.6040899        9.936       7.1126      71.1263            0            0            0   -17.049129   -17.342947   -17.243957   -16.560484 -4.1469776e-16 -1.3823259e-16 -1.416884e-15   -7.6040899 
     158   -7.6040954        9.936       7.1126      71.1263            0            0            0   -17.057871   -17.351206   -17.248197   -16.574211 -1.7279073e-15 -4.8381406e-16 -1.3823259e-16   -7.6040954 
     159    -7.604101        9.936       7.1126      71.1263            0            0            0   -17.066658   -17.359498   -17.252453   -16.588024 -6.9116294e-16 -1.3823259e-16 -1.9352562e-15    -7.604101 
     160   -7.6041066        9.936       7.1126      71.1263            0            0            0    -17.07549   -17.367821   -17.256726   -16.601923 -7.6027923e-16            0 -2.349954e-15   -7.6041066 
     161   -7.6041122        9.936       7.1126      71.1263            0            0            0   -17.084368   -17.376177   -17.261016    -16.61591 5.5293035e-16 6.2204664e-16 5.5293035e-16   -7.6041122 
     162   -7.6041179        9.936       7.1126      71.1263            0            0            0   -17.093291   -17.384566   -17.265322   -16.629985 4.8381406e-16 -2.0734888e-16 -1.7970236e-15   -7.6041179 
     163   -7.6041236        9.936       7.1126      71.1263            0            0            0   -17.102261   -17.392989   -17.269646   -16.644149 7.6027923e-16 7.6027923e-16 -1.3477677e-15   -7.6041236 
     164   -7.6041293        9.936       7.1126      71.1263            0            0            0   -17.111278   -17.401444   -17.273987   -16.658405 -7.6027923e-16            0 -5.5293035e-16   -7.6041293 
     165   -7.6041351        9.936       7.1126      71.1263            0            0            0   -17.120343   -17.409934   -17.278345   -16.672751 1.4514422e-15 1.2440933e-15 2.833768e-15   -7.6041351 
     166   -7.6041409        9.936       7.1126      71.1263            0            0            0   -17.129457   -17.418458   -17.282721   -16.687191 -4.8381406e-16 2.0734888e-16 -6.9116294e-17   -7.6041409 
     167   -7.6041467        9.936       7.1126      71.1263            0            0            0   -17.138619   -17.427016   -17.287114   -16.701725 6.2204664e-16 -5.5293035e-16 1.9006981e-15   -7.6041467 
     168   -7.6041526        9.936       7.1126      71.1263            0            0            0    -17.14783   -17.435609   -17.291526   -16.716355 -7.6027923e-16 -2.0734888e-16 -3.4558147e-16   -7.6041526 
     169   -7.6041585        9.936       7.1126      71.1263            0            0            0   -17.157091   -17.444237   -17.295955    -16.73108 -1.3823259e-16 7.6027923e-16 -2.7992099e-15   -7.6041585 
     170   -7.6041644        9.936       7.1126      71.1263            0            0            0   -17.166403   -17.452901   -17.300403   -16.745904 -4.1469776e-16 -1.7970236e-15 -6.5660479e-16   -7.6041644 
     171   -7.6041704        9.936       7.1126      71.1263            0            0            0   -17.175765   -17.461601   -17.304869   -16.760826 4.1469776e-16 3.4558147e-16 1.2440933e-15   -7.6041704 
     172   -7.6041764        9.936       7.1126      71.1263            0            0            0    -17.18518   -17.470336   -17.309354   -16.775849 -8.2939552e-16 -3.4558147e-16 3.8013961e-15   -7.6041764 
     173   -7.6041824        9.936       7.1126      71.1263            0            0            0   -17.194646   -17.479108   -17.313857   -16.790973 5.5293035e-16 1.3823259e-16 -1.9006981e-15   -7.6041824 
     174   -7.6041885        9.936       7.1126      71.1263            0            0            0   -17.204166   -17.487917   -17.318379     -16.8062 -1.2440933e-15            0 -1.2440933e-15   -7.6041885 
     175   -7.6041946        9.936       7.1126      71.1263            0            0            0   -17.213739   -17.496763   -17.322921   -16.821531 1.3823259e-16 -6.9116294e-17 -8.9851182e-16   -7.6041946 
     176   -7.6042008        9.936       7.1126      71.1263            0            0            0   -17.223366   -17.505647   -17.327482   -16.836968 1.2440933e-15 2.0734888e-16 -2.0389307e-15   -7.6042008 
     177   -7.6042069        9.936       7.1126      71.1263            0            0            0   -17.233047   -17.514568   -17.332062   -16.852512 -1.3132096e-15 7.6027923e-16 -1.3823259e-16   -7.6042069 
     178   -7.6042132        9.936       7.1126      71.1263            0            0            0   -17.242785   -17.523528   -17.336662   -16.868163 -6.2204664e-16 1.5205585e-15 -3.2139077e-15   -7.6042132 
     179   -7.6042194        9.936       7.1126      71.1263            0            0            0   -17.252578   -17.532527   -17.341282   -16.883925 6.9116294e-17 -1.2440933e-15 -2.7646517e-16   -7.6042194 
     180   -7.6042257        9.936       7.1126      71.1263            0            0            0   -17.262398   -17.541536   -17.345908   -16.899749 6.2204664e-16 2.7646517e-16 -3.6631636e-15   -7.6042257 
     181    -7.604232        9.936       7.1126      71.1263            0            0            0   -17.272305   -17.550613   -17.350568   -16.915733 -5.5293035e-16 -5.5293035e-16 -2.9720006e-15    -7.604232 
     182   -7.6042384        9.936       7.1126      71.1263            0            0            0    -17.28227    -17.55973   -17.355249   -16.931832 -7.6027923e-16 2.7646517e-16 3.3175821e-15   -7.6042384 
     183   -7.6042448        9.936       7.1126      71.1263            0            0            0   -17.292295   -17.568887    -17.35995   -16.948047 -3.4558147e-16 4.8381406e-16 6.5660479e-16   -7.6042448 
     184   -7.6042513        9.936       7.1126      71.1263            0            0            0   -17.302379   -17.578084   -17.364672   -16.964379 -4.8381406e-16 1.5896748e-15 6.2204664e-16   -7.6042513 
     185   -7.6042578        9.936       7.1126      71.1263            0            0            0   -17.312523   -17.587323   -17.369416    -16.98083 8.2939552e-16 -3.4558147e-16 -2.0043725e-15   -7.6042578 
     186   -7.6042644        9.936       7.1126      71.1263            0            0            0   -17.322728   -17.596603    -17.37418   -16.997401 1.3823259e-15 -3.4558147e-16 4.4925591e-16   -7.6042644 
     187   -7.6042709        9.936       7.1126      71.1263            0            0            0   -17.332995   -17.605925   -17.378967   -17.014095 -8.2939552e-16 -6.9116294e-17 -1.4860003e-15   -7.6042709 
     188   -7.6042776        9.936       7.1126      71.1263            0            0            0   -17.343325   -17.615289   -17.383775   -17.030912 2.0043725e-15 6.9116294e-16 -1.9698144e-15   -7.6042776 
     189   -7.6042842        9.936       7.1126      71.1263            0            0            0   -17.353718   -17.624696   -17.388605   -17.047854 1.1058607e-15 3.4558147e-16 6.2204664e-16   -7.6042842 
     190    -7.604291        9.936       7.1126      71.1263            0            0            0   -17.364176   -17.634147   -17.393457   -17.064924 -1.8661399e-15 1.3823259e-16 6.2204664e-16    -7.604291 
     191   -7.6042977        9.936       7.1126      71.1263            0            0            0   -17.374698   -17.643641   -17.398332   -17.082122 -2.0734888e-16 6.9116294e-17 -1.0713026e-15   -7.6042977 
     192   -7.6043045        9.936       7.1126      71.1263            0            0            0   -17.385286   -17.653179   -17.403229   -17.099451 -2.0734888e-16 1.2440933e-15 -9.3306996e-16   -7.6043045 
     193   -7.6043114        9.936       7.1126      71.1263            0            0            0   -17.395941   -17.662761    -17.40815   -17.116913 -8.2939552e-16 1.3823259e-16 -7.2572108e-16   -7.6043114 
     194   -7.6043183        9.936       7.1126      71.1263            0            0            0   -17.406664   -17.672389   -17.413093   -17.134509 4.1469776e-16 1.0367444e-15 -2.4536284e-15   -7.6043183 
     195   -7.6043252        9.936       7.1126      71.1263            0            0            0   -17.417454   -17.682062    -17.41806   -17.152241 -2.0734888e-16 -2.0734888e-16 -2.7992099e-15   -7.6043252 
     196   -7.6043322        9.936       7.1126      71.1263            0            0            0   -17.428314   -17.691781   -17.423051   -17.170111 5.5293035e-16 5.5293035e-16 -6.4969316e-15   -7.6043322 
     197   -7.6043393        9.936       7.1126      71.1263            0            0            0   -17.439245   -17.701547   -17.428065   -17.188122            0 6.9116294e-17 1.3823259e-16   -7.6043393 
     198   -7.6043464        9.936       7.1126      71.1263            0            0            0   -17.450246   -17.711359   -17.433104   -17.206275 -4.8381406e-16 6.2204664e-16 -9.3306996e-16   -7.6043464 
     199   -7.6043535        9.936       7.1126      71.1263            0            0            0   -17.461319   -17.721219   -17.438167   -17.224571 6.2204664e-16 -4.1469776e-16 -3.8705124e-15   -7.6043535 
     200   -7.6043607        9.936       7.1126      71.1263            0            0            0   -17.472466   -17.731127   -17.443255   -17.243015 5.5293035e-16 -8.2939552e-16 1.174977e-15   -7.6043607 
     201    -7.604368        9.936       7.1126      71.1263            0            0            0   -17.483686   -17.741084   -17.448368   -17.261606 5.5293035e-16 -5.5293035e-16 3.7322799e-15    -7.604368 
     202   -7.6043753        9.936       7.1126      71.1263            0            0            0   -17.494981    -17.75109   -17.453506   -17.280348 1.4514422e-15 -6.2204664e-16 -2.349954e-15   -7.6043753 
     203   -7.6043826        9.936       7.1126      71.1263            0            0            0   -17.506352   -17.761145   -17.458669   -17.299242 -9.6762811e-16            0 -3.6286054e-15   -7.6043826 
     204     -7.60439        9.936       7.1126      71.1263            0            0            0     -17.5178   -17.771251   -17.463859   -17.318292 -1.3823259e-15 1.3823259e-16 -5.0109313e-15     -7.60439 
     205   -7.6043975        9.936       7.1126      71.1263            0            0            0   -17.529327   -17.781407   -17.469074   -17.337499 -8.2939552e-16 8.9851182e-16 -5.9094431e-15   -7.6043975 
     206    -7.604405        9.936       7.1126      71.1263            0            0            0   -17.540932   -17.791614   -17.474316   -17.356865 -4.8381406e-16 8.2939552e-16 4.8381406e-16    -7.604405 
     207   -7.6044126        9.936       7.1126      71.1263            0            0            0   -17.552617   -17.801874   -17.479585   -17.376393 5.5293035e-16 2.0734888e-16 8.2939552e-16   -7.6044126 
     208   -7.6044202        9.936       7.1126      71.1263            0            0            0   -17.564384   -17.812185    -17.48488   -17.396085 8.2939552e-16 2.0734888e-16 -5.874885e-16   -7.6044202 
     209   -7.6044279        9.936       7.1126      71.1263            0            0            0   -17.576233    -17.82255   -17.490203   -17.415944 3.4558147e-16 -5.5293035e-16 -1.0021863e-15   -7.6044279 
     210   -7.6044356        9.936       7.1126      71.1263            0            0            0    -17.58812    -17.83293   -17.495533   -17.435897 7.6027923e-16 2.7646517e-16 -8.9851182e-16   -7.6044356 
     211   -7.6044434        9.936       7.1126      71.1263            0            0            0   -17.600137   -17.843402   -17.500912   -17.456096 6.9116294e-17 4.1469776e-16 4.2852102e-15   -7.6044434 
     212   -7.6044512        9.936       7.1126      71.1263            0            0            0   -17.612239   -17.853929   -17.506318    -17.47647 -8.2939552e-16 -6.9116294e-16 -3.1447914e-15   -7.6044512 
     213   -7.6044591        9.936       7.1126      71.1263            0            0            0   -17.624429   -17.864512   -17.511753   -17.497021 -6.9116294e-17 -2.7646517e-16 -5.5293035e-16   -7.6044591 
     214   -7.6044671        9.936       7.1126      71.1263            0            0            0   -17.636707   -17.875151   -17.517218   -17.517752 8.2939552e-16 -6.2204664e-16 -3.5940473e-15   -7.6044671 
     215   -7.6044752        9.936       7.1126      71.1263            0            0            0   -17.649074   -17.885847    -17.52271   -17.538665 2.0734888e-16 2.0043725e-15 -2.1426051e-15   -7.6044752 
     216   -7.6044833        9.936       7.1126      71.1263            0            0            0   -17.661531   -17.896601   -17.528232   -17.559762 7.6027923e-16 6.9116294e-17 2.2117214e-15   -7.6044833 
     217   -7.6044914        9.936       7.1126      71.1263            0            0            0   -17.674081   -17.907412   -17.533783   -17.581047 4.8381406e-16 1.3823259e-16 -1.0367444e-16   -7.6044914 
     218   -7.6044997        9.936       7.1126      71.1263            0            0            0   -17.686724   -17.918283   -17.539365   -17.602524 -9.6762811e-16 2.7646517e-16 -3.9741869e-15   -7.6044997 
     219    -7.604508        9.936       7.1126      71.1263            0            0            0   -17.699462   -17.929213   -17.544978   -17.624195 -4.8381406e-16 3.4558147e-16 1.8315818e-15    -7.604508 
     220   -7.6045164        9.936       7.1126      71.1263            0            0            0   -17.712296   -17.940203   -17.550622   -17.646063 2.0734888e-16 6.9116294e-16 6.9116294e-17   -7.6045164 
     221   -7.6045248        9.936       7.1126      71.1263            0            0            0   -17.725228   -17.951254   -17.556297   -17.668132 6.9116294e-16 -3.4558147e-16 -4.5962335e-15   -7.6045248 
     222   -7.6045333        9.936       7.1126      71.1263            0            0            0   -17.738258   -17.962367   -17.562004   -17.690404 -6.9116294e-17 6.9116294e-17 -2.6609773e-15   -7.6045333 
     223   -7.6045419        9.936       7.1126      71.1263            0            0            0   -17.751389   -17.973543   -17.567743   -17.712882 -1.3823259e-16 -2.7646517e-16 -1.5551166e-15   -7.6045419 
     224   -7.6045505        9.936       7.1126      71.1263            0            0            0   -17.764622   -17.984782   -17.573514   -17.735571 -4.8381406e-16            0 -3.6631636e-15   -7.6045505 
     225   -7.6045592        9.936       7.1126      71.1263            0            0            0   -17.777959   -17.996084   -17.579319   -17.758473 2.0734888e-16 -3.4558147e-16 -2.6609773e-15   -7.6045592 
     226    -7.604568        9.936       7.1126      71.1263            0            0            0     -17.7914   -18.007452   -17.585157   -17.781592 4.8381406e-16 -4.8381406e-16 -5.2182802e-15    -7.604568 
     227   -7.6045769        9.936       7.1126      71.1263            0            0            0   -17.804948   -18.018885   -17.591029   -17.804931 4.1469776e-16 6.9116294e-17 -2.9028843e-15   -7.6045769 
     228   -7.6045859        9.936       7.1126      71.1263            0            0            0   -17.818605   -18.030385   -17.596935   -17.828494 -8.2939552e-16 2.0734888e-16 -3.9396287e-15   -7.6045859 
     229   -7.6045949        9.936       7.1126      71.1263            0            0            0   -17.832371   -18.041952   -17.602875   -17.852285 9.6762811e-16 -2.7646517e-16 -1.174977e-15   -7.6045949 
     230    -7.604604        9.936       7.1126      71.1263            0            0            0   -17.846248   -18.053587   -17.608851   -17.876308 2.0734888e-16            0 1.3132096e-15    -7.604604 
     231   -7.6046132        9.936       7.1126      71.1263            0            0            0   -17.860239   -18.065291   -17.614862   -17.900565 -2.7646517e-16 -6.9116294e-17 -5.7712105e-15   -7.6046132 
     232   -7.6046224        9.936       7.1126      71.1263            0            0            0   -17.874345   -18.077065   -17.620909   -17.925062 1.3823259e-16 -7.6027923e-16 -7.9483738e-16   -7.6046224 
     233   -7.6046318        9.936       7.1126      71.1263            0            0            0   -17.888568    -18.08891   -17.626993   -17.949802 -2.0734888e-16 -7.6027923e-16 -4.699908e-15   -7.6046318 
     234   -7.6046412        9.936       7.1126      71.1263            0            0            0    -17.90291   -18.100826   -17.633114   -17.974789 1.7279073e-15 8.9851182e-16 -4.8726987e-15   -7.6046412 
     235   -7.6046507        9.936       7.1126      71.1263            0            0            0   -17.917372   -18.112815   -17.639272   -18.000028 3.4558147e-16 -6.9116294e-17 -1.3823259e-16   -7.6046507 
     236   -7.6046603        9.936       7.1126      71.1263            0            0            0   -17.931956   -18.124878   -17.645467   -18.025522 -1.2440933e-15 -6.9116294e-16 -4.4925591e-16   -7.6046603 
     237     -7.60467        9.936       7.1126      71.1263            0            0            0   -17.946664   -18.137015   -17.651702   -18.051277 -1.0367444e-15 -5.5293035e-16 -7.9483738e-16     -7.60467 
     238   -7.6046798        9.936       7.1126      71.1263            0            0            0   -17.961499   -18.149228   -17.657975   -18.077296 1.3823259e-16 -7.6027923e-16 -1.1058607e-15   -7.6046798 
     239   -7.6046896        9.936       7.1126      71.1263            0            0            0   -17.976463   -18.161517   -17.664287   -18.103584 -8.9851182e-16 -2.0734888e-16 -2.8683262e-15   -7.6046896 
     240   -7.6046995        9.936       7.1126      71.1263            0            0            0   -17.991486   -18.173826    -17.67061   -18.130023 4.1469776e-16 -5.5293035e-16 -4.4234428e-15   -7.6046995 
     241   -7.6047096        9.936       7.1126      71.1263            0            0            0   -18.006711    -18.18627   -17.677003   -18.156861 -3.4558147e-16 -3.4558147e-16 -1.7970236e-15   -7.6047096 
     242   -7.6047197        9.936       7.1126      71.1263            0            0            0   -18.022072   -18.198795   -17.683436   -18.183984 1.5205585e-15 -2.7646517e-16 -2.1426051e-15   -7.6047197 
     243     -7.60473        9.936       7.1126      71.1263            0            0            0   -18.037569     -18.2114   -17.689912   -18.211395 -1.658791e-15 -4.1469776e-16 6.9116294e-17     -7.60473 
     244   -7.6047403        9.936       7.1126      71.1263            0            0            0   -18.053205   -18.224087   -17.696429     -18.2391 1.174977e-15 -4.8381406e-16 -1.0367444e-15   -7.6047403 
     245   -7.6047508        9.936       7.1126      71.1263            0            0            0   -18.068983   -18.236857   -17.702989   -18.267103 3.4558147e-16 9.6762811e-16 4.4925591e-16   -7.6047508 
     246   -7.6047613        9.936       7.1126      71.1263            0            0            0   -18.084905   -18.249711   -17.709592   -18.295411 -1.9352562e-15 -6.9116294e-17 -8.9851182e-16   -7.6047613 
     247    -7.604772        9.936       7.1126      71.1263            0            0            0   -18.100973    -18.26265    -17.71624   -18.324028 -5.5293035e-16 -2.0734888e-16 -2.4190703e-15    -7.604772 
     248   -7.6047827        9.936       7.1126      71.1263            0            0            0   -18.117189   -18.275676   -17.722932   -18.352961 1.3823259e-16 -5.5293035e-16 -6.9116294e-16   -7.6047827 
     249   -7.6047936        9.936       7.1126      71.1263            0            0            0   -18.133557   -18.288789   -17.729669   -18.382214 8.2939552e-16 -3.4558147e-16 -5.2873965e-15   -7.6047936 
     250   -7.6048045        9.936       7.1126      71.1263            0            0            0   -18.150079   -18.301991   -17.736451   -18.411795 1.0367444e-15 -6.9116294e-17 2.9720006e-15   -7.6048045 
     251   -7.6048156        9.936       7.1126      71.1263            0            0            0   -18.166757   -18.315283   -17.743281   -18.441708 6.9116294e-16 -4.1469776e-16 -3.3175821e-15   -7.6048156 
     252   -7.6048268        9.936       7.1126      71.1263            0            0            0   -18.183595   -18.328667   -17.750157    -18.47196 6.2204664e-16 4.1469776e-16 3.4558147e-15   -7.6048268 
     253   -7.6048381        9.936       7.1126      71.1263            0            0            0   -18.200594   -18.342144   -17.757081   -18.502558 1.3823259e-16 1.3823259e-16 -2.5573029e-15   -7.6048381 
     254   -7.6048496        9.936       7.1126      71.1263            0            0            0   -18.217758   -18.355714   -17.764054   -18.533507 -6.2204664e-16 -1.0367444e-15 -1.3823259e-16   -7.6048496 
     255   -7.6048611        9.936       7.1126      71.1263            0            0            0    -18.23509    -18.36938   -17.771075   -18.564815 -4.1469776e-16 -1.0367444e-15 -1.5551166e-15   -7.6048611 
     256   -7.6048728        9.936       7.1126      71.1263            0            0            0   -18.252593   -18.383143   -17.778147   -18.596488 -2.0734888e-16 7.6027923e-16 -3.0756751e-15   -7.6048728 
     257   -7.6048846        9.936       7.1126      71.1263            0            0            0   -18.270269   -18.397004   -17.785269   -18.628533 1.7970236e-15 -1.3823259e-16 2.7646517e-16   -7.6048846 
     258   -7.6048965        9.936       7.1126      71.1263            0            0            0   -18.288122   -18.410964   -17.792443   -18.660958 -1.3823259e-16 -4.1469776e-16 -3.4558147e-15   -7.6048965 
     259   -7.6049085        9.936       7.1126      71.1263            0            0            0   -18.306155   -18.425026   -17.799668   -18.693769 3.4558147e-16 -4.8381406e-16 -2.4190703e-16   -7.6049085 
     260   -7.6049207        9.936       7.1126      71.1263            0            0            0   -18.324371   -18.439191   -17.806947   -18.726974 8.9851182e-16 8.9851182e-16 -1.2786514e-15   -7.6049207 
     261    -7.604933        9.936       7.1126      71.1263            0            0            0   -18.342773    -18.45346   -17.814279   -18.760581            0 -7.6027923e-16 -3.7322799e-15    -7.604933 
     262   -7.6049455        9.936       7.1126      71.1263            0            0            0   -18.361366   -18.467834   -17.821666   -18.794598 4.8381406e-16 5.5293035e-16 -3.4558147e-17   -7.6049455 
     263   -7.6049581        9.936       7.1126      71.1263            0            0            0   -18.380152   -18.482316   -17.829109   -18.829032 5.5293035e-16 -8.2939552e-16 -4.8381406e-16   -7.6049581 
     264   -7.6049708        9.936       7.1126      71.1263            0            0            0   -18.399136   -18.496908   -17.836607   -18.863893 -2.0734888e-16 9.6762811e-16 -1.6933492e-15   -7.6049708 
     265   -7.6049837        9.936       7.1126      71.1263            0            0            0    -18.41832   -18.511609   -17.844163   -18.899187 1.1058607e-15 1.0367444e-15 -8.2939552e-16   -7.6049837 
     266   -7.6049967        9.936       7.1126      71.1263            0            0            0   -18.437709   -18.526424   -17.851776   -18.934926 1.3132096e-15 -4.1469776e-16 -5.183722e-16   -7.6049967 
     267   -7.6050098        9.936       7.1126      71.1263            0            0            0   -18.457306   -18.541353   -17.859449   -18.971116 -2.1426051e-15 4.8381406e-16 -1.9698144e-15   -7.6050098 
     268   -7.6050232        9.936       7.1126      71.1263            0            0            0   -18.477115   -18.556397   -17.867181   -19.007768 1.2440933e-15 6.9116294e-17 -4.4925591e-16   -7.6050232 
     269   -7.6050366        9.936       7.1126      71.1263            0            0            0   -18.497142    -18.57156   -17.874974   -19.044891 6.2204664e-16 6.2204664e-16 8.9851182e-16   -7.6050366 
     270   -7.6050502        9.936       7.1126      71.1263            0            0            0    -18.51727   -18.586753   -17.882783   -19.082273 -1.3823259e-16 -8.2939552e-16 -1.2440933e-15   -7.6050502 
     271    -7.605064        9.936       7.1126      71.1263            0            0            0   -18.537739   -18.602155     -17.8907   -19.120362 -1.2440933e-15 -2.7646517e-16 -2.3153958e-15    -7.605064 
     272    -7.605078        9.936       7.1126      71.1263            0            0            0   -18.558439   -18.617682    -17.89868   -19.158953 5.5293035e-16 -4.1469776e-16 -5.1146057e-15    -7.605078 
     273   -7.6050921        9.936       7.1126      71.1263            0            0            0   -18.579372   -18.633335   -17.906726   -19.198056 -4.1469776e-16 6.2204664e-16 1.5896748e-15   -7.6050921 
     274   -7.6051064        9.936       7.1126      71.1263            0            0            0   -18.600544   -18.649115   -17.914838   -19.237681 2.0734888e-16 -6.9116294e-16 7.6027923e-16   -7.6051064 
     275   -7.6051209        9.936       7.1126      71.1263            0            0            0    -18.62196   -18.665025   -17.923016   -19.277838 -6.9116294e-16 1.3823259e-16 -1.7970236e-15   -7.6051209 
     276   -7.6051355        9.936       7.1126      71.1263            0            0            0   -18.643623   -18.681067   -17.931263    -19.31854 -6.9116294e-17 -9.6762811e-16 -2.0043725e-15   -7.6051355 
     277   -7.6051504        9.936       7.1126      71.1263            0            0            0    -18.66554   -18.697243   -17.939578   -19.359799 6.2204664e-16 -7.6027923e-16 -1.7279073e-15   -7.6051504 
     278   -7.6051654        9.936       7.1126      71.1263            0            0            0   -18.687715   -18.713556   -17.947964   -19.401626 -6.2204664e-16 3.4558147e-16 -4.699908e-15   -7.6051654 
     279   -7.6051806        9.936       7.1126      71.1263            0            0            0   -18.710154   -18.730007   -17.956422   -19.444033 1.1058607e-15            0 -1.3823259e-16   -7.6051806 
     280    -7.605196        9.936       7.1126      71.1263            0            0            0   -18.732862   -18.746599   -17.964952   -19.487034 -7.6027923e-16 4.8381406e-16 -5.5293035e-16    -7.605196 
     281   -7.6052117        9.936       7.1126      71.1263            0            0            0   -18.755844   -18.763335   -17.973556   -19.530641 -1.2440933e-15 1.1058607e-15 -1.7279073e-15   -7.6052117 
     282   -7.6052275        9.936       7.1126      71.1263            0            0            0   -18.779107   -18.780217   -17.982236   -19.574869            0 -1.5896748e-15 -4.7690243e-15   -7.6052275 
     283   -7.6052435        9.936       7.1126      71.1263            0            0            0   -18.802656   -18.797247   -17.990992    -19.61973 1.3823259e-15 -2.0734888e-16 6.9116294e-16   -7.6052435 
     284   -7.6052597        9.936       7.1126      71.1263            0            0            0   -18.826498   -18.814429   -17.999826    -19.66524 -1.3823259e-15 8.2939552e-16 -8.2939552e-15   -7.6052597 
     285   -7.6052762        9.936       7.1126      71.1263            0            0            0   -18.850639   -18.831764   -18.008739   -19.711412 -5.5293035e-16 -2.7646517e-16 -6.2204664e-16   -7.6052762 
     286   -7.6052929        9.936       7.1126      71.1263            0            0            0   -18.875084   -18.849256   -18.017733   -19.758263 5.5293035e-16 -6.2204664e-16 -1.8661399e-15   -7.6052929 
     287   -7.6053098        9.936       7.1126      71.1263            0            0            0   -18.899842   -18.866907    -18.02681   -19.805808 1.3823259e-16 4.1469776e-16 -2.833768e-15   -7.6053098 
     288   -7.6053269        9.936       7.1126      71.1263            0            0            0   -18.924917    -18.88472    -18.03597   -19.854063 -1.3823259e-15 -6.9116294e-16 -5.3910709e-15   -7.6053269 
     289   -7.6053443        9.936       7.1126      71.1263            0            0            0   -18.950319   -18.902698   -18.045215   -19.903044 -2.0734888e-16 4.8381406e-16 -2.7646517e-15   -7.6053443 
     290   -7.6053619        9.936       7.1126      71.1263            0            0            0   -18.976054   -18.920845   -18.054546    -19.95277 -6.9116294e-16 6.9116294e-17 -1.174977e-15   -7.6053619 
     291   -7.6053798        9.936       7.1126      71.1263            0            0            0   -19.002128   -18.939162   -18.063967   -20.003256 1.8661399e-15 -1.174977e-15 -4.4234428e-15   -7.6053798 
     292   -7.6053979        9.936       7.1126      71.1263            0            0            0   -19.028551   -18.957654   -18.073477   -20.054522 8.9851182e-16 -7.6027923e-16 -3.1793495e-15   -7.6053979 
     293   -7.6054163        9.936       7.1126      71.1263            0            0            0    -19.05533   -18.976324   -18.083079   -20.106587 4.8381406e-16 -2.0734888e-16 -2.5573029e-15   -7.6054163 
     294   -7.6054349        9.936       7.1126      71.1263            0            0            0   -19.082473   -18.995175   -18.092774   -20.159469 -1.1058607e-15 -4.1469776e-16 -2.0043725e-15   -7.6054349 
     295   -7.6054538        9.936       7.1126      71.1263            0            0            0   -19.109988    -19.01421   -18.102564   -20.213189 4.1469776e-16 1.3132096e-15 -4.9763731e-15   -7.6054538 
     296    -7.605473        9.936       7.1126      71.1263            0            0            0   -19.137884   -19.033433   -18.112452   -20.267768 -1.4514422e-15 -1.3823259e-16 -4.2160939e-15    -7.605473 
     297   -7.6054925        9.936       7.1126      71.1263            0            0            0   -19.166171   -19.052848   -18.122438   -20.323227 1.3823259e-15 6.2204664e-16 -1.9352562e-15   -7.6054925 
     298   -7.6055123        9.936       7.1126      71.1263            0            0            0   -19.194856   -19.072458   -18.132525   -20.379587 5.5293035e-16 -6.9116294e-17 -4.3543265e-15   -7.6055123 
     299   -7.6055324        9.936       7.1126      71.1263            0            0            0   -19.223951   -19.092267   -18.142715   -20.436872 -4.8381406e-16 -6.9116294e-17 -1.5205585e-15   -7.6055324 
     300   -7.6055526        9.936       7.1126      71.1263            0            0            0   -19.253239   -19.112126   -18.152931    -20.49466 -1.3823259e-16 -1.3823259e-15 -5.3910709e-15   -7.6055526 
     301   -7.6055733        9.936       7.1126      71.1263            0            0            0   -19.283175   -19.132342   -18.163331   -20.553852 7.6027923e-16 -3.4558147e-16 -1.3823259e-15   -7.6055733 
     302   -7.6055944        9.936       7.1126      71.1263            0            0            0   -19.313553   -19.152771   -18.173841   -20.614047 -5.5293035e-16 1.5896748e-15 4.2852102e-15   -7.6055944 
     303   -7.6056157        9.936       7.1126      71.1263            0            0            0   -19.344381   -19.173415   -18.184462   -20.675266 -1.7970236e-15            0 -4.1469776e-16   -7.6056157 
     304   -7.6056374        9.936       7.1126      71.1263            0            0            0    -19.37567   -19.194279   -18.195196   -20.737535 5.5293035e-16 7.6027923e-16 -3.9396287e-15   -7.6056374 
     305   -7.6056595        9.936       7.1126      71.1263            0            0            0   -19.407432   -19.215368   -18.206046   -20.800882 -1.5896748e-15 5.5293035e-16 -6.0131175e-15   -7.6056595 
     306   -7.6056819        9.936       7.1126      71.1263            0            0            0   -19.439679   -19.236686   -18.217015   -20.865336            0 -4.1469776e-16 7.6027923e-16   -7.6056819 
     307   -7.6057047        9.936       7.1126      71.1263            0            0            0   -19.472423   -19.258237   -18.228104   -20.930927 6.2204664e-16 -1.0367444e-15 2.7646517e-16   -7.6057047 
     308   -7.6057278        9.936       7.1126      71.1263            0            0            0   -19.505677   -19.280027   -18.239317   -20.997685 -6.9116294e-17 -3.4558147e-16 -4.8381406e-16   -7.6057278 
     309   -7.6057514        9.936       7.1126      71.1263            0            0            0   -19.539454   -19.302061   -18.250656   -21.065644 -1.2440933e-15            0 -3.8705124e-15   -7.6057514 
     310   -7.6057753        9.936       7.1126      71.1263            0            0            0   -19.573767   -19.324345   -18.262123   -21.134835 6.9116294e-17 9.6762811e-16 -3.2484658e-15   -7.6057753 
     311   -7.6057997        9.936       7.1126      71.1263            0            0            0   -19.608632   -19.346882   -18.273721   -21.205294 -6.2204664e-16 -1.3823259e-16 -3.1102332e-15   -7.6057997 
     312   -7.6058245        9.936       7.1126      71.1263            0            0            0   -19.644063    -19.36968   -18.285454   -21.277055 9.6762811e-16 -2.7646517e-16 -2.0734888e-16   -7.6058245 
     313   -7.6058497        9.936       7.1126      71.1263            0            0            0   -19.680075   -19.392743   -18.297324   -21.350157 5.5293035e-16 -6.2204664e-16 -6.2204664e-15   -7.6058497 
     314   -7.6058753        9.936       7.1126      71.1263            0            0            0   -19.716683   -19.416078   -18.309335   -21.424637 -8.2939552e-16 6.9116294e-17 -1.3823259e-16   -7.6058753 
     315   -7.6059015        9.936       7.1126      71.1263            0            0            0   -19.753905    -19.43969   -18.321489   -21.500536 -5.5293035e-16 -2.7646517e-16 -3.1793495e-15   -7.6059015 
     316    -7.605928        9.936       7.1126      71.1263            0            0            0   -19.791757   -19.463587   -18.333789   -21.577894 6.9116294e-17 1.0367444e-15 1.7279073e-15    -7.605928 
     317   -7.6059551        9.936       7.1126      71.1263            0            0            0   -19.830256   -19.487774    -18.34624   -21.656755            0 -3.4558147e-16 -6.2204664e-16   -7.6059551 
     318   -7.6059827        9.936       7.1126      71.1263            0            0            0   -19.869422   -19.512258   -18.358844   -21.737164 6.9116294e-16 6.9116294e-17 -1.5896748e-15   -7.6059827 
     319   -7.6060108        9.936       7.1126      71.1263            0            0            0   -19.909273   -19.537046   -18.371605   -21.819167 1.3132096e-15 3.4558147e-16 4.1469776e-15   -7.6060108 
     320   -7.6060394        9.936       7.1126      71.1263            0            0            0   -19.949828   -19.562146   -18.384527   -21.902812 1.3823259e-16 -7.6027923e-16 2.2117214e-15   -7.6060394 
     321   -7.6060685        9.936       7.1126      71.1263            0            0            0   -19.991109   -19.587563   -18.397614    -21.98815 1.5205585e-15 -6.9116294e-16 1.3132096e-15   -7.6060685 
     322   -7.6060983        9.936       7.1126      71.1263            0            0            0   -20.033137   -19.613308   -18.410869   -22.075233 -4.1469776e-16 -6.9116294e-17 4.008745e-15   -7.6060983 
     323   -7.6061286        9.936       7.1126      71.1263            0            0            0   -20.075933   -19.639386   -18.424297   -22.164116 -4.1469776e-16 2.7646517e-16 -1.174977e-15   -7.6061286 
     324   -7.6061595        9.936       7.1126      71.1263            0            0            0   -20.119521   -19.665806   -18.437902   -22.254855 -2.7646517e-16 -6.2204664e-16 -3.3866984e-15   -7.6061595 
     325    -7.606191        9.936       7.1126      71.1263            0            0            0   -20.163925   -19.692577   -18.451688   -22.347511 -4.8381406e-16 4.8381406e-16 8.2939552e-16    -7.606191 
     326   -7.6062231        9.936       7.1126      71.1263            0            0            0    -20.20917   -19.719708    -18.46566   -22.442144 -3.4558147e-16 4.8381406e-16 -4.8381406e-15   -7.6062231 
     327    -7.606256        9.936       7.1126      71.1263            0            0            0   -20.255282   -19.747207   -18.479822   -22.538818 6.9116294e-16 -1.0367444e-15 -4.8381406e-16    -7.606256 
     328   -7.6062894        9.936       7.1126      71.1263            0            0            0   -20.302288   -19.775083    -18.49418   -22.637602 -6.9116294e-17 5.5293035e-16 3.6631636e-15   -7.6062894 
     329   -7.6063236        9.936       7.1126      71.1263            0            0            0   -20.350217   -19.803348   -18.508738   -22.738566 2.7646517e-16 3.4558147e-16 1.9352562e-15   -7.6063236 
     330   -7.6063582        9.936       7.1126      71.1263            0            0            0   -20.398585    -19.83171   -18.523347   -22.840699 1.3823259e-16 1.174977e-15 5.0454894e-15   -7.6063582 
     331   -7.6063938        9.936       7.1126      71.1263            0            0            0   -20.448427   -19.860769   -18.538316   -22.946197 2.0734888e-16 1.4514422e-15 -2.2117214e-15   -7.6063938 
     332   -7.6064302        9.936       7.1126      71.1263            0            0            0   -20.499294   -19.890253   -18.553505   -23.054125 -6.9116294e-17 5.5293035e-16 -2.6264192e-15   -7.6064302 
     333   -7.6064675        9.936       7.1126      71.1263            0            0            0    -20.55121   -19.920167   -18.568916   -23.164546 1.3823259e-16            0 2.349954e-15   -7.6064675 
     334   -7.6065055        9.936       7.1126      71.1263            0            0            0   -20.604209   -19.950523   -18.584556   -23.277548 -1.3823259e-16 4.1469776e-16 -2.6264192e-15   -7.6065055 
     335   -7.6065444        9.936       7.1126      71.1263            0            0            0   -20.658328   -19.981332    -18.60043   -23.393221 -6.9116294e-17 -7.6027923e-16 -1.3823259e-15   -7.6065444 
     336   -7.6065842        9.936       7.1126      71.1263            0            0            0   -20.713605   -20.012608   -18.616546   -23.511662 1.9352562e-15 2.7646517e-16 1.3823259e-16   -7.6065842 
     337   -7.6066249        9.936       7.1126      71.1263            0            0            0   -20.770082   -20.044364    -18.63291   -23.632972 4.8381406e-16 -6.2204664e-16 1.174977e-15   -7.6066249 
     338   -7.6066666        9.936       7.1126      71.1263            0            0            0   -20.827799   -20.076612   -18.649529   -23.757257            0 -1.4514422e-15 1.3823259e-16   -7.6066666 
     339   -7.6067092        9.936       7.1126      71.1263            0            0            0   -20.886802   -20.109368    -18.66641   -23.884627 4.1469776e-16 -4.8381406e-16 1.3823259e-15   -7.6067092 
     340   -7.6067529        9.936       7.1126      71.1263            0            0            0   -20.947136   -20.142645   -18.683562     -24.0152 -4.8381406e-16 1.1058607e-15 -3.4558147e-16   -7.6067529 
     341   -7.6067977        9.936       7.1126      71.1263            0            0            0    -21.00885    -20.17646   -18.700992   -24.149098            0 4.1469776e-16 4.5616754e-15   -7.6067977 
     342   -7.6068435        9.936       7.1126      71.1263            0            0            0   -21.071995   -20.210828   -18.718708    -24.28645 -1.8661399e-15 2.0734888e-16 2.833768e-15   -7.6068435 
     343   -7.6068905        9.936       7.1126      71.1263            0            0            0   -21.136625   -20.245767   -18.736719   -24.427391 1.3823259e-16 1.0367444e-15 4.2852102e-15   -7.6068905 
     344   -7.6069387        9.936       7.1126      71.1263            0            0            0   -21.202797   -20.281292   -18.755034   -24.572064 5.5293035e-16 8.9851182e-16 1.2440933e-15   -7.6069387 
     345   -7.6069881        9.936       7.1126      71.1263            0            0            0   -21.270569   -20.317424   -18.773663    -24.72062 -4.1469776e-16 2.0734888e-16 -7.6027923e-16   -7.6069881 
     346   -7.6070388        9.936       7.1126      71.1263            0            0            0   -21.340004    -20.35418   -18.792616   -24.873216 -6.9116294e-16 8.9851182e-16 7.6027923e-16   -7.6070388 
     347   -7.6070909        9.936       7.1126      71.1263            0            0            0   -21.411168   -20.391581   -18.811902   -25.030021 -6.2204664e-16 6.9116294e-16 -1.9352562e-15   -7.6070909 
     348   -7.6071444        9.936       7.1126      71.1263            0            0            0   -21.484131   -20.429647   -18.831533   -25.191211 -3.4558147e-16 -8.2939552e-16 -5.0454894e-15   -7.6071444 
     349   -7.6071993        9.936       7.1126      71.1263            0            0            0   -21.558965     -20.4684    -18.85152   -25.356973 1.5205585e-15 6.9116294e-17 3.1102332e-15   -7.6071993 
     350   -7.6072558        9.936       7.1126      71.1263            0            0            0   -21.635747   -20.507863   -18.871875   -25.527504 8.9851182e-16 -4.8381406e-16 -5.2528383e-15   -7.6072558 
     351   -7.6073138        9.936       7.1126      71.1263            0            0            0   -21.714561    -20.54806    -18.89261   -25.703013 1.5205585e-15 2.0734888e-16 2.2808377e-15   -7.6073138 
     352   -7.6073735        9.936       7.1126      71.1263            0            0            0   -21.795492   -20.589016   -18.913737   -25.883721 -1.7279073e-15 -9.6762811e-16 -1.7970236e-15   -7.6073735 
     353   -7.6074349        9.936       7.1126      71.1263            0            0            0   -21.878631   -20.630756   -18.935272   -26.069864 -1.9352562e-15 -6.2204664e-16 -6.7042805e-15   -7.6074349 
     354   -7.6074982        9.936       7.1126      71.1263            0            0            0   -21.964075   -20.673309   -18.957228   -26.261689 6.9116294e-17 -1.3132096e-15 -5.2528383e-15   -7.6074982 
     355   -7.6075633        9.936       7.1126      71.1263            0            0            0   -22.051928   -20.716703    -18.97962   -26.459462 -5.5293035e-16 1.3823259e-16 2.0734888e-15   -7.6075633 
     356   -7.6076305        9.936       7.1126      71.1263            0            0            0   -22.142299    -20.76097   -19.002464   -26.663463 -1.7279073e-15 7.6027923e-16 -6.9116294e-17   -7.6076305 
     357   -7.6076997        9.936       7.1126      71.1263            0            0            0   -22.235303    -20.80614   -19.025777   -26.873992 -4.1469776e-16 -2.0734888e-16 1.2440933e-15   -7.6076997 
     358   -7.6077711        9.936       7.1126      71.1263            0            0            0   -22.331063   -20.852247   -19.049576   -27.091367 5.5293035e-16 -7.6027923e-16 -6.2204664e-16   -7.6077711 
     359   -7.6078448        9.936       7.1126      71.1263            0            0            0   -22.429712   -20.899328    -19.07388   -27.315927 -6.9116294e-16 2.2808377e-15 -2.6264192e-15   -7.6078448 
     360   -7.6079197        9.936       7.1126      71.1263            0            0            0    -22.52975   -20.946648   -19.098309   -27.544292 -4.1469776e-16 -1.5896748e-15 1.3823259e-16   -7.6079197 
     361   -7.6079982        9.936       7.1126      71.1263            0            0            0   -22.634497   -20.995748    -19.12366   -27.784083 -5.5293035e-16 -7.6027923e-16 1.3823259e-16   -7.6079982 
     362   -7.6080795        9.936       7.1126      71.1263            0            0            0   -22.742629   -21.045963    -19.14959   -28.032334 1.3823259e-16 5.5293035e-16 3.4558147e-16   -7.6080795 
     363   -7.6081636        9.936       7.1126      71.1263            0            0            0   -22.854267   -21.097315    -19.17611   -28.289374 2.9028843e-15 1.3823259e-16 1.2440933e-15   -7.6081636 
     364   -7.6082506        9.936       7.1126      71.1263            0            0            0    -22.96959    -21.14985   -19.203244   -28.555677 -6.9116294e-16 2.0734888e-15 -9.6762811e-16   -7.6082506 
     365   -7.6083407        9.936       7.1126      71.1263            0            0            0   -23.088796   -21.203617   -19.231017   -28.831753 -1.658791e-15 4.8381406e-16 2.2808377e-15   -7.6083407 
     366   -7.6084342        9.936       7.1126      71.1263            0            0            0   -23.212092   -21.258669   -19.259458    -29.11815 1.1058607e-15 2.5573029e-15 3.4558147e-15   -7.6084342 
     367   -7.6085311        9.936       7.1126      71.1263            0            0            0   -23.339705   -21.315063   -19.288595   -29.415458 -8.2939552e-16 -1.174977e-15 -2.6955355e-15   -7.6085311 
     368   -7.6086317        9.936       7.1126      71.1263            0            0            0   -23.471878   -21.372857    -19.31846   -29.724316 5.5293035e-16 8.2939552e-16 -2.6264192e-15   -7.6086317 
     369   -7.6087362        9.936       7.1126      71.1263            0            0            0   -23.608871   -21.432116   -19.349086    -30.04541 1.2440933e-15 -2.0734888e-16 -4.8381406e-15   -7.6087362 
     370   -7.6088449        9.936       7.1126      71.1263            0            0            0   -23.750966   -21.492907   -19.380507   -30.379485 -1.3823259e-16 -9.6762811e-16 -8.2939552e-16   -7.6088449 
     371    -7.608958        9.936       7.1126      71.1263            0            0            0    -23.89847   -21.555302   -19.412763   -30.727346            0 -3.4558147e-16 6.9116294e-16    -7.608958 
     372   -7.6090758        9.936       7.1126      71.1263            0            0            0   -24.051713   -21.619379   -19.445892   -31.089867 2.7646517e-16 -1.3823259e-16 8.9851182e-16   -7.6090758 
     373   -7.6091985        9.936       7.1126      71.1263            0            0            0   -24.211052    -21.68522   -19.479939   -31.467997 -1.1058607e-15 -6.9116294e-17 -3.524931e-15   -7.6091985 
     374   -7.6093266        9.936       7.1126      71.1263            0            0            0   -24.376878   -21.752915    -19.51495    -31.86277 -1.7970236e-15 1.2440933e-15 1.7279073e-15   -7.6093266 
     375   -7.6094604        9.936       7.1126      71.1263            0            0            0   -24.549616   -21.822558   -19.550975   -32.275315 -1.3823259e-16 -4.8381406e-16 1.3132096e-15   -7.6094604 
     376   -7.6096002        9.936       7.1126      71.1263            0            0            0   -24.729727   -21.894253   -19.588066   -32.706863 4.1469776e-16 -6.2204664e-16 -2.0734888e-15   -7.6096002 
[...]
     914   -92.058804        9.936       7.1126      71.1263            0            0            0    9.6119469   0.37632495    27.916712   0.54280367 -1.7970236e-15 -1.7279073e-17 -0.081319981   -92.058804 
     915   -92.058804        9.936       7.1126      71.1263            0            0            0    9.8304161   0.37632615    27.921646    1.1932759 1.7603056e-15 -3.6718031e-16 -0.027120217   -92.058804 
     916   -92.058804        9.936       7.1126      71.1263            0            0            0    9.8503823   0.37632602    27.922094    1.2527267 -1.0972212e-15 -3.3694193e-16 -0.022160561   -92.058804 
     917   -92.058804        9.936       7.1126      71.1263            0            0            0    9.8467631   0.37629633    27.921606    1.2423874 -9.9354672e-17 -5.183722e-17  -0.02258927   -92.058804 
     918   -92.058804        9.936       7.1126      71.1263            0            0            0     9.828387    0.3762961    27.921203    1.1876619 2.3542738e-15 -2.0734888e-16 -0.027065557   -92.058804 
     919   -92.058804        9.936       7.1126      71.1263            0            0            0    9.8247612   0.37627987    27.920918    1.1770856 -9.6330834e-16 -1.1231398e-16 -0.027644848   -92.058804 
     920   -92.058804        9.936       7.1126      71.1263            0            0            0    9.8467181   0.37627979    27.921385    1.2424897 4.8381406e-16 -8.6395367e-17  -0.02234531   -92.058804 
     921   -92.058804        9.936       7.1126      71.1263            0            0            0    9.9478132   0.37627022    27.923388     1.543781 -1.0108258e-15 -8.0779668e-16 0.0020390677   -92.058804 
     922   -92.058804        9.936       7.1126      71.1263            0            0            0    9.9470079   0.37623543    27.922837    1.5419517 3.8013961e-16 -7.2140131e-16  0.001855825   -92.058804 
     923   -92.058804        9.936       7.1126      71.1263            0            0            0    9.8368189   0.37623472    27.920603    1.2136189 -2.1058871e-15 -1.771105e-16 -0.023980952   -92.058804 
     924   -92.058804        9.936       7.1126      71.1263            0            0            0    9.7452267   0.37622624     27.91867   0.94078357 7.775583e-16 -8.6395367e-17 -0.045201946   -92.058804 
     925   -92.058805        9.936       7.1126      71.1263            0            0            0    9.7341568   0.37615184    27.917749   0.90856996 -7.5595946e-16 -2.8078494e-16 -0.045483423   -92.058805 
     926   -92.058805        9.936       7.1126      71.1263            0            0            0    9.8455269   0.37615127    27.919776    1.2406539 -4.5357568e-16 -2.5486633e-16 -0.020707359   -92.058805 
     927   -92.058805        9.936       7.1126      71.1263            0            0            0    9.9539283   0.37612789     27.92143    1.5642272 -1.1663375e-16 -3.0238378e-17  0.003357561   -92.058805 
     928   -92.058805        9.936       7.1126      71.1263            0            0            0    9.9035515   0.37611436    27.920369    1.4141713 6.3932572e-16 -4.8813382e-16 -0.0075843062   -92.058805 
     929   -92.058805        9.936       7.1126      71.1263            0            0            0    9.8347131   0.37611388    27.919164    1.2088618 2.8078494e-16 -8.6395367e-17 -0.022518039   -92.058805 
     930   -92.058805        9.936       7.1126      71.1263            0            0            0    9.9010736   0.37610503    27.920217    1.4068987 3.1966286e-16 -1.7279073e-16 -0.0080563838   -92.058805 
     931   -92.058805        9.936       7.1126      71.1263            0            0            0    9.7794628   0.37608633    27.917946    1.0443555 -1.9438958e-15 -4.3197683e-17  -0.03390401   -92.058805 
     932   -92.058806        9.936       7.1126      71.1263            0            0            0    9.8452825   0.37589699    27.917198    1.2427523 3.9093904e-16 -1.4687212e-16 -0.017297665   -92.058806 
     933   -92.058806        9.936       7.1126      71.1263            0            0            0    9.7326635    0.3758781    27.915538   0.90657474 -1.2376136e-15 -6.8684317e-16 -0.038282025   -92.058806 
     934   -92.058806        9.936       7.1126      71.1263            0            0            0    9.7309203   0.37587776    27.915512   0.90137083 1.2570526e-15 1.1231398e-16  -0.03860123   -92.058806 
     935   -92.058806        9.936       7.1126      71.1263            0            0            0    9.8547202   0.37587563    27.917127    1.2711576 2.462268e-16 -6.4796525e-17 -0.015245318   -92.058806 
     936   -92.058806        9.936       7.1126      71.1263            0            0            0    10.017731   0.37580378    27.918443    1.7589472 6.6956409e-17 1.9870934e-16  0.014702469   -92.058806 
     937   -92.058806        9.936       7.1126      71.1263            0            0            0    10.002979   0.37579869    27.918211    1.7149279 5.3997104e-17 -1.0324246e-15  0.012030044   -92.058806 
     938   -92.058806        9.936       7.1126      71.1263            0            0            0     9.834678   0.37579764    27.916203    1.2120329 -6.9332282e-16 -1.2959305e-16 -0.017918308   -92.058806 
     939   -92.058806        9.936       7.1126      71.1263            0            0            0     9.786758   0.37579388    27.915611    1.0688692 5.8316873e-16 6.0476757e-17 -0.026375866   -92.058806 
     940   -92.058807        9.936       7.1126      71.1263            0            0            0    9.5358029   0.37535977    27.911531   0.32051812 9.3091008e-16 -5.2701174e-16   -0.0513694   -92.058807 
     941   -92.058807        9.936       7.1126      71.1263            0            0            0    9.5406848   0.37535648    27.911556   0.33514172 -6.7604375e-16 -2.704175e-15      -0.0506   -92.058807 
     942   -92.058807        9.936       7.1126      71.1263            0            0            0    9.8240747   0.37535803    27.913476    1.1833905 1.8143027e-15 -4.7517452e-17 -0.014278561   -92.058807 
     943   -92.058807        9.936       7.1126      71.1263            0            0            0    9.8362788   0.37535799    27.913558    1.2199206 -3.3262216e-16 -3.4558147e-17 -0.012712319   -92.058807 
     944   -92.058807        9.936       7.1126      71.1263            0            0            0    9.8352717    0.3753435    27.913494    1.2169771 -1.4276834e-15 -3.1102332e-16 -0.012723423   -92.058807 
     945   -92.058807        9.936       7.1126      71.1263            0            0            0    9.8217697   0.37534311    27.913403    1.1765628 2.2311604e-15 1.7279073e-17 -0.014437537   -92.058807 
     946   -92.058807        9.936       7.1126      71.1263            0            0            0    9.8204027   0.37530455     27.91325    1.1726529  1.67823e-15 -1.771105e-16 -0.014256158   -92.058807 
     947   -92.058807        9.936       7.1126      71.1263            0            0            0    9.8358976   0.37530449    27.913349     1.219039 -2.0302911e-16 -3.1102332e-16 -0.012331478   -92.058807 
     948   -92.058807        9.936       7.1126      71.1263            0            0            0    9.8767239   0.37529021    27.913554    1.3413278 3.9741869e-16 -4.7517452e-17 -0.0071946938   -92.058807 
     949   -92.058807        9.936       7.1126      71.1263            0            0            0    9.7878024   0.37527766    27.912951    1.0751785 -2.9352826e-15 -4.7517452e-17 -0.017997338   -92.058807 
     950   -92.058807        9.936       7.1126      71.1263            0            0            0    9.7205331   0.37524664    27.912442    0.8739105 -2.3477941e-15 -2.1598842e-16 -0.025706528   -92.058807 
     951   -92.058808        9.936       7.1126      71.1263            0            0            0    9.8043491   0.37517477    27.912708    1.1251649 -4.6653498e-16 -2.9374425e-16 -0.014927431   -92.058808 
     952   -92.058808        9.936       7.1126      71.1263            0            0            0    9.8324592   0.37517485    27.912865    1.2093381 -3.0454367e-16 2.1166865e-16 -0.011713896   -92.058808 
     953   -92.058808        9.936       7.1126      71.1263            0            0            0    9.8316893   0.37516508    27.912829    1.2070737 -2.8661663e-15 -1.9870934e-16 -0.011728406   -92.058808 
     954   -92.058808        9.936       7.1126      71.1263            0            0            0    9.8059329   0.37515548    27.912654    1.1299893 -2.2074016e-15 1.2959305e-16 -0.014667043   -92.058808 
     955   -92.058808        9.936       7.1126      71.1263            0            0            0    9.8661878   0.37515044    27.912976    1.3104367 -1.3952852e-15 4.7085475e-16 -0.0076020339   -92.058808 
     956   -92.058808        9.936       7.1126      71.1263            0            0            0    9.9160531   0.37514077    27.913221    1.4597979 1.902858e-15 1.3391282e-16 -0.0017823955   -92.058808 
     957   -92.058808        9.936       7.1126      71.1263            0            0            0     10.03808   0.37493328    27.913063    1.8262434 6.9116294e-17 -2.591861e-16  0.010904611   -92.058808 
     958   -92.058808        9.936       7.1126      71.1263            0            0            0    10.014376   0.37492349    27.912921     1.755282 2.2138813e-15 1.5551166e-16 0.0084532097   -92.058808 
     959   -92.058808        9.936       7.1126      71.1263            0            0            0    9.8316828   0.37492233    27.912107    1.2080187 -3.3456606e-15 -1.6847097e-16 -0.0099439925   -92.058808 
     960   -92.058808        9.936       7.1126      71.1263            0            0            0     9.800908   0.37491923    27.911964    1.1158411 3.2398263e-17 -1.9870934e-16 -0.013018225   -92.058808 
     961   -92.058809        9.936       7.1126      71.1263            0            0            0    9.7488332   0.37455643    27.911039   0.96090455 3.8877915e-16 -4.9245359e-16 -0.013997756   -92.058809 
     962   -92.058809        9.936       7.1126      71.1263            0            0            0    9.9260765   0.37452937    27.911516     1.492184 -1.1425787e-15 3.1966286e-16 -0.00046608175   -92.058809 
     963   -92.058809        9.936       7.1126      71.1263            0            0            0    9.8310316   0.37452875    27.911234    1.2073324 1.6091137e-15 -4.8813382e-16 -0.0075600155   -92.058809 
     964   -92.058809        9.936       7.1126      71.1263            0            0            0    9.8090412   0.37452696    27.911166     1.141431 -8.3155541e-16 7.3436062e-17 -0.0091910271   -92.058809 
     965   -92.058809        9.936       7.1126      71.1263            0            0            0    9.7994287   0.37431995    27.910828    1.1131376 1.0086659e-15 -7.3436062e-17 -0.0086292287   -92.058809 
     966   -92.058809        9.936       7.1126      71.1263            0            0            0    9.8389524   0.37431879    27.910926    1.2316127 -1.9222969e-16 -8.6395367e-17 -0.0060591708   -92.058809 
     967   -92.058809        9.936       7.1126      71.1263            0            0            0    9.8811225   0.37431096    27.911019    1.3580378 1.2808113e-15 3.2830239e-16 -0.0033077658   -92.058809 
     968    -92.05881        9.936       7.1126      71.1263            0            0            0    9.6287204   0.37304969    27.909346   0.60376569 -3.7150008e-16 3.3694193e-16 -0.0027904279    -92.05881 
     969    -92.05881        9.936       7.1126      71.1263            0            0            0    9.6334809   0.37304157    27.909346   0.61805502 -1.5205585e-15 1.2095351e-16 -0.0026417448    -92.05881 
     970    -92.05881        9.936       7.1126      71.1263            0            0            0    9.8218792   0.37304256     27.90955    1.1830445 -9.5250892e-16 -2.7646517e-16 -0.00096875123    -92.05881 
     971    -92.05881        9.936       7.1126      71.1263            0            0            0    9.8302485    0.3730425    27.909559    1.2081435 -4.9245359e-16 1.8143027e-16 -0.00089432982    -92.05881 
     972    -92.05881        9.936       7.1126      71.1263            0            0            0    9.8298187   0.37302832    27.909552    1.2068764 -7.0844201e-16 -1.4255236e-16 -0.00089020403    -92.05881 
     973    -92.05881        9.936       7.1126      71.1263            0            0            0    9.8208805   0.37302799    27.909542    1.1800719 1.9870934e-16 -1.9870934e-16 -0.00096876962    -92.05881 
     974    -92.05881        9.936       7.1126      71.1263            0            0            0     9.820424   0.37299265    27.909523    1.1787568 -2.0583696e-15 -8.6395367e-17 -0.00095140565    -92.05881 
     975    -92.05881        9.936       7.1126      71.1263            0            0            0    9.8300136   0.37299259    27.909533    1.2075152 -1.6091137e-15 2.1598842e-17 -0.0008686872    -92.05881 
     976    -92.05881        9.936       7.1126      71.1263            0            0            0    9.8438889   0.37297883    27.909541    1.2491473 4.2981695e-16 -4.4061637e-16 -0.0007425991    -92.05881 
     977    -92.05881        9.936       7.1126      71.1263            0            0            0    9.8110889   0.37297607    27.909504    1.1507867 -2.1879627e-15 -1.1663375e-16 -0.0010212594    -92.05881 
     978    -92.05881        9.936       7.1126      71.1263            0            0            0    9.7882299   0.37297161    27.909477    1.0822413 1.0367444e-15 9.0715135e-17 -0.0012130075    -92.05881 
     979   -92.058811        9.936       7.1126      71.1263            0            0            0    9.8237806   0.37204807    27.909034      1.19026 -1.4557619e-15 -1.0367444e-16 -0.00038599459   -92.058811 
     980   -92.058811        9.936       7.1126      71.1263            0            0            0    9.8329832    0.3720478    27.909043    1.2178583 2.1166865e-16 1.0367444e-16 -0.0003521426   -92.058811 
     981   -92.058811        9.936       7.1126      71.1263            0            0            0    9.8325288   0.37200831    27.909023    1.2165554 -5.2701174e-16 -5.2269197e-16 -0.00034504003   -92.058811 
     982   -92.058811        9.936       7.1126      71.1263            0            0            0    9.8235707   0.37200816    27.909013    1.1896909 3.8877915e-17 4.3197683e-17 -0.00037709956   -92.058811 
     983   -92.058811        9.936       7.1126      71.1263            0            0            0    9.8229393   0.37199543    27.909006    1.1878166 -7.9915714e-17 -9.0715135e-17 -0.00037633697   -92.058811 
     984   -92.058811        9.936       7.1126      71.1263            0            0            0    9.8317006   0.37199523    27.909015    1.2140916 -1.0151456e-16 -3.0238378e-16 -0.000345151   -92.058811 
     985   -92.058811        9.936       7.1126      71.1263            0            0            0    9.8853458   0.37196394    27.909056    1.3750176 -4.1901753e-16 -8.6395367e-18 -0.00015139459   -92.058811 
     986   -92.058811        9.936       7.1126      71.1263            0            0            0    9.7185716   0.37187515    27.908834    0.8750058 -9.1795077e-16 4.1901753e-16 -0.00069184847   -92.058811 
     987   -92.058811        9.936       7.1126      71.1263            0            0            0    9.4990862   0.37151467    27.908417   0.21732663 -1.4579218e-15 1.7279073e-16 -0.0010777261   -92.058811 
     988   -92.058831        9.936       7.1126      71.1263            0            0            0    9.6275487   0.34983801    27.897736   0.63507227 -6.0476757e-16 -2.462268e-16  0.012183287   -92.058831 
     989   -92.058831        9.936       7.1126      71.1263            0            0            0    9.7887725   0.34983876    27.898022    1.1184564 3.0886344e-16 -1.6847097e-16 0.0049126769   -92.058831 
     990   -92.058831        9.936       7.1126      71.1263            0            0            0    9.7968719   0.34983867    27.898037    1.1427405 -1.436323e-15 -2.4190703e-16 0.0045468021   -92.058831 
     991   -92.058831        9.936       7.1126      71.1263            0            0            0    9.7964073   0.34982267     27.89802    1.1413794 -9.9786649e-16 -7.775583e-17 0.0045165011   -92.058831 
     992   -92.058831        9.936       7.1126      71.1263            0            0            0    9.7882046   0.34982246    27.898005    1.1167862 3.0454367e-16 -2.6782564e-16 0.0048819988   -92.058831 
     993   -92.058831        9.936       7.1126      71.1263            0            0            0    9.7877441   0.34980234    27.897985    1.1154455 1.6026341e-15 -4.233373e-16 0.0048334965   -92.058831 
     994   -92.058831        9.936       7.1126      71.1263            0            0            0    9.7964863   0.34980225       27.898    1.1416569 -9.0499147e-16 -2.462268e-16 0.0044483397   -92.058831 
     995   -92.058831        9.936       7.1126      71.1263            0            0            0    9.8180833   0.34978721    27.898022    1.2064405 -1.0734624e-15 -2.2894772e-16  0.003460447   -92.058831 
     996   -92.058831        9.936       7.1126      71.1263            0            0            0     9.767235   0.34978145    27.897929    1.0539945 -1.4039247e-15 1.3823259e-16  0.005652928   -92.058831 
     997   -92.058831        9.936       7.1126      71.1263            0            0            0    9.7313136   0.34977179    27.897858   0.94631067 2.2290005e-15 -4.1037799e-16 0.0071632422   -92.058831 
     998   -92.058832        9.936       7.1126      71.1263            0            0            0    9.4657076   0.34779419    27.896297   0.15303203 1.6847097e-16 8.6395367e-16 -0.0071311341   -92.058832 
     999   -92.058832        9.936       7.1126      71.1263            0            0            0    9.4891941   0.34774963    27.896304   0.22352839 -9.0931124e-16 -1.3780061e-15 -0.0072885626   -92.058832 
    1000   -92.058833        9.936       7.1126      71.1263            0            0            0     9.781383   0.34775104    27.896646    1.0997518 4.3197683e-17 4.3197683e-18 -0.0020270315   -92.058833 
Loop time of 0.0540121 on 1 procs for 1000 steps with 10 atoms

41.2% CPU use with 1 MPI tasks x no OpenMP threads

Minimization stats:
  Stopping criterion = max iterations
  Energy initial, next-to-last, final = 
        -7.60345518294      -92.058832362     -92.0588325576
  Force two-norm initial, final = 0.00175889 0.000213184
  Force max component initial, final = 0.00118767 0.000177113
  Final line search alpha, max atom move = 1 0.000177113
  Iterations, force evaluations = 1000 1333

MPI task timing breakdown:
Section |  min time  |  avg time  |  max time  |%varavg| %total
---------------------------------------------------------------
Pair    | 0.019304   | 0.019304   | 0.019304   |   0.0 | 35.74
Neigh   | 0.00040889 | 0.00040889 | 0.00040889 |   0.0 |  0.76
Comm    | 0.0016091  | 0.0016091  | 0.0016091  |   0.0 |  2.98
Output  | 0.031689   | 0.031689   | 0.031689   |   0.0 | 58.67
Modify  | 0          | 0          | 0          |   0.0 |  0.00
Other   |            | 0.001001   |            |       |  1.85

Nlocal:    10 ave 10 max 10 min
Histogram: 1 0 0 0 0 0 0 0 0 0
Nghost:    192 ave 192 max 192 min
Histogram: 1 0 0 0 0 0 0 0 0 0
Neighs:    80 ave 80 max 80 min
Histogram: 1 0 0 0 0 0 0 0 0 0

Total # of neighbors = 80
Ave neighs/atom = 8
Neighbor list builds = 28
Dangerous builds = 0
pypospack:output_section:begin
tot_energy = -92.0588325576302
num_atoms = 10
a11 = 9.936
a22 = 7.1126
a33 = 71.1263
a12 = 0
a13 = 0
a23 = 0
tot_press = 9.78138304979624
pxx = 0.347751038404658
pyy = 27.8966462639953
pzz = 1.09975184698877
pxy = 4.31976834943076e-17
pxz = 4.31976834943076e-18
pyz = -0.0020270315365277
pypospack:output_section:done
pypospack:lammps_sim:done
Total wall time: 0:00:00
