# ['Ni']

28 atoms
1 atom types

    0.0000     2.3278 xlo xhi
    0.0000     4.0318 ylo yhi
    0.0000    26.6087 zlo zhi

    0.0000     0.0000     0.0000 xy xz yz

Atoms

1 1     0.0000     0.0000     0.0000
2 1     1.1639     2.0159     0.0000
3 1     1.1639     0.6720     1.9006
4 1     0.0000     2.6879     1.9006
5 1     0.0000     1.3439     3.8012
6 1     1.1639     3.3599     3.8012
7 1     0.0000     0.0000     5.7019
8 1     1.1639     2.0159     5.7019
9 1     1.1639     0.6720     7.6025
10 1     0.0000     2.6879     7.6025
11 1     0.0000     1.3439     9.5031
12 1     1.1639     3.3599     9.5031
13 1     0.0000     0.0000    11.4037
14 1     1.1639     2.0159    11.4037
15 1     0.0000     1.3439    13.3044
16 1     1.1639     3.3599    13.3044
17 1     0.0000     0.0000    15.2050
18 1     1.1639     2.0159    15.2050
19 1     1.1639     0.6720    17.1056
20 1     0.0000     2.6879    17.1056
21 1     0.0000     1.3439    19.0062
22 1     1.1639     3.3599    19.0062
23 1     0.0000     0.0000    20.9068
24 1     1.1639     2.0159    20.9068
25 1     1.1639     0.6720    22.8075
26 1     0.0000     2.6879    22.8075
27 1     0.0000     1.3439    24.7081
28 1     1.1639     3.3599    24.7081
