# ['Ni']

10 atoms
1 atom types

    0.0000     3.3354 xlo xhi
    0.0000     2.3876 ylo yhi
    0.0000    23.8760 zlo zhi

    0.0000     0.0000     0.0000 xy xz yz

Atoms

1 1     0.0000     0.0000     0.0000
2 1     1.6677     1.1938     1.1938
3 1     0.0000     0.0000     2.3876
4 1     1.6677     1.1938     3.5814
5 1     0.0000     0.0000     4.7752
6 1     1.6677     1.1938     5.9690
7 1     0.0000     0.0000     7.1628
8 1     1.6677     1.1938     8.3566
9 1     0.0000     0.0000     9.5504
10 1     1.6677     1.1938    10.7442
