LAMMPS (10 Feb 2015)
# ---- initialize simulations
clear
units metal
dimension 3
boundary p p p
atom_style charge
atom_modify map array
# ---- create atoms
read_data /Users/eugeneragasa/pyflamestk_git/pypospack/tests/tests_integration/workflow/WorkflowLammpsThermalExpansion/param_2632/MgO_NaCl_unit.npt.T700/lammps.structure
  triclinic box = (0 0 0) to (4.2565 4.2565 4.2565) with tilt (0 0 0)
  1 by 1 by 1 MPI processor grid
  reading atoms ...
  8 atoms
# ---- define interatomic potential
include potential.mod
mass 1 24.305
mass 2 15.999

group Mg type 1
4 atoms in group Mg
group O type 2
4 atoms in group O

set group Mg charge 1.63285961235
  4 settings made for charge
set group O charge -1.63285961235
  4 settings made for charge

variable R_cut equal 10.0

pair_style buck/coul/long ${R_cut}
pair_style buck/coul/long 10
pair_coeff 1 1 0.0 0.5 0.0 ${R_cut}
pair_coeff 1 1 0.0 0.5 0.0 10
pair_coeff 1 2 1437.07173936 0.281984725072 0.0 ${R_cut}
pair_coeff 1 2 1437.07173936 0.281984725072 0.0 10
pair_coeff 2 2 17907.6681412 0.158842179647 12.0518239093 ${R_cut}
pair_coeff 2 2 17907.6681412 0.158842179647 12.0518239093 10

kspace_style pppm 1.0e-5

neighbor 1.0 bin
neigh_modify every 1 delay 0 check yes
# ---- define settings
compute eng all pe/atom
compute eatoms all reduce sum c_eng
# ---- run minimization
reset_timestep 0
fix 1 all box/relax iso 0.0 vmax 0.001
thermo 10
thermo_style custom step pe lx ly lz xy xz yz press pxx pyy pzz pxy pxz pyz c_eatoms
min_style cg
minimize 1e-25 1e-25 5000 10000
PPPM initialization ...
  G vector (1/distance) = 0.352629
  grid = 8 8 8
  stencil order = 5
  estimated absolute RMS force accuracy = 3.86465e-05
  estimated relative force accuracy = 2.68385e-06
  using double precision FFTs
  3d grid and FFT values/proc = 3375 512
Neighbor list info ...
  1 neighbor list requests
  update every 1 steps, delay 0 steps, check yes
  master list distance cutoff = 11
Memory usage per processor = 4.06549 Mbytes
Step PotEng Lx Ly Lz Xy Xz Yz Press Pxx Pyy Pzz Pxy Pxz Pyz eatoms 
       0   -108.26668       4.2565       4.2565       4.2565            0            0            0     68174.25     68174.25     68174.25     68174.25 -1.8708973e-11 1.9918278e-11 -1.4539535e-10   -108.26668 
      10   -108.32672     4.299065     4.299065     4.299065            0            0            0    15974.818    15974.818    15974.818    15974.818 2.7247293e-10 7.4247233e-11 1.7340321e-10   -108.32672 
      14   -108.33064    4.3118345    4.3118345    4.3118345            0            0            0    1605.1095    1605.1095    1605.1095    1605.1095 -5.9694499e-11 -6.7982128e-11 4.9253128e-12   -108.33064 
Loop time of 0.0152402 on 1 procs for 14 steps with 8 atoms

Minimization stats:
  Stopping criterion = linesearch alpha is zero
  Energy initial, next-to-last, final = 
        -108.266678614      -108.33063925      -108.33063925
  Force two-norm initial, final = 9.8444 0.23785
  Force max component initial, final = 9.8444 0.237844
  Final line search alpha, max atom move = 1.28309e-07 3.05176e-08
  Iterations, force evaluations = 14 44

Pair  time (%) = 0.00410867 (26.9594)
Kspce time (%) = 0.00239611 (15.7223)
Neigh time (%) = 0 (0)
Comm  time (%) = 0.000458956 (3.01148)
Outpt time (%) = 1.19209e-05 (0.0782203)
Other time (%) = 0.00826454 (54.2286)

Nlocal:    8 ave 8 max 8 min
Histogram: 1 0 0 0 0 0 0 0 0 0
Nghost:    2189 ave 2189 max 2189 min
Histogram: 1 0 0 0 0 0 0 0 0 0
Neighs:    2344 ave 2344 max 2344 min
Histogram: 1 0 0 0 0 0 0 0 0 0

Total # of neighbors = 2344
Ave neighs/atom = 293
Neighbor list builds = 0
Dangerous builds = 0
unfix 1
# ---- define output variables ----
variable natoms equal "count(all)"
variable tot_energy equal "c_eatoms"
variable length_x equal "lx"
variable length_y equal "ly"
variable length_z equal "lz"
variable tilt_xy equal "xy"
variable tilt_xz equal "xz"
variable tilt_yz equal "yz"
variable tot_press equal "press"
variable press_xx equal "pxx"
variable press_yy equal "pyy"
variable press_zz equal "pzz"
variable press_xy equal "pxy"
variable press_xz equal "pxz"
variable press_yz equal "pyz"

# ---- output ----
print "pypospack:output_section:begin"
pypospack:output_section:begin
print "tot_energy = ${tot_energy}"
tot_energy = -108.330639250266
print "num_atoms = ${natoms}"
num_atoms = 8
print "xx = ${length_x}"
xx = 4.3118345
print "yy = ${length_y}"
yy = 4.3118345
print "zz = ${length_z}"
zz = 4.3118345
print "xy = ${tilt_xy}"
xy = 0
print "xz = ${tilt_xz}"
xz = 0
print "yz = ${tilt_yz}"
yz = 0
print "tot_press = ${tot_press}"
tot_press = 1605.10951764203
print "pxx = ${press_xx}"
pxx = 1605.10951764176
print "pyy = ${press_yy}"
pyy = 1605.10951764198
print "pzz = ${press_zz}"
pzz = 1605.10951764233
print "pxy = ${press_xy}"
pxy = -5.96944985898881e-11
print "pxz = ${press_xz}"
pxz = -6.79821282837662e-11
print "pyz = ${press_yz}"
pyz = 4.92531279854496e-12
print "pypospack:output_section:done"
pypospack:output_section:done
print "pypospack:lammps_sim:done"
pypospack:lammps_sim:done
#------------------------------------------------------------------------------
# RUN THERMOSTAT
# running using an NPT Nose-Hoover style thermostat
#------------------------------------------------------------------------------
variable tempdamp equal 0.1
variable pressdamp equal 1.0
# set initial velocities
velocity all create 700 5525261 mom yes dist gaussian loop all
# fix for Nose-Hoover style thermostat
fix 20 all npt temp 700 700 0.1 aniso 0.0 0.0 1.0 drag 1.0 couple xyz
variable boxx equal lx
variable boxy equal ly
variable boxz equal lz
variable boxp equal press
variable boxt equal temp
# calculate averages every 10000 steps
reset_timestep 0
fix 21 all ave/time 10 10 100 v_boxx v_boxy v_boxz v_boxp v_boxt file lattice.out
thermo_style custom step temp pe ke etotal press lx ly lz press pxx pyy pzz pxy pxz pyz vol
thermo_modify flush yes
thermo 100
run 100000
PPPM initialization ...
  G vector (1/distance) = 0.352078
  grid = 8 8 8
  stencil order = 5
  estimated absolute RMS force accuracy = 3.96373e-05
  estimated relative force accuracy = 2.75266e-06
  using double precision FFTs
  3d grid and FFT values/proc = 3375 512
Memory usage per processor = 3.06549 Mbytes
Step Temp PotEng KinEng TotEng Press Lx Ly Lz Press Pxx Pyy Pzz Pxy Pxz Pyz Volume 
       0          700   -108.33065   0.63337471   -107.69727    10042.606    4.3118345    4.3118345    4.3118345    10042.606     8551.829    16565.134    5010.8543   -8322.7064    -2071.089    482.39051    80.165268 
     100    322.26426   -107.89982   0.29159148   -107.60823   -7296.9999     4.337389     4.337389     4.337389   -7296.9999   -3432.0247   -1710.1283   -16748.847     287.7858      3122.42    2296.9368    81.599055 
     200    403.28406   -107.80019   0.36489989   -107.43529   -7857.1467    4.3419585    4.3419585    4.3419585   -7857.1467   -7186.2499    12635.941   -29021.131    1068.4785    1719.5752   -273.31027    81.857223 
     300    466.96437   -107.70997   0.42251918   -107.28745    32779.136    4.3233745    4.3233745    4.3233745    32779.136    42566.444    50272.562    5498.4023    11007.617    424.82582   -4255.5869    80.810642 
     400    428.04461    -107.5694   0.38730376    -107.1821   -11422.094    4.3477475    4.3477475    4.3477475   -11422.094    10374.096   -10912.361   -33728.017    7907.2722    9807.7711     2260.517    82.185071 
     500    809.77965   -107.82589   0.73270564   -107.09318   -9140.5245     4.345468     4.345468     4.345468   -9140.5245   -3793.3221   -8875.8471   -14752.404    3524.3077     813.5186   -3637.8662    82.055873 
     600    1014.7761   -107.97145    0.9181907   -107.05326    13285.951    4.3257635    4.3257635    4.3257635    13285.951    26056.129    8150.1706    5651.5543   -3842.3839    3959.3861    2418.7918    80.944682 
     700    460.62767    -107.4704   0.41678559   -107.05361   -31860.253     4.358569     4.358569     4.358569   -31860.253   -25253.525   -40024.715   -30302.519   -5552.6186    3489.4629    8807.7109    82.800276 
     800    661.79581   -107.64819   0.59880675   -107.04938    7580.1841    4.3351119    4.3351119    4.3351119    7580.1841    6971.7781    23246.338    -7477.564    2573.3195   -11324.077    2944.1282    81.470603 
     900    780.04911   -107.75699   0.70580482   -107.05118    16355.221    4.3318734    4.3318734    4.3318734    16355.221    22946.963    37681.203   -11562.502    2685.2093    2335.0646    3351.6643    81.288155 
    1000    509.27096   -107.51907   0.46079906   -107.05827   -11430.142    4.3557937    4.3557937    4.3557937   -11430.142    8262.3896   -6257.9621   -36294.855    6680.6681    1293.7891    1160.5037    82.642209 
    1100    750.92148   -107.73186   0.67944954   -107.05241    2935.4274    4.3347931    4.3347931    4.3347931    2935.4274    21196.835    7278.4264   -19668.979    -2507.891   -10024.155    -738.3439    81.452631 
    1200     903.3658   -107.87002   0.81738436   -107.05263   -5775.8575     4.338503     4.338503     4.338503   -5775.8575    3235.6507   -9803.6628    -10759.56   -209.78146    7586.5757    1128.7681    81.661945 
    1300    627.26918   -107.62512   0.56756633   -107.05755   -15709.655     4.348911     4.348911     4.348911   -15709.655   -19671.919    3989.1282   -31446.173   -9788.5254   -1139.1702   -4589.4299    82.251068 
    1400    756.12286   -107.73987   0.68415585   -107.05571    1860.3504    4.3372535    4.3372535    4.3372535    1860.3504   -2843.9735    14026.798    -5601.773    2888.4071   -10374.201    1895.0855    81.591404 
    1500    788.91806   -107.76981   0.71382964   -107.05599    10770.721    4.3391647    4.3391647    4.3391647    10770.721    34686.325    19485.953   -21860.114    3758.4038    2695.7118   -2857.4195    81.699315 
    1600    361.93473   -107.38827   0.32748615   -107.06079    4481.2211    4.3470541    4.3470541    4.3470541    4481.2211    30349.838    1745.5814   -18651.756    8051.7408   -12067.514    241.85244    82.145759 
    1700    706.51403   -107.69558   0.63926874   -107.05631    3636.3591    4.3379801    4.3379801    4.3379801    3636.3591    14320.189    7182.0134   -10593.125     2382.773   -6719.8088    1439.6649    81.632419 
    1800     799.4063    -107.7794   0.72331962   -107.05608    3421.0208    4.3419022    4.3419022    4.3419022    3421.0208   -3228.5913    24865.566   -11373.912   -1343.3809    4535.7231   -3964.9477    81.854038 
    1900    656.88715   -107.64915    0.5943653   -107.05478   -26724.718    4.3537475    4.3537475    4.3537475   -26724.718   -42762.378   -7199.0206   -30212.755    -11988.37    -11885.83    1098.9002    82.525797 
    2000    1110.2074   -108.04985     1.004539   -107.04531   -3601.8232    4.3366579    4.3366579    4.3366579   -3601.8232    5086.4616    -587.4726   -15304.459   -9326.8606    4892.1394   -6211.5414    81.557799 
    2100    815.08646   -107.78676   0.73750736   -107.04925   -5092.7963    4.3479926    4.3479926    4.3479926   -5092.7963    6752.3094    5845.3482   -27876.047    4041.1576    1163.2875   -4446.9128    82.198973 
    2200     506.7822   -107.50975   0.45854718    -107.0512   -9157.7043    4.3532202    4.3532202    4.3532202   -9157.7043   -15789.475    27465.209   -39148.847     3963.205   -7240.3958   -2782.6775    82.495811 
    2300    502.85355   -107.49879   0.45499246    -107.0438    26741.963    4.3342771    4.3342771    4.3342771    26741.963    14145.652    76786.676   -10706.438     12717.53     5584.792   -931.74563     81.42355 
    2400    555.51986   -107.55681   0.50264604   -107.05417   -4461.6293    4.3504323    4.3504323    4.3504323   -4461.6293    6297.5336    21780.151   -41462.572     8206.405   -11426.732    5605.6341    82.337421 
    2500    752.02057   -107.73003   0.68044402   -107.04958   -8899.9671    4.3490487    4.3490487    4.3490487   -8899.9671    16444.444   -16605.288   -26539.058    617.63053   -5624.2733    8293.3161    82.258886 
    2600    925.06248   -107.88147   0.83701598   -107.04445    10965.559     4.328702     4.328702     4.328702    10965.559    17337.499    7897.0627    7662.1168   -4833.7238   -8807.4968    3650.3292    81.109749 
    2700    545.79886    -107.5486   0.49385028   -107.05475   -23446.237    4.3548983    4.3548983    4.3548983   -23446.237   -36749.687    -8938.641   -24650.384   -7341.5774   -14582.078    226.67158    82.591255 
    2800    669.48738   -107.65728   0.60576625   -107.05151    -1075.727    4.3391042    4.3391042    4.3391042    -1075.727   -24372.873    8217.4307    12928.261   -8672.4819    2842.2583   -5447.5358    81.695898 
    2900    700.41326   -107.68778   0.63374864   -107.05403    8418.2669    4.3393827    4.3393827    4.3393827    8418.2669   -8445.5656    46015.411   -12315.044    4333.7629   -4676.0552   -2524.2395    81.711627 
    3000    709.92457   -107.69648   0.64235467   -107.05413    -3744.825    4.3487901    4.3487901    4.3487901    -3744.825    2872.8701    3911.4201   -18018.765    4126.0565    130.24572   -5975.6368    82.244213 
    3100    543.61059   -107.54519   0.49187028   -107.05332    12120.103    4.3385674    4.3385674    4.3385674    12120.103    36950.091    11497.109   -12086.891    2394.6088    5084.0427    3119.2731     81.66558 
    3200    653.15593   -107.64312   0.59098921   -107.05213   -7030.3731     4.345803     4.345803     4.345803   -7030.3731    7760.6645   -6321.2792   -22530.505    26.019486   -10750.575   -613.44126    82.074849 
    3300    845.26818   -107.81499   0.76481641   -107.05018   -12852.561    4.3441518    4.3441518    4.3441518   -12852.561   -1370.9453   -13461.578   -23725.159   -8920.7017   -3831.2086    3158.9293    81.981332 
    3400      895.091   -107.86095   0.80989714   -107.05105   -10995.714    4.3462518    4.3462518    4.3462518   -10995.714   -14431.154   -3895.1442   -14660.843   -5584.1368   -8713.5245    4784.3264    82.100282 
    3500    990.49941   -107.94639   0.89622468   -107.05016   -5111.0622    4.3406785    4.3406785    4.3406785   -5111.0622    13019.708   -3910.5261   -24442.369    1586.2004   -11166.318   -4510.4037    81.784849 
    3600    466.11559   -107.47772   0.42175119   -107.05597    14650.035    4.3401101    4.3401101    4.3401101    14650.035    41414.724    4312.1015   -1776.7219    3630.7289    6947.2886    5799.2258    81.752728 
    3700    513.19348    -107.5198   0.46434824   -107.05545   -4645.1943    4.3498681    4.3498681    4.3498681   -4645.1943    8855.4742   -7047.6993   -15743.358   -38.050385   -74.436079   -4999.7823    82.305388 
    3800    747.05494   -107.72706   0.67595101   -107.05111    10403.908    4.3348453    4.3348453    4.3348453    10403.908    4362.3025    15112.778    11736.644    10660.919     2022.318   -4289.6816    81.455572 
    3900    751.56451    -107.7375   0.68003136   -107.05747    798.58409    4.3421616    4.3421616    4.3421616    798.58409   -5462.1124   -3547.8954     11405.76   -7867.0808    4774.4086   -221.38161     81.86871 
    4000    753.73191   -107.73426   0.68199247   -107.05227    -12644.54    4.3535289    4.3535289    4.3535289    -12644.54   -22616.026   -14135.481    -1182.113   -5484.3018   -11294.095   -5362.2834    82.513362 
    4100    629.68225   -107.61682   0.56974974   -107.04707    19542.151    4.3300667    4.3300667    4.3300667    19542.151    44436.941    4811.3418    9378.1695   -2675.3585   -11235.073    3394.7697    81.186487 
    4200    498.35348   -107.50955    0.4509207   -107.05863   -7564.2014    4.3434117    4.3434117    4.3434117   -7564.2014    20400.601   -32288.693   -10804.513   -7329.5286   -1035.9373    954.89369    81.939438 
    4300    852.32753    -107.8254   0.77120386   -107.05419   -14994.878    4.3500309    4.3500309    4.3500309   -14994.878   -12976.126   -14375.476    -17633.03    6568.8228   -3935.0773    6118.2466    82.314632 
    4400    1033.0692   -107.98336   0.93474275   -107.04862    460.00323    4.3333902    4.3333902    4.3333902    460.00323    6813.6441    45.899518    -5479.534    1311.9868     3439.232    1847.3847    81.373571 
    4500    695.63526   -107.68482   0.62942541   -107.05539    -19728.67    4.3488956    4.3488956    4.3488956    -19728.67   -19731.896   -20881.171   -18572.943   -4432.5434   -1058.7724     2699.712    82.250195 
    4600     644.0409   -107.63343   0.58274174   -107.05069    4947.9487    4.3446123    4.3446123    4.3446123    4947.9487    19538.898    3818.5653   -8513.6171     2302.081   -5780.1071    3730.7832    82.007407 
    4700    600.92012    -107.5926   0.54372515   -107.04888    8232.9358    4.3384473    4.3384473    4.3384473    8232.9358    29644.399    1681.9863   -6627.5784    -14867.53   -4490.6578   -3077.6518    81.658796 
    4800    579.98156   -107.57921   0.52477951   -107.05443   -257.54132    4.3492504    4.3492504    4.3492504   -257.54132   -1597.7232   -1231.7069    2056.8061   -6653.4752    -17012.42   -2985.8744     82.27033 
    4900    780.72794   -107.75306   0.70641905   -107.04664    4735.4642    4.3470996    4.3470996    4.3470996    4735.4642   -4326.6389    20184.734    -1651.703   -8765.7192    -8338.556   -11219.502    82.148338 
    5000    462.29005   -107.46763   0.41828975   -107.04934    3908.9416    4.3396493    4.3396493    4.3396493    3908.9416   -24934.653     11935.45    24726.028   -5890.5886   -975.88773   -7043.0645     81.72669 
    5100    502.67811   -107.50578   0.45483372   -107.05095     3351.909    4.3435878    4.3435878    4.3435878     3351.909   -22576.613    13877.189    18755.151    12678.859   -7619.6813   -10553.049    81.949407 
    5200    907.17377    -107.8702   0.82082989   -107.04937    374.99921    4.3449925    4.3449925    4.3449925    374.99921   -1806.1721   -931.22735     3862.397   -1036.1404    10326.891   -3053.8213    82.028936 
    5300    704.32916   -107.69342   0.63729183   -107.05613   -252.76628    4.3338701    4.3338701    4.3338701   -252.76628    8982.7588   -22889.663    13148.606    549.27787    3591.0431    2451.6159     81.40061 
    5400    633.24324   -107.63366   0.57297179   -107.06069   -2197.8004     4.342096     4.342096     4.342096   -2197.8004    9975.6848    4266.8107   -20835.897    -546.1499   -4090.0944    689.31303       81.865 
    5500    751.57477   -107.73239   0.68004065   -107.05235   -14058.045    4.3541978    4.3541978    4.3541978   -14058.045   -11647.308   -5179.2843   -25347.543   -10251.043    1817.8403    4823.9148    82.551401 
    5600    690.09988   -107.67409   0.62441687   -107.04967   -875.11255    4.3305624    4.3305624    4.3305624   -875.11255   -12608.133    6139.8938    3842.9013     296.8295   -13104.294   -2736.7093    81.214373 
    5700     860.3912    -107.8328   0.77850004    -107.0543   -3469.1202    4.3469278    4.3469278    4.3469278   -3469.1202   -6079.0233     13093.98   -17422.318     6565.433   -5839.0381   -2638.0571    82.138594 
    5800    913.86965   -107.87405   0.82688847   -107.04716    -14643.97    4.3542912    4.3542912    4.3542912    -14643.97   -18972.378   -19390.025    -5569.508    1624.8023    1315.5065   -5794.1014    82.556715 
    5900    443.15961    -107.4483   0.40098013   -107.04732    12936.844    4.3256667    4.3256667    4.3256667    12936.844    16248.278    423.77883    22138.476    14047.514   -3440.5839   -5193.6475    80.939249 
    6000    646.73421    -107.6403    0.5851787   -107.05512   -245.31437    4.3490452    4.3490452    4.3490452   -245.31437   -4526.6443   -2755.6028     6546.304    1479.5757     8973.985    210.27325    82.258683 
    6100    808.20333   -107.78391   0.73127935   -107.05263   -182.57181    4.3435617    4.3435617    4.3435617   -182.57181    5910.4765    -9573.164    3114.9721   -7323.0359    7989.5273    370.62797    81.947928 
    6200     418.1066   -107.43475   0.37831164   -107.05643    11988.628     4.329164     4.329164     4.329164    11988.628    11174.023     22083.17    2708.6906   -366.51953   -5584.9964    3749.6333    81.135723 
    6300    879.92315   -107.84953   0.79617296   -107.05336   -10687.334    4.3488613    4.3488613    4.3488613   -10687.334   -26224.963    12408.669   -18245.709   -1811.4461     815.9692   -69.947508    82.248248 
    6400    799.88024   -107.77703   0.72374845   -107.05328   -1198.4708    4.3377626    4.3377626    4.3377626   -1198.4708   -11724.228    10513.727   -2384.9114    6088.5366   -6319.3474    2209.7128    81.620141 
    6500    551.67092   -107.55777   0.49916345   -107.05861   -13617.038    4.3402076    4.3402076    4.3402076   -13617.038   -23525.032     655.4405   -17981.523    11746.108   -9053.8137   -8440.7972    81.758236 
    6600    1045.0385   -107.99949   0.94557279   -107.05392    1261.0225    4.3400445    4.3400445    4.3400445    1261.0225    -1774.803    13985.826    -8427.955   -552.30066    5892.7641    1937.1217    81.749017 
    6700    646.42642   -107.64334   0.58490021   -107.05844   -3259.7295    4.3414007    4.3414007    4.3414007   -3259.7295   -347.21241    5105.0413   -14537.017   -110.25475   -4064.8889   -889.29044     81.82568 
    6800    378.46002   -107.40285   0.34243858   -107.06041    1122.9426    4.3398303    4.3398303    4.3398303    1122.9426   -9537.2016    26049.241   -13143.211    -1635.753    1023.1488    3987.0991    81.736915 
    6900    840.04634   -107.81307   0.76009158   -107.05298    13707.361    4.3347376    4.3347376    4.3347376    13707.361    -6854.942    41604.607    6372.4178   -6989.1873    4130.0705    5687.2564    81.449501 
    7000    592.61394   -107.59497   0.53620955   -107.05877   -12626.222    4.3464095    4.3464095    4.3464095   -12626.222   -6287.9779   -20541.022   -11049.667    7725.9463   -786.81394    2403.9128    82.109217 
    7100    657.88087   -107.65113   0.59526444   -107.05586    5895.9311    4.3358327    4.3358327    4.3358327    5895.9311   -8128.9235    18758.805    7057.9119    7264.4452    4716.6444   -2794.3194    81.511248 
    7200    881.90547   -107.85191    0.7979666   -107.05394    4548.1694    4.3402078    4.3402078    4.3402078    4548.1694     -9426.29    19689.758    3381.0401    1559.2253   -5849.3596   -2587.4192    81.758244 
    7300    445.88417   -107.46244   0.40344537   -107.05899   -3270.8424    4.3430295    4.3430295    4.3430295   -3270.8424   -22235.155    30043.016   -17620.387    4473.4192   -8847.0351   -9660.0694    81.917813 
    7400    789.38384   -107.77029   0.71425109   -107.05604   -235.24924    4.3334593    4.3334593    4.3334593   -235.24924   -20574.086    15599.742    4268.5961   -10029.271     827.4681    2961.8053    81.377467 
    7500     893.4031   -107.86211    0.8083699   -107.05374    -5556.075    4.3437397    4.3437397    4.3437397    -5556.075   -2611.1057   -2364.2339   -11692.886   -3710.7641   -8568.2132    4132.0031    81.958003 
    7600    698.65058   -107.68566   0.63215373    -107.0535   -11539.269    4.3429123    4.3429123    4.3429123   -11539.269    -7694.117   -3864.8871   -23058.802     6325.411   -247.33001    -310.5617     81.91118 
    7700    695.92025   -107.68274   0.62968326   -107.05306    4395.1594    4.3346569    4.3346569    4.3346569    4395.1594   -23170.995    29271.541    7084.9324   -10310.094    4351.0887    3305.7669    81.444953 
    7800    728.66787   -107.71316   0.65931401   -107.05385    6111.6339    4.3401659    4.3401659    4.3401659    6111.6339   -6567.4568    33405.515   -8503.1563    8176.5447   -4015.9745   -9175.3375     81.75588 
    7900    560.93716   -107.56313   0.50754773   -107.05559   -4152.1296    4.3460751    4.3460751    4.3460751   -4152.1296   -19302.526    4372.2817    2473.8559   -3874.8657    7072.7113   -5822.4307    82.090272 
    8000    760.42228    -107.7398   0.68804606   -107.05176   -1068.2726    4.3354601    4.3354601    4.3354601   -1068.2726   -20399.734   -11218.253    28413.169   -11772.227   -1337.0235   -5160.1332    81.490239 
    8100    719.77467   -107.70404   0.65126725   -107.05277     11145.64    4.3352164    4.3352164    4.3352164     11145.64   -2436.8029     16315.38    19558.344    4775.4542   -1247.0608     10214.37    81.476495 
    8200    454.34303   -107.46848   0.41109912   -107.05738   -19481.014    4.3522881    4.3522881    4.3522881   -19481.014    -57184.58   -9376.6536    8118.1913   -16275.721     1980.961    3109.6822    82.442834 
    8300    719.43635     -107.702   0.65096113   -107.05104    7110.0189     4.329128     4.329128     4.329128    7110.0189   -12616.664    30158.007    3788.7137    1054.6919   -11062.282     7912.356    81.133699 
    8400    791.44311   -107.77283   0.71611436   -107.05671    10.169736    4.3373229    4.3373229    4.3373229    10.169736   -3183.6169    17732.355   -14518.229     -398.362   -1725.3313      1125.29    81.595325 
    8500    571.17794   -107.57257   0.51681381   -107.05576   -31131.377    4.3520135    4.3520135    4.3520135   -31131.377   -37623.223   -39088.129   -16682.779   -20000.159    1755.6016   -7314.6178    82.427229 
    8600    910.48117   -107.87066    0.8238225   -107.04684    4504.3977    4.3241982    4.3241982    4.3241982    4504.3977    1.1771125    16054.438   -2542.4216    1952.6112   -5675.5362     534.0003    80.856839 
    8700    633.39195   -107.62822   0.57310635   -107.05512   -3296.2929    4.3409347    4.3409347    4.3409347   -3296.2929   -19130.657    12032.313   -2790.5344   -12914.874    3087.3722   -653.11662    81.799331 
    8800    611.64512   -107.61219   0.55342936   -107.05877   -10680.965    4.3436483    4.3436483    4.3436483   -10680.965   -32302.462    3931.4864   -3671.9196    -12617.71    3188.5561    5247.3411    81.952833 
    8900    756.91794    -107.7387   0.68487526   -107.05382    12669.179    4.3368878    4.3368878    4.3368878    12669.179    3739.0298    28576.159    5692.3498    6316.4954   -7462.6565    4678.5741    81.570769 
    9000    701.74121   -107.68985   0.63495019    -107.0549   -5827.7929    4.3408339    4.3408339    4.3408339   -5827.7929   -33517.823   -10233.539    26267.984   -14009.449    2541.9313    3966.1193    81.793633 
    9100    587.90479   -107.58644   0.53194861   -107.05449   -7886.1295    4.3431636    4.3431636    4.3431636   -7886.1295   -34544.827     4398.389      6488.05    2461.7655   -7710.2759   -6307.0945    81.925399 
    9200    750.90915   -107.72906   0.67943838   -107.04962   -3195.9095    4.3445199    4.3445199    4.3445199   -3195.9095   -9935.4142    5156.8043   -4809.1187   -6996.3945   -2100.4801   -6531.2933    82.002175 
    9300    768.94422    -107.7449   0.69575689   -107.04914    10117.876    4.3321584    4.3321584    4.3321584    10117.876    1464.6635    33617.787    -4728.822   -13345.978   -2889.0274   -6355.1719    81.304198 
    9400    626.39605   -107.62301   0.56677631   -107.05624   -4939.8107    4.3459699    4.3459699    4.3459699   -4939.8107   -3971.8581    16681.085   -27528.659     1556.778   -5236.9799    2875.5411    82.084308 
    9500    719.75313   -107.70174   0.65124776   -107.05049    -3875.926    4.3427212    4.3427212    4.3427212    -3875.926    4761.7538    3302.7338   -19692.266   -7710.1476    6347.0718    7191.3902    81.900367 
    9600    849.03722   -107.81691   0.76822672   -107.04868   -3154.3391    4.3342555    4.3342555    4.3342555   -3154.3391   -16981.859    7421.0309    97.810205   -1218.9516    -3867.092    3033.8726    81.422332 
    9700    691.60784   -107.67915    0.6257813   -107.05337    -12959.85    4.3461282    4.3461282    4.3461282    -12959.85     7613.448   -16946.121   -29546.878    9318.8473   -2604.3747    5997.6295     82.09328 
    9800    824.16715   -107.79548   0.74572376   -107.04976    4297.5424      4.33857      4.33857      4.33857    4297.5424   -4748.5469    33068.883   -15427.709   -5611.8235    4205.8468    846.81717    81.665727 
    9900    585.30383     -107.584    0.5295952   -107.05441   -5010.0893    4.3415583    4.3415583    4.3415583   -5010.0893   -12910.312    16108.898   -18228.854   -4964.2129   -6478.2087      -6044.2    81.834588 
   10000    480.92102   -107.49405   0.43514744    -107.0589    5699.5653    4.3343191    4.3343191    4.3343191    5699.5653    13876.223     12754.74   -9532.2673    2826.5389   -2540.3233    3700.5896    81.425914 
   10100    882.02897   -107.85346   0.79807835   -107.05538    -4788.597    4.3442753    4.3442753    4.3442753    -4788.597   -2708.1102   -2445.7851   -9211.8958   -10802.548   -295.38167   -4032.5043    81.988326 
   10200    691.86739   -107.68362   0.62601615    -107.0576    -8307.118    4.3388216    4.3388216    4.3388216    -8307.118    8052.6729   -16480.514   -16493.512    7088.5265   -4432.3146   -1026.9986    81.679937 
   10300    728.43125   -107.71738    0.6590999   -107.05828    8306.3766    4.3285273    4.3285273    4.3285273    8306.3766      13755.8    14315.047   -3151.7166    5604.5406     5198.044    9314.0969    81.099932 
   10400    753.29799   -107.73687   0.68159985   -107.05527   -16433.978    4.3559701    4.3559701    4.3559701   -16433.978   -34414.051    13235.886   -28123.769   -6136.4176    386.35872   -172.18155    82.652251 
   10500    462.50598   -107.47471   0.41848513   -107.05622    1463.4158    4.3307207    4.3307207    4.3307207    1463.4158    2487.5891    20076.381   -18173.723    1581.4607   -5374.0625    454.00508    81.223282 
   10600    770.67293   -107.75531   0.69732106   -107.05799    5106.5783    4.3325997    4.3325997    4.3325997    5106.5783    17198.808    10627.472   -12506.546   -2162.6936    3440.0011    -871.7939    81.329052 
   10700    971.38345   -107.92805   0.87892816   -107.04912   -20305.601    4.3561184    4.3561184    4.3561184   -20305.601   -11981.114   -15589.343   -33346.345    1462.1334   -11811.854   -4140.0179    82.660691 
   10800    583.36308   -107.57777   0.52783917   -107.04993    8871.1552     4.326115     4.326115     4.326115    8871.1552    15456.413    5296.6322    5860.4203    9328.9471    -5190.537    4458.3538    80.964416 
   10900    559.99577   -107.56204   0.50669594   -107.05534     1441.443    4.3443152    4.3443152    4.3443152     1441.443   -14315.535    23185.614   -4545.7503    4107.7113   -5806.6204    9486.4166    81.990583 
   11000    630.03441   -107.61902   0.57006838   -107.04895   -3324.4036    4.3492112    4.3492112    4.3492112   -3324.4036   -24542.065    33057.774    -18488.92    7422.3303   -10031.703    7205.2808    82.268107 
   11100    559.82292   -107.55385   0.50653954   -107.04731    21776.326     4.322988     4.322988     4.322988    21776.326     22543.73    27735.846    15049.402    7099.6984     1616.977    15003.852    80.788973 
   11200    843.60671   -107.81386   0.76331308   -107.05055   -14443.764    4.3479856    4.3479856    4.3479856   -14443.764   -22499.353   -2481.4859   -18350.452   -4286.0787   -10379.236    167.74035    82.198573 
   11300    730.76048    -107.7131   0.66120744    -107.0519   -14066.371    4.3384453    4.3384453    4.3384453   -14066.371   -27533.892   -11095.346   -3569.8759    5253.7462   -311.53782   -1166.2191    81.658683 
   11400    602.72724   -107.59774   0.54536028   -107.05238    -247.2042    4.3254761    4.3254761    4.3254761    -247.2042   -3245.1501    2187.5073    316.03025    3506.2254   -2474.1482    1387.5549    80.928549 
   11500    847.28747   -107.81868   0.76664351   -107.05204    -18170.55    4.3540199    4.3540199    4.3540199    -18170.55   -28640.058     7114.808   -32986.398   -2520.1625   -10499.587   -4750.0806    82.541284 
   11600    737.31002   -107.71925    0.6671336   -107.05211     4636.456    4.3335008    4.3335008    4.3335008     4636.456   -8192.7103    15295.878    6806.2006    6327.9224    2005.1998    7991.1069    81.379807 
   11700    436.35368   -107.44997   0.39482198   -107.05515    10684.489    4.3290692    4.3290692    4.3290692    10684.489   -1772.3901    16407.924    17417.934    204.93597   -5118.7543    10905.704    81.130396 
   11800    638.39142   -107.62892   0.57762997   -107.05129   -14170.184    4.3507125    4.3507125    4.3507125   -14170.184   -42356.611   -11376.013    11222.071   -11800.274   -7069.2956   -1325.9537    82.353327 
   11900    807.36671    -107.7796   0.73052237   -107.04907    869.78831    4.3295116    4.3295116    4.3295116    869.78831   -5892.4239   -7854.9855    16356.774    8723.0146    7511.6834    11505.025    81.155267 
   12000    798.91997   -107.77768   0.72287958    -107.0548   -11635.212    4.3378822    4.3378822    4.3378822   -11635.212   -12620.392   -11736.544     -10548.7   -8645.7183    -10399.17   -6862.5322     81.62689 
   12100    889.02318   -107.85551   0.80440685    -107.0511   -19258.463    4.3449118    4.3449118    4.3449118   -19258.463   -34915.626   -17629.544   -5230.2176   -6402.5591   -3275.3682    735.95515    82.024369 
   12200    524.52035   -107.52768   0.47459704   -107.05308    5470.2054    4.3295883    4.3295883    4.3295883    5470.2054   -16615.547   -4840.2816    37866.445    5563.9993   -4071.6609    11136.302    81.159585 
   12300    481.57615    -107.4953   0.43574022   -107.05956   -4395.1667    4.3431803    4.3431803    4.3431803   -4395.1667   -38100.267   -6626.9846    31541.752   -14482.884   -13168.333    2685.5496    81.926343 
   12400    823.66978   -107.79686   0.74527373   -107.05158    1344.6315     4.341766     4.341766     4.341766    1344.6315   -6450.7232    1848.7471    8635.8705      5036.57   -2859.8116    14326.106    81.846334 
   12500     656.1233   -107.64543   0.59367415   -107.05175    747.37156    4.3317418    4.3317418    4.3317418    747.37156   -4015.3713    15869.779   -9612.2925    1665.5616   -3388.2802    9695.7629    81.280746 
   12600     587.4044   -107.58653   0.53149585   -107.05503    -4989.797    4.3410304    4.3410304    4.3410304    -4989.797   -11153.547     2492.795   -6308.6394   -6999.6648    -5148.044   -11939.613    81.804742 
   12700    826.49282   -107.80029   0.74782807   -107.05246   -8910.6036    4.3412101    4.3412101    4.3412101   -8910.6036   -13570.625    -6885.099   -6276.0869    8143.7631     6937.759    6853.8245    81.814904 
   12800    660.47402   -107.65368   0.59761078   -107.05607   -5758.3405    4.3344173    4.3344173    4.3344173   -5758.3405   -11447.536   -14211.709    8384.2234   -12798.067   -4522.4101    2351.7781    81.431451 
   12900    755.09208   -107.74173   0.68322319   -107.05851    6882.2523    4.3373287    4.3373287    4.3373287    6882.2523   -17590.183    20967.832    17269.107   -8767.6462    -3830.477    974.46099    81.595649 
   13000    664.67309   -107.65727   0.60141018   -107.05586    3177.5871    4.3401551    4.3401551    4.3401551    3177.5871   -17793.216    22653.911    4672.0663    1340.8638    1329.9274    19008.787    81.755267 
   13100    338.34508   -107.36369   0.30614174   -107.05755    1329.9803    4.3398215    4.3398215    4.3398215    1329.9803   -39144.411    31625.647    11508.704   -9538.6601   -8060.9063    5670.6568    81.736416 
   13200     892.5699   -107.85634     0.807616   -107.04873   -5434.9858    4.3399952    4.3399952    4.3399952   -5434.9858   -14414.256   -1858.4724   -32.228473   -3493.3948    881.16432   -490.47315     81.74623 
   13300    949.25596   -107.90809   0.85890674   -107.04919    2280.6143    4.3335241    4.3335241    4.3335241    2280.6143   -5027.9373    14090.013   -2220.2327    4586.0428   -9836.8583    4839.4919    81.381117 
   13400    716.51302   -107.70098   0.64831603   -107.05266   -25449.334    4.3514625    4.3514625    4.3514625   -25449.334   -38531.794   -21018.221   -16797.987   -12766.118   -6694.1666    -11238.88    82.395926 
   13500     716.9026   -107.69767   0.64866854     -107.049    11542.289    4.3289459    4.3289459    4.3289459    11542.289   -2776.5678    32544.702    4858.7339    2340.0426   -19.952668    335.00279    81.123461 
   13600    558.99749   -107.56383   0.50579268   -107.05804   -4956.4436    4.3373439    4.3373439    4.3373439   -4956.4436   -37898.288    11834.916     11194.04   -8813.2359    -11277.68    13394.331    81.596508 
   13700    675.45081   -107.66751   0.61116209   -107.05634     -14111.7    4.3472095    4.3472095    4.3472095     -14111.7   -39025.597   -14042.414     10732.91   -18373.411   -540.12025   -1080.5674    82.154568 
   13800    902.84767   -107.86339   0.81691555   -107.04647    25373.988    4.3183124    4.3183124    4.3183124    25373.988    13416.468    4915.3513    57790.144    1109.0321    2322.2593    5718.5693    80.527119 
   13900    498.44161   -107.50996   0.45100044   -107.05896   -28107.842     4.351504     4.351504     4.351504   -28107.842   -53833.993   -31352.836    863.30164    -19165.37   -4434.3145    1743.8211    82.398283 
   14000    723.66446   -107.70599   0.65478681    -107.0512    -607.1698    4.3340446    4.3340446    4.3340446    -607.1698   -24272.932   -1364.7298    23816.152   -4320.4845    6655.2731   -10589.283    81.410445 
   14100    804.23308   -107.77789   0.72768699    -107.0502    11416.273    4.3269499    4.3269499    4.3269499    11416.273     10600.03    19119.564    4529.2259   -171.18397   -4507.4113     12739.43    81.011301 
   14200    579.73529   -107.58064   0.52455667   -107.05608   -14898.488     4.350362     4.350362     4.350362   -14898.488    -37610.82   -15149.915    8065.2708   -19272.374    -6519.067    6818.0813    82.333425 
   14300     808.3397   -107.77906   0.73140275   -107.04766    19922.179    4.3283301    4.3283301    4.3283301    19922.179    11401.439     3686.782    44678.318    6475.7467    3317.6402     2819.496    81.088845 
   14400    413.60395    -107.4318   0.37423755   -107.05756   -6669.8344    4.3380325    4.3380325    4.3380325   -6669.8344   -28767.724   -22153.091    30911.311   -14765.558   -3371.3402    8228.8464    81.635375 
   14500    722.38887   -107.70799   0.65363263   -107.05435   -12872.472    4.3392734    4.3392734    4.3392734   -12872.472   -33051.599   -19793.128     14227.31   -14696.765    2848.4473   -2657.6894    81.705455 
   14600    1118.8312   -108.06399     1.012342   -107.05165   -2608.6529    4.3328452    4.3328452    4.3328452   -2608.6529   -68.022332   -3288.8809   -4469.0554    6610.0952    402.78346    -11139.99    81.342878 
   14700    482.30989   -107.49606   0.43640412   -107.05965    -15951.29     4.340922     4.340922     4.340922    -15951.29   -27661.993   -27504.255     7312.377   -24892.606   -5263.5443    8953.7261    81.798613 
   14800    713.93926   -107.69916   0.64598724   -107.05317    4404.2458    4.3349494    4.3349494    4.3349494    4404.2458    -15177.96   -4924.7645    33315.462    4740.4122   -9041.8784    551.81461    81.461441 
   14900    549.44933   -107.55169    0.4971533   -107.05454    3854.6817    4.3401764    4.3401764    4.3401764    3854.6817   -18148.705   -9860.3593    39573.109   -4607.9193   -6007.2429    8055.7295    81.756471 
   15000    431.77818   -107.44747   0.39068197   -107.05679    4843.7957    4.3369511    4.3369511    4.3369511    4843.7957   -8055.3666   -12572.877    35159.631   -16355.552   -16287.087    13204.254    81.574339 
   15100    1048.0739     -107.995   0.94831926   -107.04669    2295.8722    4.3347975    4.3347975    4.3347975    2295.8722    4225.9202    3056.1216   -394.42509    9008.3553    2206.2473    2685.7956    81.452877 
   15200    442.81515   -107.45419   0.40066846   -107.05352    -8091.688    4.3432772    4.3432772    4.3432772    -8091.688   -10318.497   -22869.243    8912.6757   -18632.533    346.93847    468.59607    81.931828 
   15300    723.81675   -107.70563   0.65492461    -107.0507   -3787.0456    4.3339569    4.3339569    4.3339569   -3787.0456   -16611.286   -5006.0709     10256.22   -903.53061   -5795.0761    3187.6869    81.405502 
   15400    890.20107   -107.85628   0.80547263   -107.05081    5929.3886    4.3321668    4.3321668    4.3321668    5929.3886   -8664.1064   -8218.7515    34671.024   -7230.8822    8042.2377   -3706.8333    81.304675 
   15500     574.2907   -107.57677   0.51963029   -107.05714    -14183.04    4.3423608    4.3423608    4.3423608    -14183.04    -28121.67   -34862.054    20434.604   -21971.482   -4567.2288    7347.0972     81.87998 
   15600    773.16141   -107.75074   0.69957269   -107.05116   -763.82602    4.3321168    4.3321168    4.3321168   -763.82602    2101.9821    563.68731   -4957.1474    5948.2257    -13630.98    5331.0525    81.301858 
   15700    646.04367   -107.63967   0.58455389   -107.05511   -1800.0704    4.3338307    4.3338307    4.3338307   -1800.0704   -12192.299   -6063.8265    12855.915   -15128.564    7005.9074    1915.0057    81.398392 
   15800    572.77937   -107.57589   0.51826281   -107.05762   -4824.1444    4.3418752    4.3418752    4.3418752   -4824.1444   -1609.8337   -11997.165   -865.43418   -3931.4476   -8829.1759    3410.9415    81.852509 
   15900    924.07424    -107.8881   0.83612179   -107.05197    2904.0621    4.3344233    4.3344233    4.3344233    2904.0621   -6637.8602    6657.0461    8693.0003    3763.7568   -469.31517   -8115.3394    81.431789 
   16000    506.91556   -107.51486   0.45866785   -107.05619    4914.9425    4.3329501    4.3329501    4.3329501    4914.9425   -11980.139   -9353.5821    36078.548   -21065.349    7366.6328    -413.4221    81.348785 
   16100    641.63616   -107.63404   0.58056588   -107.05347   -13991.774    4.3390884    4.3390884    4.3390884   -13991.774   -22001.045   -16363.202   -3611.0732    51.842336    -13151.91    5266.1802    81.695003 
   16200    704.36481   -107.68993   0.63732408   -107.05261   -8548.6889    4.3383581    4.3383581    4.3383581   -8548.6889   -27091.288   -10971.232    12416.453   -11456.408    1613.9368    4669.3539    81.653762 
   16300    784.75218   -107.76406   0.71006026     -107.054   -8451.1438    4.3327597    4.3327597    4.3327597   -8451.1438    -20356.32   -9868.2703    4871.1586   -16666.479   -3824.7891    6504.5257    81.338057 
   16400    827.16407   -107.80257   0.74843543   -107.05414   -2283.3276    4.3367359    4.3367359    4.3367359   -2283.3276    3436.7121    4641.5769   -14928.272    7397.2383   -6510.6474    11343.457      81.5622 
   16500    551.39127   -107.55397    0.4989104   -107.05506    -4898.883    4.3412766    4.3412766    4.3412766    -4898.883   -24498.037   -9615.0313    19416.419    -12040.41    6243.9097   -7613.8479    81.818661 
   16600    443.18415    -107.4561   0.40100233    -107.0551    6928.6476    4.3308523    4.3308523    4.3308523    6928.6476    6500.0357   -6872.5982    21158.505   -2351.5117     2375.895     4185.195    81.230686 
   16700      770.062   -107.75106   0.69676828   -107.05429   -3291.9344    4.3366493    4.3366493    4.3366493   -3291.9344   -16845.486   -10054.807     17024.49   -59.072775   -8447.5082    1778.0449    81.557313 
   16800    759.47401   -107.74144   0.68718804   -107.05425   -13550.074    4.3428186    4.3428186    4.3428186   -13550.074   -27685.698   -25712.099    12747.575   -20886.492    5801.3512    200.89748    81.905876 
   16900    963.79526   -107.92254    0.8720622   -107.05048    931.78546    4.3247328    4.3247328    4.3247328    931.78546    1211.6822    7057.3275   -5473.6533    4393.6218    -9337.172    8693.0238    80.886832 
   17000    502.80165   -107.51323    0.4549455   -107.05829   -7287.6927    4.3398324    4.3398324    4.3398324   -7287.6927   -31260.585   -16238.849    25636.356   -16006.005   -2615.1274   -1651.1343    81.737035 
   17100    560.50528   -107.56367   0.50715695   -107.05651    -9372.521    4.3401193    4.3401193    4.3401193    -9372.521    -28803.62   -16174.455    16860.512   -7968.2962     13280.17   -2368.4257    81.753243 
   17200    748.55806   -107.72785   0.67731106   -107.05054    17850.518    4.3257807    4.3257807    4.3257807    17850.518    15996.768    9035.7339    28519.053     4084.446   -4069.7823    -380.5153    80.945646 
   17300    632.84986    -107.6291   0.57261586   -107.05649   -16160.189    4.3450209    4.3450209    4.3450209   -16160.189    -35100.19   -21915.436    8535.0588   -21305.043    8774.9272   -4727.1747    82.030545 
   17400    870.94513   -107.84026   0.78804946   -107.05221    889.03433    4.3300919    4.3300919    4.3300919    889.03433    61.434196    4071.4353   -1465.7665    765.92215    10406.796     8552.605    81.187905 
   17500    668.01816   -107.65951   0.60443687   -107.05507   -3915.8587    4.3367132    4.3367132    4.3367132   -3915.8587   -14138.301   -7989.4107    10380.136   -9455.3133   -9402.5183    4271.5674    81.560916 
   17600    584.02727   -107.58601   0.52844014   -107.05757   -20413.066    4.3383418    4.3383418    4.3383418   -20413.066   -36221.754   -22650.914   -2366.5319   -19819.212    9241.5636     1781.677    81.652841 
   17700    813.40708   -107.79002   0.73598782   -107.05403    13606.642    4.3275318    4.3275318    4.3275318    13606.642    20.740247    15494.701    25304.484    5534.6622    5811.4184    1638.5283    81.043989 
   17800    675.98517   -107.66765   0.61164559     -107.056    -13911.48    4.3480183    4.3480183    4.3480183    -13911.48   -30767.869   -27589.091    16622.518   -15353.063    2933.0685   -3231.1025     82.20043 
   17900     583.4951   -107.58266   0.52795863    -107.0547    3982.4629    4.3258334    4.3258334    4.3258334    3982.4629   -17721.415    10097.319    19571.485   -2855.3521    18257.049   -5744.2825    80.948605 
   18000    705.08897    -107.6928   0.63797932   -107.05482    8830.5579    4.3375556    4.3375556    4.3375556    8830.5579    10882.939    14354.507    1254.2272    7286.4262    425.55687   -6066.9546    81.608455 
   18100    542.00434   -107.54435   0.49041691   -107.05393   -9825.0625    4.3449047    4.3449047    4.3449047   -9825.0625   -16922.333   -7721.1059   -4831.7483   -13453.528    4381.0992     2419.359    82.023966 
   18200    734.21187   -107.71191   0.66433033   -107.04758    6529.5376     4.327888     4.327888     4.327888    6529.5376    1926.2999    23611.906   -5949.5927    4827.6354     11199.07   -1801.4473       81.064 
   18300     982.1235    -107.9348   0.88864598   -107.04616   -8971.5765    4.3429607    4.3429607    4.3429607   -8971.5765   -15502.306   -10453.462   -958.96208   -8085.7734   -7295.4319    6213.2346    81.913919 
   18400    685.95663   -107.67196   0.62066797   -107.05129   -14581.322    4.3370423    4.3370423    4.3370423   -14581.322   -34667.151   -6516.1383   -2560.6773   -17563.021    11191.088     6673.833    81.579488 
   18500     755.8809   -107.73551   0.68393693   -107.05158   -2593.1016    4.3332499    4.3332499    4.3332499   -2593.1016   -5070.2393    9961.9266   -12670.992    4208.4871    11168.506   -578.20552    81.365672 
   18600    726.42271   -107.71102   0.65728253   -107.05374    9929.5538    4.3323864    4.3323864    4.3323864    9929.5538    15897.712   -969.03028    14859.979   -6608.3981   -1235.4721    7567.8281    81.317036 
   18700    503.63878   -107.51543   0.45570295   -107.05973    2680.7243    4.3382214    4.3382214    4.3382214    2680.7243   -9373.2015    23285.227   -5869.8522   -8436.1085    23816.896   -2016.0019    81.646041 
   18800    835.64577   -107.80874   0.75610985   -107.05263    3367.2012    4.3400168    4.3400168    4.3400168    3367.2012    5107.9365   -3910.1704    8903.8376    8559.2963    1193.1591   -3648.4982    81.747451 
   18900    764.93278    -107.7446   0.69212725   -107.05247    19278.268    4.3194841    4.3194841    4.3194841    19278.268   -4279.6659    22673.297    39441.173   -6941.3412    5075.3832   -2840.0548     80.59269 
   19000    540.36431   -107.55077   0.48893299   -107.06184   -17080.112    4.3463153    4.3463153    4.3463153   -17080.112   -27325.205    1099.0106   -25014.142   -6845.1942     16703.39    1798.5316    82.103883 
   19100    812.39867   -107.78964   0.73507539   -107.05456    -3256.066    4.3354958    4.3354958    4.3354958    -3256.066   -4755.2363   -11677.486    6664.5241    7430.3683   -13713.614   -4860.7628    81.492248 
   19200    580.39821   -107.57964   0.52515649   -107.05448    19459.597    4.3149648    4.3149648    4.3149648    19459.597    19465.755    18908.942    20004.095   -11540.588    16051.062    2858.7286    80.339992 
   19300    674.62158   -107.67117   0.61041178   -107.06076   -21927.629    4.3516105    4.3516105    4.3516105   -21927.629   -29304.526   -17564.958   -18913.405    1893.1878    14021.858   -629.14672    82.404334 
   19400    875.71618   -107.84501   0.79236641   -107.05264    15982.902    4.3288696    4.3288696    4.3288696    15982.902    23021.757   -4740.2733    29667.222    6788.1273   -6461.5362   -1409.6393    81.119173 
   19500    616.49366   -107.61467   0.55781642   -107.05686   -2373.5219     4.327383     4.327383     4.327383   -2373.5219   -10970.924    5808.6468   -1958.2882   -7129.5709     17952.64    2299.0704    81.035627 
   19600    761.39788   -107.74177    0.6889288   -107.05284   -17544.209    4.3469829    4.3469829    4.3469829   -17544.209   -12770.447   -19582.921   -20279.258    5718.8458    2730.3317   -4380.0587    82.141721 
   19700    724.57841   -107.71117   0.65561377   -107.05556    8232.0008    4.3278668    4.3278668    4.3278668    8232.0008    9520.5612   -9369.2896    24544.731     41.12455   -6988.2086    2789.7725    81.062809 
   19800    561.75917   -107.57237    0.5082915   -107.06408   -2292.8997    4.3295174    4.3295174    4.3295174   -2292.8997   -11314.136    1048.1317    3387.3055   -10730.651    30400.836    3611.0551    81.155594 
   19900    891.25165    -107.8637   0.80642322   -107.05728    4685.8122    4.3452695    4.3452695    4.3452695    4685.8122    4679.3672    -7984.127    17362.196    218.99143   -5605.8108    780.89697    82.044627 
   20000    640.02552   -107.63994   0.57910854   -107.06083   -6837.6552    4.3341156    4.3341156    4.3341156   -6837.6552   -10389.937   -7861.7649   -2261.2633   -9805.0325     5639.777    3023.2507    81.414447 
   20100    479.09755   -107.49294   0.43349753   -107.05944    13780.703    4.3200986    4.3200986    4.3200986    13780.703    2803.0877    25184.256    13354.766   -8598.4565    19472.315    10.283041    80.627086 
   20200    914.99888   -107.88065   0.82791021   -107.05274   -14742.819    4.3511447    4.3511447    4.3511447   -14742.819   -10698.158    -23602.55   -9927.7494    2279.2363   -11680.978    591.25845    82.377877 
   20300    513.13069   -107.53097   0.46429144   -107.06668    540.17532    4.3245939    4.3245939    4.3245939    540.17532   -11941.948    10122.426     3440.048   -5555.1954    11563.472     216.4597     80.87904 
   20400     711.1393   -107.71295   0.64345378    -107.0695    19244.427    4.3204529    4.3204529    4.3204529    19244.427    15897.056    14332.429    27503.796   -4879.5037    15996.477   -332.37353    80.646928 
   20500    995.97747   -107.95159   0.90118134   -107.05041   -24274.504    4.3583202    4.3583202    4.3583202   -24274.504   -17393.166   -28669.654    -26760.69    4475.8093   -8534.9719    5662.1632    82.786096 
   20600    361.77528   -107.38573   0.32734187   -107.05838    15921.691    4.3083791    4.3083791    4.3083791    15921.691     8016.423    22459.748      17288.9   -10032.636    17132.582     251.0712    79.972697 
   20700    740.06717   -107.74157   0.66962832   -107.07194   -3288.2468    4.3338676    4.3338676    4.3338676   -3288.2468    11891.295   -19838.695   -1917.3409   -6615.0634    8749.4982    4896.1542    81.400471 
   20800    971.76775   -107.93215   0.87927588   -107.05287    -19306.99    4.3528871    4.3528871    4.3528871    -19306.99   -17269.099   -22118.024   -18533.847    3774.5481   -1353.8702    4989.5505    82.476877 
   20900    475.22661    -107.4768   0.42999502   -107.04681    28317.307    4.3067241    4.3067241    4.3067241    28317.307    29967.979     25008.91    29975.032   -12144.111    25193.274    -1456.897    79.880572 
   21000    914.77595   -107.88218    0.8277085   -107.05447   -13504.842    4.3429119    4.3429119    4.3429119   -13504.842   -16681.611   -25988.695    2155.7786     2910.925    16.064171   -3515.6807    81.911158 
   21100    649.70813   -107.64108   0.58786957   -107.05321    3386.1452     4.335796     4.335796     4.335796    3386.1452       8539.9   -15105.007    16723.543    2556.0621    4582.3746   -1499.3443    81.509182 
   21200    531.83685    -107.5371   0.48121716   -107.05588   -9918.5104    4.3247771    4.3247771    4.3247771   -9918.5104    -11598.87   -12418.683   -5737.9787   -9215.1125    16592.121     -1841.08    80.889318 
   21300    844.19655   -107.81948   0.76384677   -107.05563   -2861.9244    4.3373781    4.3373781    4.3373781   -2861.9244   -5540.7558   -28434.026    25389.009     13682.52   -4961.1722   -4417.9461    81.598436 
   21400     891.9763   -107.86277    0.8070789   -107.05569    2288.9328    4.3315515    4.3315515    4.3315515    2288.9328    7253.3043   -169.64447   -216.86156   -7817.1072    17395.257    5905.0587    81.270036 
   21500    455.36561    -107.4736   0.41202437   -107.06157   -13041.718    4.3374318    4.3374318    4.3374318   -13041.718   -28339.377   -23903.069    13117.292   -3290.6422    14651.606    1851.3022    81.601469 
   21600    706.84574   -107.69506   0.63956888   -107.05549    16772.441    4.3208814    4.3208814    4.3208814    16772.441    15110.195   -3694.4907    38901.619    13463.624   -4434.9265   -1123.5525    80.670924 
   21700    699.76865   -107.69391   0.63316538   -107.06075   -22003.622    4.3431832    4.3431832    4.3431832   -22003.622   -22005.697   -19058.836   -24946.332   -12722.634    18720.856    2312.5808    81.926507 
   21800     541.3627    -107.5526   0.48983635   -107.06276   -10594.184    4.3316672    4.3316672    4.3316672   -10594.184   -31638.056   -21236.728    21092.232     6833.346    5297.0153   -2117.2852    81.276549 
   21900    1028.6261   -107.98551   0.93072254   -107.05479    15150.973    4.3145376    4.3145376    4.3145376    15150.973    9339.4246    8804.7109    27308.783    9014.0227   -6912.5397   -6443.4865    80.316132 
   22000    609.91616   -107.60937   0.55186496    -107.0575   -26998.573    4.3521778    4.3521778    4.3521778   -26998.573   -29617.584   -37865.068   -13513.066   -8037.3728    14408.196   -111.47092    82.436567 
   22100    490.39996   -107.50146   0.44372419   -107.05773    5952.2822    4.3197324    4.3197324    4.3197324    5952.2822     799.2085   -27761.434    44819.072    13622.711    2969.0911    1052.2093    80.606587 
   22200    717.90352   -107.70806   0.64957419   -107.05849   -1173.6777    4.3275982    4.3275982    4.3275982   -1173.6777    6634.7262   -5801.1463    -4354.613   -1466.9478   -11363.105   -1790.4708    81.047718 
   22300    711.67932   -107.69907    0.6439424   -107.05513   -25019.833    4.3429411    4.3429411    4.3429411   -25019.833   -36172.051   -26493.017    -12394.43     -5779.47    13705.654    5157.3581    81.912809 
   22400    820.13485   -107.79419   0.74207525   -107.05211    7221.4966    4.3195757    4.3195757    4.3195757    7221.4966   -6944.5895    1392.0977    27216.982    8644.5021   -9882.5662    5197.0406    80.597814 
   22500    742.11883   -107.72675   0.67148471   -107.05526   -10478.314    4.3371687    4.3371687    4.3371687   -10478.314   -17085.849   -4993.7134   -9355.3807   -4307.7896   -6999.5933   -5867.7432     81.58662 
   22600    577.84407   -107.58024   0.52284546   -107.05739   -3055.7117    4.3301943    4.3301943    4.3301943   -3055.7117   -4137.9399   -23946.482    18917.286    2778.5963    14710.333   -1177.8454    81.193667 
   22700    536.10129   -107.54196   0.48507571   -107.05688    428.53443    4.3338873    4.3338873    4.3338873    428.53443   -725.24778   -7546.1527    9557.0038    4256.8736    -10997.68   -1892.7123    81.401583 
   22800     747.4739    -107.7317   0.67633009   -107.05537    -3541.607    4.3303533    4.3303533    4.3303533    -3541.607    1980.1436    1553.2385   -14158.203    414.48401    -5121.638   -6157.9609    81.202612 
   22900     778.6604   -107.76149   0.70454829   -107.05695    7690.9411    4.3275212    4.3275212    4.3275212    7690.9411   -3415.7587   -1074.2637    27562.846    1181.8516    8318.7037   -1048.3952    81.043392 
   23000    708.83491   -107.69857   0.64136872    -107.0572   -14537.369    4.3402571    4.3402571    4.3402571   -14537.369    -18824.45   -5981.2914   -18806.365    3160.5403   -25358.637    3085.8127    81.761036 
   23100    726.83416   -107.71169   0.65765482   -107.05403    12566.394    4.3178865    4.3178865    4.3178865    12566.394      8180.03    5888.3371    23630.814   -5502.7714   -1364.6033    3855.3311    80.503297 
   23200    539.60882   -107.54782    0.4882494   -107.05958   -5292.2914    4.3392664    4.3392664    4.3392664   -5292.2914   -9587.6857    -17696.24    11407.052   -5760.1555    6035.8089   -1871.5322    81.705057 
   23300    710.94302   -107.70243   0.64327618   -107.05916   -8149.2246    4.3329429    4.3329429    4.3329429   -8149.2246   -3432.4145     1187.472   -22202.731    3752.4709   -29801.098    3509.5783     81.34838 
   23400    927.46787   -107.89267   0.83919242   -107.05347    25501.731    4.3177315    4.3177315    4.3177315    25501.731    20397.164    7630.7838    48477.245   -10625.072    9306.7982   -1382.8271    80.494629 
   23500    676.88589   -107.66864   0.61246058   -107.05618   -23467.529    4.3455522    4.3455522    4.3455522   -23467.529   -25896.265   -22372.905   -22133.417    1581.9614   -13930.706   -3370.7329    82.060641 
   23600    578.26773   -107.57761   0.52322879   -107.05438    13689.687    4.3192079    4.3192079    4.3192079    13689.687    4924.5714   -212.62516    36357.114    1615.9274   -25661.735   -944.77694    80.577229 
   23700    845.75376   -107.82121   0.76525578   -107.05596    788.15229    4.3294617    4.3294617    4.3294617    788.15229    3020.2399   -11124.539    10468.756   -9534.0832    16237.338   -1140.7898    81.152464 
   23800    531.72873   -107.54306   0.48111933   -107.06194   -11042.368    4.3366103    4.3366103    4.3366103   -11042.368   -19505.824    1718.1715   -15339.452    3854.4813   -19873.333    1347.1876    81.555113 
   23900    865.75739   -107.84001   0.78335548   -107.05665    15902.303    4.3259345    4.3259345    4.3259345    15902.303    11097.283    5654.6329    30954.992   -3520.5123   -12117.562    200.05881    80.954279 
   24000     890.2258    -107.8617   0.80549501   -107.05621   -1221.5868    4.3322986    4.3322986    4.3322986   -1221.5868   -1299.2253   -8292.1887    5926.6536   -3205.1943    3468.6807    2780.4577    81.312092 
   24100    227.33628   -107.26931   0.20569864   -107.06361    7048.6897    4.3257578    4.3257578    4.3257578    7048.6897   -309.07106    1427.8148    20027.325    2578.0899   -29847.166   -1320.2849    80.944363 
   24200    947.88457    -107.9135   0.85766588   -107.05583   -12521.982    4.3396915    4.3396915    4.3396915   -12521.982    6119.9454   -26074.088   -17611.804    2608.9393     2858.127   -361.45274    81.729075 
   24300    714.16639   -107.70824   0.64619276   -107.06204     14461.05     4.320281     4.320281     4.320281     14461.05    6695.7578    19398.423    17288.971    402.83092   -5362.4748    2147.3289      80.6373 
   24400    584.66019   -107.59791   0.52901283    -107.0689   -2708.1844    4.3323825    4.3323825    4.3323825   -2708.1844   -293.89838    4222.8349    -12053.49    8167.3813    -22905.24   -1934.1747     81.31682 
   24500    945.86909   -107.91168   0.85584223   -107.05584   -643.89606    4.3402281    4.3402281    4.3402281   -643.89606    7628.0361   -22092.153    12532.429    6004.1949    7727.2593     108.4024    81.759395 
   24600     469.0723   -107.48133   0.42442647   -107.05691    24593.513    4.3103292    4.3103292    4.3103292    24593.513    28996.892    25877.315    18906.331   -2830.2222   -29674.559      3417.36    80.081337 
   24700     468.0799   -107.48711   0.42352853   -107.06358    -16999.59    4.3433765    4.3433765    4.3433765    -16999.59    -1379.141   -25346.948    -24272.68    12580.194   -4601.6623     483.3571    81.937446 
   24800    1012.7508   -107.97201   0.91635822   -107.05565    5923.4032    4.3272529    4.3272529    4.3272529    5923.4032    9870.3521   -4059.4845    11959.342    269.62909    4472.3617    -2156.038    81.028322 
   24900    691.33696   -107.68525   0.62553621   -107.05971     11332.22    4.3177498    4.3177498    4.3177498     11332.22    24647.324     22216.71   -12867.373   -712.98095   -26767.833    4324.3398    80.495653 
   25000    709.34554   -107.69683   0.64183075     -107.055   -23620.455    4.3470792    4.3470792    4.3470792   -23620.455   -28858.244   -36643.139   -5359.9835    16268.149    7774.5346    -1451.609    82.147182 
   25100    763.72417   -107.74055   0.69103368   -107.04951    20877.089    4.3142881    4.3142881    4.3142881    20877.089    36339.433     2513.299    23778.535   -6606.0413   -10576.576   -4259.6216      80.3022 
   25200    462.03324   -107.47888   0.41805738   -107.06082   -5993.2856    4.3319981    4.3319981    4.3319981   -5993.2856   -7421.0204    -3332.049   -7226.7873    9577.2395   -19948.685    4308.6739    81.295177 
   25300    708.57545   -107.69631   0.64113396   -107.05518   -12276.697    4.3378633    4.3378633    4.3378633   -12276.697   -17886.398   -22122.236    3178.5421    11370.585    9548.3156   -1080.0365    81.625824 
   25400    885.92313   -107.85296   0.80160186   -107.05136    19624.076    4.3151241    4.3151241    4.3151241    19624.076    30016.147    21437.971    7418.1087   -9921.2981   -9832.4419   -382.47673    80.348887 
   25500    726.27536   -107.71343   0.65714921   -107.05628   -16866.371    4.3388589    4.3388589    4.3388589   -16866.371   -22838.456   -12913.671   -14846.987    10823.269   -8451.4768    2586.8974    81.682039 
   25600    628.18231   -107.62392   0.56839256   -107.05553   -168.89172    4.3280105    4.3280105    4.3280105   -168.89172    13409.911   -18653.869    4737.2831    -2083.967    7795.5807   -2714.9624    81.070883 
   25700    733.34953   -107.71764   0.66355007   -107.05409    468.83524    4.3269123    4.3269123    4.3269123    468.83524    3719.2243    1447.6698   -3760.3884   -8850.4409   -16080.763   -3083.6668     81.00919 
   25800     517.4607   -107.52622   0.46820932   -107.05801   -3091.6727    4.3332726    4.3332726    4.3332726   -3091.6727   -10513.125   -4813.7924     6051.899    15008.837   -3152.6283   -3597.1667     81.36695 
   25900    681.09478   -107.67405   0.61626887   -107.05778    7403.3596    4.3287212    4.3287212    4.3287212    7403.3596    1208.6173   -5774.8993    26776.361   -9961.1936    10261.995   -5158.0598    81.110829 
   26000    865.99997   -107.83779   0.78357497   -107.05421     3568.776    4.3320381    4.3320381    4.3320381     3568.776    1355.6384   -3874.7739    13225.463    4076.6572   -8740.4057   -1855.6702    81.297428 
   26100    547.31461   -107.55388   0.49522176   -107.05866    8747.0934      4.32304      4.32304      4.32304    8747.0934     18177.26   -9595.5134    17659.534    9588.7061    8772.6007   -820.19525    80.791887 
   26200    656.27031   -107.65209   0.59380717   -107.05828   -12556.125    4.3381987    4.3381987    4.3381987   -12556.125   -1131.0946   -22695.075   -13842.204   -18068.565    3127.3309    1238.0977    81.644762 
   26300     940.7102   -107.90447   0.85117436   -107.05329     2902.528    4.3250507    4.3250507    4.3250507     2902.528    13432.354   -1438.5069   -3286.2626    13285.447   -7443.5195    1990.6118    80.904676 
   26400    535.99331   -107.54659   0.48497801   -107.06162   -534.38485    4.3255626    4.3255626    4.3255626   -534.38485    3506.0405   -18052.515     12943.32   -6070.9747    5930.4751    2876.1056    80.933406 
   26500    858.24806    -107.8341   0.77656088   -107.05753   -12743.137    4.3398627    4.3398627    4.3398627   -12743.137   -18610.191    -25630.66    6011.4411   -16048.716    1038.4043     964.2669    81.738747 
   26600    843.07968   -107.81545   0.76283621   -107.05261    25487.317    4.3167566    4.3167566    4.3167566    25487.317    40235.872   -2073.5937    38299.672    12556.252    227.11221    1437.9113    80.440118 
   26700    336.35626   -107.36872   0.30434221   -107.06438   -9923.5151    4.3356071    4.3356071    4.3356071   -9923.5151   -21969.392   -20771.906    12970.753   -17356.732    12402.499   -4788.9972    81.498524 
   26800    727.21945    -107.7147   0.65800345    -107.0567    6062.7154    4.3300436    4.3300436    4.3300436    6062.7154    11867.348    4348.8349    1971.9634   -5793.9796    8007.2865    155.26995    81.185189 
   26900    813.44908   -107.79177   0.73602582   -107.05575    7513.4502    4.3233676    4.3233676    4.3233676    7513.4502     14506.72    1093.2045    6940.4266    4637.2757    539.72727   -1053.6204    80.810259 
   27000     540.6939   -107.55155   0.48923121   -107.06232   -19912.483    4.3351528    4.3351528    4.3351528   -19912.483   -31676.448   -25601.993   -2459.0083   -21683.617    14464.943    -364.1379    81.472913 
   27100    974.38419   -107.93654   0.88164329   -107.05489    10264.279    4.3216485    4.3216485    4.3216485    10264.279    18510.754    10746.437    1535.6441    4592.2893   -3320.2595    98.919313    80.713901 
   27200    718.14587   -107.70799   0.64979347    -107.0582    -16866.81    4.3380502    4.3380502    4.3380502    -16866.81   -18558.749   -32726.707    685.02567   -10077.682   -1566.6105     1542.164    81.636375 
   27300    380.22093   -107.40575   0.34403189   -107.06172    4679.3463     4.323223     4.323223     4.323223    4679.3463   -5430.3012    6473.7874    12994.553   -15985.334    14012.582    -69.79426    80.802151 
   27400    841.15086   -107.81784   0.76109097   -107.05675    6359.7894    4.3278229    4.3278229    4.3278229    6359.7894    13366.491     10748.61   -5035.7331    9944.9812   -5451.5118   -7616.6521    81.060345 
   27500    689.30192   -107.68164   0.62369486   -107.05795   -10151.751    4.3374466    4.3374466    4.3374466   -10151.751   -15236.123   -23460.732     8241.602   -19419.362    3666.9689    1221.5641    81.602303 
   27600    643.90001   -107.63904   0.58261426   -107.05643    15134.911    4.3153281    4.3153281    4.3153281    15134.911    4900.0148    29403.491    11101.226   -2254.8166    9344.5633   -3184.5709    80.360283 
   27700    783.92966   -107.76506   0.70931603   -107.05574   -15550.223    4.3405532    4.3405532    4.3405532   -15550.223    -14596.15   -5830.4414   -26224.078   -1185.3596   -8751.4745   -1114.3142    81.777766 
   27800    633.38485   -107.62969   0.57309993   -107.05659   -2164.7115    4.3272916    4.3272916    4.3272916   -2164.7115   -8024.6982    1329.0624    201.50122   -21582.912    6730.4073    2885.8373    81.030492 
   27900    607.47579   -107.60542   0.54965686   -107.05576    11977.744    4.3195541    4.3195541    4.3195541    11977.744    11111.894    29908.194    -5086.855     3378.326    5277.8167    4677.1412    80.596608 
   28000    881.03312   -107.85044   0.79717728   -107.05326   -14342.019    4.3401801    4.3401801    4.3401801   -14342.019   -12986.717   -23291.091    -6748.249   -9711.4585   -9938.1146   -3498.4736    81.756684 
   28100    691.21671   -107.67941    0.6254274   -107.05398    16670.266    4.3206868    4.3206868    4.3206868    16670.266    8683.5653    15894.936    25432.298   -11356.581    14853.855     1065.004    80.660024 
   28200    602.34331   -107.60024   0.54501289   -107.05523   -6448.3039    4.3333255    4.3333255    4.3333255   -6448.3039   -12221.953    11773.764   -18896.723    4733.3665   -7513.5844   -852.87178    81.369932 
   28300    761.37225   -107.74256   0.68890561   -107.05365   -1362.4495    4.3269262    4.3269262    4.3269262   -1362.4495    2978.3297    3535.6481   -10601.326   -8163.1149   -8431.7965   -3826.0371    81.009971 
   28400    611.68885   -107.61197   0.55346893    -107.0585    9628.1932    4.3226335    4.3226335    4.3226335    9628.1932   -1464.8891    25431.268    4918.2008   -6680.2838    8894.5366    4448.6905      80.7691 
   28500    799.97086   -107.78157   0.72383045   -107.05774   -14282.779    4.3384967    4.3384967    4.3384967   -14282.779   -22633.867    4663.7218   -24878.191    1196.9853   -14729.461    202.29428    81.661586 
   28600    837.37834   -107.81207   0.75767752   -107.05439    19568.129    4.3189611    4.3189611    4.3189611    19568.129    5977.7747    12412.128    40314.484   -7251.5679     3697.751    7115.6407    80.563418 
   28700    495.43135   -107.50971    0.4482767   -107.06144   -5822.4129    4.3308471    4.3308471    4.3308471   -5822.4129   -8619.1063    13326.906   -22175.038   -6008.4024    12163.597    513.16332    81.230391 
   28800    674.32911   -107.66828   0.61014715   -107.05814   -5178.3948    4.3297485    4.3297485    4.3297485   -5178.3948   -1442.7906    6849.5713   -20941.965    5285.8045   -12154.512    166.84741    81.168594 
   28900    770.96004   -107.75349   0.69758085   -107.05591    14898.763    4.3229484    4.3229484    4.3229484    14898.763    11772.095    12310.467    20613.726   -8073.6596    7856.6002     878.3194    80.786756 
   29000    689.07117   -107.68217   0.62348608   -107.05868   -16708.507     4.337283     4.337283     4.337283   -16708.507       -25674    677.65643   -25129.178    2096.8656    1935.5307    1977.7137    81.593073 
   29100    866.71967   -107.83949   0.78422617   -107.05527    12470.291    4.3215491    4.3215491    4.3215491    12470.291   -582.39673    7401.8232    30591.447    1703.6689   -15206.531   -2122.9918    80.708331 
   29200    755.48468   -107.74079   0.68357841   -107.05721   -2132.2719    4.3286626    4.3286626    4.3286626   -2132.2719   -3253.1095    5242.7755   -8386.4815   -6978.4483    16245.806    5087.9597    81.107534 
   29300    381.72943   -107.40535   0.34539681   -107.05995   -7949.7795    4.3321093    4.3321093    4.3321093   -7949.7795    -6896.175    12614.647    -29567.81    3177.3487   -944.60404    3529.4533    81.301437 
   29400    848.69345    -107.8221   0.76791567   -107.05419    1578.3822    4.3247435    4.3247435    4.3247435    1578.3822    8835.7246    1055.9121   -5156.4902   -2457.4017   -8169.1226   -1496.1283    80.887432 
   29500    690.98076   -107.68253   0.62521392   -107.05731    5104.7889    4.3277103    4.3277103    4.3277103    5104.7889    2027.1565    9419.3444    3867.8657   -4403.1763    13508.694   -751.31946    81.054018 
   29600    646.05057   -107.64528   0.58456013   -107.06072   -7231.5032    4.3333852    4.3333852    4.3333852   -7231.5032   -21392.664    3361.7374    -3663.583    2277.4922   -10233.783   -3720.4744     81.37329 
   29700    803.36412   -107.78187   0.72690073   -107.05497    6324.2717    4.3265716    4.3265716    4.3265716    6324.2717    2884.8416   -1132.1024    17220.076    1252.2162    800.80858   -8272.0271    80.990055 
   29800    534.92919   -107.54268   0.48401517   -107.05866   -3434.1013    4.3246682    4.3246682    4.3246682   -3434.1013   -7081.3706    24658.603   -27879.537    63.052751    14347.283   -296.07818    80.883213 
   29900    561.77795   -107.56856   0.50830849   -107.06025   -15760.446    4.3373545    4.3373545    4.3373545   -15760.446   -15848.742    -337.1813   -31095.414    6914.5523   -14168.752   -340.70296    81.597107 
   30000    888.63331   -107.85892   0.80405409   -107.05486     11057.01    4.3225547    4.3225547    4.3225547     11057.01    15480.435    6474.1227    11216.473    6614.2505    7481.9168   -1382.9408    80.764686 
   30100    593.50962   -107.59747   0.53701997   -107.06045    1554.6206    4.3273926    4.3273926    4.3273926    1554.6206   -14488.608    16200.814    2951.6551   -584.89598   -1445.3591    9740.4708     81.03617 
   30200    643.49307   -107.63946   0.58224605   -107.05722   -6197.7794    4.3356874    4.3356874    4.3356874   -6197.7794     -9822.12   -12970.164    4198.9461    11096.911   -15923.341    -3320.785    81.503054 
   30300    737.41839   -107.71939   0.66723166   -107.05216    10680.208    4.3188215    4.3188215    4.3188215    10680.208    12326.286    13152.689    6561.6499    633.44069    11824.909   -440.14109    80.555606 
   30400    502.16244   -107.51352   0.45436713   -107.05915   -24481.628    4.3373002    4.3373002    4.3373002   -24481.628   -37451.277    792.92899   -36786.536    2103.1231   -3342.5295    352.86897    81.594044 
   30500    921.56286   -107.88726   0.83384944   -107.05341   -770.72009    4.3255334    4.3255334    4.3255334   -770.72009   -522.06525   -11460.919    9670.8243    10820.216   -5263.8611   -8242.5114    80.931766 
   30600      794.818   -107.77402   0.71916803   -107.05485    4050.2333    4.3258579    4.3258579    4.3258579    4050.2333   -5184.0605    4935.3528    12399.407   -6846.4304    12013.583   -8509.5099     80.94998 
   30700    583.79788   -107.58645   0.52823259   -107.05822   -13105.695    4.3333555    4.3333555    4.3333555   -13105.695   -27805.863    -4520.005    -6991.217    9919.6581   -9833.0296    432.92503    81.371618 
   30800    766.62244   -107.74791   0.69365609   -107.05425     12828.23    4.3197455    4.3197455    4.3197455     12828.23        20185   -3148.2031    21447.894    5232.9801    -2828.602    -7869.574    80.607318 
   30900    579.20208   -107.58461   0.52407421   -107.06053   -20993.595    4.3349683    4.3349683    4.3349683   -20993.595   -20386.053   -7273.6232   -35321.107   -3879.7137    14009.318   -2159.0205    81.462506 
   31000    733.07606   -107.72327   0.66330262   -107.05997   -3291.0426    4.3233408    4.3233408    4.3233408   -3291.0426   -9398.3139   -4999.8065    4524.9927    10309.209   -10338.091    1433.7517    80.808755 
   31100    870.63292   -107.84539   0.78776696   -107.05762     -666.885    4.3306465    4.3306465    4.3306465     -666.885    2888.7982   -16501.716    11612.263   -2932.8221    6386.6872   -10486.991    81.219103 
   31200    575.59908   -107.58111   0.52081414   -107.06029   -6267.5802    4.3295033    4.3295033    4.3295033   -6267.5802   -21757.564    6751.1418   -3796.3188   -1057.7771    3270.8345   -512.89108      81.1548 
   31300    679.82358    -107.6721   0.61511866   -107.05698    7793.3608    4.3212225    4.3212225    4.3212225    7793.3608    11827.449    8812.6566    2739.9765    1773.1185   -15295.172   -4044.9885     80.69003 
   31400     622.1472   -107.62105   0.56293186   -107.05812   -12970.468    4.3355542    4.3355542    4.3355542   -12970.468    835.95515   -10996.695   -28750.663   -5780.1178    10978.231    -9235.038    81.495545 
   31500     649.0427   -107.64585   0.58726747   -107.05858    491.70993    4.3241264    4.3241264    4.3241264    491.70993   -828.74212    10795.231   -8491.3587     -1128.53    1062.9498    8404.6691    80.852813 
   31600     834.9156    -107.8104   0.75544918   -107.05495    1063.9961    4.3307872    4.3307872    4.3307872    1063.9961    7327.4449   -13117.878    8982.4214    168.09612   -4746.2374   -4246.9453    81.227021 
   31700    633.01937   -107.63038   0.57276923   -107.05761   -4731.3943    4.3286726    4.3286726    4.3286726   -4731.3943   -1291.7832   -5556.7627   -7345.6371   -5351.8034    16836.847   -6661.7226    81.108101 
   31800    616.56185   -107.61403   0.55787812   -107.05615    2086.6817    4.3262382    4.3262382    4.3262382    2086.6817   -9580.7404    10175.381    5665.4044    3193.3393   -10088.353    3971.8198    80.971329 
   31900    811.52175   -107.78824   0.73428193   -107.05396     -12233.9    4.3328442    4.3328442    4.3328442     -12233.9   -34.519645   -18522.992    -18144.19    -1220.541    -2176.921   -15131.965    81.342817 
   32000    547.64154   -107.55555   0.49551757   -107.06003    2329.2155    4.3255595    4.3255595    4.3255595    2329.2155    1252.3535   -3760.8628    9496.1558   -3929.9414    10895.483   -5935.1268    80.933227 
   32100    938.91145   -107.90776   0.84954681   -107.05822    4256.9298    4.3257294    4.3257294    4.3257294    4256.9298    2322.8591    1600.7084    8847.2221    4598.9485   -12531.886   -1560.4795    80.942764 
   32200    718.65802   -107.70995   0.65025688   -107.05969     6151.241    4.3283086    4.3283086    4.3283086     6151.241    17458.697   -17242.666    18237.691   -4845.7162    4524.2052   -9772.9026    81.087638 
   32300    534.74825   -107.54428   0.48385146   -107.06043   -7432.5469    4.3317546    4.3317546    4.3317546   -7432.5469   -7154.4839   -1071.4119   -14071.745   -4192.8466    10343.123    935.89293    81.281467 
   32400    826.38379   -107.80316   0.74772942   -107.05544    8250.5501    4.3206149    4.3206149    4.3206149    8250.5501    4825.7063    4317.6154    15608.329    3971.6891   -8667.6581    659.55876    80.656001 
   32500    627.06933   -107.62943   0.56738551   -107.06205    -5928.098    4.3323072    4.3323072    4.3323072    -5928.098    2022.5552   -19938.328     131.4786   -7221.9223    8879.5469   -13878.134    81.312579 
   32600    736.10203    -107.7277   0.66604059   -107.06166   -3237.2468    4.3297378    4.3297378    4.3297378   -3237.2468   -13381.039    1231.9062    2437.3924    453.65463    15852.779    4297.8801     81.16799 
   32700    824.81265   -107.80201   0.74630782    -107.0557    13999.062    4.3185292    4.3185292    4.3185292    13999.062    16899.918    6490.9863    18606.281    4515.2158   -10002.772   -10410.391    80.539247 
   32800    520.07948   -107.53112   0.47057884   -107.06054   -13732.523    4.3356386    4.3356386    4.3356386   -13732.523   -1898.9864   -8565.8996   -30732.682   -2638.6867    13435.333   -8325.6903      81.5003 
   32900    610.34943   -107.61014   0.55225699   -107.05788     6212.842    4.3236205    4.3236205    4.3236205     6212.842   -4112.7776    15293.079    7458.2246     3339.688    3778.9399    5797.8559    80.824437 
   33000    749.57509   -107.73611   0.67823129   -107.05788    305.20144    4.3263151    4.3263151    4.3263151    305.20144    3165.2454   -13646.769    11397.128    6255.1766   -10354.436    -7220.495    80.975653 
   33100    717.16972   -107.70838   0.64891024   -107.05947   -5842.0679     4.331393     4.331393     4.331393   -5842.0679   -8500.1189   -9001.3239   -24.760819   -4769.4658    18702.395    -4296.761    81.261115 
   33200    775.89368   -107.75787   0.70204491   -107.05583   -3304.4722    4.3272201    4.3272201    4.3272201   -3304.4722   -10628.608   -4917.8639    5633.0552    5923.3399   -1115.6338    2574.9109    81.026476 
   33300    656.14905   -107.64914   0.59369745   -107.05544   -12885.905    4.3279526    4.3279526    4.3279526   -12885.905   -1395.2837   -18733.514   -18528.917    4917.2675     4321.954   -17107.094    81.067631 
   33400    637.63105   -107.63336   0.57694197   -107.05642    650.67191    4.3254635    4.3254635    4.3254635    650.67191    1163.6463    113.51109     674.8583   -4245.5504    16224.493   -1201.6867    80.927842 
   33500    815.44321   -107.79331   0.73783016   -107.05548   -6765.4875    4.3353433    4.3353433    4.3353433   -6765.4875   -8468.3468   -22927.099    11098.984     14827.23   -4387.5014   -2359.1546    81.483651 
   33600    779.62649   -107.76185   0.70542244   -107.05642    8921.0078    4.3196593    4.3196593    4.3196593    8921.0078    14545.273   -1356.4618    13574.213    2302.3541     4457.901   -9101.0634    80.602493 
   33700    621.36426   -107.62234   0.56222344   -107.06011    2904.1251    4.3270158    4.3270158    4.3270158    2904.1251   -8992.5022     9405.225    8299.6525    3811.8267    15179.315    8868.2076    81.015002 
[...]
   91300    718.04032   -107.71015   0.64969798   -107.06045   -2591.8396    4.3185445    4.3185445    4.3185445   -2591.8396    8920.6584   -9051.7162   -7644.4611    4014.1496    14447.526   -19723.957    80.540108 
   91400    809.75851   -107.79016   0.73268651   -107.05748   -223.18801    4.3221048    4.3221048    4.3221048   -223.18801   -1137.1881   -4294.2486    4761.8726    368.28447   -10889.481   -6840.7844    80.739466 
   91500    546.22814    -107.5526    0.4942387   -107.05837   -10865.961    4.3295067    4.3295067    4.3295067   -10865.961   -13014.815   -3582.6331   -16000.434     8717.038    6567.6091    5044.9555    81.154995 
   91600    561.24412   -107.56747   0.50782547   -107.05964    8097.8656    4.3150963    4.3150963    4.3150963    8097.8656    28504.388    7948.0001   -12158.791   -2225.7011    9361.5453   -22510.189    80.347334 
   91700    958.43583   -107.92359   0.86721288   -107.05637     2121.639    4.3261887    4.3261887    4.3261887     2121.639    -2054.574    8455.6464   -36.155391     612.1442   -10294.615    3223.0536    80.968555 
   91800    593.01525   -107.59787   0.53657266    -107.0613   -627.49394    4.3245972    4.3245972    4.3245972   -627.49394   -2491.8697    5590.1005   -4980.7126     8086.354    7462.2958   -6919.3335    80.879228 
   91900    613.97177   -107.61421   0.55553456   -107.05867    506.54958    4.3183763    4.3183763    4.3183763    506.54958    8865.1121    119.78386   -7465.2473   -4586.2174    4212.7566    -19537.37    80.530698 
   92000    797.25442   -107.77666   0.72137256   -107.05529   -5600.0851    4.3262242    4.3262242    4.3262242   -5600.0851   -7851.2415    4469.1654   -13418.179    6071.1575   -12009.012    5400.0293    80.970549 
   92100    610.13556   -107.61335   0.55206348   -107.06129   -2124.9438    4.3206921    4.3206921    4.3206921   -2124.9438    9198.6607   -9815.8036   -5757.6884    6088.3332    10292.934   -15895.849    80.660322 
   92200    834.18364   -107.81458   0.75478689   -107.05979   -922.82776    4.3242292    4.3242292    4.3242292   -922.82776    2059.0141   -1587.9095   -3239.5879   -6448.9768   -2561.8143   -12862.955    80.858578 
   92300    798.36199   -107.77976    0.7223747   -107.05739    4874.7296    4.3211891    4.3211891    4.3211891    4874.7296   -9388.0823    18826.332     5185.939    1634.5759   -9970.8997    4671.4423    80.688159 
   92400    337.52656   -107.36862   0.30540112   -107.06322   -1110.2318    4.3223248    4.3223248    4.3223248   -1110.2318    5820.1253    4983.7592    -14134.58    5408.4362    13757.959   -18649.803    80.751795 
   92500    775.80841   -107.76077   0.70196775    -107.0588   -5247.0541    4.3265449    4.3265449    4.3265449   -5247.0541   -138.43121    2370.2167   -17972.948   -10331.585   -10865.771    -6503.947    80.988557 
   92600    938.02817   -107.90549    0.8487476   -107.05674    8095.7881    4.3179932    4.3179932    4.3179932    8095.7881    14783.954    9221.4793    281.93054    6718.2403    -1299.081    1235.1083    80.509265 
   92700    580.98732   -107.58746   0.52568954   -107.06177   -14543.554    4.3273103    4.3273103    4.3273103   -14543.554   -9601.0448   -21556.958    -12472.66    2846.8087    13094.623   -21319.094    81.031541 
   92800    749.14511   -107.73503   0.67784224   -107.05719   -2502.1883    4.3217557    4.3217557    4.3217557   -2502.1883   -15376.956    6479.8883    1390.5034   -11154.998   -11192.794    3064.7305    80.719905 
   92900    628.80441   -107.62801   0.56895544   -107.05906    3252.5229     4.318904     4.318904     4.318904    3252.5229    1504.9078    15009.981   -6757.3197     10325.46     7153.014   -5076.6712    80.560219 
   93000     528.4112   -107.54171   0.47811756    -107.0636   -9849.4037    4.3291776    4.3291776    4.3291776   -9849.4037     2592.832   -7763.9154   -24377.128   -6354.4324      7019.35   -19399.747    81.136488 
   93100    1070.1256   -108.02302   0.96827211   -107.05475    11471.727    4.3183473    4.3183473    4.3183473    11471.727    10673.408    18673.184    5068.5882   -4310.4236   -5704.7906    6625.1416    80.529074 
   93200    560.68285   -107.56922   0.50731763    -107.0619   -4107.8682    4.3232515    4.3232515    4.3232515   -4107.8682    4139.4998    -5368.269   -11094.835    6575.9632    6461.7791   -14082.194    80.803747 
   93300    494.91165   -107.51003   0.44780646   -107.06222    -12997.96     4.325509     4.325509     4.325509    -12997.96   -20658.048   -7158.6147   -11177.217   -4213.7426    3439.6605   -15441.904    80.930392 
   93400    941.15876    -107.9063   0.85158023   -107.05472    5240.6803    4.3206592    4.3206592    4.3206592    5240.6803     263.3574     10826.34     4632.344   -1825.7877   -2769.5942    9240.8009    80.658479 
   93500     566.8211   -107.57612   0.51287165   -107.06325   -7700.4584    4.3245909    4.3245909    4.3245909   -7700.4584    4009.9506    -7230.034   -19881.292    4698.8599    6423.1969   -16254.994    80.878872 
   93600    794.99971   -107.77983   0.71933244    -107.0605    4544.7124    4.3219431    4.3219431    4.3219431    4544.7124    4619.3053    6331.5078    2683.3242   -8250.5375    808.14904   -7162.3663    80.730405 
   93700    801.64592     -107.783   0.72534607   -107.05765    6039.3467    4.3225677    4.3225677    4.3225677    6039.3467    2122.6931    16521.029   -525.68196   -1193.2032   -1503.1071    8249.2486    80.765414 
   93800    294.69591   -107.33229   0.26664705   -107.06564   -7408.2692    4.3244584    4.3244584    4.3244584   -7408.2692    3862.3113   -3893.6833   -22193.436    5201.9763     9491.211   -23290.293    80.871438 
   93900    977.47482   -107.94316   0.88443976   -107.05872    6456.4355    4.3204269    4.3204269    4.3204269    6456.4355    3327.7712    9386.1209    6655.4143   -8760.9692   -3447.0456    925.04943    80.645471 
   94000    805.50746   -107.79005   0.72884008   -107.06121    1706.2009    4.3242461    4.3242461    4.3242461    1706.2009    18229.856   -2313.6448   -10797.608    7382.2021    3536.7177    528.84676     80.85953 
   94100    474.44086   -107.49479   0.42928406   -107.06551   -5715.2071    4.3234818    4.3234818    4.3234818   -5715.2071    2015.1826   -3358.2456   -15802.558    50.876875    10674.049    -21924.86    80.816664 
   94200    876.56646   -107.84872   0.79313576   -107.05558    10056.225      4.32099      4.32099      4.32099    10056.225   -5490.2886    27606.049    8052.9144   -2522.1796   -3190.2777    10765.698    80.677008 
   94300    561.41166   -107.57041   0.50797707   -107.06243   -7100.0384    4.3248496    4.3248496    4.3248496   -7100.0384    4419.9216    -3438.676   -22281.361    4598.4319    6021.6542    -10330.29    80.893388 
   94400    629.43472   -107.63232   0.56952577   -107.06279    2778.0715    4.3205644    4.3205644    4.3205644    2778.0715    16728.467   -1900.3546   -6493.8982    2756.1836    7026.6496   -17214.889    80.653174 
   94500    1013.0771   -107.97271   0.91665346   -107.05606    1885.9205    4.3252639    4.3252639    4.3252639    1885.9205    8364.9868    3723.7824   -6431.0076    2783.2419   -8214.9119    9116.2971    80.916641 
   94600    482.69609   -107.49946   0.43675357    -107.0627   -3149.0261    4.3235187    4.3235187    4.3235187   -3149.0261    23302.164   -10034.909   -22714.334    4803.4732    3170.9245   -20315.352    80.818731 
   94700    633.59398   -107.63323   0.57328915   -107.05995    5124.6357    4.3197739    4.3197739    4.3197739    5124.6357   -8503.9274    26760.183   -2882.3488    8276.6072   -1270.8844   -4373.6217    80.608913 
   94800    795.45355   -107.77647   0.71974309   -107.05673   -3496.9374     4.327616     4.327616     4.327616   -3496.9374   -12459.807    20796.545   -18827.551   -4052.9411    -11949.25    3577.4684    81.048721 
   94900    610.90431   -107.61321   0.55275906   -107.06045   -3807.0243    4.3207547    4.3207547    4.3207547   -3807.0243    15255.107   -12015.806   -14660.374    6826.3116    6462.7848   -22829.829    80.663831 
   95000    817.87069   -107.79746   0.74002659   -107.05743    786.04523    4.3225046    4.3225046    4.3225046    786.04523   -2200.3504    10143.142   -5584.6562   -298.60195   -11093.498    3196.4723    80.761876 
   95100    769.00788   -107.75329   0.69581449   -107.05748   -7673.7475     4.326286     4.326286     4.326286   -7673.7475    6579.3039   -6111.3775   -23489.169   -4523.7938   -5665.8868   -10576.131    80.974014 
   95200     503.7489   -107.51636   0.45580259   -107.06056    7464.1992    4.3185911    4.3185911    4.3185911    7464.1992    17985.545     15383.32   -10976.268    7874.1559    3944.3871   -17362.122    80.542713 
   95300    787.58324   -107.77088   0.71262187   -107.05826   -2677.7633    4.3270309    4.3270309    4.3270309   -2677.7633    -24637.32    33017.478   -16413.448    340.34339   -17823.257    7484.1539    81.015848 
   95400    779.16762   -107.76293   0.70500723   -107.05792    3724.0388    4.3211127    4.3211127    4.3211127    3724.0388    19208.192    3795.9198   -11831.996    1405.9114    1830.3039   -17739.758    80.683882 
   95500    593.10934    -107.5973    0.5366578   -107.06064   0.16529983    4.3213322    4.3213322    4.3213322   0.16529983    8268.2595    -3074.587   -5193.1766    3122.3082   -6639.5966   -6075.4511    80.696179 
   95600    722.79531   -107.71171   0.65400039   -107.05771   -9419.5749    4.3271795    4.3271795    4.3271795   -9419.5749   -10509.063    3402.1903   -21151.852    2976.4225    -14095.94     1812.085    81.024198 
   95700    793.56856   -107.77386   0.71803751   -107.05582    6095.7273    4.3202039    4.3202039    4.3202039    6095.7273    21433.845    7777.7154   -10924.378   -1226.5437    3023.0467    -20703.29    80.632987 
   95800    596.23338   -107.59911   0.53948449   -107.05962   -4867.6863    4.3265724    4.3265724    4.3265724   -4867.6863    -11532.05    16519.875   -19590.883    5872.2039   -10153.585    3027.2125    80.990096 
   95900    785.66374   -107.76843   0.71088506   -107.05755     3203.615    4.3210364    4.3210364    4.3210364     3203.615     3253.354    19142.118   -12784.627    1396.4794   -6853.4337   -3018.3075    80.679605 
   96000    734.51937   -107.72233   0.66460856   -107.05772    9116.9178    4.3214896    4.3214896    4.3214896    9116.9178    26397.355    3373.6061   -2420.2078    2014.8472    2543.2106    -11420.08    80.704994 
   96100    388.43561   -107.41394    0.3514647   -107.06247   -13249.679    4.3290487    4.3290487    4.3290487   -13249.679   -10503.894    -3262.051   -25983.092    7987.2856   -15331.389    10336.349    81.129243 
   96200    937.60569   -107.90393   0.84836534   -107.05557    7043.2016    4.3196269    4.3196269    4.3196269    7043.2016     16333.06    13226.842   -8430.2967   -3974.3988    332.11521   -3226.9442    80.600678 
   96300    905.29363   -107.87718    0.8191287   -107.05805    403.67909     4.323299     4.323299     4.323299    403.67909    4744.9278    4193.9708   -7727.8613    3206.7339   -4270.9572   -3565.3173     80.80641 
   96400    414.89593   -107.44152   0.37540656   -107.06611   -10373.067    4.3241078    4.3241078    4.3241078   -10373.067   -5650.1413   -2452.7324   -23016.328    2808.7655   -15718.347    12313.765    80.851773 
   96500    877.25247   -107.85084   0.79375647   -107.05708    8614.5817    4.3231095    4.3231095    4.3231095    8614.5817    20385.339      5217.29    241.11614   -89.415796    8037.2466   -2995.1705    80.795785 
   96600    496.47632   -107.51177   0.44922221   -107.06254   -1500.5363    4.3258295    4.3258295    4.3258295   -1500.5363    171.55992      7929.38   -12602.549    4175.5609   -13291.339     458.8558    80.948386 
   96700    568.67528   -107.58016   0.51454934   -107.06561   -1798.8614    4.3211619    4.3211619    4.3211619   -1798.8614    1915.8917    15287.078   -22599.554    5481.9687   -7476.9049    15558.798    80.686639 
   96800    1221.2963   -108.16077    1.1050546   -107.05571    10224.078    4.3220928    4.3220928    4.3220928    10224.078    11346.729    21122.717   -1797.2132   -1942.3478    4181.0854   -3500.7935    80.738792 
   96900      438.236    -107.4623   0.39652515   -107.06578   -10174.394    4.3266843    4.3266843    4.3266843   -10174.394   -2486.5463    -11684.67   -16351.966    2455.9299   -17839.008    6597.5297    80.996383 
   97000    511.64804   -107.52548    0.4629499   -107.06253    -10591.46    4.3230233    4.3230233    4.3230233    -10591.46    2760.4678   -20310.716    -14224.13    1963.2236   -879.49744    10139.806    80.790951 
   97100     898.6249   -107.86969   0.81309469   -107.05659    9464.9222    4.3189314    4.3189314    4.3189314    9464.9222    14544.245    8404.3554    5446.1665   -5327.8737    1273.4458   -7663.5413    80.561756 
   97200    609.57526   -107.61629    0.5515565   -107.06474   -10390.316    4.3284332    4.3284332    4.3284332   -10390.316   -21193.647    12796.027    -22773.33    6108.8393   -14084.211    7168.3867    81.094641 
   97300    834.21318   -107.81428   0.75481362   -107.05947    5266.6698    4.3227897    4.3227897    4.3227897    5266.6698    10957.497    16489.021   -11646.508    1574.3206    5766.7238    2409.5413    80.777855 
   97400    711.08296   -107.70086    0.6434028   -107.05746    5587.8105     4.318954     4.318954     4.318954    5587.8105    7609.9298    8657.1279    496.37385   -3865.2644   -3660.8968   -6935.1652    80.563018 
   97500     391.3765   -107.41588   0.35412568   -107.06175   -17201.635    4.3285081    4.3285081    4.3285081   -17201.635   -9790.2762   -26566.961   -15247.668    7043.3458   -13182.334    13652.318    81.098852 
   97600    858.75393   -107.83424    0.7770186   -107.05723   -574.84107    4.3208703    4.3208703    4.3208703   -574.84107    10957.355   -2615.0155   -10066.863   -3239.6131    5607.6877   -3247.6378    80.670304 
   97700    867.85217   -107.84365   0.78525088   -107.05839   -1621.2382    4.3221373    4.3221373    4.3221373   -1621.2382   -14294.397    15407.569   -5976.8865   -1258.3941   -8543.0494   -4815.5121    80.741286 
   97800    642.05844   -107.64101   0.58094797   -107.06006   -6824.3894    4.3258978    4.3258978    4.3258978   -6824.3894    -14302.24    3784.8939   -9955.8226    9414.0802   -7850.5245    14065.354    80.952223 
   97900     625.3618   -107.62299    0.5658405   -107.05715    7361.4578    4.3209621    4.3209621    4.3209621    7361.4578    18834.226    10951.634   -7701.4862   -1357.5245    4718.5804   -17082.608    80.675445 
   98000    624.76486   -107.62412   0.56530038   -107.05882   -1243.3084    4.3231465    4.3231465    4.3231465   -1243.3084   -2761.5354    181.14537    -1149.535    4592.4968   -7342.3427    -108.1888    80.797861 
   98100    708.52882   -107.70104   0.64109177   -107.05994   -688.71157    4.3251862    4.3251862    4.3251862   -688.71157    7197.8079   -146.00473   -9117.9379    6858.2875   -5256.0141    5836.1748    80.912277 
   98200     895.8299   -107.86757   0.81056572   -107.05701    1215.4774    4.3227802    4.3227802    4.3227802    1215.4774    11781.023    6839.0163   -14973.607   -4164.4166    3560.9895   -23272.413    80.777322 
   98300     612.4044   -107.61221   0.55411637   -107.05809   -1353.7388    4.3223401    4.3223401    4.3223401   -1353.7388   -16585.667    7501.0972    5023.3532    3043.2798   -11195.564    7055.5491    80.752654 
   98400    501.75598   -107.51317   0.45399935   -107.05917   -7660.5093    4.3262403    4.3262403    4.3262403   -7660.5093    5008.6596   -12453.731   -15536.457    2040.7274   -4542.6876   -9664.2116     80.97145 
   98500     813.2894   -107.79296   0.73588134   -107.05708    1996.8429     4.322259     4.322259     4.322259    1996.8429    9281.1472       4959.2   -8249.8184    203.43448    711.37148   -17952.287    80.748111 
   98600    858.08532   -107.83431   0.77641363    -107.0579    1593.4568    4.3201946    4.3201946    4.3201946    1593.4568   -17564.841    14810.001    7535.2109    5761.1184   -13093.465    6248.1391    80.632465 
   98700    599.81858   -107.60354   0.54272846   -107.06081   -7482.1191    4.3273015    4.3273015    4.3273015   -7482.1191    8604.2059    -8006.599   -23043.964    2879.0944    981.71996   -11587.406    81.031049 
   98800    728.40767   -107.71554   0.65907857   -107.05646    880.10166    4.3222716    4.3222716    4.3222716    880.10166    325.21891    2404.3239   -89.237783   -2587.2747   -1668.4539   -3716.0826    80.748818 
   98900    565.84746   -107.57096   0.51199067   -107.05897   -1481.5322    4.3214545    4.3214545    4.3214545   -1481.5322   -1938.9517   -1327.7618   -1177.8831     6859.059   -10323.056    1876.4811     80.70303 
   99000    646.39641   -107.64697   0.58487305    -107.0621   -4176.7817    4.3258226    4.3258226    4.3258226   -4176.7817    21098.945   -9983.9646   -23645.326   -2866.9613    1372.0643   -16137.749    80.947999 
   99100    1009.1619   -107.96839    0.9131109   -107.05528    6024.8511    4.3232577    4.3232577    4.3232577    6024.8511    -4388.267    23421.911   -959.09058    1152.4178   -8689.8687   -642.82523    80.804097 
   99200    580.72668   -107.58531    0.5254537   -107.05986   -2385.5209    4.3222731    4.3222731    4.3222731   -2385.5209    941.91194    4797.5211   -12895.996    9319.7931   -9976.2222    -10523.52    80.748898 
   99300    422.84035   -107.44407   0.38259484   -107.06148   -4781.6024     4.323488     4.323488     4.323488   -4781.6024    15052.999   -15051.697   -14346.109   -3425.2711    3485.4965   -14304.902    80.817009 
   99400     867.6403   -107.84113   0.78505918   -107.05607    373.40682    4.3249549    4.3249549    4.3249549    373.40682   -13640.059    10142.079    4618.2007    5074.9578   -9823.9894     6819.594    80.899296 
   99500    775.55585   -107.76145   0.70173923   -107.05972   -4159.6522    4.3232038    4.3232038    4.3232038   -4159.6522    9495.1921   -2102.7396   -19871.409    2002.6326   -1244.3723   -21788.571    80.801071 
   99600    764.49739   -107.75171    0.6917333   -107.05998    15.319906    4.3218316    4.3218316    4.3218316    15.319906    4888.5482    3990.4252   -8833.0136   -3021.6617     4005.193   -2748.9621    80.724157 
   99700    797.07689   -107.77707   0.72121192   -107.05586   -4208.9618    4.3256121    4.3256121    4.3256121   -4208.9618   -14376.713    10313.897   -8564.0696   -4282.9288   -10818.662    2573.0287    80.936185 
   99800    408.45217   -107.42947   0.36957611    -107.0599   -2495.8656    4.3225297    4.3225297    4.3225297   -2495.8656    16287.994   -10142.322   -13633.269    408.22804    1478.2859   -23378.745     80.76328 
   99900     671.3856   -107.66655    0.6074838   -107.05907   -528.02299    4.3235771    4.3235771    4.3235771   -528.02299    4464.0705   -4360.6172   -1687.5223   -3359.6507   -4170.8445    11656.839    80.822006 
  100000    883.69784   -107.85693   0.79958838   -107.05734    2838.1824    4.3237663    4.3237663    4.3237663    2838.1824    2212.0937      11562.7   -5260.2468    -6679.563   -11217.199   -6775.0962    80.832618 
Loop time of 21.8061 on 1 procs for 100000 steps with 8 atoms

Pair  time (%) = 6.88466 (31.5722)
Kspce time (%) = 5.26844 (24.1604)
Neigh time (%) = 0 (0)
Comm  time (%) = 1.05863 (4.85475)
Outpt time (%) = 0.0194387 (0.0891438)
Other time (%) = 8.57489 (39.3234)

Nlocal:    8 ave 8 max 8 min
Histogram: 1 0 0 0 0 0 0 0 0 0
Nghost:    2189 ave 2189 max 2189 min
Histogram: 1 0 0 0 0 0 0 0 0 0
Neighs:    2344 ave 2344 max 2344 min
Histogram: 1 0 0 0 0 0 0 0 0 0

Total # of neighbors = 2344
Ave neighs/atom = 293
Neighbor list builds = 0
Dangerous builds = 0
unfix 20
unfix 21
print "seeds:5525261"
seeds:5525261
