LAMMPS (10 Feb 2015)
Reading data file ...
  triclinic box = (0 0 0) to (4.2565 4.2565 4.2565) with tilt (0 0 0)
  1 by 1 by 1 MPI processor grid
  reading atoms ...
  8 atoms
4 atoms in group Mg
4 atoms in group O
Setting atom values ...
  4 settings made for charge
Setting atom values ...
  4 settings made for charge
PPPM initialization ...
  G vector (1/distance) = 0.352908
  grid = 8 8 8
  stencil order = 5
  estimated absolute RMS force accuracy = 3.98663e-05
  estimated relative force accuracy = 2.76856e-06
  using double precision FFTs
  3d grid and FFT values/proc = 3375 512
Neighbor list info ...
  1 neighbor list requests
  update every 1 steps, delay 0 steps, check yes
  master list distance cutoff = 11
Setting up minimization ...
Memory usage per processor = 4.06549 Mbytes
Step PotEng Lx Ly Lz Xy Xz Yz Press Pxx Pyy Pzz Pxy Pxz Pyz eatoms 
       0   -110.76064       4.2565       4.2565       4.2565            0            0            0    174504.14    174504.14    174504.14    174504.14 9.3704156e-11 -1.8744789e-10 -4.5445427e-11   -110.76064 
      10   -110.96575     4.299065     4.299065     4.299065            0            0            0    110293.78    110293.78    110293.78    110293.78 1.4024136e-10 -8.8674493e-11 1.1163093e-10   -110.96575 
      20   -111.08678      4.34163      4.34163      4.34163            0            0            0    53874.038    53874.038    53874.038    53874.038 -1.7149362e-10 -3.6153785e-12 -2.8025662e-10   -111.08678 
      30   -111.12967     4.384195     4.384195     4.384195            0            0            0    4480.0037    4480.0037    4480.0037    4480.0037 2.9824961e-11 1.1991676e-10 2.4884808e-10   -111.12967 
      35   -111.13002    4.3883439    4.3883439    4.3883439            0            0            0  -0.29149971   -0.2914997  -0.29149971  -0.29149971 -2.2034763e-11 5.2889443e-11 3.1711826e-11   -111.13002 
Loop time of 0.0181761 on 1 procs for 35 steps with 8 atoms

Minimization stats:
  Stopping criterion = linesearch alpha is zero
  Energy initial, next-to-last, final = 
        -110.760644492     -111.130018171     -111.130018171
  Force two-norm initial, final = 25.1985 4.50194e-05
  Force max component initial, final = 25.1985 4.47407e-05
  Final line search alpha, max atom move = 0.5 2.23704e-05
  Iterations, force evaluations = 35 47

Pair  time (%) = 0.00466371 (25.6585)
Kspce time (%) = 0.00290298 (15.9715)
Neigh time (%) = 0 (0)
Comm  time (%) = 0.000551224 (3.03269)
Outpt time (%) = 5.6982e-05 (0.3135)
Other time (%) = 0.0100012 (55.0239)

Nlocal:    8 ave 8 max 8 min
Histogram: 1 0 0 0 0 0 0 0 0 0
Nghost:    2189 ave 2189 max 2189 min
Histogram: 1 0 0 0 0 0 0 0 0 0
Neighs:    2344 ave 2344 max 2344 min
Histogram: 1 0 0 0 0 0 0 0 0 0

Total # of neighbors = 2344
Ave neighs/atom = 293
Neighbor list builds = 0
Dangerous builds = 0
pypospack:output_section:begin
tot_energy = -111.130018170686
num_atoms = 8
xx = 4.38834393192064
yy = 4.38834393192064
zz = 4.38834393192064
xy = 0
xz = 0
yz = 0
tot_press = -0.291499705167032
pxx = -0.291499704907524
pyy = -0.291499705134451
pzz = -0.291499705459123
pxy = -2.20347627600699e-11
pxz = 5.28894429779567e-11
pyz = 3.17118260401048e-11
pypospack:output_section:done
pypospack:lammps_sim:done
PPPM initialization ...
  G vector (1/distance) = 0.351569
  grid = 8 8 8
  stencil order = 5
  estimated absolute RMS force accuracy = 4.24255e-05
  estimated relative force accuracy = 2.94629e-06
  using double precision FFTs
  3d grid and FFT values/proc = 3375 512
Setting up run ...
Memory usage per processor = 3.06549 Mbytes
Step Temp PotEng KinEng TotEng Press Lx Ly Lz Press Pxx Pyy Pzz Pxy Pxz Pyz Volume 
       0          700   -111.12999   0.63337471   -110.49662    8009.1283    4.3883439    4.3883439    4.3883439    8009.1283     10565.53    4286.2059    9175.6488   -3420.4117    1832.8663    119.38933    84.508807 
     100    228.31786   -110.61931    0.2065868   -110.41273    7125.4652    4.4147188    4.4147188    4.4147188    7125.4652    23794.348   -16192.644    13774.692    5404.0952   -1364.5444   -889.03417    86.041731 
     200    584.94021   -110.76699   0.52926619   -110.23773   -19985.144    4.4291118    4.4291118    4.4291118   -19985.144   -15471.855   -30015.273   -14468.304    4728.3448    3292.5158   -3501.2506    86.886026 
     300    654.63954   -110.67939   0.59233161   -110.08705    25158.392    4.3970628    4.3970628    4.3970628    25158.392    46177.621    2769.0194    26528.537   -9715.5716   -2719.7217    3453.9584     85.01352 
     400     609.6804   -110.53696   0.55165164   -109.98531   -4027.2772    4.4246523    4.4246523    4.4246523   -4027.2772    2910.1433   -24860.541     9868.566    9116.8552   -2204.6245   -3927.2059    86.623844 
     500    497.95321   -110.34791   0.45055853   -109.89735   -26482.788    4.4468865    4.4468865    4.4468865   -26482.788   -6469.7549   -47452.806   -25525.805   -2045.4945    5669.6681   -1767.9339    87.936288 
     600    1021.3592   -110.76832   0.92414728   -109.84418    20019.908    4.3920114    4.3920114    4.3920114    20019.908    18819.594    5632.1831    35607.948   -11376.746   -12105.581    1822.1692    84.720866 
     700    643.46635   -110.44429   0.58222187   -109.86206   -5942.7323    4.4302304    4.4302304    4.4302304   -5942.7323    14820.477   -35130.769    2482.0958    11423.354    11467.238   -5366.4295    86.951873 
     800    686.21388   -110.47028   0.62090074   -109.84938   -40380.801    4.4444833    4.4444833    4.4444833   -40380.801    -37165.45   -65215.422   -18761.531   -12904.526   -3545.1696   -1362.2352    87.793797 
     900    639.68475   -110.41239    0.5788002   -109.83359    34991.635    4.3918914    4.3918914    4.3918914    34991.635    47289.302    3884.9699    53800.634   -5016.9552   -1406.4275    4935.6667     84.71392 
    1000    650.95848   -110.44564   0.58900091   -109.85664   -6982.1646    4.4341423    4.4341423    4.4341423   -6982.1646   -16001.622    -34592.72    29647.849    5273.9393    4494.7665   -4155.5574    87.182414 
    1100    512.17549   -110.31809   0.46342715   -109.85466   -13914.621    4.4360115    4.4360115    4.4360115   -13914.621   -13642.805   -37865.835    9764.7759   -15131.713   -4485.1372     228.7058    87.292713 
    1200    729.83709   -110.50003   0.66037194   -109.83966    27870.059    4.4020639    4.4020639    4.4020639    27870.059    20821.188    4832.3659    57956.622    3898.1528    5366.5245    6955.2398    85.303929 
    1300    895.06733    -110.6649   0.80987573   -109.85503    -10722.69     4.428755     4.428755     4.428755    -10722.69   -18832.406    -15843.95    2508.2846   -1206.5381   -2942.2815   -7422.0177    86.865028 
    1400    348.76111   -110.17307   0.31556638   -109.85751   -350.49841    4.4341077    4.4341077    4.4341077   -350.49841    5913.0776   -20573.531    13608.959   -8913.2034    1100.3212     6090.147    87.180368 
    1500    1226.1171   -110.95343    1.1094165   -109.84401    -4479.827    4.4079662    4.4079662    4.4079662    -4479.827   -1818.2276   -11799.911    178.65812    3828.8525     1049.559    639.96121    85.647515 
    1600    461.67118   -110.27926   0.41772978   -109.86153    12780.641    4.4240952    4.4240952    4.4240952    12780.641    15998.848   -11609.432    33952.507   -8578.4371    4359.8294   -4410.7553    86.591126 
    1700    679.99627   -110.47148   0.61527492    -109.8562    -20738.68    4.4370169    4.4370169    4.4370169    -20738.68   -16341.284   -32096.348   -13778.408    912.67363   -3112.6346    814.41923    87.352081 
    1800    836.48115   -110.60552   0.75686573   -109.84866    19496.628     4.404554     4.404554     4.404554    19496.628    7735.1962    1212.6381    49542.049    186.18669    8436.2638      721.233    85.448771 
    1900    691.69985   -110.48777   0.62586456   -109.86191    2254.4594    4.4221717    4.4221717    4.4221717    2254.4594    3806.1825   -18745.281    21702.477   -11634.718   -2360.0261   -5130.7676     86.47823 
    2000    510.18951    -110.3167   0.46163019   -109.85507   -12501.951     4.440471     4.440471     4.440471   -12501.951   -29818.024   -33033.265    25345.437    6739.6715   -1119.7146    5151.3363    87.556242 
    2100    735.58962   -110.51048   0.66557695   -109.84491    23389.003    4.4007978    4.4007978    4.4007978    23389.003    26196.708     4747.349    39222.952   -2108.1362     7366.151   -1999.1454    85.230344 
    2200    679.88258   -110.47688   0.61517205   -109.86171   -4381.3002     4.422579     4.422579     4.422579   -4381.3002   -16589.973   -29961.757    33407.829   -7317.0929   -12443.389   -3912.1184    86.502131 
    2300    522.63308   -110.33044    0.4728894   -109.85755   -24362.696    4.4393543    4.4393543    4.4393543   -24362.696   -9998.6189    -43340.12   -19749.349    9967.8397    8115.5001    7249.4995      87.4902 
    2400    819.58198   -110.58551     0.741575   -109.84393    18258.115    4.4007146    4.4007146    4.4007146    18258.115    24787.908    4943.5681    25042.868   -3085.7854   -6479.9291   -6334.8233    85.225512 
    2500    867.73373   -110.64247   0.78514371   -109.85733   -12468.025    4.4267594    4.4267594    4.4267594   -12468.025    686.63705   -26825.095   -11265.617   -2345.9887   -3832.6092    809.07025    86.747657 
    2600    547.63348    -110.3544   0.49551028   -109.85889   -11318.062    4.4298469    4.4298469    4.4298469   -11318.062    4331.5661   -31294.577   -6991.1742    9414.2223    3511.8054    2966.9007    86.929295 
    2700     868.2223   -110.63616   0.78558578   -109.85058     9598.419    4.4134973    4.4134973    4.4134973     9598.419    35313.888   -17121.493    10602.861   -4072.5742   -8835.9267   -2677.3249    85.970328 
    2800    909.93611   -110.68012   0.82332932   -109.85679   -9258.6103    4.4210081    4.4210081    4.4210081   -9258.6103   -8613.0724   -24362.278    5199.5189    525.10497    9122.6576    3120.2469    86.409985 
    2900    333.64478   -110.16771   0.30188881   -109.86583    14202.854    4.4200828    4.4200828    4.4200828    14202.854    55195.435     -34051.4    21464.528    6625.4544    -2804.904    4029.9443    86.355743 
    3000    1039.5113   -110.80506   0.94057164   -109.86449   -18710.609    4.4282004    4.4282004    4.4282004   -18710.609   -13882.481   -32962.982   -9286.3637    398.48431    5697.8438   -6522.2903    86.832397 
    3100    672.20466    -110.4728    0.6082249   -109.86457    32541.362    4.3980211    4.3980211    4.3980211    32541.362    56481.478   -1572.1276    42714.734    2421.9341    -25.69199    5731.4757    85.069117 
    3200    606.39607    -110.4288    0.5486799   -109.88012   -17834.477    4.4344384    4.4344384    4.4344384   -17834.477   -11774.289   -45890.134    4160.9928    3851.6376    2952.9118    175.72213    87.199878 
    3300      721.852   -110.52112   0.65314686   -109.86798   -8302.4707    4.4231142    4.4231142    4.4231142   -8302.4707    1711.0322   -25213.517   -1404.9268   -1415.2872    627.07862   -11090.876     86.53354 
    3400    792.99067   -110.56552   0.71751463     -109.848    29205.175     4.390236     4.390236     4.390236    29205.175    38580.372    2707.5257    46327.627   -3670.6854   -4881.1251    6840.7315    84.618164 
    3500    406.32565   -110.21813   0.36765199   -109.85048    -30219.29    4.4496239    4.4496239    4.4496239    -30219.29   -134.80385   -56588.536    -33934.53    9032.1611    3547.1072    -6364.866    88.098784 
    3600    891.56406   -110.65847    0.8067059   -109.85176     10362.54    4.3968275    4.3968275    4.3968275     10362.54    6787.2301    2160.0604     22140.33   -10449.648   -8479.0939   -6581.1944    84.999873 
    3700    645.24514    -110.4512   0.58383136   -109.86737    10376.929     4.405875     4.405875     4.405875    10376.929    35798.233   -15667.659    11000.213   -4213.8573    2709.4532    5875.5161    85.525676 
    3800    797.74637   -110.56632   0.72181768    -109.8445   -32498.232     4.444093     4.444093     4.444093   -32498.232   -9301.2197   -47282.676     -40910.8    3937.6861   -9195.8118   -8008.9131    87.770672 
    3900    619.75951   -110.39573   0.56077143   -109.83496    41282.479    4.3944112    4.3944112    4.3944112    41282.479    78591.809    13885.707    31369.922   -15227.507   -620.54157   -1620.1399    84.859813 
    4000      793.442   -110.56855     0.717923   -109.85063   -16091.215     4.426623     4.426623     4.426623   -16091.215     4015.102   -37257.384   -15031.364    1169.5746    561.05074     1869.275    86.739636 
    4100     593.0763   -110.38857    0.5366279   -109.85194   -4430.9452    4.4231622    4.4231622    4.4231622   -4430.9452    29830.521   -30836.484   -12286.873   -3743.9604   -5825.8924   -6831.5439    86.536358 
    4200    531.37286   -110.34145   0.48079733   -109.86065    18606.833    4.3990114    4.3990114    4.3990114    18606.833    16635.774    6208.7173    32976.008    -7049.255     2276.783   -792.55675    85.126595 
    4300    784.51171   -110.57688   0.70984268   -109.86704   -18047.505    4.4279618    4.4279618    4.4279618   -18047.505   -10899.045   -31975.738   -11267.732   -2525.3501   -4641.6128    789.47979    86.818363 
    4400    625.22583   -110.42649   0.56571747   -109.86077    -4526.012    4.4259785    4.4259785    4.4259785    -4526.012    9449.8635   -19872.336   -3155.5635   -7349.8121    1094.7171   -5975.3178    86.701758 
    4500    874.84981   -110.64264   0.79158249   -109.85106    9174.1337     4.402451     4.402451     4.402451    9174.1337    2206.7072    5203.7501    20111.944    -9080.191   -12013.137   -167.24656    85.326433 
    4600    625.37069   -110.43005   0.56584854    -109.8642     378.7002     4.421005     4.421005     4.421005     378.7002    42424.982   -29553.045   -11735.836     6846.445    7145.9922   -2339.6291    86.409804 
    4700    775.24789   -110.56874   0.70146058   -109.86728    5396.9902    4.4125255    4.4125255    4.4125255    5396.9902    15738.086   -14681.506    15134.391   -6147.6865    -8500.318   -5520.4039    85.913552 
    4800    583.95183   -110.39622   0.52837189   -109.86785    13399.788    4.4131585    4.4131585    4.4131585    13399.788    45568.829   -15322.477    9953.0108    -9291.866    3120.4597    3182.7504    85.950533 
    4900    693.63214    -110.4907   0.62761294   -109.86309   -8405.9637     4.422951     4.422951     4.422951   -8405.9637    16631.115   -38396.533   -3452.4736    6195.7354    1539.8663   -4828.7666    86.523961 
    5000    851.91725   -110.62816   0.77083263   -109.85732    18805.082     4.402081     4.402081     4.402081    18805.082    20961.336    7418.4348    28035.474   -5280.8541    5801.1009   -2858.6595    85.304922 
    5100    540.19499   -110.35445   0.48877978   -109.86567   -10086.653    4.4257967    4.4257967    4.4257967   -10086.653   -6943.9354   -15160.492   -8155.5333   -2576.9825   -4560.0333    2974.7848    86.691073 
    5200    858.86328   -110.63555   0.77711754   -109.85843     1021.118    4.4062934    4.4062934    4.4062934     1021.118    5116.0378   -14982.418    12929.734    326.00478   -1390.8167   -3083.5422    85.550042 
    5300          611   -110.41719   0.55284564   -109.86435    16605.551    4.4145124    4.4145124    4.4145124    16605.551    31006.384    910.95968    17899.309   -1520.7409     5952.637    -559.4763    86.029661 
    5400    774.70119   -110.56221   0.70096592   -109.86124   -14594.341    4.4241717    4.4241717    4.4241717   -14594.341   -11304.156    -27476.55    -5002.318   -917.40883    -13532.04     -221.528    86.595616 
    5500    521.42634   -110.33174   0.47179751   -109.85995    20718.508    4.4026246    4.4026246    4.4026246    20718.508    54339.644   -20928.928     28744.81     4834.453    2220.0342   -3206.2609    85.336526 
    5600    918.30923   -110.69307   0.83090549   -109.86216   -4329.5348    4.4168412    4.4168412    4.4168412   -4329.5348   -925.80857    -22539.15    10476.355    3050.6029   -9363.1054   -144.62438    86.165886 
    5700    551.92667   -110.36385   0.49939485   -109.86446    9321.0521    4.4177283    4.4177283    4.4177283    9321.0521    38652.424   -13711.082    3021.8139   -2852.9875   -6895.0742   -2599.1659    86.217815 
    5800    688.11465    -110.4867    0.6226206   -109.86408   -3625.3371    4.4141958    4.4141958    4.4141958   -3625.3371    8985.9515   -25535.994     5674.031    8926.5022   -2673.4315   -3662.6022    86.011153 
    5900    823.72374   -110.60469   0.74532255   -109.85937    12263.614    4.4079001    4.4079001    4.4079001    12263.614    28046.682   -11660.507    20404.666    5376.5112    1516.8332     1016.531     85.64366 
    6000    626.46848   -110.43027   0.56684184   -109.86343   -17513.671     4.425735     4.425735     4.425735   -17513.671   -5119.0308   -18573.556   -28848.427   -2135.0103   -11668.775     955.9341    86.687449 
    6100    577.88871   -110.38485   0.52288585   -109.86197   -3336.2508    4.4089362    4.4089362    4.4089362   -3336.2508    11958.034   -28649.693    6682.9068    10224.043    3959.7184   -6574.2024    85.704068 
    6200    807.76385   -110.58888   0.73088171     -109.858    15216.991    4.4041582    4.4041582    4.4041582    15216.991    26353.155   -8408.1904    27706.009    3688.8263   -1466.0312    349.29918    85.425736 
    6300    627.04518   -110.42584   0.56736366   -109.85848   -27976.923    4.4341368    4.4341368    4.4341368   -27976.923   -5337.5176    -39486.91    -39106.34   -2625.0357   -20808.224    312.07717    87.182085 
    6400    629.40166   -110.42569   0.56949585   -109.85619    16470.507    4.3939392    4.3939392    4.3939392    16470.507    20024.631   -11005.316    40392.207    12747.014    9851.0609   -6852.0105    84.832473 
    6500    909.89071   -110.68801   0.82328824   -109.86472    -2496.052    4.4154861    4.4154861    4.4154861    -2496.052    3273.0365   -10643.413   -117.77961   -3335.6639   -12258.677    1569.3107    86.086603 
    6600    706.66637   -110.49738   0.63940658   -109.85797   -26275.341     4.431928     4.431928     4.431928   -26275.341   -22398.659    -29712.02   -26715.346    841.07388     -13778.5   -5938.5133    87.051866 
    6700     634.9626   -110.41856   0.57452751   -109.84404    28031.858    4.3856751    4.3856751    4.3856751    28031.858    35373.508    7347.1387    41374.928    9603.5153    6338.7542   -1626.5573    84.354718 
    6800     688.6686   -110.48249   0.62312182   -109.85936   -9083.7721    4.4252166    4.4252166    4.4252166   -9083.7721   -11101.485   -19502.961    3353.1299   -9741.7611   -17932.431   -308.98655    86.656989 
    6900    701.35864   -110.49125   0.63460403   -109.85665   -3622.8372    4.4186298    4.4186298    4.4186298   -3622.8372    8200.3756   -19011.896   -56.990818     3238.656     863.6079   -5645.2714    86.270604 
    7000    570.74944   -110.36593   0.51642609    -109.8495     15340.51    4.3964054    4.3964054    4.3964054     15340.51    14345.168   -11445.503    43121.864    862.54202    266.86707   -2847.0036    84.975393 
    7100    664.25912   -110.45738   0.60103561   -109.85635    -22662.17     4.425165     4.425165     4.425165    -22662.17   -24775.565   -24118.643   -19092.303   -7527.8484   -11047.979   -251.46958    86.653961 
    7200    813.64758   -110.59047   0.73620543   -109.85426    13810.737    4.4065216    4.4065216    4.4065216    13810.737    9866.9544    8865.3362    22699.919    1523.7689    444.89995   -4064.8648    85.563334 
    7300    794.89223    -110.5752    0.7192352   -109.85597   -5458.1864    4.4166538    4.4166538    4.4166538   -5458.1864    6216.0644   -24201.605    1610.9818   -7496.3404   -6141.7507   -7536.9787    86.154921 
    7400    583.37986   -110.38816   0.52785436    -109.8603   -8869.2765    4.4142144    4.4142144    4.4142144   -8869.2765   -15231.453   -7085.9058    -4290.471   -7326.1056   -9052.4711    4423.8634    86.012242 
    7500    829.77934    -110.6078   0.75080179     -109.857    15399.443    4.4040108    4.4040108    4.4040108    15399.443    28387.629    7544.6873    10266.012    718.45746   -7487.0865   -3872.7276     85.41716 
    7600    704.71808   -110.49751   0.63764372   -109.85986   -15238.215    4.4236961    4.4236961    4.4236961   -15238.215   -11019.894   -30358.311    -4336.439   -5430.8966    3973.0923   -3859.6697    86.567694 
    7700    428.26543   -110.25015   0.38750356   -109.86265    1136.8222    4.4007668    4.4007668    4.4007668    1136.8222   -488.33121   -1985.5593    5884.3572   -10410.738   -16554.076    2437.0044    85.228545 
    7800    798.29353   -110.58833   0.72231276   -109.86602   -4215.2913    4.4198869    4.4198869    4.4198869   -4215.2913   -7596.0358   -12005.766     6955.928   -1920.1912   -2618.6391   -4854.8449     86.34426 
    7900    725.93519   -110.52001   0.65684141   -109.86317   -3636.2329    4.4174129    4.4174129    4.4174129   -3636.2329    4693.2542   -15623.979    22.026083   -3739.7694    12296.625    4269.2667    86.199351 
    8000    511.30411   -110.32071    0.4626387   -109.85807     12195.91    4.3923675    4.3923675    4.3923675     12195.91    1323.0228     7534.311    27730.398   -12321.482   -23296.318   -1365.2377    84.741472 
    8100    888.12127   -110.66306   0.80359079   -109.85947   -22316.385    4.4304237    4.4304237    4.4304237   -22316.385   -25512.316   -22744.009   -18692.829    2145.4894    9083.2467    200.46538    86.963256 
    8200    792.33012    -110.5732   0.71691695   -109.85628    10021.942    4.4057285    4.4057285    4.4057285    10021.942    12574.373   -11450.215    28941.666   -7690.6031    1945.1448    2708.6187    85.517143 
    8300    483.93622   -110.29731   0.43787567   -109.85943   -2895.5786    4.4064079    4.4064079    4.4064079   -2895.5786   -26400.036   -8256.7566    25970.057     -12199.1   -24051.325    973.41357    85.556715 
    8400    850.19241    -110.6229   0.76927196   -109.85363   -12902.336    4.4215519    4.4215519    4.4215519   -12902.336   -20354.326   -18615.551    262.87009    6075.6324     12615.66    2636.9081    86.441875 
    8500    768.05133   -110.54978   0.69494898   -109.85483      8037.49    4.4035878    4.4035878    4.4035878      8037.49    5465.1354   -9024.8919    27672.227   -8416.9132   -6349.6662    1639.3772    85.392551 
    8600    467.80157   -110.28992   0.42327669   -109.86665   -11750.026    4.4139662    4.4139662    4.4139662   -11750.026   -15764.149    -9095.259   -10390.669    -11760.56   -25996.057    2765.3019    85.997732 
    8700    873.96483     -110.651   0.79078174   -109.86022   -378.81125    4.4137821    4.4137821    4.4137821   -378.81125    7616.2598    -7387.927   -1364.7665    6799.2861     9395.652   -1728.8567    85.986972 
    8800    662.41575   -110.46062   0.59936769   -109.86125   -11300.708    4.4204892    4.4204892    4.4204892   -11300.708   -11628.477   -13798.533   -8475.1132   -3392.0096   -5869.3081    4488.7177    86.379564 
    8900    480.67953    -110.2957   0.43492894   -109.86078    8600.0157    4.4011126    4.4011126    4.4011126    8600.0157   -1752.5988    7422.4629    20130.183   -7306.1329   -25524.788   -1457.4306    85.248634 
    9000    835.72235   -110.61586   0.75617914   -109.85968    2856.5208    4.4139532    4.4139532    4.4139532    2856.5208     1241.258   -6780.3997    14108.704    5584.2856    11295.307    583.34129    85.996975 
    9100    646.10905   -110.44811   0.58461304    -109.8635   -13290.855    4.4194061    4.4194061    4.4194061   -13290.855   -27016.607   -9093.0746   -3762.8829   -4603.8008    -3615.618    3289.6649    86.316087 
    9200    494.98436   -110.30941   0.44787225   -109.86153    18218.114    4.3979858    4.3979858    4.3979858    18218.114    6348.0524    5037.6071    43268.683   -2784.3132   -18201.217   -1779.0369    85.067071 
    9300    1063.8924   -110.82003   0.96263223    -109.8574   -10774.495     4.422136     4.422136     4.422136   -10774.495   -9482.3819   -19359.395   -3481.7076    7426.6624    10516.962    1672.1194    86.476139 
    9400    523.63182   -110.33444   0.47379308   -109.86065    12986.584    4.4095993    4.4095993    4.4095993    12986.584   -15548.956    12392.338    42116.369   -7091.0451   -13640.888    900.47954    85.742743 
    9500    597.42308    -110.4041   0.54056096   -109.86354   -7931.6233    4.4114029    4.4114029    4.4114029   -7931.6233   -12253.907   -4932.9644   -6607.9981   -410.78765    -22109.35    7387.8523    85.847996 
    9600    896.13649   -110.66811   0.81084313   -109.85727    5955.4938    4.4080694    4.4080694    4.4080694    5955.4938    2787.9826   -6368.1193    21446.618    3631.5007     4463.434   -2790.0319    85.653529 
    9700    680.03672   -110.48339   0.61531151   -109.86808   -20481.718    4.4196477    4.4196477    4.4196477   -20481.718   -36745.423   -5049.6288   -19650.101   -5659.8127    -21086.33    144.31871     86.33024 
    9800    451.44005   -110.27854   0.40847245   -109.87007   -5265.8181    4.4117207    4.4117207    4.4117207   -5265.8181    -6776.054   -7702.5987   -1318.8015    1857.4087   -18318.342    6477.0139    85.866556 
    9900    1070.6284   -110.82391   0.96872707   -109.85518     17669.55    4.3937344    4.3937344    4.3937344     17669.55    20878.373   -2900.4159    35030.694   -756.65513    5460.8982   -7735.3204     84.82061 
   10000    577.84189   -110.38527   0.52284348   -109.86243   -20796.199    4.4333787    4.4333787    4.4333787   -20796.199    -45086.57   -24033.057    6731.0283   -2884.9829   -18485.294     4643.642    87.137379 
   10100    643.50119   -110.43965    0.5822534    -109.8574    16351.151    4.4018412    4.4018412    4.4018412    16351.151    13650.675    -2549.767    37952.545     2003.916   -6196.8375    850.35708    85.290981 
   10200    777.85961   -110.56357   0.70382372   -109.85974   -1892.9951    4.4110493    4.4110493    4.4110493   -1892.9951   -886.51719   -17744.276    12951.808   -3213.4769    3982.4307   -6761.6462    85.827354 
   10300     695.0249    -110.4845   0.62887313   -109.85562   -9611.8854    4.4207621    4.4207621    4.4207621   -9611.8854   -26171.086    -10227.57    7563.0006    1326.4453   -20761.938    2228.1894    86.395562 
   10400    769.81437   -110.54868   0.69654422   -109.85213    16114.384    4.3981729    4.3981729    4.3981729    16114.384    20345.637   -4405.8534    32403.368   -36.020816    6112.1506    2112.9836    85.077927 
   10500    582.71233    -110.3909   0.52725036   -109.86365   -11002.463    4.4207407    4.4207407    4.4207407   -11002.463   -4565.6575   -30628.936     2187.205   -3530.1209    2147.2301   -6966.9214    86.394308 
   10600    932.39496    -110.6997   0.84365056   -109.85605   -600.25629    4.4158452    4.4158452    4.4158452   -600.25629   -13518.309   -13894.143    25611.683    3060.7169   -14512.553    1524.9092    86.107606 
   10700    620.96617   -110.41929   0.56186324   -109.85743    4160.8497    4.4109139    4.4109139    4.4109139    4160.8497    22835.914   -29588.244    19234.879    866.12547    8157.8872   -8752.3094    85.819454 
   10800    724.83479   -110.51461   0.65584575   -109.85877   -3191.0241    4.4097489    4.4097489    4.4097489   -3191.0241    544.96268   -24512.467    14394.432    -2821.916    3415.4753    99.173234    85.751473 
   10900    845.36326    -110.6226   0.76490245    -109.8577    3800.3776    4.4162283    4.4162283    4.4162283    3800.3776   -3452.5617    -12593.38    27447.075    4135.0932   -10732.619    2527.3622    86.130017 
   11000    510.47931   -110.32486    0.4618924   -109.86296   -14359.278     4.417197     4.417197     4.417197   -14359.278     12025.27   -34247.271   -20855.834    -102.6179    1717.4969   -7248.8491    86.186713 
   11100    653.60462   -110.45157    0.5913952   -109.86017   -228.97039    4.4022539    4.4022539    4.4022539   -228.97039    12206.378   -11828.775   -1064.5135   -2106.3312    205.79434   -3590.9214    85.314976 
   11200    919.20132   -110.69057   0.83171267   -109.85886   -4912.0418    4.4206017    4.4206017    4.4206017   -4912.0418   -1885.6221   -16488.032    3637.5287    5199.9091   -9932.4125   -1538.0352     86.38616 
   11300    488.88343   -110.30506     0.442352   -109.86271    3373.3308    4.4140648    4.4140648    4.4140648    3373.3308    5162.0348   -25222.108    30180.066    762.64825     4713.794   -7790.1378    86.003497 
   11400     713.3401   -110.50495   0.64544511   -109.85951    6442.9728     4.406829     4.406829     4.406829    6442.9728    4289.6352   -18149.199    33188.483    -977.3983    -994.2442   -753.60322    85.581245 
   11500     971.2196   -110.73575    0.8787799   -109.85697    10800.765    4.4117296    4.4117296    4.4117296    10800.765    2874.7295   -12670.917    42198.483    4152.7547   -4248.6616   -57.637167    85.867075 
   11600    643.14548   -110.44499   0.58193155   -109.86306   -10935.249    4.4177624    4.4177624    4.4177624   -10935.249   -10664.785   -27393.858    5252.8976   -550.11224    11118.317   -10561.171    86.219813 
   11700    604.20834   -110.40914    0.5467004   -109.86244   -8272.8261    4.4109839    4.4109839    4.4109839   -8272.8261    6135.8378   -20520.403   -10433.913   -1418.5374    6328.9708    4006.3157    85.823541 
   11800     1025.737   -110.78629   0.92810839   -109.85818    4337.5314    4.4078597    4.4078597    4.4078597    4337.5314   -4132.4684   -4765.3328    21910.395     1397.986    2118.4083    -4007.689    85.641307 
   11900    519.97686   -110.33102   0.47048599   -109.86054   -27467.269    4.4315356    4.4315356    4.4315356   -27467.269   -17246.977   -42638.696   -22516.134   -2318.1239    13883.109   -1061.8933    87.028748 
   12000    716.66526   -110.50434   0.64845379   -109.85589    9692.4526    4.3952256    4.3952256    4.3952256    9692.4526    17243.531   -6435.2573    18269.084   -3637.4515    7429.2668    6444.6135    84.907002 
   12100    1014.5583   -110.78137    0.9179937   -109.86337   -2217.8869    4.4135404    4.4135404    4.4135404   -2217.8869   -14689.968   -19260.088    27296.395   -1138.1623   -2366.0057   -3050.2513    85.972848 
   12200    512.53673    -110.3248     0.463754   -109.86105   -20293.727     4.429618     4.429618     4.429618   -20293.727   -13835.467   -48168.266    1122.5533   -1120.8777    1270.5234    2121.4399    86.915822 
   12300    797.70813   -110.56742   0.72178308   -109.84564    19959.448    4.3910423    4.3910423    4.3910423    19959.448    7958.1662    -3891.668    55811.846   -4947.4768    11349.978    5602.6329    84.664793 
   12400    772.56923   -110.55349   0.69903688   -109.85445   -14406.828    4.4244648    4.4244648    4.4244648   -14406.828   -14562.032   -26781.621   -1876.8321     188.5329   -15662.133     -2230.56    86.612833 
   12500    526.43208   -110.33665   0.47632681   -109.86032    -7300.696    4.4090498    4.4090498    4.4090498    -7300.696     3081.482   -27914.895     2931.325   -911.24614   -5247.3755     4212.925    85.710693 
   12600    702.73235   -110.49657     0.635847   -109.86072    2035.5556    4.4027017    4.4027017    4.4027017    2035.5556    14004.148   -6588.6538   -1308.8273   -6835.8422    2985.7837    7437.3198    85.341013 
   12700    770.05831   -110.55651   0.69676494   -109.85974   -21374.184    4.4228895    4.4228895    4.4228895   -21374.184   -21682.555   -19256.683   -23183.316    1915.6333   -25115.598   -3945.2349    86.520352 
   12800    623.60256   -110.42386    0.5642487   -109.85961    12693.281    4.4003757    4.4003757    4.4003757    12693.281    28522.581   -19473.083    29030.345   -3853.7544     3989.593    9864.5918    85.205823 
   12900     802.4297   -110.58673   0.72605525   -109.86067   -5202.3957    4.4179723    4.4179723    4.4179723   -5202.3957    5866.2875   -26660.188    5186.7134    -3869.766   -6462.1056    5732.9188    86.232103 
   13000    692.60708   -110.48399   0.62668544   -109.85731     10790.53     4.408053     4.408053     4.408053     10790.53   -1884.4204   -6779.4591    41035.468      2960.24   -12639.869   -41.304918    85.652575 
   13100    608.86294   -110.41041   0.55091199    -109.8595   -3010.6721    4.4117765    4.4117765    4.4117765   -3010.6721    12644.959   -30448.997    8772.0219   -4853.0897    10721.862    9774.8524    85.869809 
   13200    694.27827   -110.48409   0.62819757   -109.85589   -10418.182    4.4144634    4.4144634    4.4144634   -10418.182    861.76516   -20421.006   -11695.304   -1405.0279   -16841.858    1895.9782    86.026798 
   13300    723.66346   -110.51099   0.65478591   -109.85621    4650.9521    4.4024504    4.4024504    4.4024504    4650.9521    3912.8192    1480.3578    8559.6793    1458.5723   -10011.337     3743.802      85.3264 
   13400    595.65599   -110.39786   0.53896206   -109.85889    -8339.948    4.4199204    4.4199204    4.4199204    -8339.948    6569.7544   -38347.352    6757.7536   -3879.8841    5417.9481    8569.5422    86.346224 
   13500    786.99561   -110.56928   0.71209017   -109.85719    5645.9955    4.4041083    4.4041083    4.4041083    5645.9955    11208.441   -11421.497    17151.043    243.28773   -14328.933    311.47109    85.422831 
   13600    735.12138    -110.5305   0.66515327   -109.86534    2795.1856    4.4084576    4.4084576    4.4084576    2795.1856   -13522.705   -9028.7956    30937.057    2708.4889   -14679.532    2107.1035    85.676161 
   13700    815.66972   -110.60005    0.7380351   -109.86202   -2807.3029    4.4166723    4.4166723    4.4166723   -2807.3029    4754.2506   -33581.276    20405.117   -3643.0406   -511.44367    11304.974    86.156004 
   13800    581.12969   -110.38745   0.52581835   -109.86163    4554.1067    4.4105802    4.4105802    4.4105802    4554.1067   -10461.995   -9022.7135    33147.028    1248.3087   -4313.0233   -4634.4635    85.799978 
   13900    804.31109   -110.58707   0.72775758   -109.85931   -7550.0379    4.4078765    4.4078765    4.4078765   -7550.0379   -15096.362   -5975.8197   -1577.9318    6661.1663   -19503.269    4992.4919    85.642289 
   14000    714.84523   -110.50711   0.64680699    -109.8603    14528.568    4.4057416    4.4057416    4.4057416    14528.568    17438.619   -15155.496    41302.581   -3952.0308    8561.4138    6543.5198    85.517905 
   14100    554.81857   -110.36452    0.5020115    -109.8625   -27610.263    4.4281239    4.4281239    4.4281239   -27610.263   -30134.474   -28810.064   -23886.252    4168.2802   -14508.299    -7572.436    86.827901 
   14200    667.46275   -110.46342   0.60393432   -109.85949    7845.7296    4.3988387    4.3988387    4.3988387    7845.7296   -2315.8414    2161.8572    23691.173    4380.8967   -8115.3605      4464.72    85.116567 
   14300    742.92913   -110.53619   0.67221789   -109.86398    6783.7161    4.4084172    4.4084172    4.4084172    6783.7161    11523.291   -23407.819    32235.676   -3244.5509    8577.5023    3137.6973    85.673805 
   14400    515.09398   -110.32943   0.46606786   -109.86336   -27541.534    4.4299626    4.4299626    4.4299626   -27541.534   -41130.803   -29820.657   -11673.143    6281.0605   -21181.131   -6274.0358    86.936107 
   14500     844.0818   -110.61456   0.76374296   -109.85082    20023.124    4.3882112    4.3882112    4.3882112    20023.124    12088.962    10260.826    37719.583    3140.7979   -5896.0995    4361.2152    84.501137 
   14600    872.97172   -110.65224   0.78988316   -109.86236   -10111.332    4.4152197    4.4152197    4.4152197   -10111.332    6302.5087   -26258.786   -10377.718   -2529.8425    3588.5277    4069.4182     86.07102 
   14700    430.69798   -110.25434   0.38970458   -109.86464    -24119.36    4.4247551    4.4247551    4.4247551    -24119.36   -28155.991   -22658.443   -21543.646    8756.7549   -24536.565   -7517.4657    86.629883 
   14800    921.26525   -110.68509   0.83358016   -109.85151    16662.906    4.3909233    4.3909233    4.3909233    16662.906    18217.119    6800.6482    24970.951    3425.6227   -5937.0842    8563.9402     84.65791 
   14900    746.55837   -110.53788   0.67550171   -109.86238    6254.8498     4.413268     4.413268     4.413268    6254.8498    6491.8643   -13902.025     26174.71   -1655.4139    4436.7482   -2145.0385    85.956931 
   15000    348.48129   -110.18556   0.31531319   -109.87025   -9150.8759    4.4173539    4.4173539    4.4173539   -9150.8759   -24765.987   -21573.525    18886.884     8958.199   -19871.374   -8849.4192    86.195896 
   15100     884.7235   -110.66331   0.80051642   -109.86279    11499.945    4.3975064    4.3975064    4.3975064    11499.945    6329.2244    68.702667    28101.907    726.33423    778.29673    2045.9305    85.039252 
   15200    818.17009   -110.60848   0.74029749   -109.86819    6682.3165    4.4142079    4.4142079    4.4142079    6682.3165   -1936.0167    -18672.04    40655.006   -120.10277    628.21303   -2916.3839    86.011864 
   15300    368.75054   -110.20403   0.33365323   -109.87038   -14588.044    4.4222576    4.4222576    4.4222576   -14588.044   -21465.148   -25936.404    3637.4205    11597.649   -23311.989   -6910.8718    86.483273 
   15400    988.28626   -110.75181   0.89422218   -109.85758    16676.915    4.3958518    4.3958518    4.3958518    16676.915    17196.122    898.55382     31936.07   -2406.5411    7620.2123    63.245464    84.943302 
   15500    1004.0309   -110.77144    0.9084683   -109.86297   -5812.4832    4.4129193    4.4129193    4.4129193   -5812.4832   -2521.6405   -21300.791     6384.982    1396.6731   -4438.7645   -2227.7109    85.936559 
   15600    294.42789   -110.14048   0.26640454   -109.87408    -13194.53       4.4185       4.4185       4.4185    -13194.53   -13482.856   -31077.675    4976.9405    10828.167   -9611.3692   -6540.7922    86.263005 
   15700    920.09156   -110.69374   0.83251818   -109.86122    13656.835    4.4022649    4.4022649    4.4022649    13656.835     20400.27   -8988.6018    29558.837   -6484.3245    620.71335    605.20534    85.315615 
   15800    682.63832   -110.47833    0.6176655   -109.86067   -9584.5145    4.4232638    4.4232638    4.4232638   -9584.5145   -20297.621   -32237.505    23781.583    5474.3981   -1074.8175   -4851.5742    86.542317 
   15900    313.25413   -110.14962   0.28343892   -109.86618     6377.271    4.4010938    4.4010938    4.4010938     6377.271    3990.9679   -10144.736    25285.581    8861.5761   -11974.507   -2974.7493    85.247541 
   16000     789.7286   -110.57949   0.71456304   -109.86493    5204.5145    4.4109843    4.4109843    4.4109843    5204.5145   -647.43653   -16214.066    32475.046   -10122.641    5659.5097   -2363.7428    85.823561 
   16100      800.992   -110.58671   0.72475439   -109.86195   -9649.7468    4.4196105    4.4196105    4.4196105   -9649.7468   -14235.803   -23463.056    8749.6188    4453.7806    3097.5768    2214.1464    86.328061 
   16200    489.47067   -110.30592   0.44288335   -109.86304    11758.937     4.397604     4.397604     4.397604    11758.937    14155.555   -4088.7898    25210.046    7348.5842   -17698.146    -6044.609    85.044918 
   16300    1007.9749   -110.77256   0.91203685   -109.86052   -13240.895    4.4221511    4.4221511    4.4221511   -13240.895   -14056.069   -27917.375    2250.7572   -6944.7117    8926.1627   -1337.5766    86.477021 
   16400    740.81878   -110.52919    0.6703084   -109.85889   -803.33014    4.4121858    4.4121858    4.4121858   -803.33014    2833.1464   -7636.3335    2393.1967    5858.9197   -5512.5941    3767.8523    85.893716 
   16500    663.57756   -110.45888   0.60041892   -109.85846    3875.6604    4.3950334    4.3950334    4.3950334    3875.6604   -1876.5759   -2740.4501    16244.007    3852.2182   -20515.513   -7739.1233    84.895866 
   16600    756.03563   -110.54492   0.68407693   -109.86084   -13169.834    4.4223509    4.4223509    4.4223509   -13169.834   -19570.897   -28628.338    8689.7322   -5039.3585    3969.5152    8377.2578    86.488744 
   16700    689.65432   -110.48236   0.62401372   -109.85835    5957.0275    4.4082706    4.4082706    4.4082706    5957.0275   -6196.3121   -10158.735     34226.13    5831.5655   -6616.7775    1802.8513    85.665259 
   16800    561.61908   -110.36888   0.50816475   -109.86072    2291.9987    4.4056956    4.4056956    4.4056956    2291.9987   -23409.571   -8778.2449    39063.812     991.3852   -16013.293    -5692.333    85.515229 
   16900    638.85671   -110.43873   0.57805097   -109.86068    -11257.46    4.4144327    4.4144327    4.4144327    -11257.46   -8476.4131   -20387.731   -4908.2352   -4367.9587    12241.876    13192.385    86.025001 
   17000    854.50038   -110.63206    0.7731699   -109.85889   -4310.9848    4.4035939    4.4035939    4.4035939   -4310.9848   -8964.3215   -3167.1884   -801.44456     4507.558   -2693.4906    530.68055    85.392902 
   17100    626.99504   -110.42931   0.56731828     -109.862   -11213.061    4.4146934    4.4146934    4.4146934   -11213.061   -22450.534   -15861.027    4672.3787    2141.1456   -23327.674   -2275.6622    86.040247 
   17200    807.42126   -110.58915   0.73057172   -109.85858   -4289.0394    4.4059831    4.4059831    4.4059831   -4289.0394    2636.9188   -11518.876   -3985.1611   -3520.4324     20531.84    16568.522    85.531971 
   17300    753.55211   -110.54236   0.68182979   -109.86053   -6613.2512    4.4141691    4.4141691    4.4141691   -6613.2512   -20229.282   -8441.4393    8830.9675     4331.992   -7036.1835   -1726.9128    86.009594 
   17400    726.89954   -110.52089   0.65771398   -109.86318   -3921.3161    4.4049629    4.4049629    4.4049629   -3921.3161   -19513.559   -2766.0146    10515.626    170.86679    -22601.62   -47.795964     85.47257 
   17500    601.47219    -110.4074   0.54422467   -109.86318    12931.182     4.400802     4.400802     4.400802    12931.182    6711.3446   -3919.9353    36002.137    -2676.595    12958.449      18172.2    85.230588 
   17600    691.87994   -110.48288   0.62602751   -109.85686   -22497.552    4.4304387    4.4304387    4.4304387   -22497.552   -38561.675    -16447.36   -12483.621    3142.4766   -16163.644   -7896.3327    86.964141 
   17700    566.53685   -110.36909   0.51261445   -109.85648    23708.903    4.3892161    4.3892161    4.3892161    23708.903     9087.426    19407.806    42631.478    -1259.291    -13862.77     7543.338    84.559206 
   17800    746.93922   -110.53908   0.67584631   -109.86323   -1597.6486    4.4045922    4.4045922    4.4045922   -1597.6486    4746.0075    -6613.905   -2925.0483   -1373.9262    10472.515    17709.075    85.450994 
   17900    686.81706   -110.47658   0.62144651   -109.85514   -25110.161    4.4276805    4.4276805    4.4276805   -25110.161   -40673.529   -6128.2401   -28528.713   -1638.9469   -16590.949   -7741.0334    86.801821 
   18000    873.04689   -110.63712   0.78995117   -109.84717    16793.345    4.3857969    4.3857969    4.3857969    16793.345    10590.152    18924.052    20865.832    1391.8276   -11306.466    14045.736    84.361742 
   18100    739.48536   -110.52651    0.6691019   -109.85741   -9201.2775    4.4186794    4.4186794    4.4186794   -9201.2775   -11317.641   -17656.656    1370.4647   -1298.2393    9241.5443    12113.288    86.273513 
   18200    723.09281   -110.51203   0.65426957   -109.85776   -3517.0939    4.4114788    4.4114788    4.4114788   -3517.0939   -33236.739    8491.8416    14193.615   -3764.6911   -10068.706   -3427.9855    85.852431 
   18300    591.24811    -110.3925   0.53497372   -109.85753    27002.919    4.3943796    4.3943796    4.3943796    27002.919    5579.2749     20355.33    55074.152    3380.5987   -12977.367    11114.129    84.857985 
   18400    812.96712   -110.59132   0.73558973   -109.85574   -6325.3748    4.4199427    4.4199427    4.4199427   -6325.3748   -23113.047   -12385.087    16522.009   -4327.3721    13196.437    5272.1065    86.347529 
   18500    483.83804   -110.29788   0.43778683    -109.8601   -5459.4084    4.4099615    4.4099615    4.4099615   -5459.4084   -32936.006    15101.181    1456.5994     1291.977    -14153.35    37.072231    85.763872 
   18600    770.87349   -110.55573   0.69750253   -109.85823    6634.1352    4.3985581    4.3985581    4.3985581    6634.1352   -5215.0558    14480.118    10637.344    4581.0834   -6166.5075    4829.2159    85.100282 
   18700    936.62823    -110.7054    0.8474809   -109.85792   -5897.1622    4.4176685    4.4176685    4.4176685   -5897.1622   -22793.749   -9029.3195    14131.582   -2671.0407     8173.203    4161.7639    86.214311 
   18800     462.4975   -110.28476   0.41847746   -109.86628   -9411.8999    4.4127162    4.4127162    4.4127162   -9411.8999   -35614.099    7455.8749   -77.475734    4816.1337   -12629.867   -2377.8324    85.924695 
   18900    829.05254   -110.61077   0.75014416   -109.86062    15402.511    4.3985801    4.3985801    4.3985801    15402.511    -6557.344    6222.1563    46542.721    5315.5082   -857.50583    666.70938     85.10156 
   19000    795.89769   -110.57831   0.72014496   -109.85817   -4304.1728    4.4211111    4.4211111    4.4211111   -4304.1728   -27245.029   -16211.756    30544.266   -654.97164    4727.9176    851.96846    86.416023 
   19100    351.95599   -110.18534   0.31845717   -109.86688   -11523.767    4.4088896    4.4088896    4.4088896   -11523.767   -36260.333    6258.0739    -4569.041    4330.2759   -15023.171   -10248.082    85.701349 
   19200    887.15112   -110.66116   0.80271298   -109.85844    18513.718    4.3968509    4.3968509    4.3968509    18513.718   -707.88093    12487.219    43761.815    2865.3512    -1712.193    1855.5387     85.00123 
   19300    877.77338   -110.65362    0.7942278   -109.85939   -23971.263    4.4246425    4.4246425    4.4246425   -23971.263   -35123.836   -11923.163   -24866.791   -2790.7423   -1374.5106   -3799.9206    86.623264 
   19400    348.91637   -110.18307   0.31570686   -109.86737   -1322.5105     4.396804     4.396804     4.396804   -1322.5105   -17499.889    21790.924   -8258.5667    4311.6471   -15406.412   -9512.7827     84.99851 
   19500     980.5473   -110.75093   0.88721981   -109.86371     8187.419    4.4042787    4.4042787    4.4042787     8187.419   -7927.7254     -2213.09    34703.072    1302.0513    4082.6194   -5182.0184    85.432751 
   19600    594.18519    -110.3962   0.53763125   -109.85857   -12844.819    4.4264281    4.4264281    4.4264281   -12844.819   -32536.515   -18304.444    12306.502    -4774.771    -12561.32   -812.27897    86.728181 
   19700    380.50044   -110.19929    0.3442848     -109.855    19261.107    4.3920072    4.3920072    4.3920072    19261.107   -6132.2859    24602.613    39312.994    1578.2721   -10658.069   -4715.7689     84.72062 
   19800    856.91089   -110.62901   0.77535098   -109.85365    1412.3372    4.4110929    4.4110929    4.4110929    1412.3372   -15219.147   -9977.3021    29433.461   -4746.8546    5061.0781   -3613.6294    85.829898 
   19900    633.77264   -110.42981    0.5734508   -109.85636   -10034.726    4.4155089    4.4155089    4.4155089   -10034.726   -20665.876   -9886.9006    448.59844   -4869.5643   -12539.653    2931.3774    86.087933 
   20000    633.49486   -110.42981   0.57319946   -109.85661    1236.5059    4.4007504    4.4007504    4.4007504    1236.5059   -11955.572    22356.619   -6691.5294    3216.6922   -4629.9281   -12128.116    85.227591 
   20100    885.86007   -110.65631   0.80154481   -109.85476   -2448.6714    4.4091438    4.4091438    4.4091438   -2448.6714   -5560.9059   -8327.5481    6542.4397   -9300.8744    5070.1946     7404.023    85.716175 
   20200    582.33163    -110.3846    0.5269059    -109.8577   -8353.5484    4.4158765    4.4158765    4.4158765   -8353.5484   -16432.305   -7103.6209   -1524.7192   -4822.7626   -13547.549    4776.0916    86.109438 
   20300    806.17298   -110.58242   0.72944225   -109.85298    -5666.107    4.4039545    4.4039545    4.4039545    -5666.107   -19297.185    3654.1067   -1355.2429    2670.9767     1910.618   -11875.693    85.413885 
   20400    602.63472   -110.40254   0.54527656   -109.85726    8260.7851    4.4035059    4.4035059    4.4035059    8260.7851    3231.7874   -5784.5565    27335.125    -10891.72    7431.2943     13890.02    85.387786 
   20500    670.86794   -110.46401   0.60701541   -109.85699   -9696.2302    4.4169348    4.4169348    4.4169348   -9696.2302   -21137.791   -6623.8732   -1327.0271    1716.7054   -16538.554    7893.5734    86.171361 
   20600    748.27916   -110.53116   0.67705871    -109.8541    3676.2644    4.4043114    4.4043114    4.4043114    3676.2644   -17044.003    2520.2621    25552.534   -2502.3188    4723.2553   -2697.1592     85.43465 
   20700    614.68221   -110.41465   0.55617739   -109.85848    4237.6971    4.4024075    4.4024075    4.4024075    4237.6971   -4948.4493   -7433.3389     25094.88    -13919.39    512.06131    17386.716    85.323906 
   20800    723.37533   -110.50981    0.6545252   -109.85529   -3514.0529    4.4168439    4.4168439    4.4168439   -3514.0529     -22148.2    1605.3957    10000.645    4104.4977   -11617.771    7827.0713    86.166045 
   20900    801.20112   -110.57959   0.72494361   -109.85464   -7398.0389    4.4069294    4.4069294    4.4069294   -7398.0389   -19333.426   -466.10544    -2394.585   -5507.8683    10148.652   -179.08722    85.587093 
   21000    539.12573   -110.34572   0.48781229   -109.85791   -2179.2838    4.3984152    4.3984152    4.3984152   -2179.2838    263.59756   -11509.824    4708.3749   -13153.887   -2092.8512    27564.829    85.091987 
   21100    832.20655   -110.61048   0.75299798   -109.85748   -6511.0501    4.4153083    4.4153083    4.4153083   -6511.0501   -20809.163    12495.575   -11219.563    2964.1687    -9288.277     3156.667    86.076205 
   21200    687.64716   -110.48202    0.6221976   -109.85982   -1805.3487    4.4077173    4.4077173    4.4077173   -1805.3487   -17553.587    4224.4577    7913.0833   -5468.4188    4421.8834    1684.9105    85.633008 
   21300    529.72033   -110.33824   0.47930209   -109.85894    2364.1017    4.3979171    4.3979171    4.3979171    2364.1017    994.85088    1646.4691    4450.9851   -10824.868     1272.912    26745.773    85.063081 
   21400    864.83029   -110.63824   0.78251663   -109.85573   -5931.8309    4.4176489    4.4176489    4.4176489   -5931.8309   -20294.864   -733.71652    3233.0878    6200.9347    -8998.179   -6144.9864    86.213168 
   21500     698.2846    -110.4894   0.63182258   -109.85757    1258.9435    4.4042885    4.4042885    4.4042885    1258.9435   -9804.7808    8912.2832    4669.3281   -8884.2623    6806.8176    5492.4286     85.43332 
   21600    497.95358   -110.31102   0.45055886   -109.86046    2203.2587    4.4014718    4.4014718    4.4014718    2203.2587    457.60385   -3472.9549    9625.1271    -10743.94   -1475.8268    20405.046    85.269512 
   21700    970.25649   -110.73188   0.87790846   -109.85398   -4664.2399     4.413881     4.413881     4.413881   -4664.2399   -21971.736    9743.2452   -1764.2293    7064.4459   -7860.4273   -11472.001    85.992757 
   21800     519.9958   -110.32843   0.47050313   -109.85793    6634.5477     4.405858     4.405858     4.405858    6634.5477   -9771.5322    13247.771    16427.404    -10391.99    10452.259     12240.31    85.524684 
   21900     526.2536   -110.33826   0.47616532   -109.86209   -6384.6495     4.405559     4.405559     4.405559   -6384.6495   -2410.0094   -23176.858    6432.9192   -7107.1353   -4856.4844    16794.054    85.507276 
   22000    920.97219   -110.68836   0.83331499   -109.85505    7131.6332    4.4041428    4.4041428    4.4041428    7131.6332   -8844.7194    7797.6772    22441.942    962.16484   -564.33488    -11098.04    85.424838 
   22100    454.69878   -110.27648   0.41142101   -109.86506   -9300.6575    4.4144094    4.4144094    4.4144094   -9300.6575   -5648.3301   -25695.904    3442.2615   -10221.298    7458.2854    14711.482    86.023643 
   22200    575.42135   -110.38329   0.52065333   -109.86264    6230.0031    4.4007426    4.4007426    4.4007426    6230.0031    7434.3128   -7471.9541    18727.651   -4690.9078    -903.3019    16672.098    85.227138 
   22300    1115.5751   -110.86423    1.0093958   -109.85483     -312.959    4.4056372    4.4056372    4.4056372     -312.959   -14002.691    8876.9275    4186.8865    286.23568    3381.6337   -5736.2047    85.511831 
   22400    337.75159   -110.17127   0.30560474   -109.86567   -18478.959    4.4186562    4.4186562    4.4186562   -18478.959   -16809.037   -27442.668   -11185.172   -10154.274    3621.1897    19807.904    86.272155 
   22500     853.7956   -110.63025    0.7725322   -109.85772    8674.6925    4.3925061    4.3925061    4.3925061    8674.6925    8362.3874    565.76236    17095.928   -6650.8781    4638.6997    16488.735    84.749496 
   22600    1007.2802   -110.76883   0.91140828   -109.85742   -6363.5702    4.4157054    4.4157054    4.4157054   -6363.5702   -6607.1754    -9216.652   -3266.8834    6434.0082   -1925.2473   -6894.0753    86.099429 
   22700    365.09222   -110.19734   0.33034311   -109.86699   -16093.292    4.4098678    4.4098678    4.4098678   -16093.292   -216.82315   -38481.776   -9581.2772   -12046.215    5630.5491    28510.866    85.758408 
   22800    746.29955   -110.53723   0.67526752   -109.86196    17143.785    4.3971703    4.3971703    4.3971703    17143.785    17429.916    16264.597    17736.843   -4194.6241    4332.9836    8633.4026    85.019757 
   22900     1091.262     -110.844   0.98739676   -109.85661   -10698.003    4.4168762    4.4168762    4.4168762   -10698.003   -10883.439   -19261.422   -1949.1477    6833.9301   -4712.2343   -2768.0589    86.167936 
   23000    241.03141   -110.08303   0.21809028   -109.86494    5862.0991    4.4038896    4.4038896    4.4038896    5862.0991    5164.1566   -7499.3315    19921.472   -14119.395    10700.546    29841.902     85.41011 
   23100    985.40263   -110.74992   0.89161301   -109.85831   -5594.0986    4.4133421    4.4133421    4.4133421   -5594.0986   -15784.875   -5626.5707    4629.1496    3643.3127   -2543.0796     -6127.83    85.961263 
   23200    833.80552    -110.6115   0.75444476   -109.85706    7629.7859    4.4035526    4.4035526    4.4035526    7629.7859    2070.1667   -6257.8245    27077.016   -624.11346   -1265.8639    7752.2495    85.390504 
   23300    291.57036   -110.13216   0.26381899   -109.86834    -6451.935    4.4052101    4.4052101    4.4052101    -6451.935    1227.2995   -17315.143   -3267.9613   -12654.464    10900.768    27465.994    85.486962 
   23400    890.18114   -110.66598    0.8054546   -109.86052   -6888.7198    4.4122718    4.4122718    4.4122718   -6888.7198    -15327.54   -4309.3254   -1029.2942    5582.8768   -2701.9889   -8007.1245    85.898733 
   23500    710.76792    -110.5037   0.64311775   -109.86058    17457.983    4.3975729    4.3975729    4.3975729    17457.983     8669.447    8957.3244    34747.179   -4499.5559    -83.54505    11018.255    85.043112 
   23600    374.55241   -110.20669   0.33890289   -109.86779   -14854.653    4.4169599    4.4169599    4.4169599   -14854.653   -14027.431   -23228.847   -7307.6817   -9614.0665    7566.5079    24529.727     86.17283 
   23700    1019.4404   -110.77627   0.92241108   -109.85386     3157.039    4.4039686    4.4039686    4.4039686     3157.039   -12228.227    9235.1266    12464.217    3760.2164   -1136.6957    -6431.304    85.414706 
   23800    636.80251   -110.43685   0.57619229   -109.86065    461.13932    4.4027159    4.4027159    4.4027159    461.13932   -8595.4779    902.03679    9076.8591   -9178.5345   -3854.4258    11658.357    85.341835 
   23900    482.37145    -110.2999   0.43645983   -109.86344   -13523.977    4.4129618    4.4129618    4.4129618   -13523.977   -12261.393   -17528.659    -10781.88    -8205.993    6875.7714    23533.321    85.939042 
   24000    1041.0317   -110.79553   0.94194736   -109.85358     8458.328    4.3990291    4.3990291    4.3990291     8458.328   -3811.2612    14218.066    14968.179     2173.049   -3348.4917   -10152.544     85.12762 
   24100    521.90957   -110.33653   0.47223474   -109.86429   -4414.5292    4.4098464    4.4098464    4.4098464   -4414.5292   -9294.1839   -3692.8284   -256.57518    -10705.32   -2764.8053    15997.172     85.75716 
   24200    574.92873    -110.3845   0.52020759   -109.86429   -226.68674    4.4044744    4.4044744    4.4044744   -226.68674    661.78693   -11669.033    10327.186    -6669.505    2853.3462    15488.424    85.444136 
   24300    938.04368   -110.70497   0.84876164    -109.8562    1214.1607    4.4071303    4.4071303    4.4071303    1214.1607   -12146.743    7599.8833    8189.3414    1830.6852   -4655.8648   -10218.825    85.598801 
   24400    532.63251   -110.34412   0.48193708   -109.86218   -14369.532    4.4109579    4.4109579    4.4109579   -14369.532   -13171.258   -20263.813   -9673.5262   -11091.265   -1397.8657    18884.068    85.822023 
   24500    642.63058   -110.44259   0.58146566   -109.86112    7784.7485    4.3974005    4.3974005    4.3974005    7784.7485   -1234.6269   -6148.8658    30737.738   -4234.4578    4975.5668    7955.3455    85.033107 
   24600    956.97964   -110.72402   0.86589529   -109.85812    -6923.999    4.4140169    4.4140169    4.4140169    -6923.999   -24906.089    1952.0747    2182.0176    2911.6627    -6344.093   -3891.7823    86.000695 
   24700    572.58915   -110.38223   0.51809069   -109.86414    4312.5132    4.4022851    4.4022851    4.4022851    4312.5132    2807.9067   -9072.3853    19202.018    -9182.329   -7602.4833    13925.532    85.316789 
   24800    650.06408   -110.45136   0.58819165   -109.86317    10357.903    4.4036324    4.4036324    4.4036324    10357.903   -2452.0667   -2423.0728     35948.85   -3429.1036    6833.2606    5759.9031    85.395143 
   24900    893.78785   -110.66471   0.80871803   -109.85599   -11594.688    4.4174911    4.4174911    4.4174911   -11594.688   -21719.011    2340.9383   -15405.992     4017.391   -9011.1328   -5948.9911    86.203925 
   25000    457.16783    -110.2732   0.41365506   -109.85955    10251.811    4.3944452    4.3944452    4.3944452    10251.811    13019.862   -767.00759    18502.577   -8323.8871   -4675.4479    18429.953    84.861783 
   25100    739.45428    -110.5302   0.66907377   -109.86113   -3768.5752    4.4127518    4.4127518    4.4127518   -3768.5752   -11450.519    1351.7511   -1206.9582   -1601.5261    4524.0486    9549.6158    85.926774 
   25200     868.0493   -110.64313   0.78542924    -109.8577   -1628.8592    4.4116353    4.4116353    4.4116353   -1628.8592   -15305.128    8373.6258    2044.9246    6043.2858   -12734.768   -10260.851    85.861566 
   25300    520.58829   -110.33025   0.47103922   -109.85921    7973.5815    4.3962757    4.3962757    4.3962757    7973.5815    14793.436   -9490.2545    18617.563   -11225.798   -3.8043806     25222.65    84.967876 
   25400    898.18672   -110.67137   0.81269822   -109.85868   -6883.5097     4.415672     4.415672     4.415672   -6883.5097   -17540.578   -6257.4247    3147.4739   -559.36151   -3064.8364    5757.7286    86.097475 
   25500    894.51611   -110.66724   0.80937697   -109.85786    9363.4758    4.4031551    4.4031551    4.4031551    9363.4758   -1184.2536    760.02574    28514.655    5145.8927   -12350.144   -2693.4663    85.367378 
   25600    326.51821   -110.16254   0.29544054    -109.8671   -1519.2631    4.4080994    4.4080994    4.4080994   -1519.2631    3094.1195   -21847.431    14195.522    -13370.72      1870.92    26787.336    85.655282 
   25700    835.11977   -110.61461   0.75563392   -109.85898    4066.5332    4.4115947    4.4115947    4.4115947    4066.5332   -11617.942   -7401.0739    31218.615    683.74278   -4142.6687   -1850.7622    85.859197 
   25800    761.49197   -110.54693   0.68901394   -109.85792    8099.9834    4.4000335    4.4000335    4.4000335    8099.9834    8494.7316    -3233.529    19038.748   -471.82974   -6063.2042    10610.835    85.185947 
   25900    134.21594   -109.99151    0.1214414   -109.87007   -15647.643    4.4134672    4.4134672    4.4134672   -15647.643   -506.22199   -30330.741   -16105.965    -14543.42     204.9172    21463.991    85.968572 
   26000    1069.6143   -110.82543   0.96780946   -109.85762    6661.0371     4.401609     4.401609     4.401609    6661.0371    -4399.601   -10.161938    24392.874    3756.7098    1368.2056   -1335.0306    85.277487 
   26100    714.93213   -110.51157   0.64688562   -109.86468    1003.9608    4.4095157    4.4095157    4.4095157    1003.9608    -5851.077   -12256.975    21119.935   -4324.4189   -4197.1691    11931.172    85.737869 
   26200    431.98269   -110.25916   0.39086702   -109.86829   -8188.4234     4.408884     4.408884     4.408884   -8188.4234   -6279.7779   -17775.204    -510.2885    -12206.52   -1084.4791    23116.514    85.701028 
   26300    1044.2258   -110.80361   0.94483746   -109.85877     11697.85    4.4036003    4.4036003    4.4036003     11697.85   -6991.0917    6779.0992    35305.541    5154.8915    1360.1216   -10723.711    85.393275 
   26400    672.73313   -110.47348   0.60870307   -109.86478   -5163.4438    4.4090112    4.4090112    4.4090112   -5163.4438   -6028.5973   -4211.4103   -5250.3239   -7952.9694    306.26782    13773.018    85.708441 
   26500    409.48164   -110.23727    0.3705076   -109.86676    4331.8609    4.4000293    4.4000293    4.4000293    4331.8609    5238.1793    -3601.424    11358.827   -9758.4015   -1413.2953    17603.843    85.185699 
   26600    910.75097   -110.68203   0.82406661   -109.85797   -2705.4015    4.4150958    4.4150958    4.4150958   -2705.4015   -18959.466    7053.1031    3790.1582    5366.4864    5297.4931   -15675.362    86.063774 
   26700     623.3398   -110.42431   0.56401095    -109.8603    7138.7719    4.4017239    4.4017239    4.4017239    7138.7719   -1328.8283    8367.8525    14377.292   -9991.0881    1788.2781    17783.722    85.284163 
   26800     523.9338   -110.33823   0.47406632   -109.86417    4167.5142    4.4028779    4.4028779    4.4028779    4167.5142    4367.1197   -8354.8775      16490.3   -6518.6309   -927.61117    11146.591    85.351257 
   26900    946.20495   -110.71075   0.85614612    -109.8546     -9381.06    4.4153482    4.4153482    4.4153482     -9381.06   -30864.012    10876.915   -8156.0829    1723.8614    12320.065   -8213.3538    86.078534 
   27000    568.53166   -110.37508   0.51441939   -109.86066     13533.68    4.3937249    4.3937249    4.3937249     13533.68     8529.721     586.9581     31484.36    -7635.904   -823.70016    13755.509    84.820063 
   27100    610.13308   -110.41674   0.55206123   -109.86468   -10992.135    4.4118866    4.4118866    4.4118866   -10992.135   -10621.548   -21733.986   -620.87081   -6273.6652    2470.5419    10604.903    85.876243 
   27200     862.4812   -110.63757   0.78039111   -109.85717    -6893.981    4.4092001    4.4092001    4.4092001    -6893.981   -28850.967    14683.985   -6514.9612    543.00667    10323.666   -2433.4423    85.719462 
   27300    524.07126   -110.33544   0.47419069   -109.86125      3964.04    4.3953852    4.3953852    4.3953852      3964.04    2845.1756   -14878.445    23925.389    -9178.111   -5872.8975    9184.5694    84.916251 
   27400    683.11446   -110.47872   0.61809632   -109.86063    -18559.63    4.4148526    4.4148526    4.4148526    -18559.63   -15730.491   -20043.254   -19905.146   -7161.5375    9662.5791    13159.485    86.049555 
   27500    905.05595   -110.67559   0.81891364   -109.85667   -1325.7183    4.4030793    4.4030793    4.4030793   -1325.7183   -13850.023    18157.307   -8284.4387    4969.3672    3887.9403   -5666.3012    85.362973 
   27600    558.65437   -110.36799   0.50548221   -109.86251   -5619.0448     4.400642     4.400642     4.400642   -5619.0448   -7600.4625    -18765.81    9509.1379   -13677.206   -6433.3323    15198.027    85.221291 
   27700    634.36385   -110.43587   0.57398575   -109.86188   -7383.7995    4.4110003    4.4110003    4.4110003   -7383.7995   -14515.426   -271.26412   -7364.7084   -5409.8133    11377.082    11961.579    85.824495 
   27800    896.36562   -110.66926   0.81105045   -109.85821    2024.8606    4.4008394    4.4008394    4.4008394    2024.8606   -19484.217    24119.146    1439.6523    6153.4405    544.36327   -9854.0143    85.232763 
   27900    463.60024   -110.28405   0.41947524   -109.86457   -3907.1662    4.4036001    4.4036001    4.4036001   -3907.1662   -16889.131   -6126.1036    11293.735   -14446.948   -4947.5402    21274.695    85.393267 
   28000    675.68624   -110.47426   0.61137511   -109.86288   -4614.0451    4.4104321    4.4104321    4.4104321   -4614.0451   -19815.663    15446.403   -9472.8748    829.24334    4923.2717    8400.8918    85.791337 
   28100    929.17864   -110.69837   0.84074036   -109.85763    3174.9841    4.4020149    4.4020149    4.4020149    3174.9841   -8872.4468    11283.697    7113.7016    3449.8854    651.03185   -7436.9631    85.301082 
   28200    551.40928   -110.36265    0.4989267   -109.86372     1625.367    4.4027567    4.4027567    4.4027567     1625.367   -3802.5669    4397.3935    4281.2744   -12124.518    -3333.415    18757.075    85.344209 
   28300      770.441   -110.55875    0.6971112   -109.86164   -1780.0624    4.4104291    4.4104291    4.4104291   -1780.0624   -12467.411   -528.12697    7655.3511    3062.7805    899.16515    5968.1987    85.791157 
   28400    890.45202   -110.66416    0.8056997   -109.85846    6812.2481    4.3994032    4.3994032    4.3994032    6812.2481   -2666.3456    8143.5936    14959.496    973.65515   -1622.1811   -6453.9499    85.149341 
   28500    325.13301    -110.1626   0.29418718   -109.86841   -1251.3254    4.4050247    4.4050247    4.4050247   -1251.3254   -7838.4149    66.633366    4017.8054   -10154.763   -1384.9812    16609.806    85.476167 
   28600    839.40776   -110.62087   0.75951378   -109.86135   -12778.294    4.4108617    4.4108617    4.4108617   -12778.294   -24393.238   -19101.806    5160.1635    3995.5731    2365.9225    9851.1733    85.816406 
   28700    733.19593   -110.52277   0.66341108   -109.85936    7096.0666    4.4002882    4.4002882    4.4002882    7096.0666   -5130.8166    4336.2706    22082.746   -667.75472     -6469.45   -13598.416    85.200737 
   28800    428.23351   -110.25593   0.38747468   -109.86845   -13710.543    4.4049611    4.4049611    4.4049611   -13710.543   -5267.5839   -24482.616   -11381.429   -8509.2551   -1949.3112    21175.524    85.472465 
   28900    879.08294   -110.65979   0.79541272   -109.86438   -10.090983     4.408223     4.408223     4.408223   -10.090983   -5656.8198   -19295.133     24921.68    5155.1537    4723.0391     6332.734    85.662483 
   29000    988.33971   -110.75576   0.89427054   -109.86149    363.37554    4.4028144    4.4028144    4.4028144    363.37554    4779.0024   -7651.2063    3962.3306   -3242.3931   -3544.0279   -11417.436    85.347564 
   29100    342.56262   -110.18084   0.30995786   -109.87088   -5159.2902    4.4041902    4.4041902    4.4041902   -5159.2902    3116.7275   -30080.388     11485.79   -9689.1329   -5670.7168    26892.394    85.427598 
   29200    877.50821   -110.65774   0.79398786   -109.86375    307.58948    4.4085557    4.4085557    4.4085557    307.58948   -10740.218   -8992.1048    20655.091    4995.1723    4227.4862   -1747.8553     85.68188 
   29300    898.82248   -110.67457   0.81327347   -109.86129    2119.3779    4.4018602    4.4018602    4.4018602    2119.3779   -1617.4492   -9426.0829    17401.666    -2774.301    1886.4089    1459.0799    85.292084 
   29400     208.2557    -110.0593   0.18843414   -109.87087   -3599.5633    4.4044584    4.4044584    4.4044584   -3599.5633   -5574.1917   -25550.573    20326.075   -9075.1358   -2134.9846    22479.322    85.443205 
   29500    821.78257   -110.60566   0.74356614   -109.86209   -7836.6013     4.409544     4.409544     4.409544   -7836.6013   -26427.506   -3415.3788    6333.0809    2196.5841    11279.158   -1374.5195    85.739521 
   29600    848.84281   -110.62708   0.76805081   -109.85903    6238.7496    4.4014757    4.4014757    4.4014757    6238.7496    1588.6637   -1967.6258    19095.211    603.88408     71.81283    7414.5461    85.269738 
   29700    454.23265   -110.27729   0.41099925   -109.86629   -5193.6123    4.4068388    4.4068388    4.4068388   -5193.6123   -4319.6754   -26219.964    14958.802   -6767.8525   -120.56015    17418.688    85.581815 
   29800    847.48725   -110.62855   0.76682427   -109.86173   -6805.5173    4.4081421    4.4081421    4.4081421   -6805.5173   -25453.639    15752.123   -10715.036   -2307.3859    15901.049   -1250.9508     85.65777 
   29900    937.83912   -110.70815   0.84857654   -109.85957     6866.197    4.3983899    4.3983899    4.3983899     6866.197    3873.2775    -2945.835    19671.149    2475.4077   -3921.3659    4388.4801    85.090522 
   30000    595.88674   -110.40432   0.53917085   -109.86515   -10290.189    4.4094693    4.4094693    4.4094693   -10290.189    -16089.96   -10656.111   -4124.4944   -4363.6681    6503.8102    16172.181    85.735161 
   30100    611.28106   -110.41815   0.55309995   -109.86505   -4692.3919    4.4068918    4.4068918    4.4068918   -4692.3919   -36857.238    25752.398   -2972.3351    1291.6471    13765.734   -6889.2174    85.584901 
   30200     874.8197   -110.64961   0.79155525   -109.85806     6450.141    4.3985285    4.3985285    4.3985285     6450.141   -6208.5951    6724.3614    18834.657   -1130.1477   -8488.2778    5010.0487    85.098565 
   30300    528.12954   -110.33891   0.47786271   -109.86104   -4092.8175    4.4129143    4.4129143    4.4129143   -4092.8175   -18118.233    9301.4017   -3461.6215   -6124.9958    12428.446    17205.392    85.936266 
   30400    578.16647   -110.38421   0.52313717   -109.86108   -299.58694    4.4045339    4.4045339    4.4045339   -299.58694   -28188.767    24530.285    2759.7213     4365.234    8773.5107   -11968.816    85.447602 
   30500    873.03943   -110.64653   0.78994442   -109.85658    6445.8164    4.3986953    4.3986953    4.3986953    6445.8164   -2966.3731    12212.406    10091.417   -3230.7927   -11425.559     9583.874    85.108247 
   30600    695.50859   -110.49043   0.62931079   -109.86112   -4114.2427    4.4125049    4.4125049    4.4125049   -4114.2427   -20806.818    8085.0221    379.06816   -2283.8755    12558.689    11266.599    85.912352 
   30700    529.00555   -110.34222   0.47865534   -109.86357   -2243.0496    4.4048952    4.4048952    4.4048952   -2243.0496   -27695.971    20309.562    657.25958    275.32289    4673.0368   -12266.477    85.468628 
   30800    895.80278   -110.66907   0.81054118   -109.85853    4737.3231     4.397677     4.397677     4.397677    4737.3231   -9302.3865    12793.003    10721.353    2438.7068   -11910.206    9630.2475    85.049153 
   30900      781.787   -110.56847   0.70737731   -109.86109   -9783.5194    4.4147739    4.4147739    4.4147739   -9783.5194   -31234.356    1743.4344    140.36298   -526.88224    13959.238    2468.5951     86.04495 
   31000    429.20404   -110.25294   0.38835284   -109.86459   -10113.444    4.4066055    4.4066055    4.4066055   -10113.444   -33634.587    13858.892   -10564.639   -3864.5763   -3832.8733   -398.55087    85.568224 
   31100      840.157   -110.61874   0.76019171   -109.85855    10349.349    4.3960174    4.3960174    4.3960174    10349.349   -9955.5948    22528.076    18475.564    7090.7636   -12932.766    1718.3206    84.952902 
   31200    973.05039   -110.73999   0.88043644   -109.85955    -15168.47    4.4147701    4.4147701    4.4147701    -15168.47   -31133.313   -7918.8512   -6453.2457   -1265.2942    15754.087     -3785.74    86.044729 
   31300    317.88101   -110.15765   0.28762542   -109.87003   -1493.6412    4.4003831    4.4003831    4.4003831   -1493.6412   -26191.434    24250.038   -2539.5273   -2102.3871   -11445.545    3412.4936    85.206253 
   31400    891.36069   -110.67231   0.80652189   -109.86578   -765.89934    4.4025929    4.4025929    4.4025929   -765.89934   -15441.234   -2263.5027    15407.039    5995.5441   -7615.2162   -7807.5457    85.334683 
   31500     932.1089   -110.70248   0.84339172   -109.85909   -10464.086     4.413981     4.413981     4.413981   -10464.086   -26707.774   -5506.8875    822.40375   -1211.2138    5667.8463    4838.3012    85.998597 
   31600    319.32205   -110.15393    0.2889293     -109.865   -228.07114    4.3980508    4.3980508    4.3980508   -228.07114   -30153.996    18690.385    10779.397    2526.9175   -15144.256   -6590.5363    85.070838 
   31700    752.19745   -110.54356   0.68060406   -109.86296   -3344.1811    4.4071417    4.4071417    4.4071417   -3344.1811   -17201.593   -8696.2039    15865.254    9045.2229    2424.2358    -5851.328    85.599463 
   31800    855.40985    -110.6327   0.77399281   -109.85871   -1273.8665    4.4066413    4.4066413    4.4066413   -1273.8665   -16340.588   -1716.3529    14235.342   -1396.6987   -4507.3722    15093.822    85.570309 
   31900    458.39116   -110.27941   0.41476195   -109.86465   -6658.3436    4.4031851    4.4031851    4.4031851   -6658.3436   -32871.939     10000.75    2896.1583    829.58228   -14872.092   -12436.022    85.369124 
   32000    773.29784   -110.56097   0.69969613   -109.86127   -11569.019    4.4074198    4.4074198    4.4074198   -11569.019   -16228.042   -20753.546    2274.5313    12811.432    4291.1973    2092.6752     85.61567 
   32100    925.66657   -110.69608   0.83756257   -109.85852    1463.8286    4.4014542    4.4014542    4.4014542    1463.8286   -4027.3565    6318.0637    2100.7787    235.66441   -5546.8737    10530.263    85.268489 
   32200     692.6191   -110.49012   0.62669632   -109.86342   -9745.8209    4.4074854    4.4074854    4.4074854   -9745.8209   -29870.376    5831.7068   -5198.7933    457.72944    -6831.626   -10541.332    85.619491 
   32300    586.86123   -110.39497   0.53100437   -109.86396   -4452.7621    4.4039109    4.4039109    4.4039109   -4452.7621   -14464.647   -11020.986    12127.347    7962.6085    3970.8523    10355.227    85.411345 
   32400    784.74297   -110.56988   0.71005193   -109.85982    2720.7764    4.4049615    4.4049615    4.4049615    2720.7764   -7344.8944    6956.2798    8550.9439    517.98961   -6676.3971    5062.2643     85.47249 
   32500     698.0002   -110.49214   0.63156525   -109.86057   -1678.3037     4.405638     4.405638     4.405638   -1678.3037   -25506.564    4917.0732     15554.58    4934.4728     139.1521   -6372.4183    85.511874 
   32600    353.24472   -110.18621   0.31962325   -109.86658    -4166.381    4.4031742    4.4031742    4.4031742    -4166.381   -19055.548   -11264.484    17820.889    6665.6612    8300.1197    9879.2293    85.368492 
   32700    918.75743   -110.69365   0.83131103   -109.86234    306.71737    4.4065634    4.4065634    4.4065634    306.71737   -7167.5815   -6557.2283    14644.962   -1622.9428    -3475.449    6966.2941     85.56577 
   32800    957.73216   -110.72871   0.86657618   -109.86214    6723.1917    4.4024488    4.4024488    4.4024488    6723.1917    -13232.72    5757.4898    27644.805    4288.1911    2437.1235   -3310.7587    85.326306 
   32900    340.71308   -110.18125   0.30828435   -109.87297   -11310.151    4.4086689    4.4086689    4.4086689   -11310.151   -17806.128   -19630.604    3506.2775    10896.883    8611.6972    12494.202    85.688481 
   33000    970.78336   -110.74178   0.87838518    -109.8634    3171.2087    4.4031574    4.4031574    4.4031574    3171.2087   -3786.0554    253.65203    13046.029   -2151.3501   -390.47936    9974.1196    85.367516 
   33100     889.6219   -110.66815   0.80494859    -109.8632    1982.5472    4.4045492    4.4045492    4.4045492    1982.5472   -14338.802   -2073.2355    22359.679    1863.6378     993.2213   -8047.4458    85.448489 
   33200    272.19162   -110.11574    0.2462847   -109.86945    -16772.64    4.4089494    4.4089494    4.4089494    -16772.64   -21091.171   -20560.642   -8666.1061    9095.9309    5288.9944    18360.981    85.704838 
   33300    751.37296   -110.53991   0.67985804   -109.86005    5438.6874    4.4013338    4.4013338    4.4013338    5438.6874   -8782.2444    8524.5341    16573.772   -1007.7444   -2550.3875    2736.7391    85.261493 
   33400     836.6384   -110.61431   0.75700801    -109.8573   -15762.427    4.4124226    4.4124226    4.4124226   -15762.427   -31001.611   -20402.194    4116.5242    8313.8548   -1539.3645    -2911.151    85.907541 
   33500    456.46813   -110.27555   0.41302196   -109.86253   -1710.3654     4.400723     4.400723     4.400723   -1710.3654   -8216.2077   -8498.1151    11583.227    3346.5857    6328.6879    15260.009    85.225998 
   33600    841.37567   -110.62104   0.76129438   -109.85974    2896.7099    4.4030915    4.4030915    4.4030915    2896.7099    -6998.068    10398.228    5289.9696   -3057.3231   -8990.0225    -4172.189    85.363679 
   33700    843.05236   -110.62229   0.76281149   -109.85948   -5197.0594    4.4113888    4.4113888    4.4113888   -5197.0594   -25061.138   -9878.1579    19348.118    12418.933    -2787.306    3116.9733    85.847173 
   33800    615.82098     -110.419   0.55720777    -109.8618    8632.2119    4.3965247    4.3965247    4.3965247    8632.2119   -849.12517    1879.9623    24865.799     645.8261    7686.4381    7379.1642    84.982313 
   33900    562.40007   -110.37254    0.5088714   -109.86367   -2147.4417    4.4107611    4.4107611    4.4107611   -2147.4417   -19211.565    11354.378    1414.8623   -1587.9359   -14021.307    916.84586    85.810534 
   34000    750.55496   -110.53579   0.67911791   -109.85667   -6297.8946    4.4098939    4.4098939    4.4098939   -6297.8946   -34076.934    -7046.217    22229.467     9189.597    341.25973   -3339.2546    85.759931 
   34100    516.33917   -110.32381   0.46719453   -109.85662    4184.5267    4.4009637    4.4009637    4.4009637    4184.5267   -15495.218    6958.0169    21090.781    -2382.202   -107.25885    8750.0967    85.239983 
   34200     593.9435    -110.3975   0.53741256   -109.86009   -3921.0486    4.4079208    4.4079208    4.4079208   -3921.0486   -23574.455     25087.35   -13276.041    3216.0848   -15254.914    6047.3133    85.644866 
   34300    912.20786   -110.68216   0.82538484   -109.85678     2501.521    4.4052371    4.4052371    4.4052371     2501.521    -17538.82     4488.376    20555.007    3716.2996    3042.4845   -9941.6297     85.48853 
   34400    612.57417   -110.41612   0.55426998   -109.86185   -7184.2075    4.4098386    4.4098386    4.4098386   -7184.2075   -15841.963    1316.1717   -7026.8315   -7735.8808   -5709.3268     13102.95    85.756706 
   34500    701.61452   -110.49492   0.63483556   -109.86008    3640.6237    4.4011899    4.4011899    4.4011899    3640.6237   -12671.077      31601.9   -8008.9524    3184.9992   -9558.3911    2426.6995    85.253126 
   34600    904.36595   -110.67495   0.81828931   -109.85666   -1307.3549     4.408747     4.408747     4.408747   -1307.3549   -22882.936    7550.5478    11410.324    4929.6004    4941.9009   -3126.7114    85.693035 
   34700    399.80695   -110.22655   0.36175373    -109.8648   -8634.4656    4.4088644    4.4088644    4.4088644   -8634.4656   -22938.078    4324.8058   -7290.1245   -10904.492   -9437.9502     14418.15    85.699884 
   34800    618.89345   -110.42127    0.5599878   -109.86128    10249.263    4.3952002    4.3952002    4.3952002    10249.263   -13853.797     38576.57    6025.0175    532.60005   -6311.8334   -2120.6343    84.905534 
   34900    941.61422   -110.70968   0.85199234   -109.85769   -12252.042    4.4181553    4.4181553    4.4181553   -12252.042   -32339.326   -4304.9532   -111.84787    2334.4273    7055.4663     1459.129    86.242815 
[...]
   91200    389.62513     -110.218   0.35254101   -109.86546    -5490.639     4.398874     4.398874     4.398874    -5490.639   -15489.173   -7514.2142    6531.4708    15531.934     3757.936    8003.1011    85.118619 
   91300     757.2166   -110.54432    0.6851455   -109.85918    -1460.823    4.3973638    4.3973638    4.3973638    -1460.823   -13220.797    6924.4576    1913.8702    12939.567    3816.8248    -7184.272    85.030984 
   91400    673.71902   -110.46893   0.60959513   -109.85934   -13676.708    4.4064473    4.4064473    4.4064473   -13676.708   -16678.949   -13092.645   -11258.529   -19116.023   -813.01235    6713.9861     85.55901 
   91500    470.20445   -110.28818   0.42545086   -109.86273    2534.2957    4.3940644    4.3940644    4.3940644    2534.2957   -7392.5535    1981.5766    13013.864    20248.227    1683.9039     11807.22    84.839727 
   91600    853.17466   -110.63263   0.77197036   -109.86066   -2374.8216    4.4022057    4.4022057    4.4022057   -2374.8216    -6736.536    237.65256   -625.58143     8616.327    6356.7703   -13555.235    85.312173 
   91700    942.99708   -110.71167   0.85324358   -109.85843   -3391.3165     4.402675     4.402675     4.402675   -3391.3165   -1498.7421   -8801.4735    126.26619   -12844.867   -1966.6358     3082.825    85.339456 
   91800    612.10625   -110.41586    0.5538466   -109.86201    1784.9826    4.3969284    4.3969284    4.3969284    1784.9826   -9660.5653    721.14032    14294.373    19435.565    5501.5134    11257.093    85.005725 
   91900    770.37625   -110.55682   0.69705262   -109.85977   -7609.7126    4.4029143    4.4029143    4.4029143   -7609.7126   -11325.731   -4943.8249    -6559.582    4973.1342    6745.3925    -19919.65    85.353373 
   92000    799.44475   -110.58073   0.72335441   -109.85737    1491.2612    4.3971718    4.3971718    4.3971718    1491.2612   -1860.7662     2370.812    3963.7379   -5442.7974   -3426.8534    6323.0448    85.019842 
   92100    455.41904   -110.27491   0.41207272   -109.86284   -9857.0275      4.40344      4.40344      4.40344   -9857.0275   -23653.648   -5467.6799   -449.75435    17692.559    8421.8386    7297.4053    85.383953 
   92200    544.58363   -110.35423   0.49275071   -109.86148    1263.1218    4.3997151    4.3997151    4.3997151    1263.1218    5082.2468    3686.4762   -4979.3576    251.95554    2801.0127   -25749.992    85.167452 
   92300    887.43095   -110.65873   0.80296618   -109.85577    2476.6466    4.3982025    4.3982025    4.3982025    2476.6466    6563.7532    239.19893    626.98759    1353.7625   -3152.5814    9868.9858    85.079646 
   92400    568.22735    -110.3767   0.51414405   -109.86256   -10648.286    4.4039608    4.4039608    4.4039608   -10648.286   -15644.462   -11412.642   -4887.7554    18482.629    6527.3937      5560.54    85.414248 
   92500    724.71327   -110.51874    0.6557358     -109.863    2610.5383    4.3957103    4.3957103    4.3957103    2610.5383    11171.868   -1066.6992   -2273.5537    135.58169    2275.1185   -26181.331    84.935098 
   92600    1072.8696   -110.82812   0.97075493   -109.85736   -259.61606     4.402281     4.402281     4.402281   -259.61606    5325.3925    -5113.763   -990.47767    525.86613     997.5516    8672.9759    85.316548 
   92700    588.78882   -110.39693    0.5327485   -109.86419   -4844.0557    4.4023024    4.4023024    4.4023024   -4844.0557   -7548.2481   -4772.7255   -2211.1935    16865.293    3014.4527    109.73743    85.317795 
   92800    699.18725   -110.49341   0.63263932   -109.86077    2219.4516     4.398415     4.398415     4.398415    2219.4516     8616.857    2110.6806   -4069.1828   -162.35624    3048.1887   -22573.893    85.091977 
   92900    860.32606   -110.63476    0.7784411   -109.85632    2679.7687    4.4007931    4.4007931    4.4007931    2679.7687    7747.5598   -1225.8515    1517.5977   -4471.1231    845.32547    7473.2298    85.230069 
   93000    416.31124   -110.24043   0.37668716   -109.86374   -3511.8733     4.398709     4.398709     4.398709   -3511.8733   -3897.1342    764.46659   -7402.9524    17766.245    3457.5714   -2474.2107    85.109042 
   93100    603.63472   -110.40825   0.54618138   -109.86207   -7386.7498    4.4024955    4.4024955    4.4024955   -7386.7498   -800.31271   -5501.1657   -15858.771   -6257.2786    5027.4105   -19186.444    85.329022 
   93200    799.86141   -110.58179   0.72373141   -109.85806     1916.057    4.3985849    4.3985849    4.3985849     1916.057     982.1676   -3426.1469    8192.1504   -11437.368   -5217.0219    5485.2299    85.101837 
   93300    591.80781   -110.39743   0.53548014   -109.86195   -1056.3049     4.400096     4.400096     4.400096   -1056.3049    9592.1116   -8547.0062   -4214.0201    24212.385    6080.3246   -1690.5638    85.189577 
   93400    825.77114   -110.60683   0.74717508   -109.85965   -4860.6069    4.4022643    4.4022643    4.4022643   -4860.6069    10450.512   -13181.556   -11850.777   -13094.549    5731.3216   -12278.876    85.315579 
   93500    866.01278   -110.64218   0.78358656    -109.8586    3696.8136    4.3968187    4.3968187    4.3968187    3696.8136    9593.5696   -10387.527    11884.399   -13001.737   -3550.9456    4080.2539    84.999366 
   93600    741.89906   -110.53195   0.67128586   -109.86067   -4748.8412    4.4021316    4.4021316    4.4021316   -4748.8412    5035.7202    -13615.09    -5667.154    26030.182    6871.8297   -3957.3669    85.307864 
   93700    708.48168   -110.50055   0.64104912   -109.85951   -2579.6511     4.399808     4.399808     4.399808   -2579.6511     4148.263   -7820.6278   -4066.5885   -17454.442   -637.69435   -7597.4712    85.172851 
   93800    659.58557   -110.45614   0.59680688   -109.85934   -3382.1249    4.3995603    4.3995603    4.3995603   -3382.1249   -8688.5455   -11666.971    10209.142   -7070.8057   -264.44055    4626.5037    85.158467 
   93900    625.46064   -110.42513   0.56592993    -109.8592    808.53026    4.4005594    4.4005594    4.4005594    808.53026    8375.6612   -5057.7585   -892.31188    25183.533    6372.3122   -4509.4442    85.216492 
   94000    571.61594   -110.37763   0.51721012   -109.86042     114.7073    4.3984631    4.3984631    4.3984631     114.7073    6919.2569   -1468.0871    -5107.048   -23812.071   -3110.9665   -6693.8712    85.094769 
   94100    620.59266   -110.42278   0.56152528   -109.86125   -6160.4268    4.4020677    4.4020677    4.4020677   -6160.4268   -8017.3927   -10723.088    259.19995   -3712.9946   -2306.4286    1973.6512    85.304147 
   94200    842.59803   -110.62003    0.7624004   -109.85763    2076.4539    4.3984257    4.3984257    4.3984257    2076.4539     11837.98    440.38804   -6049.0061    22571.435    1374.4146   -3300.9288    85.092596 
   94300    604.66812   -110.40926   0.54711642   -109.86215   -3988.2777    4.4018554    4.4018554    4.4018554   -3988.2777    319.19491   -7527.4586   -4756.5695   -26659.862    518.60934   -2712.3608    85.291805 
   94400    738.54426   -110.52966   0.66825037   -109.86141   -19.626852    4.3986103    4.3986103    4.3986103   -19.626852   -4349.4138   -6714.6754    11005.209   -3070.9339   -933.91591    234.23452    85.103314 
   94500    976.36799   -110.74123   0.88343828   -109.85779    5157.6398    4.3984714    4.3984714    4.3984714    5157.6398    7261.6624    5484.0557    2727.2013    16775.531   -2083.3681   -3669.5061    85.095251 
   94600    389.69335   -110.21934   0.35260274   -109.86674   -5171.8572    4.4038295    4.4038295    4.4038295   -5171.8572   -7440.6184   -7760.2065   -314.74663   -28886.516    373.27758   -2104.2582     85.40661 
   94700    763.27507   -110.55236   0.69062733   -109.86174    3651.6654    4.3966029    4.3966029    4.3966029    3651.6654    253.99122     6953.243     3747.762   -3424.1911   -716.08642    987.83554    84.986848 
   94800    941.56898   -110.70973    0.8519514   -109.85778    -2642.383    4.4026834    4.4026834    4.4026834    -2642.383   -4973.7129    8545.3366   -11498.773    7592.9512    538.14014   -3575.5825    85.339949 
   94900    245.00468   -110.09157   0.22168539   -109.86988   -7599.2324    4.3996808    4.3996808    4.3996808   -7599.2324   -1706.1519   -9005.4067   -12086.139   -33973.145    -1894.876   -3459.7605     85.16546 
   95000    841.42589   -110.62767   0.76133983   -109.86633    5732.1342    4.3974221    4.3974221    4.3974221    5732.1342    19361.564    8742.8522   -10908.014   -888.12477   -3113.7123    2454.0028    85.034363 
   95100    1020.2326   -110.78432   0.92312789   -109.86119   -1284.3435    4.4042763    4.4042763    4.4042763   -1284.3435   -2650.8951    7082.9228   -8285.0582   -231.98087    3277.7398   -1792.4464    85.432607 
   95200    289.35084   -110.13315   0.26181072   -109.87134   -2291.9514    4.3971388    4.3971388    4.3971388   -2291.9514      11116.1   -12505.679    -5486.276   -31756.688   -1961.6107    547.22455     85.01793 
   95300     895.7263   -110.67516   0.81047198   -109.86469   -103.74535    4.4008228    4.4008228    4.4008228   -103.74535    10951.734    3798.5922   -15061.562    6564.7425   -2235.6454    4212.5548      85.2318 
   95400    917.13636   -110.69077   0.82984425   -109.86093    -1529.912    4.4020727    4.4020727    4.4020727    -1529.912   -8860.8876    1831.1081    2440.0435   -5637.3907    4693.5865    -2486.393    85.304438 
   95500    400.85812    -110.2298   0.36270485   -109.86709   -155.93907    4.3973838    4.3973838    4.3973838   -155.93907    11598.298   -10485.982   -1580.1334   -24040.527   -747.89073   -1038.7687    85.032142 
   95600    844.97481   -110.62423   0.76455096   -109.85968    15.040848    4.4025807    4.4025807    4.4025807    15.040848    12442.646    4817.9636   -17215.487    13573.033    884.82949    4941.0499    85.333975 
   95700     702.7087   -110.49632    0.6358256   -109.86049    2358.3791    4.3992226    4.3992226    4.3992226    2358.3791    1361.1588   -1454.2372    7168.2156   -5627.4531    1127.1912   -885.96911    85.138859 
   95800    489.54377   -110.30657   0.44294949   -109.86362    1548.8398    4.3987141    4.3987141    4.3987141    1548.8398    18625.593   -8874.9664   -5104.1072   -21872.381   -271.39595   -2613.0712    85.109339 
   95900    813.77275   -110.59412   0.73631869    -109.8578   -1598.7955    4.4026363    4.4026363    4.4026363   -1598.7955    13152.189    1761.0915   -19709.667    14635.238    3030.1391    2266.6811    85.337209 
   96000    584.71175   -110.39047   0.52905948   -109.86141    303.68427    4.3985121    4.3985121    4.3985121    303.68427    5270.2462   -9809.8679    5450.6745   -754.06512    1626.9545   -630.49464    85.097614 
   96100    655.90721   -110.45535   0.59347863   -109.86187   -971.26895    4.3997644    4.3997644    4.3997644   -971.26895     13955.94   -9056.2145   -7813.5327   -21475.076     2497.648   -1754.8639    85.170319 
   96200    856.70782   -110.63354   0.77516724   -109.85837     1062.312    4.4018844    4.4018844    4.4018844     1062.312    6916.1321    195.53881   -3924.7348    15604.092   -37.121059    1445.0071    85.293495 
   96300     664.7853     -110.463   0.60151171   -109.86149    1942.0522     4.398489     4.398489     4.398489    1942.0522    1355.4656   -11302.416    15773.107     4934.862    1383.9583   -2142.5793    85.096269 
   96400    777.74359   -110.56358   0.70371875   -109.85986   -294.63832    4.4007805    4.4007805    4.4007805   -294.63832     5594.978   -686.88803    -5792.005   -20785.286    2934.7624   -1522.1998    85.229339 
   96500    755.71622   -110.54311   0.68378792   -109.85932    247.56274    4.4010775    4.4010775    4.4010775    247.56274    3278.6605   -43.222152   -2492.7502    20771.071   -3634.4039    2210.9583    85.246595 
   96600    669.55291   -110.46598   0.60582555   -109.86016    1546.2535    4.3978897    4.3978897    4.3978897    1546.2535    9601.2111   -11550.336    6587.8851     5884.617    1000.1088   -2152.7983    85.061491 
   96700    730.01974   -110.51891   0.66053721   -109.85838   -3701.5455    4.4028076    4.4028076    4.4028076   -3701.5455    9196.4045    2347.6894    -22648.73   -19452.151   -906.54594   -2253.5302    85.347169 
   96800    575.22925   -110.38093   0.52047951   -109.86045   -3664.4574    4.4009855    4.4009855    4.4009855   -3664.4574    7441.2031   -5796.0545   -12638.521    25578.213    -3615.934   -540.41857    85.241249 
   96900    750.72211   -110.53894   0.67926914   -109.85967    5189.6435    4.3973626    4.3973626    4.3973626    5189.6435    10845.527   -6081.0147    10804.418    4121.2721    4484.9047   -1143.0243    85.030912 
   97000    860.95798   -110.63768   0.77901288   -109.85867   -274.47789    4.4017074    4.4017074    4.4017074   -274.47789   -1918.2162    9094.4083   -7999.6257   -15623.921   -3955.5823   -457.56295    85.283203 
   97100    433.72775   -110.25906   0.39244598   -109.86661    -3829.044    4.4002725    4.4002725    4.4002725    -3829.044   -1926.3808   -9036.9758   -523.77537     29586.62   -3698.2262   -366.88845    85.199825 
   97200    910.94916   -110.68612   0.82424594   -109.86187     3617.066    4.4002278    4.4002278    4.4002278     3617.066     1156.393    2345.6583    7349.1467    2981.1491    2632.4183      313.232    85.197232 
   97300     916.9181   -110.68946   0.82964677   -109.85981    1043.4916    4.4018949    4.4018949    4.4018949    1043.4916   -3740.2021    13446.676   -6575.9987   -5726.9088   -5089.7869   -2420.4031    85.294106 
   97400    217.15172   -110.06688   0.19648344    -109.8704   -5221.0168    4.3999179    4.3999179    4.3999179   -5221.0168   -523.59575   -11210.975   -3928.4792    33401.577   -2425.9235    1027.1417    85.179232 
   97500    935.26472   -110.70918   0.84624718   -109.86294    1655.6726    4.4009716    4.4009716    4.4009716    1655.6726     4415.553    13009.553   -12458.088   -1287.7305   -1083.0976    4597.9044    85.240441 
   97600    855.96002   -110.63727   0.77449061   -109.86277    4065.7961    4.4007295    4.4007295    4.4007295    4065.7961    1119.6462     16011.69   -4933.9477    5134.4066   -2419.2144   -4188.1946    85.226377 
   97700     206.3919   -110.05899   0.18674773   -109.87224   -3985.8731    4.3997893    4.3997893    4.3997893   -3985.8731   -134.97355   -6805.0844   -5017.5614    31873.447   -483.10663   -1454.5673    85.171763 
   97800    938.37203   -110.71076   0.84905874    -109.8617    -1329.669    4.4020164    4.4020164    4.4020164    -1329.669    104.55691     12881.02   -16974.584   -6440.8345    -1285.753    4511.1329    85.301164 
   97900    822.72245   -110.60583   0.74441656   -109.86141    675.02264     4.400245     4.400245     4.400245    675.02264   -5974.2615    3313.4184     4685.911    11419.856   -2050.1688   -2426.6294     85.19823 
   98000    459.07613   -110.28197   0.41538173   -109.86659   -4335.8116    4.3991794    4.3991794    4.3991794   -4335.8116   -2083.7038   -8222.2563   -2701.4747    24989.871   -3340.5623    -23.71372    85.136348 
   98100    891.64975   -110.66692   0.80678343   -109.86014   -1571.1415    4.4015987    4.4015987    4.4015987   -1571.1415    5062.4489    3492.6927   -13268.566   -12792.213    3277.4765    954.63358    85.276886 
   98200    822.39943   -110.60424   0.74412428   -109.86011   -1185.5175    4.4001069    4.4001069    4.4001069   -1185.5175   -899.31339   -6987.8023    4330.5632    8881.8931   -1169.3196   -1940.1792    85.190207 
   98300    635.50841   -110.43714   0.57502136   -109.86212    -77.91302    4.3996479    4.3996479    4.3996479    -77.91302    11772.724   -2290.4414    -9716.022    21272.214   -3934.6294    2579.7284    85.163553 
   98400    699.71443   -110.49338   0.63311632   -109.86026    289.78324    4.4009635    4.4009635    4.4009635    289.78324    16045.599    2475.0038   -17651.253   -14247.009    5884.4089   -55.688924    85.239974 
   98500    718.65385   -110.50893    0.6502531   -109.85868   -274.56221    4.4000641    4.4000641    4.4000641   -274.56221    4644.2828   -5870.9524    402.98304     1816.834    -992.6877    -2776.292    85.187723 
   98600    646.67643    -110.4442   0.58512642   -109.85908   -2964.9863    4.4021833    4.4021833    4.4021833   -2964.9863    6271.4867    1878.5636   -17045.009    15712.685    1296.4652    1966.3495    85.310869 
   98700     553.1277   -110.36183   0.50048156   -109.86135   -631.69897    4.4000387    4.4000387    4.4000387   -631.69897    7276.2966    -804.6768   -8366.7167   -16147.407    5203.3946    -1754.285    85.186247 
   98800    788.79149   -110.57326   0.71371512   -109.85954    5464.7698    4.3988886    4.3988886    4.3988886    5464.7698    1539.0055   -2825.4107    17680.715   -3765.8463   -4468.5963   -2026.1522    85.119464 
   98900    862.24729   -110.63958   0.78017946    -109.8594   -80.335819    4.4021995    4.4021995    4.4021995   -80.335819    5379.6074     4026.852   -9647.4668    10663.629    2782.9902    2264.8874    85.311814 
   99000    459.52622   -110.28218   0.41578898   -109.86639     1557.306    4.3988777    4.3988777    4.3988777     1557.306    13771.995   -5249.8913   -3850.1855    -24814.98    4178.3287   -2373.1876    85.118835 
   99100    850.45187   -110.63085   0.76950673   -109.86134    4126.9305     4.400997     4.400997     4.400997    4126.9305    4899.0955    3692.5231     3789.173   -9422.4337   -2212.5052   -744.87672    85.241921 
   99200    847.04236   -110.62608   0.76642173   -109.85965   -1327.6183     4.402788     4.402788     4.402788   -1327.6183    7538.8059    8558.3835   -20080.044    10202.176      323.404    1553.2959    85.346028 
   99300    189.97979    -110.0412   0.17189771    -109.8693   -1766.6576    4.3971531    4.3971531    4.3971531   -1766.6576    9528.6538     -6401.47   -8427.1567   -29319.699    2349.1835   -850.49711    85.018762 
   99400    851.81258   -110.63415   0.77073793   -109.86341    669.60428    4.4030479    4.4030479    4.4030479    669.60428   -7044.1419    12931.542   -3878.5875    -8147.687   -21.775661    693.79518    85.361144 
   99500    898.28624   -110.67447   0.81278827   -109.86168    4426.6272    4.4005622    4.4005622    4.4005622    4426.6272    1537.7789    12774.682   -1032.5796    2113.2042   -2186.9499   -1514.3858    85.216658 
   99600    271.47494   -110.11654   0.24563623    -109.8709    1802.4388    4.3965507    4.3965507    4.3965507    1802.4388    3409.9714   -2430.6924    4428.0374   -31431.588    3055.8298   -2136.5077     84.98382 
   99700    937.53375   -110.71119   0.84830024   -109.86289   -590.47705    4.4058872    4.4058872    4.4058872   -590.47705   -8939.2636    13346.182   -6178.3494    3533.9641   -3139.5939    468.18897    85.526383 
   99800    928.25787   -110.70043   0.83990722   -109.86052    6882.2732    4.3973109    4.3973109    4.3973109    6882.2732    4416.2043    7553.6728    8676.9426   -6189.8293   -2615.5567   -2963.5931    85.027913 
   99900    427.04013   -110.25346   0.38639488   -109.86706   -1233.6747     4.398021     4.398021     4.398021   -1233.6747    2095.9287   -4180.6314   -1616.3213   -31123.572    4983.6793   -2845.2027    85.069111 
  100000    765.02245   -110.55329   0.69220839   -109.86108   -5966.3161    4.4048291    4.4048291    4.4048291   -5966.3161    1795.4803    1878.2581   -21572.687    13326.805    -6240.625    214.24935    85.464785 
Loop time of 21.4355 on 1 procs for 100000 steps with 8 atoms

Pair  time (%) = 6.46341 (30.1529)
Kspce time (%) = 5.29004 (24.6789)
Neigh time (%) = 0 (0)
Comm  time (%) = 1.04803 (4.88924)
Outpt time (%) = 0.0240512 (0.112203)
Other time (%) = 8.60993 (40.1668)

Nlocal:    8 ave 8 max 8 min
Histogram: 1 0 0 0 0 0 0 0 0 0
Nghost:    2189 ave 2189 max 2189 min
Histogram: 1 0 0 0 0 0 0 0 0 0
Neighs:    2056 ave 2056 max 2056 min
Histogram: 1 0 0 0 0 0 0 0 0 0

Total # of neighbors = 2056
Ave neighs/atom = 257
Neighbor list builds = 0
Dangerous builds = 0
seeds:8044267
