LAMMPS (10 Feb 2015)
Reading data file ...
  triclinic box = (0 0 0) to (4.2565 4.2565 4.2565) with tilt (0 0 0)
  1 by 1 by 1 MPI processor grid
  reading atoms ...
  8 atoms
4 atoms in group Mg
4 atoms in group O
Setting atom values ...
  4 settings made for charge
Setting atom values ...
  4 settings made for charge
PPPM initialization ...
  G vector (1/distance) = 0.352512
  grid = 8 8 8
  stencil order = 5
  estimated absolute RMS force accuracy = 3.81673e-05
  estimated relative force accuracy = 2.65057e-06
  using double precision FFTs
  3d grid and FFT values/proc = 3375 512
Neighbor list info ...
  1 neighbor list requests
  update every 1 steps, delay 0 steps, check yes
  master list distance cutoff = 11
Setting up minimization ...
Memory usage per processor = 4.06549 Mbytes
Step PotEng Lx Ly Lz Xy Xz Yz Press Pxx Pyy Pzz Pxy Pxz Pyz eatoms 
       0   -105.55076       4.2565       4.2565       4.2565            0            0            0    126453.59    126453.59    126453.59    126453.59 4.0363335e-11 4.044677e-11 1.0723156e-10   -105.55076 
      10   -105.69165     4.299065     4.299065     4.299065            0            0            0    68786.015    68786.015    68786.015    68786.015 -1.0242962e-10 -4.708445e-11 -3.569371e-11   -105.69165 
      20   -105.75532      4.34163      4.34163      4.34163            0            0            0    18126.479    18126.479    18126.479    18126.479 7.5197513e-11 1.703257e-11 -3.0007315e-11   -105.75532 
      27   -105.76066    4.3583247    4.3583247    4.3583247            0            0            0    1.3863117    1.3863117    1.3863117    1.3863117 -6.2572681e-11 -1.3142723e-10 -3.2118437e-11   -105.76066 
Loop time of 0.015764 on 1 procs for 27 steps with 8 atoms

Minimization stats:
  Stopping criterion = linesearch alpha is zero
  Energy initial, next-to-last, final = 
        -105.550764672     -105.760658065     -105.760658065
  Force two-norm initial, final = 18.26 0.000217628
  Force max component initial, final = 18.26 0.000209876
  Final line search alpha, max atom move = 0.25 5.24691e-05
  Iterations, force evaluations = 27 40

Pair  time (%) = 0.00420976 (26.7049)
Kspce time (%) = 0.0024693 (15.6642)
Neigh time (%) = 0 (0)
Comm  time (%) = 0.000502825 (3.1897)
Outpt time (%) = 2.47955e-05 (0.157292)
Other time (%) = 0.00855732 (54.2839)

Nlocal:    8 ave 8 max 8 min
Histogram: 1 0 0 0 0 0 0 0 0 0
Nghost:    2189 ave 2189 max 2189 min
Histogram: 1 0 0 0 0 0 0 0 0 0
Neighs:    2344 ave 2344 max 2344 min
Histogram: 1 0 0 0 0 0 0 0 0 0

Total # of neighbors = 2344
Ave neighs/atom = 293
Neighbor list builds = 0
Dangerous builds = 0
pypospack:output_section:begin
tot_energy = -105.760658064539
num_atoms = 8
xx = 4.35832471527479
yy = 4.35832471527479
zz = 4.35832471527479
xy = 0
xz = 0
yz = 0
tot_press = 1.38631174704167
pxx = 1.38631174709188
pyy = 1.38631174731354
pzz = 1.3863117467196
pxy = -6.25726806975275e-11
pxz = -1.31427228854923e-10
pyz = -3.21184365171528e-11
pypospack:output_section:done
pypospack:lammps_sim:done
PPPM initialization ...
  G vector (1/distance) = 0.351503
  grid = 8 8 8
  stencil order = 5
  estimated absolute RMS force accuracy = 3.99806e-05
  estimated relative force accuracy = 2.7765e-06
  using double precision FFTs
  3d grid and FFT values/proc = 3375 512
Setting up run ...
Memory usage per processor = 3.06549 Mbytes
Step Temp PotEng KinEng TotEng Press Lx Ly Lz Press Pxx Pyy Pzz Pxy Pxz Pyz Volume 
       0          200   -105.76067    0.1809642   -105.57971    2334.0615    4.3583247    4.3583247    4.3583247    2334.0615    2019.6423    1372.8169    3609.7252    8.1497617   -388.77483    564.41372    82.786353 
     100    37.463118   -105.58822  0.033897416   -105.55433   -2442.5235    4.3644009    4.3644009    4.3644009   -2442.5235   -5647.7395   -6734.6571    5054.8261    2106.8474     745.1234   -2211.1721    83.133088 
     200    162.89207   -105.65202   0.14738817   -105.50463   -4087.6393    4.3665472    4.3665472    4.3665472   -4087.6393   -5170.7971   -8342.9325    1250.8118    860.08054   -1504.7549   -773.88451    83.255797 
     300    151.59728     -105.602   0.13716841   -105.46483    6246.6144    4.3603956    4.3603956    4.3603956    6246.6144    3173.7757   -289.82388    15855.891   -106.09886    624.97786   -1487.7244     82.90442 
     400    200.79569   -105.61164   0.18168416   -105.42995   -9564.8548    4.3684059    4.3684059    4.3684059   -9564.8548   -9828.0866   -12675.029   -6191.4484    3977.8532    1845.9464   -1415.3402    83.362158 
     500    203.79713   -105.59268   0.18439992   -105.40828    4296.4211    4.3666378    4.3666378    4.3666378    4296.4211   -3109.9465   -6006.0278    22005.238   -1357.6725   -63.515992    542.37439    83.260979 
     600    163.00829   -105.54809   0.14749332    -105.4006   -500.89473     4.362781     4.362781     4.362781   -500.89473   -3782.1624    -4805.665    7085.1432    3215.2819    -1403.481   -2522.5787    83.040556 
     700    198.65553   -105.57709    0.1797477   -105.39734   -338.98071    4.3699621    4.3699621    4.3699621   -338.98071   -3426.7916   -9493.7845    11903.634    22.929718   -47.629285   -1366.4523    83.451279 
     800    280.16777   -105.64977   0.25350169   -105.39626    1668.8337    4.3635936    4.3635936    4.3635936    1668.8337   -1218.7186   -1350.1576    7575.3774    95.518782    -275.4124    356.31259    83.086963 
     900    85.111907   -105.47705  0.077011042   -105.40004    112.34934    4.3672599    4.3672599    4.3672599    112.34934   -8394.7282   -10876.845    19608.622    3664.7822    636.74713   -2902.0466    83.296568 
    1000    292.82513   -105.66336   0.26495433   -105.39841    982.51167    4.3653949    4.3653949    4.3653949    982.51167    1138.9214    -2971.123    4779.7366   -1079.7006   -2704.6986   -58.538884    83.189903 
    1100    182.93202   -105.56569   0.16552074   -105.40017    -1825.342    4.3677354    4.3677354    4.3677354    -1825.342   -5796.9469   -10305.183    10626.104    3548.5068    143.30849   -1071.6316    83.323782 
    1200    163.77886   -105.54811   0.14819056   -105.39992    3260.0672    4.3638264    4.3638264    4.3638264    3260.0672    4887.0271   -4664.9609    9558.1353   -108.21743    2231.7361   -703.68671    83.100263 
    1300    232.50909   -105.60895   0.21037911   -105.39857   -1382.4598     4.368331     4.368331     4.368331   -1382.4598   -8854.7257   -8269.2175    12976.564    1185.1014    778.75113    1965.7827    83.357874 
    1400    157.03345   -105.54282   0.14208716   -105.40073   -3087.1845    4.3658909    4.3658909    4.3658909   -3087.1845   -2157.4467   -7740.4309    636.32408    3194.9755   -579.42258   -3645.3937    83.218261 
    1500    285.55484   -105.65659   0.25837602   -105.39822    1257.3501    4.3647039    4.3647039    4.3647039    1257.3501   -452.02509    -3895.446    8119.5214    -677.3426     705.8223   -105.90631    83.150405 
    1600    111.84024   -105.50094    0.1011954   -105.39975   -544.56305    4.3683564    4.3683564    4.3683564   -544.56305   -5725.3306   -8921.1068    13012.748    2229.0736     529.1177   -1036.9497    83.359327 
    1700    207.21969   -105.58704   0.18749673   -105.39955   -1233.3368    4.3652762    4.3652762    4.3652762   -1233.3368     1410.585   -5693.4262    582.83078    11.851238    636.85787   -1535.6645    83.183117 
    1800    256.78068   -105.63107   0.23234056   -105.39873    1980.9028    4.3659115    4.3659115    4.3659115    1980.9028   -4032.0613   -3398.2645    13373.034   -618.63917   -2373.2951    -868.6284    83.219438 
    1900    157.66585    -105.5427   0.14265937   -105.40004   -3470.4118     4.367026     4.367026     4.367026   -3470.4118   -2613.4361   -11082.343    3284.5437    3522.5842    751.26069   -2299.4131    83.283185 
    2000    187.19766   -105.56788   0.16938038    -105.3985    4420.3626    4.3657192    4.3657192    4.3657192    4420.3626   -3897.5873   -4869.6748     22028.35   -2455.0751    1087.2165   -946.93203    83.208442 
    2100     241.5636   -105.61745   0.21857182   -105.39888   -2302.5958    4.3658661    4.3658661    4.3658661   -2302.5958     830.2036   -6642.1904   -1095.8006    2357.2999    378.20173    677.67521    83.216843 
    2200     152.1184   -105.53772   0.13763993   -105.40008    1409.1226    4.3675091    4.3675091    4.3675091    1409.1226   -5546.9522   -7724.6012    17498.921   -95.466665   -1803.2936   -3194.9907    83.310827 
    2300     248.0598    -105.6228   0.22444972   -105.39835     2967.124    4.3634642    4.3634642    4.3634642     2967.124   -2068.1087   -1554.6583    12524.139   -636.89612   -521.44535    726.45748    83.079571 
    2400    134.84366   -105.52135   0.12200938   -105.39934   -1112.4111    4.3689681    4.3689681    4.3689681   -1112.4111   -6970.2613   -9745.7681    13378.796     3545.324    1537.2559   -2650.3724    83.394346 
    2500     283.1845   -105.65398   0.25623128   -105.39775   -297.37925    4.3645153    4.3645153    4.3645153   -297.37925    1513.2434   -2626.6699     221.2888   -1983.1226   -311.59382   -806.77673    83.139625 
    2600    145.10816   -105.53047   0.13129691   -105.39917    3565.3318    4.3666191    4.3666191    4.3666191    3565.3318   -2519.5418   -8414.0535    21629.591    2442.5541   -1394.1646   -1211.0522    83.259907 
    2700    187.87099   -105.56953   0.16998962   -105.39954   -3249.5009     4.365936     4.365936     4.365936   -3249.5009   -5060.6231   -6232.8365    1544.9568   -106.38847   -34.936764   -3764.1076     83.22084 
    2800    232.32106   -105.60846   0.21020898   -105.39825   -310.37727    4.3665731    4.3665731    4.3665731   -310.37727   -5570.4543   -6072.2329    10711.555   -55.910497    2306.7998    1455.7076    83.257276 
    2900    214.42611   -105.59295   0.19401725   -105.39894   -4705.0305    4.3669086    4.3669086    4.3669086   -4705.0305   -5252.1313   -8047.0803   -815.88001    2334.0395   -1071.6968    -1515.149    83.276472 
    3000    136.07621   -105.52239   0.12312461   -105.39927    3777.4841    4.3641858    4.3641858    4.3641858    3777.4841   -1251.7898    -5870.091    18454.333   -1599.7848    54.484472   -699.74786    83.120797 
    3100    251.22472   -105.62578   0.22731341   -105.39846   -5644.6638      4.36952      4.36952      4.36952   -5644.6638   -8538.4832   -8081.1302   -314.37806    1050.0696   -2132.5054    39.387117    83.425956 
    3200    156.40143   -105.54085    0.1415153   -105.39934    885.53535    4.3630752    4.3630752    4.3630752    885.53535   -1005.4711   -2927.6072    6589.6843   -67.862272    2617.9414   -2894.5641    83.057357 
    3300    262.21136   -105.63531   0.23725435   -105.39806    -2765.954    4.3687574    4.3687574    4.3687574    -2765.954   -8089.2241   -7996.9706    7788.3327   -865.03472   -2215.4368    981.57994    83.382283 
    3400    126.16006   -105.51347   0.11415228   -105.39932    2973.5075    4.3642962    4.3642962    4.3642962    2973.5075   -605.04851   -5010.1699    14535.741    2203.8527   -760.09026   -1335.8003    83.127107 
    3500    239.68903   -105.61561   0.21687567   -105.39873   -3674.3565    4.3673877    4.3673877    4.3673877   -3674.3565   -4259.7194   -8159.4501    1396.0998   -2497.5896   -1048.0279   -3003.8277    83.303885 
    3600     211.8415   -105.58982   0.19167864   -105.39814    1137.7548    4.3664011    4.3664011    4.3664011    1137.7548   -3286.5915   -5320.4493    12020.305    1753.4797    3014.6491    1667.4218    83.247441 
    3700    169.76262   -105.55232   0.15360478   -105.39871    174.66218    4.3647959    4.3647959    4.3647959    174.66218   -6148.7572   -6804.6541    13477.398   -854.33645   -734.98727   -3688.1604    83.155663 
    3800    224.78118   -105.60156   0.20338674   -105.39817     248.9929     4.367416     4.367416     4.367416     248.9929   -6214.8331   -5839.0939    12800.906   -423.71725    441.64948    1714.5192    83.305503 
    3900    211.80584   -105.59069   0.19164637   -105.39904    201.32291      4.36514      4.36514      4.36514    201.32291   -698.52477   -4501.9325     5804.426    2122.6951   -1758.1293   -2443.7401    83.175331 
    4000    177.63896   -105.56029   0.16073147   -105.39956   -12.686318    4.3671921    4.3671921    4.3671921   -12.686318   -3382.4224   -7228.1784    10572.542    -2912.842    1946.1115   -930.06866    83.292689 
    4100    204.26365   -105.58303   0.18482204   -105.39821    4294.8301    4.3645662    4.3645662    4.3645662    4294.8301   -2026.5344   -3770.0189    18681.044     2012.035   -1088.9826    711.09528    83.142531 
    4200    223.65396   -105.60108    0.2023668   -105.39871      -5091.2    4.3680763    4.3680763    4.3680763      -5091.2   -7000.0826   -7856.4653   -417.05199   -1274.9496   -2591.9614   -3142.5882     83.34329 
    4300    187.33338    -105.5689   0.16950318    -105.3994     2023.438    4.3648913    4.3648913    4.3648913     2023.438      1476.89   -6358.1046    10951.529    -519.5535   -55.546256   -832.12131    83.161114 
    4400    209.91038   -105.58902   0.18993132   -105.39909   -790.83776    4.3666987    4.3666987    4.3666987   -790.83776   -3776.6882   -7396.4006    8800.5755    1315.8409    34.657983   -1533.0883    83.264463 
    4500    138.56487   -105.52502   0.12537641   -105.39964   -373.67394    4.3662747    4.3662747    4.3662747   -373.67394   -408.56144   -9707.7381    8995.2778   -2718.8506    109.76068   -2174.3245    83.240209 
    4600    313.96815   -105.68149   0.28408498    -105.3974   -3973.6492    4.3668369    4.3668369    4.3668369   -3973.6492   -6076.1953   -4762.1926   -1082.5599    1126.7353   -1044.5932    1462.0653    83.272367 
    4700     109.2512   -105.49876  0.098852781   -105.39991    2329.5115    4.3650561    4.3650561    4.3650561    2329.5115    1425.2581   -7781.0181    13344.295   -672.28187    -742.1492   -4163.5606    83.170534 
    4800    222.44262   -105.60026   0.20127076   -105.39899   -1136.6826    4.3676203    4.3676203    4.3676203   -1136.6826   -2906.2289   -7158.0837    6654.2649   -1607.2983    2454.3809    550.77663    83.317191 
    4900    208.20972   -105.58683   0.18839253   -105.39844    3187.8147    4.3650119    4.3650119    4.3650119    3187.8147    1790.4666   -4796.3428     12569.32    1433.2573   -1070.4938   -1473.6313    83.168008 
    5000    203.58216   -105.58301   0.18420541   -105.39881   -4470.1088    4.3676608    4.3676608    4.3676608   -4470.1088   -2358.3677   -9000.2089   -2051.7499   -3121.0009    -1890.448   -3297.3668    83.319509 
    5100    178.11952   -105.55951   0.16116628   -105.39834    6290.3052    4.3648324    4.3648324    4.3648324    6290.3052   -3543.8377   -4883.3517    27298.105    910.28785    942.07415    1421.7346    83.157746 
    5200     213.3093   -105.59267   0.19300673   -105.39966   -2419.6232    4.3663076    4.3663076    4.3663076   -2419.6232   -1056.0996   -8208.8461    2006.0761   -1141.0437   -376.39715    -4372.624     83.24209 
    5300    192.87508   -105.57396   0.17451743   -105.39944    863.10714    4.3677258    4.3677258    4.3677258    863.10714   -4477.0975   -7741.6907     14808.11   -1653.1882    1100.0674    1588.1572    83.323231 
    5400    237.69565   -105.61316   0.21507202   -105.39809    2404.4586    4.3639848    4.3639848    4.3639848    2404.4586    3115.7436   -4771.4341    8869.0665    884.44885   -2345.9555   -1496.6553    83.109315 
    5500    105.35615   -105.49542  0.095328456   -105.40009    858.73183    4.3678119    4.3678119    4.3678119    858.73183   -8373.0747   -8275.5739    19224.844   -3077.1887   -892.18637   -1722.7418    83.328158 
    5600    314.88212   -105.68335   0.28491196   -105.39844   -330.74741     4.364691     4.364691     4.364691   -330.74741   -205.10615   -4130.6162    3343.4802    1000.9859    1833.7516    1262.5275    83.149666 
    5700    149.62627   -105.53529   0.13538499   -105.39991   -1065.4957    4.3687062    4.3687062    4.3687062   -1065.4957   -5129.7089   -7991.2479    9924.4698   -1564.1251    -2839.655   -1578.6896     83.37935 
    5800    168.73564   -105.55208   0.15267556   -105.39941    1686.5603    4.3640475    4.3640475    4.3640475    1686.5603    88.135923   -7038.9457    12010.491   -1378.2477   -782.85563    -565.2508    83.112896 
    5900    242.12342   -105.61729   0.21907836   -105.39821   -414.22059    4.3672123    4.3672123    4.3672123   -414.22059   -4320.5294   -6458.2532    9536.1209    345.30929   -1496.9699    -336.3245    83.293845 
    6000    181.10814   -105.56412   0.16387046   -105.40025   -6297.1491    4.3671671    4.3671671    4.3671671   -6297.1491    -8675.524   -10634.013    418.08995   -2969.2144    840.05815   -3620.8557    83.291262 
    6100    233.06655   -105.60984   0.21088351   -105.39896     1393.039    4.3655467    4.3655467    4.3655467     1393.039    -1782.368   -6459.9298    12421.415    439.25305   -29.521839    1936.2087    83.198578 
    6200     137.1038   -105.52385    0.1240544    -105.3998   -998.13393    4.3668009    4.3668009    4.3668009   -998.13393   -6009.8467    -8605.348    11620.793   -1811.8186   -2344.4946   -3343.8183    83.270309 
    6300    237.57129   -105.61413    0.2149595   -105.39917   -3848.6094    4.3663184    4.3663184    4.3663184   -3848.6094   -2801.8319   -8513.0211   -230.97508   -2301.9985    1103.1644    184.13755    83.242707 
    6400    237.00126   -105.61326   0.21444372   -105.39882    908.28505    4.3672573    4.3672573    4.3672573    908.28505   -5877.4443   -5776.7637    14379.063    252.61779    647.49271   -633.15662    83.296422 
    6500    128.18359   -105.51681   0.11598321   -105.40082    -2001.305    4.3651255    4.3651255    4.3651255    -2001.305   -5351.1626   -8188.6997    7535.9474   -3669.8944   -1254.4085   -2583.7573    83.174498 
    6600    236.26958   -105.61242   0.21378168   -105.39864    2323.4702    4.3671747    4.3671747    4.3671747    2323.4702   -4972.9255   -6637.5211    18580.857    553.35421   -1100.3488    517.61887    83.291694 
    6700    233.46626   -105.61052   0.21124518   -105.39928   -4005.7803    4.3660991    4.3660991    4.3660991   -4005.7803     -3207.19   -7396.8523   -1413.2986    -1935.047   -1949.4442    -3951.816    83.230165 
    6800    116.13687   -105.50558   0.10508308    -105.4005    2321.0429    4.3673451    4.3673451    4.3673451    2321.0429    -6185.474   -10570.119    23718.722   -2138.9315    2160.8597   -98.304346    83.301445 
    6900    274.55105   -105.64695   0.24841956   -105.39853    312.53394    4.3641656    4.3641656    4.3641656    312.53394   -2396.9807    -3475.509    6810.0916    848.99846   -1034.9518    301.19054    83.119641 
    7000     127.7513   -105.51597   0.11559206   -105.40038   -2893.0715    4.3686238    4.3686238    4.3686238   -2893.0715   -11125.747   -9988.6412    12435.174   -3331.9867     -3167.09   -2323.6332    83.374633 
    7100    312.14518   -105.68044   0.28243552   -105.39801   -862.22183    4.3657703    4.3657703    4.3657703   -862.22183   -806.11166   -6166.2361    4385.6823    1503.1498    2251.8823    1602.3776    83.211366 
    7200     82.86264   -105.47506  0.074975858   -105.40009    4124.8067    4.3657043    4.3657043    4.3657043    4124.8067    -4102.288   -5486.9947    21963.703   -2488.3368   -2043.4297   -814.21582    83.207589 
    7300    229.58619   -105.60775   0.20773441   -105.40002   -5474.9486    4.3674755    4.3674755    4.3674755   -5474.9486   -4815.6291   -10271.051   -1338.1659   -1171.3096    746.13333    188.15708    83.308906 
    7400    238.73846   -105.61478   0.21601558   -105.39876    2455.3324    4.3652454    4.3652454    4.3652454    2455.3324   -3881.9949   -1957.6323    13205.624   -115.58025    -2639.019     1753.282    83.181353 
    7500    167.59108   -105.55163   0.15163993   -105.39999   -6157.0676    4.3686907    4.3686907    4.3686907   -6157.0676   -10354.861   -13509.669    5393.3272   -2941.0048   -1117.2907   -3862.7223    83.378464 
    7600    185.07352   -105.56614   0.16745841   -105.39868    4819.2478    4.3634769    4.3634769    4.3634769    4819.2478    3274.2027   -3443.7297     14627.27    942.26371    1734.9996    1779.2936    83.080298 
    7700    229.56117   -105.60744   0.20771177   -105.39973     -6058.66    4.3691077    4.3691077    4.3691077     -6058.66    -8969.278   -10786.039    1579.3374   -3131.6123    -1824.048   -2262.7885    83.402343 
    7800    170.09127   -105.55447   0.15390216   -105.40057    1598.6064    4.3649407    4.3649407    4.3649407    1598.6064    37.279714   -6600.2896    11358.829    -1065.322   -1964.1781   -974.95593    83.163935 
    7900    238.57182   -105.61425    0.2158648   -105.39838    2167.8296    4.3668153    4.3668153    4.3668153    2167.8296   -6162.2814   -5549.7404    18215.511   -440.77872    2140.0909   -275.50567    83.271135 
    8000    157.90958   -105.54295   0.14287991   -105.40007   -3118.3059    4.3661166    4.3661166    4.3661166   -3118.3059   -2915.4388    -7530.085    1090.6062   -2319.9926   -1632.3412   -1470.4844    83.231166 
    8100    239.89636   -105.61651   0.21706327   -105.39945    2992.5562    4.3667921    4.3667921    4.3667921    2992.5562   -1374.1646   -5310.0648    15661.898    895.68814    1390.9265    383.96892    83.269808 
    8200    211.40865   -105.59146   0.19128699   -105.40017    347.39406    4.3659395    4.3659395    4.3659395    347.39406   -4190.6252   -7471.1848    12703.992   -2069.9584   -3861.8581   -1090.9141    83.221039 
    8300    119.03353    -105.5079   0.10770404   -105.40019    3289.8828    4.3660641    4.3660641    4.3660641    3289.8828    -1173.937   -6624.7882    17668.373   -1076.5747   -118.05528   -2913.6073    83.228166 
    8400    326.02782   -105.69271   0.29499683   -105.39771   -3196.6948    4.3661959    4.3661959    4.3661959   -3196.6948   -5129.0671   -4711.5051    250.48791    526.11061    22.918854    933.16444    83.235701 
    8500    82.908841   -105.47586  0.075017661   -105.40084    2818.9142    4.3676834    4.3676834    4.3676834    2818.9142   -3039.2129   -8716.2815    20212.237   -2254.3886   -2530.6501   -1288.7511    83.320806 
    8600    281.24967   -105.65327   0.25448061   -105.39879    726.35381    4.3644391    4.3644391    4.3644391    726.35381   -1450.8536   -5000.7984    8630.7134    946.52056   -1598.8853    1208.6462    83.135269 
    8700    143.62263   -105.52951   0.12995277   -105.39956    1250.3089    4.3672415    4.3672415    4.3672415    1250.3089   -1116.6222   -6157.2607    11024.809   -1831.7474   -115.58302   -1132.1906    83.295514 
    8800    238.61369   -105.61518   0.21590268   -105.39928     -4982.67     4.366748     4.366748     4.366748     -4982.67   -6900.2206   -6446.7912   -1600.9981   -1461.5163   -1218.7055   -497.68852    83.267284 
    8900    182.96899   -105.56435   0.16555419    -105.3988    6488.0007    4.3653545    4.3653545    4.3653545    6488.0007   -625.10252   -4000.2414    24089.346     574.5733    760.46202    2099.5628    83.187591 
    9000     188.5929    -105.5709   0.17064282   -105.40026   -5356.6067    4.3680943    4.3680943    4.3680943   -5356.6067   -6592.2692    -9606.271     128.7202    -2271.901   -3471.4181   -1835.7332    83.344321 
    9100     196.7334   -105.57714   0.17800852   -105.39913    2443.5938    4.3633538    4.3633538    4.3633538    2443.5938    1469.2874   -2924.7267    8786.2207    722.10332     2372.183   -53.287379    83.073268 
    9200     235.4066   -105.61163   0.21300084   -105.39863   -4640.9572    4.3703032    4.3703032    4.3703032   -4640.9572    -7989.905   -11582.142    5649.1754    -1918.123    -596.8237   -1458.7517    83.470822 
    9300    138.30903   -105.52501   0.12514492   -105.39986    2716.8936    4.3631312    4.3631312    4.3631312    2716.8936   -4181.1209   -4234.5464    16566.348   -766.95571   -957.19408   -711.18267    83.060552 
    9400    273.43165   -105.64578   0.24740671   -105.39837   -1717.6339    4.3681109    4.3681109    4.3681109   -1717.6339   -2326.5088   -6176.1952    3349.8023    93.519805   -656.82284    204.81332    83.345274 
    9500    142.26717    -105.5287   0.12872632   -105.39998   -138.97809     4.365676     4.365676     4.365676   -138.97809    -5855.459   -3892.2888    9330.8136   -1325.2925   -832.56745   -1716.9833    83.205972 
    9600    206.58947   -105.58581   0.18692649   -105.39888    2055.6006    4.3663652    4.3663652    4.3663652    2055.6006   -1089.4758   -5990.1383    13246.416    402.69213    358.60833   -1051.3863    83.245389 
    9700    244.47331   -105.62008   0.22120459   -105.39888   -1618.0954    4.3669787    4.3669787    4.3669787   -1618.0954   -8293.5138   -6264.2021    9703.4298   -2051.8018   -1637.1264    2172.4456     83.28048 
    9800    156.15256   -105.54148   0.14129011   -105.40019    1.3811839    4.3644639    4.3644639    4.3644639    1.3811839   -4015.2193   -2796.5599    6815.9227   -569.83007   -4313.3516     -2820.68     83.13669 
    9900     242.3755   -105.61794   0.21930644   -105.39863   -1034.4904    4.3687533    4.3687533    4.3687533   -1034.4904   -5866.9479   -7808.9622    10572.439    40.476206    878.80262    -156.5365    83.382052 
   10000    136.94564   -105.52333   0.12391129   -105.39942    2358.3546    4.3643704    4.3643704    4.3643704    2358.3546   -5945.8992   -3887.7353    16908.698   -1871.2725   -2928.6406   -2461.1331    83.131344 
   10100    266.88972   -105.63953   0.24148743   -105.39805    -4404.254    4.3672594    4.3672594    4.3672594    -4404.254   -4230.9913   -8253.6513   -728.11923    817.76237   -1354.0263   -731.42724    83.296538 
   10200    176.20952   -105.55844   0.15943807   -105.39901    1293.0293    4.3661269    4.3661269    4.3661269    1293.0293   -7584.5491   -4663.7278    16127.365   -2577.3941   -1396.3978    866.93665    83.231754 
   10300    181.20224   -105.56388    0.1639556   -105.39993   -2106.7907    4.3662251    4.3662251    4.3662251   -2106.7907   -5749.6338   -6627.7403     6057.002   -83.070193   -1221.0347   -2565.8313    83.237373 
   10400    218.02584   -105.59586   0.19727437   -105.39858    588.82285    4.3670658    4.3670658    4.3670658    588.82285   -4735.6319   -5327.4998      11829.6    119.44807    1970.8089   -1200.1467    83.285462 
   10500      215.041   -105.59325   0.19457361   -105.39868   -2933.4694    4.3648934    4.3648934    4.3648934   -2933.4694   -5331.5113   -3257.5292   -211.36781   -1967.4201   -3370.3835    293.10346    83.161232 
   10600    137.75547   -105.52391   0.12464405   -105.39926    635.21116     4.367676     4.367676     4.367676    635.21116   -6667.1408    -7731.714    16304.488    930.28414   -749.62457   -1614.5177     83.32038 
   10700    258.97714   -105.63305   0.23432796   -105.39872    -2629.943    4.3664729    4.3664729    4.3664729    -2629.943   -6206.6849   -7415.4317    5732.2877   -2592.5807     576.3619   -368.24875    83.251545 
   10800    167.15728   -105.55069   0.15124742   -105.39944    66.950319    4.3648059    4.3648059    4.3648059    66.950319   -4907.5449   -5074.4655    10182.861    -47.65018   -1816.4673   -2605.7376    83.156233 
   10900    235.20845   -105.61116   0.21282155   -105.39833   -2976.6826    4.3683101    4.3683101    4.3683101   -2976.6826   -2662.7642   -7671.7824    1404.4989   -251.60215   -1197.9126   -367.86587    83.356672 
   11000    127.30571   -105.51435   0.11518888   -105.39916    3869.8983    4.3648218    4.3648218    4.3648218    3869.8983   -5965.3037   -3930.6125    21505.611    -1617.186   -2367.3497    689.92292    83.157144 
   11100    253.33372   -105.62825   0.22922167   -105.39903   -4009.7006    4.3673279    4.3673279    4.3673279   -4009.7006   -2530.3066   -7145.3921    -2353.403   -81.795048   -1409.3896   -2896.6954    83.300459 
   11200    209.36321    -105.5881   0.18943623   -105.39867    2488.6247    4.3654355    4.3654355    4.3654355    2488.6247   -5290.6017   -4297.5763    17054.052   -1927.9905     1772.991    1281.2529    83.192224 
   11300    176.66056   -105.55895   0.15984619    -105.3991    -1379.778    4.3664662    4.3664662    4.3664662    -1379.778   -3698.7032   -5022.5502    4581.9193   -381.75862   -4320.3966   -1438.5644    83.251162 
   11400     173.3693   -105.55569   0.15686818   -105.39882    2018.5894    4.3673811    4.3673811    4.3673811    2018.5894   -2221.4016   -6373.4013    14650.571     378.8099    615.41339    1580.5077    83.303504 
   11500    260.41995    -105.6343   0.23563344   -105.39867   -486.10744    4.3637445    4.3637445    4.3637445   -486.10744   -5266.6589   -1576.4941    5384.8307   -1145.4781   -551.22876   -760.00366    83.095585 
   11600    159.10297   -105.54355   0.14395971   -105.39959   -1381.4215    4.3690917    4.3690917    4.3690917   -1381.4215   -3206.2098   -8908.9834    7970.9289    503.47043   -1333.1646   -3921.8461    83.401426 
   11700    210.43776   -105.58886   0.19040851   -105.39845    1688.4777    4.3642908    4.3642908    4.3642908    1688.4777   -4361.0357    -4132.935    13559.404   -977.55866    -969.7646    915.25839    83.126797 
   11800    199.55078   -105.57918   0.18055774   -105.39862   -1650.3302    4.3676155    4.3676155    4.3676155   -1650.3302   -954.08041   -7218.2606    3221.3504    534.21427   -2299.6078    -1844.055    83.316916 
   11900    207.13478   -105.58651   0.18741991   -105.39909    1062.3993      4.36545      4.36545      4.36545    1062.3993   -3184.1243   -3926.2357    10297.558    307.29338    -293.2587   -1948.0144    83.193051 
   12000    207.18044    -105.5864   0.18746121   -105.39894    927.43408    4.3661376    4.3661376    4.3661376    927.43408   -3542.6279   -4663.6736    10988.604   -729.13608     432.4697   -52.317197    83.232368 
   12100    147.23053   -105.53253   0.13321728   -105.39932   -1420.8281    4.3679775    4.3679775    4.3679775   -1420.8281   -3101.0453    -6292.017    5130.5781    436.59566   -3677.8847   -3905.3036    83.337634 
   12200    281.20895   -105.65208   0.25444376   -105.39763   -806.86707    4.3643154    4.3643154    4.3643154   -806.86707   -2219.6394   -5908.4607    5707.4988   -1966.6764    331.97203    1965.2092    83.128204 
   12300    146.73384     -105.532   0.13276787   -105.39923    2215.7503    4.3674829    4.3674829    4.3674829    2215.7503   -1695.1575   -6019.7822    14362.191    1012.1223   -1437.6683   -2360.7433    83.309327 
   12400    203.86334   -105.58381   0.18445984   -105.39935   -2029.2894    4.3660591    4.3660591    4.3660591   -2029.2894   -4105.4627   -6595.2395    4612.8341   -986.77779     373.1643    -3411.189    83.227881 
   12500    196.08833   -105.57604   0.17742484   -105.39861    1916.7335    4.3663472    4.3663472    4.3663472    1916.7335   -2068.5267   -4393.3997    12212.127   -363.59943   -2044.4327    1238.9064    83.244354 
   12600    237.08441   -105.61307   0.21451896   -105.39855   -3515.9302    4.3666935    4.3666935    4.3666935   -3515.9302   -4254.0118   -6098.0821   -195.69665   -526.08202   -1068.8903   -3553.8694    83.264166 
   12700    149.48594   -105.53406   0.13525802    -105.3988    6060.5392    4.3653141    4.3653141    4.3653141    6060.5392   -1337.5347   -6422.5157    25941.668   -846.31603    1548.2253    1075.4364    83.185285 
   12800    236.89558   -105.61324    0.2143481   -105.39889   -4294.9409     4.367674     4.367674     4.367674   -4294.9409   -4432.5376   -4573.7834   -3878.5018    621.97392   -544.54877   -2768.8075    83.320265 
   12900    154.87175   -105.54007   0.14013122   -105.39994    1676.3583    4.3656636    4.3656636    4.3656636    1676.3583   -4080.2466     -5709.94    14819.262    586.22627   -2004.0958   -669.44619    83.205265 
   13000    270.25071   -105.64277   0.24452852   -105.39824    251.37082    4.3657121    4.3657121    4.3657121    251.37082   -4379.3559   -3371.0382    8504.5065    -448.1829    675.32929    2637.7656    83.208036 
   13100    117.58752   -105.50577   0.10639566   -105.39937    -40.65989    4.3681602    4.3681602    4.3681602    -40.65989    -7050.429   -8677.0246    15605.474    647.58508   -2152.9541    -1878.787    83.348094 
   13200    247.54082   -105.62253   0.22398013   -105.39855   -2150.9983    4.3645264    4.3645264    4.3645264   -2150.9983    571.80393   -6695.2015    -329.5975   -301.30523    1326.4939   -391.62725    83.140258 
   13300    200.30733   -105.58024   0.18124228     -105.399   -783.62146    4.3683465    4.3683465    4.3683465   -783.62146   -7739.2498   -7093.5484    12481.934    431.18856    -4160.318    -1126.117    83.358761 
   13400    173.34964   -105.55628    0.1568504   -105.39943    392.34692    4.3644919    4.3644919    4.3644919    392.34692    -1855.757   -5830.4546    8863.2523    696.75505   -915.34697     -2069.98    83.138287 
   13500    221.80613   -105.59842   0.20069484   -105.39773   -1280.4745    4.3682993    4.3682993    4.3682993   -1280.4745   -7202.5293   -6110.0223     9471.128   -1688.5933    1388.3725    1877.2149    83.356058 
   13600    185.27433   -105.56676   0.16764011   -105.39912   -3254.8241    4.3658371    4.3658371    4.3658371   -3254.8241   -2485.8266    -5423.815   -1854.8308    626.95545   -2547.2349    -4955.402    83.215183 
   13700    206.29918   -105.58582   0.18666384   -105.39915    1374.6598    4.3658199    4.3658199    4.3658199    1374.6598   -4033.1863   -8575.4322    16732.598   -1761.4703    341.12108    1117.8458    83.214204 
   13800    212.51467   -105.59094   0.19228774   -105.39865   -2404.1183    4.3679065    4.3679065    4.3679065   -2404.1183   -6950.8356    -5149.708    4888.1885    647.88032   -1012.8124   -865.77145    83.333572 
   13900    168.65642   -105.55178   0.15260387   -105.39918   -3279.9562    4.3658676    4.3658676    4.3658676   -3279.9562   -4389.0096   -8901.5937    3450.7347   -773.54526   -135.11066   -2405.3275    83.216931 
   14000    239.81623    -105.6157   0.21699076   -105.39871     228.0095    4.3666239    4.3666239    4.3666239     228.0095   -5658.7154   -5195.9745    11538.718   -899.84587    1252.8583    254.68094    83.260182 
   14100    165.94569   -105.55037   0.15015114   -105.40022    -368.9582     4.365938     4.365938     4.365938    -368.9582   -3715.1766   -7364.9736    9973.2755    324.59962   -3393.4639   -4231.2028    83.220957 
   14200    212.13886   -105.59103   0.19194769   -105.39908   -1794.0819    4.3674292    4.3674292    4.3674292   -1794.0819   -5342.0947   -9222.3093    9182.1584   -678.68701   -306.46362    821.14414    83.306258 
   14300    224.55668   -105.60126    0.2031836   -105.39807   -1626.9886    4.3663462    4.3663462    4.3663462   -1626.9886   -4141.6417   -2093.6844    1354.3603      1132.55    1685.8363   -1056.3871    83.244297 
   14400    141.38915   -105.52756   0.12793187   -105.39963    1702.3878    4.3658778    4.3658778    4.3658778    1702.3878   -7245.0281    -8240.636    20592.828   -22.979686   -2469.7132   -3479.7112    83.217514 
   14500     261.9124   -105.63523   0.23698384   -105.39824    258.58891    4.3665893    4.3665893    4.3665893    258.58891   -3873.3178   -1845.6809    6494.7654   -436.57335    1308.1176    671.79234    83.258202 
   14600    159.68112   -105.54408   0.14448284   -105.39959   -2695.8168    4.3673143    4.3673143    4.3673143   -2695.8168   -6275.7797   -8396.9261    6585.2554    619.75487   -2137.7598   -1457.3877    83.299679 
   14700    215.68896   -105.59384    0.1951599   -105.39868   -362.74993     4.365597     4.365597     4.365597   -362.74993   -2344.0131   -5409.7106    6665.4738   -1031.8428    1942.5016   -130.95398    83.201458 
   14800    186.91383   -105.56745   0.16912356   -105.39833    3510.7333    4.3663996    4.3663996    4.3663996    3510.7333   -6330.2702   -4695.3212    21557.791    722.82332    381.87807    333.92111    83.247356 
   14900    215.83937   -105.59458     0.195296   -105.39928   -5367.0766    4.3671677    4.3671677    4.3671677   -5367.0766   -6001.0706   -8205.3294   -1894.8299   -994.80528   -1991.1546    -4326.038    83.291293 
   15000     195.9715   -105.57601   0.17731913   -105.39869    2277.8875    4.3660279    4.3660279    4.3660279    2277.8875    -1835.066   -2237.2237    10905.952   -1137.7796      597.179    2377.0312    83.226097 
   15100    197.30851   -105.57771   0.17852888   -105.39918   -1438.5559    4.3664421    4.3664421    4.3664421   -1438.5559     -5763.49   -5324.8875    6772.7098   -183.53284    327.72952   -2974.9115    83.249784 
   15200     161.9295   -105.54561   0.14651722   -105.39909    3491.6406    4.3659024    4.3659024    4.3659024    3491.6406   -1920.3196   -5044.7392    17439.981   -1614.9894   -188.42489   -81.644329     83.21892 
   15300    296.41567   -105.66618   0.26820313   -105.39797   -5818.7345    4.3680837    4.3680837    4.3680837   -5818.7345   -8216.5763   -3589.0122   -5650.6149    712.68952    149.40985     -162.171    83.343713 
   15400     93.60906    -105.4852  0.084699444    -105.4005    2356.8451    4.3646097    4.3646097    4.3646097    2356.8451   -713.68095    -5270.441    13054.657   -1686.1735   -1692.0162   -1068.2533    83.145017 
   15500    265.02022   -105.63808   0.23979586   -105.39829   -238.77226    4.3674514    4.3674514    4.3674514   -238.77226   -5611.5802   -4502.3386     9397.602    49.005891    2974.3915    1444.4383    83.307529 
   15600    166.05866   -105.54953   0.15025336   -105.39928    670.76729    4.3662072    4.3662072    4.3662072    670.76729   -1822.3594   -5222.8101    9057.4714   -220.40946   -795.62354   -1487.8235    83.236352 
   15700    231.67136   -105.60837   0.20962112   -105.39875   -3643.1533    4.3666011    4.3666011    4.3666011   -3643.1533   -4307.3435   -5937.9549   -684.16151   -246.18332   -561.57434   -2415.5901    83.258881 
   15800    185.72063   -105.56697   0.16804393   -105.39892    3963.1377    4.3659982    4.3659982    4.3659982    3963.1377   -3252.2932   -620.12336     15761.83    558.47768    989.02819    1842.0213    83.224398 
   15900    175.89368   -105.55885   0.15915229    -105.3997    584.08212    4.3661483    4.3661483    4.3661483    584.08212   -3452.8695   -5100.5933    10305.709     -672.436    -157.8583    -3751.749    83.232983 
   16000    259.07702     -105.632   0.23441833   -105.39759     69.08732    4.3671436    4.3671436    4.3671436     69.08732   -3735.2738   -1768.7281    5711.2639   -184.74932    2042.1354    637.12796    83.289915 
   16100     165.1575   -105.54836   0.14943798   -105.39892    695.51682    4.3661008    4.3661008    4.3661008    695.51682    -2167.828   -3782.0926    8036.4711    189.81519   -982.36686   -2493.3085    83.230265 
   16200    182.68446   -105.56472   0.16529674   -105.39943    2204.0323    4.3655028    4.3655028    4.3655028    2204.0323   -5199.9396   -3848.4125    15660.449   -1093.5892   -841.92652   -1546.4264    83.196073 
   16300    251.64825   -105.62617   0.22769663   -105.39847    817.44732    4.3673347    4.3673347    4.3673347    817.44732   -2349.0631   -4158.1608    8959.5659    337.74414    3850.8543      1285.18    83.300851 
   16400    176.85454   -105.55892   0.16002171    -105.3989   -1772.8321    4.3662304    4.3662304    4.3662304   -1772.8321    -5222.846   -5179.0143     5083.364   -1197.9723   -2895.2696   -3283.7433    83.237678 
   16500    189.34028   -105.56976   0.17131906   -105.39844    3832.2164    4.3660136    4.3660136    4.3660136    3832.2164    621.05998   -4562.3435    15437.933   -760.83002    1001.1315    33.629552    83.225278 
   16600    198.14462   -105.57874   0.17928541   -105.39946    640.47108    4.3663662    4.3663662    4.3663662    640.47108   -5396.6035    -1671.222    8989.2387    335.76894   -1571.3799   -1401.0178    83.245445 
   16700    218.46289   -105.59693   0.19766981   -105.39926   -1042.6216    4.3660037    4.3660037    4.3660037   -1042.6216   -3125.5878    -6034.107    6031.8299   -1567.5501    372.77356   -2201.9204    83.224709 
   16800    230.38869   -105.60657   0.20846053   -105.39811   -544.29679    4.3680907    4.3680907    4.3680907   -544.29679   -4308.9852   -1493.8767    4169.9716    845.98199    1354.8221   -187.63516    83.344117 
   16900    103.84295   -105.49344  0.093959287   -105.39948    3892.5703    4.3638608    4.3638608    4.3638608    3892.5703   -3584.8715   -3750.7014    19013.284    -1306.833   -2258.7977   -2361.4505    83.102226 
   17000    284.52324   -105.65533   0.25744261   -105.39789   -3615.7056    4.3687308    4.3687308    4.3687308   -3615.7056   -2694.7853    -6663.223   -1489.1085    882.49442     797.9221   -464.94765    83.380761 
   17100    179.35473   -105.56163   0.16228393   -105.39935   -504.33182    4.3652073    4.3652073    4.3652073   -504.33182   -8096.4395    -2100.098    8683.5421   -176.68687    3517.2091    494.57129    83.179179 
   17200    195.76851   -105.57612   0.17713546   -105.39898   -2748.9522     4.367253     4.367253     4.367253   -2748.9522   -2946.8283   -10075.611    4775.5831    492.35227   -1015.4307   -4228.5732    83.296176 
   17300    170.77415   -105.55289   0.15452004   -105.39837    3971.0824    4.3658923    4.3658923    4.3658923    3971.0824   -6304.8959    898.42894    17319.714    29.428408    2147.2638     1464.855    83.218342 
   17400    247.17918   -105.62248   0.22365291   -105.39882   -6210.0569    4.3666271    4.3666271    4.3666271   -6210.0569   -4853.5718   -9916.2812   -3860.3177    316.38875    -1400.567   -4483.1997    83.260367 
   17500    174.00853   -105.55655   0.15744657    -105.3991     2141.661    4.3672842    4.3672842    4.3672842     2141.661   -4751.0355   -1478.8159    12654.834    222.59467    1822.7382    200.33659    83.297959 
   17600    208.48025   -105.58748   0.18863731   -105.39884   -977.90163    4.3650558    4.3650558    4.3650558   -977.90163   -8033.6055   -4250.0817    9349.9823    84.681339    1333.6816   -2120.8501    83.170516 
   17700    160.28944   -105.54404   0.14503326     -105.399    183.65679    4.3674563    4.3674563    4.3674563    183.65679   -4388.5628   -5706.3708    10645.904    111.17523    -3574.169   -2765.7841    83.307807 
   17800    299.39661   -105.66871   0.27090034   -105.39781   -4522.4909    4.3667428    4.3667428    4.3667428   -4522.4909   -7148.2472   -5265.9051   -1153.3203   -572.61299    2374.0109    520.30784    83.266984 
   17900     96.32154   -105.48709  0.087153754   -105.39994    2656.2246    4.3657127    4.3657127    4.3657127    2656.2246   -3031.6924   -7063.0812    18063.447    116.31248   -788.23421   -1774.6231    83.208069 
   18000    241.03754   -105.61659   0.21809583   -105.39849   -1908.6307    4.3670483    4.3670483    4.3670483   -1908.6307   -5204.9814   -6488.6281    5967.7175   -666.67442    1943.0861   -1990.4436    83.284464 
   18100    202.19407   -105.58148   0.18294945   -105.39853   -673.95407    4.3657661    4.3657661    4.3657661   -673.95407   -7236.3565   -4622.8304    9837.3247    464.88552   -1585.2641      1044.77    83.211125 
   18200    219.44554   -105.59733   0.19855893   -105.39877   -4405.3287    4.3679039    4.3679039    4.3679039   -4405.3287   -5486.8454   -9139.6067    1410.4659   -1261.5341    306.73035   -4514.8567    83.333423 
   18300    169.46257   -105.55221   0.15333329   -105.39887    3570.4595    4.3654134    4.3654134    4.3654134    3570.4595   -3953.8212    -2567.099    17232.299    917.55206    2609.5111    597.22323    83.190962 
   18400    182.61269   -105.56463    0.1652318    -105.3994   -2191.9036    4.3660443    4.3660443    4.3660443   -2191.9036   -4372.6011   -6190.4219    3987.3122   -827.69604    1432.3619   -3919.4712    83.227035 
   18500    253.59359   -105.62769   0.22945681   -105.39823    -4404.171     4.368731     4.368731     4.368731    -4404.171   -6529.4967   -8342.1231    1659.1067    1187.8935   -996.25166    -3807.114     83.38077 
   18600    166.63754   -105.54946   0.15077715   -105.39868    1689.0967    4.3642055    4.3642055    4.3642055    1689.0967   -6792.3905    -2661.312    14520.993     360.3717    3006.1354    1138.5486    83.121919 
   18700    198.65074   -105.57873   0.17974336   -105.39898   -3813.8671    4.3681507    4.3681507    4.3681507   -3813.8671   -4774.2793   -10421.294    3753.9715   -237.49099   -191.96658   -4732.1756    83.347552 
   18800    203.58029   -105.58308   0.18420373   -105.39887      780.119    4.3653558    4.3653558    4.3653558      780.119   -2962.2617   -2292.3762    7594.9949    1196.1383    4371.7782    376.92443    83.187669 
   18900    221.31908   -105.59916   0.20025416   -105.39891   -4574.4848    4.3675463    4.3675463    4.3675463   -4574.4848   -6813.4935   -9727.6666    2817.7058   -188.38412   -2403.0346   -2767.2395     83.31296 
   19000    147.44105   -105.53197   0.13340776   -105.39856    3542.5361    4.3665874    4.3665874    4.3665874    3542.5361   -3152.9427   -2391.3808    16171.932    804.87498    1235.1346   -1518.8224    83.258093 
   19100    255.66657   -105.62949   0.23133248   -105.39816    -2939.547    4.3647141    4.3647141    4.3647141    -2939.547   -7541.8898    -2838.869    1562.1177   -192.64994    2353.9665   -230.51962    83.150989 
   19200    166.55345   -105.55012   0.15070106   -105.39942   -902.37327    4.3695301    4.3695301    4.3695301   -902.37327   -3910.1491   -6983.8296    8186.8589   -736.99595   -669.89047   -3439.8233    83.426533 
   19300    237.29903   -105.61301   0.21471315   -105.39829    1908.9632    4.3635565    4.3635565    4.3635565    1908.9632   -2295.7078    -1911.495    9934.0925    441.76757    682.87744   -726.07314    83.084842 
   19400    130.99323   -105.51739   0.11852543   -105.39887    1436.0357    4.3681631    4.3681631    4.3681631    1436.0357   -5551.4516   -6094.5858    15954.145   -643.96029   -708.49767   -433.15602    83.348258 
   19500    267.32183   -105.63986   0.24187841   -105.39798     -3397.06    4.3653667    4.3653667    4.3653667     -3397.06   -1995.8591   -3907.8192   -4287.5018   -113.35863    1493.2044    -3516.719    83.188288 
   19600    180.64624   -105.56242   0.16345252   -105.39897    1237.3411    4.3672133    4.3672133    4.3672133    1237.3411   -8962.2316   -5799.1778    18473.433   -485.92704    2533.5855     1041.403    83.293905 
   19700    196.95255   -105.57741    0.1782068    -105.3992    -399.0463    4.3668992    4.3668992    4.3668992    -399.0463   -275.14193   -5229.0742    4307.0773   -862.46072   -1978.0475   -4706.3447    83.275933 
   19800    184.74759   -105.56554    0.1671635   -105.39838    3516.2077    4.3643461    4.3643461    4.3643461    3516.2077   -1869.9722   -1903.3759    14321.971    836.31865     593.8156    1389.5166    83.129954 
   19900    227.56246    -105.6044   0.20590329    -105.3985   -4984.5814    4.3691974    4.3691974    4.3691974   -4984.5814   -5459.7249   -4209.2903   -5284.7291   -172.32464    1811.6971   -2376.3672    83.407481 
   20000    170.81421   -105.55371   0.15455629   -105.39915    3762.4871    4.3645999    4.3645999    4.3645999    3762.4871   -3254.8618   -4159.2688    18701.592    1179.6803   -379.87327   -4907.8373    83.144461 
   20100    228.07458   -105.60509   0.20636667   -105.39872   -1315.7219    4.3675035    4.3675035    4.3675035   -1315.7219   -6981.2449   -1530.7853    4564.8644   -728.91131    693.25161    423.79051    83.310508 
   20200    174.91399   -105.55701   0.15826585   -105.39875   -854.20518    4.3657771    4.3657771    4.3657771   -854.20518    597.93414   -5668.1856    2507.6359    861.80877   -1562.9544   -5198.3919    83.211752 
   20300    223.81661   -105.60089   0.20251398   -105.39837   -926.82528    4.3671365    4.3671365    4.3671365   -926.82528   -3601.6424   -5296.5215     6117.688    17.812722    2873.0393   -207.07244     83.28951 
   20400    168.53341   -105.55182   0.15249257   -105.39933    2173.4588    4.3662708    4.3662708    4.3662708    2173.4588   -3565.4858   -3551.6409    13637.503    542.17983    1639.3336   -2289.9894    83.239989 
   20500    223.98154   -105.60161    0.2026632   -105.39894   -691.37896    4.3662548    4.3662548    4.3662548   -691.37896   -3469.7721   -4160.9627    5556.5979    -179.1808    -357.0147   -4355.2792    83.239069 
   20600    211.10159   -105.58943   0.19100916   -105.39842   -129.23709    4.3663522    4.3663522    4.3663522   -129.23709   -4643.2565   -1014.3413    5269.8865   -532.64693    743.99071    1986.7753    83.244644 
   20700    173.28055   -105.55554   0.15678788   -105.39875    941.19833    4.3677981    4.3677981    4.3677981    941.19833   -3966.1149   -6431.3817    13221.092   -616.20737    1772.2733    -4798.374    83.327369 
   20800    227.18834    -105.6042   0.20556478   -105.39863    3591.3249    4.3639071    4.3639071    4.3639071    3591.3249    1146.6654   -610.40251    10237.712    236.38892    1584.1829   -2326.8097    83.104875 
   20900    187.48072   -105.56876    0.1696365   -105.39912    -191.5738    4.3684163    4.3684163    4.3684163    -191.5738   -6526.8786   -2378.5445    8330.7017   -218.82386   -166.00674   -259.56965    83.362754 
   21000    208.66824   -105.58763    0.1888074   -105.39883   -53.659161    4.3650767    4.3650767    4.3650767   -53.659161   -1968.8719   -4835.8835    6643.7779   -485.93768   -1231.8612   -4013.1182    83.171711 
   21100     187.7386   -105.56826   0.16986983   -105.39839    3109.8147    4.3672967    4.3672967    4.3672967    3109.8147   -7114.4541   -2853.1059    19297.004   -54.546251    2671.6508    1806.9822    83.298673 
   21200     244.0718   -105.61938   0.22084129   -105.39854   -2341.3979    4.3657005    4.3657005    4.3657005   -2341.3979   -354.36481   -4637.0121   -2032.8166   -1002.7726    481.20511   -4479.1615    83.207376 
   21300    151.95329   -105.53662   0.13749053   -105.39913    2761.7878    4.3660648    4.3660648    4.3660648    2761.7878   -318.04872   -3253.8638    11857.276    2167.0939    373.81485   -1415.2147    83.228204 
   21400    216.00423   -105.59411   0.19544517   -105.39866   -2388.1381     4.368541     4.368541     4.368541   -2388.1381   -8947.7341   -2096.2997    3879.6193   -636.79875    -662.8222    1124.7448    83.369894 
   21500    175.82292   -105.55785   0.15908827   -105.39876    3495.9272     4.363474     4.363474     4.363474    3495.9272    489.02655   -3146.8772    13145.632    1388.9708    863.65333   -5112.7117    83.080134 
   21600     273.7163   -105.64538   0.24766426   -105.39772   -5842.6175    4.3692031    4.3692031    4.3692031   -5842.6175   -9782.0258   -2019.4801   -5726.3466   -794.32149    1818.1902    99.902467    83.407804 
   21700    121.59264   -105.50934   0.11001957   -105.39932     2427.304    4.3643919    4.3643919    4.3643919     2427.304    260.61857   -6238.2361    13259.529    690.87544   -690.02889   -5325.7394    83.132576 
   21800    218.96351   -105.59694   0.19812279   -105.39882   -2077.0138    4.3683306    4.3683306    4.3683306   -2077.0138    -4485.455    -4348.436    2602.8497    800.53709   -1369.6517   -1260.1852    83.357846 
   21900    201.02435   -105.58022   0.18189105   -105.39833    490.49311     4.365188     4.365188     4.365188    490.49311   -5161.2794    -2473.509    9106.2678    109.76188    2979.4944   -998.15509    83.178074 
   22000    216.21185   -105.59394   0.19563303   -105.39831    -3997.015    4.3667425    4.3667425    4.3667425    -3997.015   -2662.3556     -6439.42   -2889.2695   -111.55611    415.64512   -5860.8952    83.266965 
   22100    169.68546   -105.55233   0.15353497   -105.39879    1230.0185     4.367079     4.367079     4.367079    1230.0185   -10499.165   -3980.9639    18170.184    -1107.154    1855.0039    1653.2475    83.286218 
   22200    232.92558   -105.60978   0.21075596   -105.39902   -502.79857    4.3656592    4.3656592    4.3656592   -502.79857   -966.73078   -3593.8779     3052.213    180.19956   -1039.3837    -2693.986     83.20501 
   22300    182.55483   -105.56387   0.16517944   -105.39869    1157.8157    4.3668493    4.3668493    4.3668493    1157.8157   -3525.7841   -2057.5186    9056.7497    350.30951    668.22922   -1883.6608    83.273075 
   22400    206.01823   -105.58433   0.18640962   -105.39792   -589.21324    4.3659637    4.3659637    4.3659637   -589.21324   -5481.9263    -2858.325    6572.6115    211.27154    2642.7691   -963.84757    83.222421 
   22500    154.98147    -105.5391   0.14023049   -105.39887    1503.6402    4.3669524    4.3669524    4.3669524    1503.6402   -3622.0701   -6834.7459    14967.737   -217.11926   -835.02391   -5623.0664    83.278975 
   22600    288.16543   -105.65909   0.26073813   -105.39835   -2146.1108    4.3655587    4.3655587    4.3655587   -2146.1108   -8045.7195   -4077.4952    5684.8822   -4.5953921   -786.44769    1584.8428    83.199267 
   22700    162.97702   -105.54645   0.14746503   -105.39898    460.50496    4.3669408    4.3669408    4.3669408    460.50496   -1445.7688   -5035.9275    7863.2112    488.73733    553.47973   -3223.1468    83.278312 
   22800    163.16189   -105.54651    0.1476323   -105.39888   -348.96424    4.3663146    4.3663146    4.3663146   -348.96424   -3921.7083   -6928.1948    9803.0104    1558.8569    1550.9295   -4580.2144     83.24249 
   22900    223.79766   -105.60101   0.20249683   -105.39851    1023.2748    4.3666488    4.3666488    4.3666488    1023.2748   -5395.6991   -536.98299    9002.5064     331.3551    1452.9177    867.11355    83.261609 
   23000    219.41891   -105.59762   0.19853485   -105.39908   -2237.7671    4.3654953    4.3654953    4.3654953   -2237.7671   -3033.5095    -6545.922    2866.1302    883.23794   -891.69327   -5474.9431    83.195644 
   23100    198.65691   -105.57841   0.17974895   -105.39866   -2377.9463    4.3679283    4.3679283    4.3679283   -2377.9463   -10294.322    -4144.421    7304.9045    -465.0618    446.69431    813.46362    83.334818 
   23200    160.97243   -105.54436   0.14565123   -105.39871    1260.1063    4.3653619    4.3653619    4.3653619    1260.1063   -1911.3425   -4301.6235    9993.2848    758.53042    2376.7823   -4624.5434    83.188012 
   23300    242.57196     -105.618    0.2194842   -105.39852   -4252.7466     4.367288     4.367288     4.367288   -4252.7466   -4333.2271   -6545.5106    -1879.502    578.28234   -22.695086   -4283.3497    83.298177 
   23400      179.299   -105.56108   0.16223351   -105.39885    2314.0286    4.3654631    4.3654631    4.3654631    2314.0286   -3759.3592    -2729.684    13431.129    294.58338    178.95768    1559.9595    83.193802 
   23500    185.49777   -105.56717   0.16784228   -105.39933   -4736.6643    4.3672606    4.3672606    4.3672606   -4736.6643   -5217.8662   -10547.311    1555.1843   -595.73894   -1087.4172   -6127.6119    83.296608 
   23600     189.0625   -105.56966   0.17106773   -105.39859    496.52389    4.3670239    4.3670239    4.3670239    496.52389   -9345.3072   -2739.1364    13574.015    68.225702    3012.1009    179.35075    83.283064 
   23700    290.76948   -105.66092   0.26309434   -105.39783   -2609.5278    4.3650094    4.3650094    4.3650094   -2609.5278   -1880.7923   -3254.1372   -2693.6539   -487.94041    873.04044   -1768.5112    83.167863 
   23800    79.623954   -105.47191  0.072045427   -105.39987    3219.8138    4.3678203    4.3678203    4.3678203    3219.8138   -5463.2343   -4758.2851    19880.961    1545.2119   -1128.7597   -1558.4448    83.328641 
   23900    258.49993   -105.63247   0.23389617   -105.39857   -645.59751    4.3650217    4.3650217    4.3650217   -645.59751   -3028.0387   -2736.9009    3828.1471   -489.81025    263.40292    2131.7834    83.168568 
   24000     169.0682   -105.55216   0.15297646   -105.39919    419.20384    4.3680121    4.3680121    4.3680121    419.20384   -4833.6535   -6151.0748     12242.34    636.10798    665.51974   -5953.0902    83.339614 
   24100    276.00464   -105.64773    0.2497348   -105.39799   -2082.6119    4.3644397    4.3644397    4.3644397   -2082.6119   -5419.4713   -4614.6029    3786.2386    476.29024    832.09037   -511.01903    83.135302 
   24200    116.11217   -105.50373   0.10506073   -105.39867    3628.8991    4.3682806    4.3682806    4.3682806    3628.8991   -4909.6219    -4920.418    20716.737     345.3124    45.170811   -920.06266    83.354988 
   24300    212.56253   -105.59163   0.19233105    -105.3993   -3298.7797    4.3650559    4.3650559    4.3650559   -3298.7797   -1006.0126   -7097.8492   -1792.4772     2506.399   -2099.6324   -5330.8363    83.170524 
   24400     229.7857   -105.60645   0.20791493   -105.39854    2155.6805    4.3671946    4.3671946    4.3671946    2155.6805   -4460.2733    -2440.967    13368.282   -975.96563    2834.4799    1045.8857    83.292834 
   24500     192.9941    -105.5737   0.17462512   -105.39907   -2252.7702    4.3657149    4.3657149    4.3657149   -2252.7702   -3063.1293   -7570.0508    3874.8694    1464.9911    980.03576   -5690.8116    83.208198 
   24600    162.94899   -105.54659   0.14743967   -105.39915    123.22344    4.3675975    4.3675975    4.3675975    123.22344   -8477.6733   -4524.9725    13372.316    -1050.851   -298.20696    1014.1128    83.315888 
   24700    252.69326   -105.62736   0.22864217   -105.39871   -1679.7583     4.365741     4.365741     4.365741   -1679.7583   -1639.7254   -1064.4027   -2335.1467    1086.2772    443.22105   -1335.2226    83.209692 
   24800    167.74391   -105.55147   0.15177822   -105.39969   -1356.7432    4.3661038    4.3661038    4.3661038   -1356.7432    -2275.316    -9169.546    7374.6323   -1.6230038    358.09626   -5163.2536    83.230436 
   24900    201.52081   -105.58045   0.18234027   -105.39811    865.76935    4.3674578    4.3674578    4.3674578    865.76935    -4082.924   -3324.2417    10004.474   -410.48302    1747.4439    1853.3152    83.307893 
   25000    187.59096   -105.56839   0.16973625   -105.39866   -2923.2229    4.3656503    4.3656503    4.3656503   -2923.2229   -2918.5666   -8792.4864    2941.3844   -174.47073   -195.61088   -5030.0045    83.204504 
   25100    221.33703   -105.59951    0.2002704   -105.39924   -1180.0131     4.367894     4.367894     4.367894   -1180.0131   -6800.4527   -3282.3356    6542.7491   -458.80398   -1624.1681   -219.33063    83.332855 
   25200     227.7524   -105.60481   0.20607516   -105.39873    2287.9064    4.3638117    4.3638117    4.3638117    2287.9064   -246.84927   -2889.8554    10000.424    651.41373     2411.648   -3284.2214    83.099425 
   25300    108.37675   -105.49767  0.098061565   -105.39961   -203.74819    4.3692108    4.3692108    4.3692108   -203.74819   -5252.8518   -7868.8941    12510.501    441.12179    1030.0988   -4157.0074    83.408246 
   25400    286.10046   -105.65626   0.25886971   -105.39739    845.54291    4.3644404    4.3644404    4.3644404    845.54291   -830.29351    33.970979    3332.9513   -186.38524    956.99887    2127.9209    83.135345 
   25500    171.27793   -105.55406   0.15497587   -105.39908     1701.586    4.3669233    4.3669233    4.3669233     1701.586   -4613.7527   -5981.5405    15700.051    667.88516    -878.6533   -4493.6847    83.277313 
   25600    206.04743   -105.58567   0.18643605   -105.39923    203.42575    4.3661269    4.3661269    4.3661269    203.42575   -4992.5402    -4363.663    9966.4804    264.64833    729.23463   -1747.2322    83.231759 
   25700    192.08993     -105.572   0.17380701    -105.3982    3084.9538    4.3662365    4.3662365    4.3662365    3084.9538   -2816.8458   -2697.7139    14769.421     982.5194    1838.1126   -623.76579    83.238026 
   25800    211.84197   -105.59062   0.19167907   -105.39894   -3561.9901    4.3671642    4.3671642    4.3671642   -3561.9901   -2474.3517   -6880.9581   -1330.6606     1146.433   -1111.1154    -4957.362    83.291095 
   25900    194.22853   -105.57428   0.17574206   -105.39854    6063.9757    4.3645585    4.3645585    4.3645585    6063.9757   -2658.5427   -2308.2408    23158.711   -1061.4756   -1323.9249    2575.1066    83.142095 
   26000    201.99002   -105.58202   0.18276482   -105.39926   -3993.1527     4.368275     4.368275     4.368275   -3993.1527   -7298.1846   -5318.5025    637.22905    742.19369   -55.609402   -5477.7592    83.354668 
   26100    169.37463   -105.55263   0.15325372   -105.39938    827.93155    4.3653755    4.3653755    4.3653755    827.93155    -3556.563   -1839.5045    7879.8621    -956.8467    812.49966   -928.67142    83.188794 
   26200    283.70516   -105.65446   0.25670239   -105.39776   -1150.4813     4.366689     4.366689     4.366689   -1150.4813   -3999.1814    -1522.667    2070.4045    177.58717   -71.108441    1105.1903    83.263906 
   26300    89.252338   -105.48096  0.080757391    -105.4002    2205.6148    4.3661543    4.3661543    4.3661543    2205.6148   -1951.5098   -7475.2027    16043.557   -235.29332   -1687.2697   -4867.0587    83.233325 
   26400    266.65527   -105.63959    0.2412753   -105.39831   -3138.8184    4.3670776    4.3670776    4.3670776   -3138.8184   -6389.3791   -3183.3045    156.22844   -1375.2356    311.95754    794.88827    83.286137 
   26500    183.87918    -105.5656   0.16637774   -105.39922   -1378.0864    4.3661048    4.3661048    4.3661048   -1378.0864   -4444.7388   -3978.8537    4289.3333   -126.78358    2489.7597    -3299.422    83.230495 
   26600    199.43326   -105.57968   0.18045141   -105.39923   -1480.5658     4.366803     4.366803     4.366803   -1480.5658    -5934.928   -6638.1532    8131.3839    -70.78822    -1724.508   -1975.6836    83.270428 
   26700    204.51701   -105.58329   0.18505129   -105.39824    2975.9992    4.3656107    4.3656107    4.3656107    2975.9992   -4510.4115   -2580.5291    16018.938   -108.38517    695.58004    233.44393    83.202241 
   26800    175.47512   -105.55848   0.15877357   -105.39971   -4477.6815    4.3686625    4.3686625    4.3686625   -4477.6815   -4121.6428   -7318.2413   -1993.1603     699.3557   -1282.2961   -5549.2852    83.376849 
   26900    234.52747   -105.61079   0.21220538   -105.39859    3120.4764    4.3639586    4.3639586    4.3639586    3120.4764   -4798.2363   -654.70575    14814.371   -1227.0462     3252.814    755.38172    83.107813 
   27000    190.00956   -105.57079   0.17192464   -105.39887    935.30359    4.3676875    4.3676875    4.3676875    935.30359    -6467.187   -3913.2342    13186.332    1301.8838   -207.07984   -1242.8795    83.321037 
   27100     180.1189   -105.56216   0.16297536   -105.39919   -1161.8926    4.3662612    4.3662612    4.3662612   -1161.8926   -6182.2926   -7630.0652     10326.68   -375.48272   -1087.7196   -1230.5658     83.23944 
   27200    255.22324   -105.62927   0.23093135   -105.39834    548.59355    4.3662048    4.3662048    4.3662048    548.59355   -3101.0028   -306.78775    5053.5712    731.32675   -863.70537    527.47833    83.236214 
   27300    143.26776   -105.52963   0.12963168       -105.4   -883.39634    4.3674434    4.3674434    4.3674434   -883.39634   -3674.5743   -11401.064    12425.449   -241.46659    1647.6265   -3991.1521    83.307071 
   27400    220.39868   -105.59777   0.19942135   -105.39835    1901.9372    4.3642802    4.3642802    4.3642802    1901.9372   -5961.5852   -2684.7162    14352.113   -1137.8081   -2331.0013    812.18184    83.126193 
   27500    237.85586   -105.61354   0.21521698   -105.39833   -5339.3179    4.3703212    4.3703212    4.3703212   -5339.3179   -8579.2469   -7098.4026   -340.30433     702.5663   -746.96532   -2401.3741    83.471858 
   27600    148.22015   -105.53434   0.13411271   -105.40023    1150.3484    4.3623679    4.3623679    4.3623679    1150.3484   -2035.2612   -5669.7713    11156.078   -1466.9976   -1918.2116   -4256.0058    83.016966 
   27700     243.8631   -105.61917   0.22065245   -105.39852   -1334.1022    4.3700525    4.3700525    4.3700525   -1334.1022   -6196.9673    -4413.359    6608.0196    819.75016    1887.4732    1336.0286    83.456459 
   27800    138.59171   -105.52504   0.12540069   -105.39964   -879.51348    4.3644636    4.3644636    4.3644636   -879.51348   -2640.3946   -9678.1919     9680.046   -1711.9112    -6.147132   -5200.0619    83.136671 
   27900     268.0064   -105.64037   0.24249782   -105.39787    -4751.053    4.3678921    4.3678921    4.3678921    -4751.053   -7652.5374   -3013.1309   -3587.4907    202.08479   -1845.2386    831.99678    83.332749 
   28000    164.83839   -105.54817   0.14914924   -105.39902    1207.7923    4.3663397    4.3663397    4.3663397    1207.7923   -5316.7529   -8264.3402     17204.47    -236.3742    625.45371   -2711.9865    83.243926 
   28100    179.56503   -105.56229   0.16247421   -105.39981     -2574.15    4.3653384    4.3653384    4.3653384     -2574.15   -4081.2788   -8901.0346    5259.8635    210.93743    1005.7254   -3498.0365     83.18667 
   28200    235.54814   -105.61129    0.2131289   -105.39817   -647.74107    4.3691592    4.3691592    4.3691592   -647.74107   -5895.4902   -5560.2407    9512.5077    92.428163    358.32509    2398.2794    83.405294 
   28300    191.90572   -105.57239   0.17364033   -105.39875   -2295.7992    4.3641287    4.3641287    4.3641287   -2295.7992   -1256.1832   -7710.5336    2079.3192     78.33815   -2095.6409    -4809.656    83.117535 
   28400    156.91932   -105.54089    0.1419839    -105.3989    2986.7306    4.3678972    4.3678972    4.3678972    2986.7306   -8008.2093   -4850.6677    21819.069   -395.19093   -345.37158   -1091.8486    83.333042 
   28500    270.71855   -105.64342   0.24495184   -105.39847   -1663.2819    4.3655942    4.3655942    4.3655942   -1663.2819   -4396.1551   -4559.8701    3966.1796    997.50531    326.59654    -1058.636    83.201298 
   28600    139.67376   -105.52609   0.12637975   -105.39971    648.56429     4.366887     4.366887     4.366887    648.56429   -3420.9003   -7012.3906    12378.984     57.40903    1118.7325   -3329.2428    83.275235 
   28700    260.68262   -105.63355   0.23587111   -105.39768    479.46907    4.3666377    4.3666377    4.3666377    479.46907   -1841.5166   -3108.7389    6388.6627   -215.77179   -3251.4852    2151.0256     83.26097 
   28800    110.61969   -105.49959   0.10009102   -105.39949    3214.3766       4.3652       4.3652       4.3652    3214.3766   -2784.2667   -9080.8626    21508.259    463.75592    352.17041   -3584.9561    83.178762 
   28900    285.04719   -105.65659   0.25791669   -105.39868    -5559.334    4.3676964    4.3676964    4.3676964    -5559.334   -6987.0297    -5535.554   -4155.4182   -1305.2466    -1034.241   -1145.0063    83.321547 
   29000    180.97582   -105.56275   0.16375073     -105.399    2025.3593    4.3663245    4.3663245    4.3663245    2025.3593    -3162.068   -4333.0232    13571.169     1439.184    764.66301    452.76029    83.243056 
   29100    162.32489   -105.54632   0.14687497   -105.39944   -1165.7229    4.3654158    4.3654158    4.3654158   -1165.7229   -1462.9084   -9666.5996    7632.3395   -879.56878   -3410.7628   -4885.9314    83.191095 
   29200    218.41866   -105.59569   0.19762979   -105.39807    1160.5905    4.3679145    4.3679145    4.3679145    1160.5905   -4491.5329   -782.27672     8755.581    294.31955   -912.71134    861.53501    83.334028 
   29300    222.39383   -105.60034   0.20122661   -105.39911   -3416.5783    4.3647159    4.3647159    4.3647159   -3416.5783   -2482.4225   -8487.5608    720.24836   -314.71478    842.36977    -4123.632    83.151092 
   29400    172.75476   -105.55551   0.15631214    -105.3992   -481.05186    4.3684428    4.3684428    4.3684428   -481.05186   -6723.0144   -1494.2769    6774.1358   -177.45236   -168.83844   -144.30369    83.364271 
   29500    207.27033   -105.58588   0.18754255   -105.39834    2096.8206    4.3645434    4.3645434    4.3645434    2096.8206   -1814.5243   -6617.4426    14722.429    627.89082   -2130.0025   -150.30798    83.141229 
   29600    196.15639    -105.5764   0.17748642   -105.39892   -3353.2024     4.367491     4.367491     4.367491   -3353.2024   -2773.3668   -6548.4813   -737.75909   -220.81545   -714.65407   -3344.0995    83.309793 
   29700    220.67356   -105.59811   0.19967008   -105.39844    542.41892    4.3672286    4.3672286    4.3672286    542.41892   -2793.6365     -4507.84    8928.7332     29.29968    -555.8771    976.48593    83.294777 
   29800     173.7145   -105.55656   0.15718053   -105.39938    1767.6609    4.3634021    4.3634021    4.3634021    1767.6609   -1685.9579   -5648.7866    12637.727    92.174062     1159.402   -1170.9122    83.076025 
   29900    192.17735   -105.57274    0.1738861   -105.39886   -273.79853    4.3699307    4.3699307    4.3699307   -273.79853   -7579.6143   -5181.6838    11939.903     240.4747   -3397.7511   -1306.3397    83.449481 
   30000    276.91154   -105.64812   0.25055538   -105.39756    429.92877     4.363426     4.363426     4.363426    429.92877   -897.06469   -2527.3412    4714.1922    957.17093   -1253.8606    386.43502    83.077393 
   30100    106.31466   -105.49556  0.096195736   -105.39937    3424.4892    4.3685633    4.3685633    4.3685633    3424.4892   -1416.8868   -5382.4719    17072.826   -544.96303    1498.3729   -4346.3859    83.371168 
   30200    247.27953   -105.62228   0.22374371   -105.39854     1944.997    4.3637989    4.3637989    4.3637989     1944.997   -844.25087    -1971.155    8650.3968    564.06968   -450.92223    1023.9514    83.098693 
   30300    177.59634   -105.55993    0.1606929   -105.39924    1356.1398    4.3675944    4.3675944    4.3675944    1356.1398   -6589.2808   -4498.7115    15156.412   -403.28364   -819.45123   -2399.5274    83.315712 
   30400    268.14517   -105.64073   0.24262339   -105.39811   -3866.7628    4.3675597    4.3675597    4.3675597   -3866.7628   -4889.8742   -6371.6042   -338.81019    58.858762   -878.24934   -2090.0368    83.313726 
   30500    117.97453   -105.50551   0.10674583   -105.39877     7462.885    4.3634222    4.3634222    4.3634222     7462.885   -916.78071   -1727.4301    25032.866    722.50445   -56.144348    673.21245    83.077173 
   30600    228.53323   -105.60554   0.20678167   -105.39876   -5488.5156    4.3695383    4.3695383    4.3695383   -5488.5156   -3213.9195   -9499.0445   -3752.5829   -1440.9092    1530.0377   -3298.1698    83.427003 
   30700    197.26818   -105.57707   0.17849239   -105.39858    2778.4852    4.3639084    4.3639084    4.3639084    2778.4852   -3531.4861    78.775168    11788.167    874.86513   -4464.7095   -283.90947    83.104945 
   30800     229.8697   -105.60613   0.20799094   -105.39814   -4071.0856    4.3687516    4.3687516    4.3687516   -4071.0856   -7965.0977   -6910.1399    2661.9809   -1157.1292   -1173.6672   -2152.8209    83.381951 
   30900      132.978   -105.51889   0.12032129   -105.39857    3535.2546    4.3645695    4.3645695    4.3645695    3535.2546    -1808.916   -1881.9132    14296.593    99.297316     103.4641   -3273.1376     83.14272 
   31000    263.34168   -105.63641   0.23827709   -105.39813   -4136.7249    4.3677263    4.3677263    4.3677263   -4136.7249   -6298.3241   -4489.2084   -1622.6421      158.568   -905.81455    1044.9066    83.323257 
   31100    160.51582   -105.54448   0.14523809   -105.39924    879.10409    4.3664418    4.3664418    4.3664418    879.10409    466.16115   -5707.2173    7878.3684    -641.9996   -734.82515   -3127.8415    83.249767 
   31200    213.03069   -105.59119   0.19275464   -105.39843    -787.3748    4.3662528    4.3662528    4.3662528    -787.3748   -6465.7464   -4390.5156    8494.1375     27.56999   -2843.1654   -338.68409    83.238959 
   31300     179.3314   -105.56096   0.16226282    -105.3987   -311.09038    4.3661861    4.3661861    4.3661861   -311.09038   -5227.7204   -5698.8285    9993.2778     476.2278     998.6697    -430.2478     83.23514 
   31400    253.07891    -105.6277   0.22899111   -105.39871   -4197.3891    4.3677517    4.3677517    4.3677517   -4197.3891   -6313.6871   -6564.1902    285.71003   -319.45569    716.51482   -2577.4189    83.324714 
   31500    175.17201   -105.55792   0.15849931   -105.39942    3186.9969    4.3649844    4.3649844    4.3649844    3186.9969   -2627.2346    -3020.617    15208.842    1235.7775   -3258.6315    1974.6518    83.166437 
   31600    170.29752    -105.5531   0.15408877   -105.39901    859.86088    4.3673812    4.3673812    4.3673812    859.86088    -1402.124    -6668.053     10649.76   -701.38893   -1159.3662   -3171.1137    83.303509 
   31700    228.06238   -105.60467   0.20635564   -105.39831   -725.81908    4.3655495    4.3655495    4.3655495   -725.81908   -6652.7707   -1946.8562    6422.1697    690.98547   -663.29577    90.109696    83.198743 
   31800    220.08094   -105.59776   0.19913386   -105.39862   -1415.8361    4.3674451    4.3674451    4.3674451   -1415.8361   -7433.4295   -5189.9736    8375.8948   -32.047073   -82.841917   -720.88345    83.307169 
   31900    198.10186   -105.57821   0.17924672   -105.39897    363.70925     4.366399     4.366399     4.366399    363.70925   -3542.8746   -6699.1848    11333.187   -737.24313   -890.57249   -3263.8013    83.247316 
   32000    158.45071   -105.54231   0.14336954   -105.39894    2318.8443    4.3649151    4.3649151    4.3649151    2318.8443   -1850.0575     -2061.24     10867.83     386.6103   -4135.8709    514.75346    83.162474 
   32100    255.68503   -105.62926   0.23134919   -105.39791    -5484.159    4.3690301    4.3690301    4.3690301    -5484.159   -4780.9774   -10647.568   -1023.9316   -1837.9294    2011.3027    -2153.946    83.397899 
   32200    159.87232   -105.54357   0.14465584   -105.39891    2811.3335    4.3640827    4.3640827    4.3640827    2811.3335   -4647.7015   -2145.8473    15227.549    790.09973   -1709.4681   -1517.8193    83.114908 
   32300    232.88437   -105.60939   0.21071867   -105.39868   -4555.9471    4.3689923    4.3689923    4.3689923   -4555.9471   -8484.5316   -10266.741    5083.4309   -1619.5245   -1737.1257     339.6316    83.395733 
   32400     171.0521   -105.55358   0.15477153   -105.39881    2125.9845    4.3639065    4.3639065    4.3639065    2125.9845   -239.70907   -1650.0625    8267.7251    450.30485   -2339.6226   -5011.9685    83.104841 
   32500    231.18015    -105.6074   0.20917666   -105.39823   -4626.4043    4.3687055    4.3687055    4.3687055   -4626.4043   -5848.0492   -7861.4463   -169.71736   -657.61081   -1370.5433    1070.3196    83.379312 
   32600    143.33618   -105.52841   0.12969358   -105.39872    3965.0926    4.3657313    4.3657313    4.3657313    3965.0926   -993.37986   -5949.1166    18837.774   -12.438433    2294.1025   -3470.7962    83.209134 
   32700    245.13179   -105.62049    0.2218004   -105.39869   -3040.7903    4.3655623    4.3655623    4.3655623   -3040.7903   -4454.0221   -4822.2378    153.88915    850.21227    -1567.308    -807.6903    83.199469 
   32800    183.47742   -105.56521   0.16601423    -105.3992   -1235.1625    4.3681897    4.3681897    4.3681897   -1235.1625   -7680.2969    -7407.089    11381.899    295.74264    -2167.691   -564.39392     83.34978 
   32900    234.29215   -105.61053   0.21199246   -105.39854   -83.379126    4.3651872    4.3651872    4.3651872   -83.379126    972.64302   -6069.0135    4846.2331    544.29029    3036.2513   -1994.3875    83.178029 
   33000    129.35268    -105.5161   0.11704102   -105.39906    3571.6045    4.3666934    4.3666934    4.3666934    3571.6045   -3177.0017   -6584.4917    20476.307    670.19331    -1740.156    483.53602     83.26416 
   33100    256.38812   -105.63008   0.23198536   -105.39809   -2505.6705     4.365813     4.365813     4.365813   -2505.6705   -900.34442   -4087.0156   -2529.6514    230.43775    415.11295   -1550.0086    83.213806 
   33200    176.82705    -105.5589   0.15999683   -105.39891    765.60197     4.367522     4.367522     4.367522    765.60197   -7387.5293   -6611.2143     16295.55    633.11707    -3071.702   -1496.9614    83.311565 
   33300     224.3828   -105.60142   0.20302628   -105.39839    396.15852    4.3656881    4.3656881    4.3656881    396.15852   -4719.8274   -2546.9537    8455.2567      188.007   -1203.2119    919.57642    83.206665 
   33400    175.60941   -105.55732   0.15889508   -105.39842    2705.4521    4.3662893    4.3662893    4.3662893    2705.4521    952.07269   -6437.1678    13601.452   -1171.6722    2403.7825   -3416.1942    83.241043 
   33500    210.81556   -105.58954   0.19075035   -105.39879   -2763.5652    4.3663405    4.3663405    4.3663405   -2763.5652   -5106.5148   -2714.9665   -469.21421    883.03108   -3796.5258    339.37732    83.243976 
   33600    194.77782   -105.57523   0.17623907   -105.39899    1460.2999     4.367165     4.367165     4.367165    1460.2999   -3653.6905   -8531.6568    16566.247    -1501.019   -897.14237   -2638.5548     83.29114 
   33700    206.66619   -105.58583   0.18699591   -105.39884   -895.39216     4.365585     4.365585     4.365585   -895.39216   -4889.0078   -4887.8099    7090.6412    1078.8624    881.45632   -1141.2714    83.200768 
   33800    204.09104   -105.58284   0.18466586   -105.39817   -2218.7339    4.3670006    4.3670006    4.3670006   -2218.7339   -5681.0539   -5432.3967     4457.249   -615.52243    -1773.355    1220.8407    83.281731 
   33900     202.7384     -105.582   0.18344196   -105.39856   -911.61357    4.3663223    4.3663223    4.3663223   -911.61357   -218.77476   -5922.7549     3406.689    158.14287    910.91442   -2870.1041    83.242932 
   34000    165.17274   -105.54909   0.14945176   -105.39964    239.62188    4.3666159    4.3666159    4.3666159    239.62188   -7193.2705   -5360.6301    13272.766    1118.4715   -5604.2727    1229.0099    83.259727 
   34100    231.00305   -105.60762   0.20901641    -105.3986   -356.22386    4.3664345    4.3664345    4.3664345   -356.22386   -2058.1895   -5269.8284    6259.3463    426.36186    894.05187   -1309.9116    83.249351 
   34200    201.87768   -105.58124   0.18266317   -105.39857   -3263.8274    4.3657901    4.3657901    4.3657901   -3263.8274   -6471.8005   -3543.6776    223.99577    2117.4117    421.18605   -1222.2266    83.212497 
   34300     180.0221   -105.56154   0.16288778   -105.39865   -397.66355    4.3683232    4.3683232    4.3683232   -397.66355   -6226.7931   -7392.5444    12426.347    477.67473   -3403.0983   -303.98396    83.357424 
   34400    210.37964   -105.58915   0.19035592    -105.3988    2024.5686    4.3643712    4.3643712    4.3643712    2024.5686    2036.4955   -4769.1077    8806.3182    840.10733    341.33808    -2209.046    83.131392 
   34500    180.70318   -105.56258   0.16350403   -105.39908   -2147.8914    4.3677574    4.3677574    4.3677574   -2147.8914   -7705.5511    -7120.884    8382.7611    1499.3816   -931.00248     -812.995    83.325036 
   34600    244.64003   -105.61934   0.22135544   -105.39798   -1922.8602    4.3659846    4.3659846    4.3659846   -1922.8602    -4502.361   -3872.5348    2606.3153   -185.35934    842.13336     453.8222     83.22362 
   34700    140.85603   -105.52651    0.1274495   -105.39906    2233.0692    4.3664665    4.3664665    4.3664665    2233.0692   -6799.6997   -7910.0706    21408.978    1263.0688    530.09538   -3623.0515     83.25118 
   34800     250.4412   -105.62513   0.22660446   -105.39852   -1286.5744    4.3665232    4.3665232    4.3665232   -1286.5744   -4061.0579   -1928.3413     2129.676   -689.79928    -4601.017     762.6857    83.254422 
   34900    177.97223   -105.55981   0.16103301   -105.39878    1597.6117    4.3659837    4.3659837    4.3659837    1597.6117   -2170.4405   -5208.8516    12172.127   -752.28128    3150.6435      -2057.2     83.22357 
   35000    189.03089   -105.56979   0.17103912   -105.39875     -2523.52    4.3670816    4.3670816    4.3670816     -2523.52   -9825.3279   -3089.2484    5344.0162    914.30895   -894.88961    194.23484    83.286367 
[...]
   91200    216.78534    -105.5942   0.19615193   -105.39805   -2237.2708    4.3686663    4.3686663    4.3686663   -2237.2708   -8559.7279   -2210.6023    4058.5179   -1065.2393    122.82869   -303.76856    83.377068 
   91300    192.32495     -105.572   0.17401965   -105.39798    1288.3787    4.3663682    4.3663682    4.3663682    1288.3787   -3904.5501    615.68101    7154.0051    1485.2686    -410.6477    -3825.093    83.245555 
   91400    166.05638   -105.54918   0.15025131   -105.39892    2176.4348    4.3665037    4.3665037    4.3665037    2176.4348   -10008.509   -619.12295    17156.937   -1152.8394   -1628.8108    1905.6841    83.253307 
   91500    253.65077    -105.6275   0.22950855   -105.39799   -1869.3357    4.3680593    4.3680593    4.3680593   -1869.3357   -4498.0664   -984.39932   -125.54147    930.02057   -1045.6036    -2954.644    83.342316 
   91600    181.03826   -105.56232   0.16380722   -105.39851   -68.287151    4.3664889    4.3664889    4.3664889   -68.287151   -4695.7324   -1131.2787    5622.1496    841.01831   -388.47778     909.2544    83.252458 
   91700    177.54034    -105.5595   0.16064223   -105.39886    682.51206    4.3670039    4.3670039    4.3670039    682.51206   -6559.8433   -2877.0486    11484.428    128.09942    1119.4675   -1889.0927    83.281921 
   91800    215.29697   -105.59333   0.19480522   -105.39852    1901.8964    4.3670324    4.3670324    4.3670324    1901.8964   -3965.9943    48.590728    9623.0929    51.473634   -224.71921    239.22023    83.283552 
   91900    217.16883   -105.59544   0.19649892   -105.39894   -2864.9489    4.3674283    4.3674283    4.3674283   -2864.9489   -9484.9646   -2495.9598    3386.0776    463.74748   -1222.7941    1647.0364    83.306207 
   92000     201.1658   -105.58032   0.18201905    -105.3983    892.84445    4.3670253    4.3670253    4.3670253    892.84445    -853.1246    2154.7606    1376.8973   -683.51156   -218.02818   -485.17403    83.283148 
   92100    167.26192   -105.54977    0.1513421   -105.39843     3827.967    4.3667185    4.3667185    4.3667185     3827.967   -8016.1309    1188.4737    18311.558    1138.1398    1677.5005   -2427.8588    83.265592 
   92200    202.52007   -105.58148   0.18324441   -105.39823   -49.954058    4.3669526    4.3669526    4.3669526   -49.954058   -4878.9767   -1812.7494    6541.8639   -1010.8847   -1263.3922    1142.2754    83.278988 
   92300    245.22908   -105.61971   0.22188843   -105.39782   -1920.0521    4.3684336    4.3684336    4.3684336   -1920.0521   -7040.5459   -1907.0485    3187.4382   -505.26612    1021.1476   -3294.2023    83.363742 
   92400     173.8869   -105.55607   0.15733652   -105.39873   -129.88793    4.3651647    4.3651647    4.3651647   -129.88793    -5830.738   -3858.3089    9299.3832   -84.084321   -2035.8107     2113.002     83.17674 
   92500    172.00198   -105.55392   0.15563101   -105.39829    2102.0163    4.3687189    4.3687189    4.3687189    2102.0163   -6171.3413   -2206.5665    14683.957   -1303.0053     2379.817   -3871.7641     83.38008 
   92600    244.66118   -105.61939   0.22137458   -105.39802    -1201.999    4.3662185    4.3662185    4.3662185    -1201.999   -5316.9861   -3763.2632    5474.2523    1311.2123    513.33199    840.92095    83.236995 
   92700    166.74838   -105.54984   0.15087744   -105.39896   -1109.7244    4.3672579    4.3672579    4.3672579   -1109.7244   -4648.0023   -3070.1429    4388.9721   -1737.2021    -1179.432    1480.2983    83.296453 
   92800    237.88276    -105.6134   0.21524132   -105.39816   -672.38435    4.3684815    4.3684815    4.3684815   -672.38435   -8406.1725   -3494.4517    9883.4711      754.534   -554.65874   -932.90051    83.366488 
   92900    139.78564   -105.52548   0.12648099     -105.399    4493.7408    4.3641482    4.3641482    4.3641482    4493.7408   -4438.2636   -830.93998    18750.426   -1322.6119    1002.4278     203.9522    83.118648 
   93000    277.22126    -105.6489   0.25083562   -105.39806   -7186.4254    4.3711179    4.3711179    4.3711179   -7186.4254   -9067.5285   -7380.2814   -5111.4665    1168.9465   -229.63425   -287.58894    83.517513 
   93100    150.33342   -105.53497   0.13602484   -105.39894    3132.8084    4.3636682    4.3636682    4.3636682    3132.8084   -476.75463   -2600.2576    12475.437   -496.67369   -330.40466   -864.17599    83.091225 
   93200    212.16153   -105.59065   0.19196821   -105.39868   -4330.6046    4.3699196    4.3699196    4.3699196   -4330.6046   -9193.3451   -9987.1258    6188.6572   -680.47833   -2288.2261    926.25284    83.448846 
   93300    197.67623   -105.57691    0.1788616   -105.39805    3028.6153    4.3654178    4.3654178    4.3654178    3028.6153   -3974.2705    -2403.045    15463.162    -320.8629    436.11597   -4789.7203     83.19121 
   93400    227.82179   -105.60407   0.20613795   -105.39794   -5139.2024    4.3682019    4.3682019    4.3682019   -5139.2024   -7312.5892   -7447.4682   -657.54981   -1005.8873     1081.028   -232.18281    83.350482 
   93500     166.5566   -105.54936   0.15070391   -105.39866     1633.123    4.3681678    4.3681678    4.3681678     1633.123   -6368.0494   -1578.9651    12846.384    455.27712   -1689.7986    1588.5497    83.348529 
   93600    203.89423   -105.58319   0.18448778   -105.39871    2158.8453    4.3639636    4.3639636    4.3639636    2158.8453   -958.61017    -3442.349    10877.495   -1230.8065   -128.60071   -2038.5177    83.108102 
   93700    196.81167   -105.57667   0.17807934   -105.39859   -3879.3974    4.3713203    4.3713203    4.3713203   -3879.3974   -11895.218   -7982.0818     8239.108    -1007.678   -1220.6889     2267.877    83.529119 
   93800    238.38688   -105.61319   0.21569745   -105.39749   -681.86502    4.3640034    4.3640034    4.3640034   -681.86502   -889.85321    42.824401   -1198.5662   -949.49765    1901.1146   -2151.3151    83.110374 
   93900    148.57673   -105.53301   0.13443535   -105.39858   -429.42541     4.368941     4.368941     4.368941   -429.42541   -11747.019   -7824.8245    18283.568   -337.71929   -1271.8145    2882.6978    83.392799 
   94000    221.69194   -105.59866   0.20059152   -105.39807   -257.62214    4.3669923    4.3669923    4.3669923   -257.62214   -2885.0317   -1918.5722    4030.7376     -17.3149   -1182.5866    341.44933    83.281261 
   94100    197.61659    -105.5768   0.17880764   -105.39799   -225.29486    4.3659626    4.3659626    4.3659626   -225.29486   -4706.1726   -6974.5625    11004.851   -181.33177   -486.83359   -1634.3723    83.222359 
   94200    214.69829   -105.59242   0.19426352   -105.39816   -3368.4408    4.3699161    4.3699161    4.3699161   -3368.4408   -7684.7369   -1033.8215   -1386.7641   -1158.7049    489.43942    1307.1608    83.448646 
   94300    156.10242   -105.54015   0.14124475    -105.3989    6292.7315    4.3632441    4.3632441    4.3632441    6292.7315   -3092.7055    1200.5521    20770.348     196.4171    714.22235    1108.3448    83.067003 
   94400    227.72012   -105.60492   0.20604595   -105.39887   -4576.0299    4.3705104    4.3705104    4.3705104   -4576.0299   -11728.183   -3777.5078    1777.6013   -140.02572   -1120.6754   -437.79423      83.4827 
   94500    204.06764   -105.58284   0.18464469    -105.3982    1833.6998    4.3649456    4.3649456    4.3649456    1833.6998   -2008.8371   -345.90364    7855.8401     611.9398   -777.28944    428.29256    83.164218 
   94600    207.94087   -105.58621   0.18814927   -105.39806   -2195.7251     4.368208     4.368208     4.368208   -2195.7251   -7554.2873   -5127.2872    6094.3992   -750.23749    2364.4677   -1692.0908    83.350831 
   94700    144.82332    -105.5296   0.13103918   -105.39857    4564.5696    4.3667695    4.3667695    4.3667695    4564.5696   -5929.6881    622.49915    19000.898    -866.0477    194.91655    2899.0561     83.26851 
   94800    269.67731   -105.64198   0.24400969   -105.39797   -2255.6065    4.3659058    4.3659058    4.3659058   -2255.6065    -4135.683    -2908.649    277.51254   -190.40567   -95.968219    390.85206    83.219112 
   94900    154.93464   -105.53947   0.14018812   -105.39928   -77.717008    4.3697503    4.3697503    4.3697503   -77.717008   -10192.067    459.11713    9499.7989   -163.95392    648.52962   -2408.1535    83.439148 
   95000    245.26078   -105.61986   0.22191711   -105.39795     2472.039    4.3638858    4.3638858    4.3638858     2472.039   -345.77064   -1430.6583     9192.546   -49.242961   -456.82629     1482.846    83.103658 
   95100    136.81335   -105.52251    0.1237916   -105.39872    2515.6878    4.3691101    4.3691101    4.3691101    2515.6878   -7966.8695    658.73437    14855.198   -492.24093    3284.0506   -158.59885    83.402483 
   95200     260.8453   -105.63389   0.23601831   -105.39788   -1939.0697    4.3665785    4.3665785    4.3665785   -1939.0697   -3590.7398   -1325.3481   -901.12142   -1086.8537   -1680.0749    1036.4792    83.257587 
   95300    163.39855   -105.54615   0.14784644    -105.3983    3846.7737    4.3662094    4.3662094    4.3662094    3846.7737   -5316.5041    2368.0516    14488.774    719.40481   -180.44492   -36.976531    83.236477 
   95400    213.71914   -105.59183   0.19337757   -105.39845   -3501.3235    4.3688514    4.3688514    4.3688514   -3501.3235   -9353.9212   -7579.1693      6429.12    49.724317    540.21957   -915.68347    83.387669 
   95500    196.83254   -105.57624   0.17809822   -105.39814    3664.1528    4.3647514    4.3647514    4.3647514    3664.1528   -1468.7657   -2437.1634    14898.388    816.10848    525.23193    3254.8348    83.153119 
   95600     232.2513   -105.60898   0.21014586   -105.39883   -5030.8057     4.369622     4.369622     4.369622   -5030.8057   -7506.2876   -2749.7474    -4836.382   -522.46941   -486.02326    -292.4364      83.4318 
   95700    145.27615   -105.53075   0.13144892    -105.3993    4523.5179      4.36549      4.36549      4.36549    4523.5179   -3125.9677   -1306.1189     18002.64   -53.071365   -1142.6013   -2159.3586    83.195336 
   95800    228.57005   -105.60499   0.20681499   -105.39817   -268.15489    4.3674686    4.3674686    4.3674686   -268.15489   -7013.8912   -1696.3971    7905.8237     514.7612   -533.53071    1124.2023    83.308513 
   95900    190.09526   -105.57045   0.17200218   -105.39845   -1730.4208     4.367674     4.367674     4.367674   -1730.4208   -7073.8109    -6595.221    8477.7695    205.77398    1695.4405   -949.62151    83.320264 
   96000    256.24984   -105.62975   0.23186024   -105.39789   -1692.7916    4.3668223    4.3668223    4.3668223   -1692.7916   -5630.3807   -2151.9384    2703.9442    143.54566    215.42744    1798.0492    83.271535 
   96100    134.77208   -105.52128   0.12194461   -105.39934     1090.205    4.3676791    4.3676791    4.3676791     1090.205   -6202.3688   -4645.0868    14118.071   -1398.4676   -1147.7174   -2298.7678    83.320557 
   96200    193.53543   -105.57402   0.17511492    -105.3989    508.65119    4.3660147    4.3660147    4.3660147    508.65119   -3907.2643   -5758.0913    11191.309    96.511889    875.40246   -728.34691    83.225341 
   96300    256.54652   -105.63003   0.23212868    -105.3979   -4439.0504    4.3687647    4.3687647    4.3687647   -4439.0504   -8054.3226   -6943.5357    1680.7072   -818.50696   -330.94148    2898.9923    83.382701 
   96400    167.27369   -105.55012   0.15135275   -105.39877   -271.18728    4.3668256    4.3668256    4.3668256   -271.18728   -4595.6971    -5515.935    9298.0702     912.1953    2049.6864    -948.2422    83.271722 
   96500     208.4697   -105.58665   0.18862776   -105.39802    1872.4627    4.3661015    4.3661015    4.3661015    1872.4627   -5667.0282   -3878.9837      15163.4   -812.96694   -3022.5678    692.93571    83.230304 
   96600    175.03819   -105.55718   0.15837823   -105.39881   -1760.8008    4.3689146    4.3689146    4.3689146   -1760.8008   -3013.9249   -3903.6955    1635.2181   -33.644744    656.21748   -387.05941    83.391283 
   96700     237.5195   -105.61303   0.21491263   -105.39811   -1157.5701    4.3658498    4.3658498    4.3658498   -1157.5701   -7142.5354   -4625.0841    8294.9092    -435.4041   -883.02797   -55.847145     83.21591 
   96800    180.07549   -105.56119   0.16293608   -105.39825    79.868283    4.3676908    4.3676908    4.3676908    79.868283   -2756.6043   -5136.8205    8133.0297    1124.1045    1362.3796    3276.7188    83.321225 
   96900    180.51242   -105.56229   0.16333143   -105.39895   -2802.3197    4.3678803    4.3678803    4.3678803   -2802.3197   -9827.0829   -9959.7174    11379.841    81.576017   -862.25732   -3754.3316    83.332074 
   97000    249.23322   -105.62371   0.22551146   -105.39819   -509.31031    4.3655055    4.3655055    4.3655055   -509.31031   -1533.4129   -3056.7737    3062.2557   -76.744304    35.483517    3307.2572    83.196226 
   97100    171.81158   -105.55416   0.15545873    -105.3987   -2225.3791    4.3700179    4.3700179    4.3700179   -2225.3791   -7321.3006   -6466.0174    7111.1805    108.68968     1451.753    1859.8036    83.454478 
   97200    177.75581   -105.55909   0.16083719   -105.39826    2589.7994    4.3640679    4.3640679    4.3640679    2589.7994   -4285.7395   -5607.3768    17662.515   -1009.4691    2163.1887    629.89327    83.114058 
   97300    219.27154   -105.59649   0.19840149   -105.39808   -1578.0831    4.3691258    4.3691258    4.3691258   -1578.0831   -4037.6248   -4094.2947    3397.6702    1499.2186   -187.19171    1853.4763    83.403377 
   97400    223.56229   -105.60118   0.20228386    -105.3989    -2588.794    4.3665255    4.3665255    4.3665255    -2588.794   -9493.5592   -5506.4898    7233.6671    -1901.994    1398.4445   -1824.5454    83.254557 
   97500    191.83466   -105.57201   0.17357603   -105.39844    2268.4056    4.3669377    4.3669377    4.3669377    2268.4056   -2459.8818    1181.6343    8083.4641    534.80625    934.57117    2383.4177    83.278137 
   97600    160.48512    -105.5438   0.14521031   -105.39859   -60.251345    4.3679638    4.3679638    4.3679638   -60.251345   -8254.3517   -8818.6978    16892.295   -1450.5617    1203.8936    1959.2224    83.336854 
   97700    227.99352   -105.60431   0.20629333   -105.39802   -1314.5902    4.3652956    4.3652956    4.3652956   -1314.5902   -2950.9122   -2769.0528    1776.1945   -385.74078    2681.6935   -3177.8257    83.184224 
   97800    232.46085   -105.60848   0.21033546   -105.39815   -2716.1648    4.3703522    4.3703522    4.3703522   -2716.1648   -8050.3962   -7576.0693    7477.9711     228.4029   -2732.8464    3611.4405    83.473634 
   97900    156.20375   -105.54018   0.14133643   -105.39884    2758.4924    4.3636495    4.3636495    4.3636495    2758.4924   -3925.0455   -43.216387    12243.739   -439.87038    2478.9387   -550.56678    83.090159 
   98000    181.37219   -105.56215   0.16410937   -105.39804    926.38493    4.3692743    4.3692743    4.3692743    926.38493   -5003.4433   -3691.5145    11474.113   -322.29157   -784.38085    2318.5068    83.411883 
   98100    266.79231   -105.63923   0.24139928   -105.39783   -3385.1203    4.3668358    4.3668358    4.3668358   -3385.1203   -5275.1915   -1582.8148   -3297.3544   -143.50085    574.82996    1204.9676    83.272304 
   98200    154.88141   -105.53918   0.14013996   -105.39904    3435.2814    4.3659815    4.3659815    4.3659815    3435.2814   -3202.0788    232.83878    13275.084    327.95437   -1615.3205   -2540.1566    83.223441 
   98300    216.26606   -105.59385   0.19568207   -105.39816   -1630.5795    4.3692006    4.3692006    4.3692006   -1630.5795   -7882.1933   -4500.8196    7491.2743    189.04045    -219.2655     4451.457    83.407665 
   98400    143.41716    -105.5283   0.12976686   -105.39853    3486.6737    4.3643532    4.3643532    4.3643532    3486.6737   -2749.6556    2057.0729    11152.604    203.04751    59.072396   -2235.3138     83.13036 
   98500    309.79312   -105.67769   0.28030733   -105.39738   -7050.1065    4.3702028    4.3702028    4.3702028   -7050.1065   -9443.9857   -6187.5847   -5518.7492   -850.01539    1485.1474   -1023.1404    83.465073 
   98600    118.13064   -105.50596   0.10688709   -105.39907     5334.864    4.3646142    4.3646142    4.3646142     5334.864   -1040.7221    1137.6632    15907.651     124.8377   -1272.7464    85.424233    83.145279 
   98700    203.44408   -105.58266   0.18408048   -105.39858   -2323.6562    4.3684498    4.3684498    4.3684498   -2323.6562   -7572.4334   -6369.6862     6971.151   -673.37542    1631.5294   -1071.2064    83.364675 
   98800    208.42417   -105.58673   0.18858657   -105.39814    1826.4055    4.3668782    4.3668782    4.3668782    1826.4055   -3184.5094    4826.7978    3836.9282    87.510003   -38.597276    3873.8562     83.27473 
   98900    237.34384   -105.61318    0.2147537   -105.39843   -2273.0506    4.3666446    4.3666446    4.3666446   -2273.0506   -5815.7457   -3027.6525    2024.2464   -1674.1214    1532.0552   -867.24512    83.261365 
   99000    145.74065   -105.53058    0.1318692   -105.39871    2699.8571    4.3679857    4.3679857    4.3679857    2699.8571   -6991.2008      52.9738    15037.798   -91.633678   -94.217486   -214.15833    83.338103 
   99100    208.65712   -105.58718   0.18879735   -105.39839    230.58632    4.3659671    4.3659671    4.3659671    230.58632   -1829.8867    -4799.517    7321.1627   -1240.6743   -1014.8387    5047.5459    83.222618 
   99200    219.33303   -105.59673   0.19845714   -105.39828   -2218.3831    4.3682497    4.3682497    4.3682497   -2218.3831   -9116.1743   -2220.3688    4681.3938   -38.642391    925.24989   -2888.0071    83.353219 
   99300     225.7689   -105.60192   0.20428044   -105.39764   -476.96505     4.367058     4.367058     4.367058   -476.96505   -2591.9373   -1998.3186    3159.3607    272.99994   -644.46007    2786.1338    83.285016 
   99400    128.26121   -105.51486   0.11605343    -105.3988    3159.6913    4.3659973    4.3659973    4.3659973    3159.6913   -5646.1557   -6740.7702        21866   -1318.0327    1296.8912   -2675.8824    83.224346 
   99500    242.43012   -105.61765   0.21935587   -105.39829   -924.61892    4.3683734    4.3683734    4.3683734   -924.61892   -6102.6458    1814.4231     1514.366    1062.2037   -1122.9532    634.11809      83.3603 
   99600    224.28234   -105.60103   0.20293538   -105.39809     706.0142    4.3661988    4.3661988    4.3661988     706.0142   -2436.1178     -6077.39     10631.55   -643.34941    1086.6042    1103.9348     83.23587 
   99700     178.4858   -105.55965   0.16149771   -105.39816    266.21586     4.368145     4.368145     4.368145    266.21586   -9022.9821    1942.2391    7879.3906    216.28866     1106.776   -2703.0344    83.347224 
   99800    169.07306   -105.55136   0.15298086   -105.39838    3138.2853    4.3661327    4.3661327    4.3661327    3138.2853     -1534.73   -7090.0294    18039.615    575.09766    974.35529    1526.2925    83.232089 
   99900    227.96132   -105.60518   0.20626419   -105.39891   -3056.7373    4.3666589    4.3666589    4.3666589   -3056.7373   -8055.3334   -2471.2654     1356.387   -1214.1661   -279.45394    2006.8719    83.262186 
  100000    235.37035    -105.6115   0.21296804   -105.39854   -3392.8408    4.3698757    4.3698757    4.3698757   -3392.8408   -6466.7763   -8043.9335    4332.1873    309.39394    1657.2376   -992.96573    83.446331 
Loop time of 21.4569 on 1 procs for 100000 steps with 8 atoms

Pair  time (%) = 6.56126 (30.5788)
Kspce time (%) = 5.26012 (24.5148)
Neigh time (%) = 0 (0)
Comm  time (%) = 1.05588 (4.92092)
Outpt time (%) = 0.0221932 (0.103432)
Other time (%) = 8.55742 (39.882)

Nlocal:    8 ave 8 max 8 min
Histogram: 1 0 0 0 0 0 0 0 0 0
Nghost:    2189 ave 2189 max 2189 min
Histogram: 1 0 0 0 0 0 0 0 0 0
Neighs:    2056 ave 2056 max 2056 min
Histogram: 1 0 0 0 0 0 0 0 0 0

Total # of neighbors = 2056
Ave neighs/atom = 257
Neighbor list builds = 0
Dangerous builds = 0
seeds:1240309
