    2    2    1    2
  0.1090254E+02  0.2793739E-09  0.2793739E-09  0.2793739E-09  0.5000000E-15
  1.000000000000000E-004
  CAR 
 automatically generated by pyflamestk   
     20      4     16
 
  0.1250000E+00  0.1250000E+00  0.1250000E+00  0.1250000E+00
    1        1.279358      1.298646   1.000000   1.000000
    2        5.713377      5.412861   1.000000   1.000000
    3        5.713377      5.412861   1.000000   1.000000
    4        7.365710      6.790127   1.000000   1.000000
    5        7.365710      6.790127   1.000000   1.000000
    6        8.063651      7.458451   1.000000   1.000000
    7        8.537385      7.941823   1.000003   1.000000
    8        8.766644      8.309122   1.001668   1.000000
    9        8.766644      8.309122   1.001668   1.000000
   10        9.441136      8.792744  -0.019934   1.002854
   11        9.441136      8.792744  -0.019934   1.002854
   12       17.611700     17.519753   0.000000   0.000000
   13       17.611700     17.519753   0.000000   0.000000
   14       18.623783     18.522320   0.000000   0.000000
   15       27.831554     27.788740   0.000000   0.000000
   16       27.831554     27.788740   0.000000   0.000000
 
  0.3750000E+00  0.1250000E+00  0.1250000E+00  0.3750000E+00
    1        3.494011      3.477809   1.000000   1.000000
    2        5.758682      5.537767   1.000000   1.000000
    3        6.434784      6.083674   1.000000   1.000000
    4        7.133147      6.639912   1.000000   1.000000
    5        7.254459      6.703985   1.000000   1.000000
    6        7.601720      7.060634   1.000000   1.000000
    7        8.315510      7.829937   1.000000   1.000000
    8        8.485617      7.907168   1.000000   1.000000
    9        8.836877      8.225631   1.006437   1.000000
   10        9.190703      8.687060   0.738887   1.000254
   11        9.315350      8.730565   0.238964   1.000743
   12       11.751134     11.495405  -0.000000  -0.000000
   13       20.766293     20.640520   0.000000   0.000000
   14       21.262377     21.144844   0.000000   0.000000
   15       25.339428     25.262942   0.000000   0.000000
   16       26.127557     26.035994   0.000000   0.000000
 
  0.3750000E+00  0.3750000E+00  0.1250000E+00  0.3750000E+00
    1        4.780393      4.581013   1.000000   1.000000
    2        5.516829      5.177955   1.000000   1.000000
    3        6.671435      6.134293   1.000000   1.000000
    4        6.808766      6.282055   1.000000   1.000000
    5        7.370219      7.070558   1.000000   1.000000
    6        7.500580      7.179366   1.000000   1.000000
    7        8.645565      8.128550   1.000083   1.000000
    8        8.780349      8.273770   1.002223   1.000000
    9        8.963716      8.494829   1.030580   1.000001
   10        9.463832      8.866259  -0.030914   1.010312
   11       10.079046      9.534577  -0.000000  -0.030895
   12       12.286138     12.086182  -0.000000  -0.000000
   13       16.192252     15.926416   0.000000   0.000000
   14       19.327250     19.157457   0.000000   0.000000
   15       23.167689     23.080656   0.000000   0.000000
   16       26.886743     26.875780   0.000000   0.000000
 
  0.3750000E+00  0.3750000E+00  0.3750000E+00  0.1250000E+00
    1        6.167585      5.693575   1.000000   1.000000
    2        6.202684      5.939342   1.000000   1.000000
    3        6.494348      6.016894   1.000000   1.000000
    4        6.494348      6.016894   1.000000   1.000000
    5        6.731934      6.339321   1.000000   1.000000
    6        6.731934      6.339321   1.000000   1.000000
    7        8.967280      8.480794   1.031275   1.000000
    8        8.967280      8.480794   1.031275   1.000000
    9        8.985025      8.488128   1.034122   1.000001
   10        8.985025      8.488128   1.034122   1.000001
   11       12.392961     12.009493  -0.000000  -0.000000
   12       15.899721     15.702707   0.000000   0.000000
   13       15.899721     15.702707   0.000000   0.000000
   14       18.124676     17.947737   0.000000   0.000000
   15       20.862712     20.740294   0.000000   0.000000
   16       20.862712     20.740294   0.000000   0.000000
