LAMMPS (11 Aug 2017)
Reading data file ...
  triclinic box = (0 0 0) to (2.4819 4.2987 6.0783) with tilt (0 0 0)
  1 by 1 by 1 MPI processor grid
  reading atoms ...
  6 atoms
6 atoms in group Ni
Neighbor list info ...
  update every 1 steps, delay 0 steps, check yes
  max neighbors/atom: 2000, page size: 100000
  master list distance cutoff = 11
  ghost atom cutoff = 11
  binsize = 5.5, bins = 1 1 2
  1 neighbor lists, perpetual/occasional/extra = 1 0 0
  (1) pair eam/alloy, perpetual
      attributes: half, newton on
      pair build: half/bin/newton/tri
      stencil: half/bin/3d/newton/tri
      bin: standard
Setting up cg style minimization ...
  Unit style    : metal
  Current step  : 0
WARNING: Energy due to 3 extra global DOFs will be included in minimizer energies
Per MPI rank memory allocation (min/avg/max) = 4.298 | 4.298 | 4.298 Mbytes
Step PotEng Xhi Xlo Yhi Ylo Zhi Xy Xz Yz Press Pxx Pyy Pzz Pxy Pxz Pyz c_eatoms 
       0   -27.249208       2.4819            0       4.2987            0       6.0783            0            0            0   -1664.4949   -1768.4945   -1747.0238   -1477.9664 -0.002137167 -0.00079536811   -5.6268896   -27.249208 
      10   -27.249238    2.4814587 0.00044129045    4.2979741 0.00072587789    6.0777634            0            0            0  0.013025324   0.01612616    0.0105612  0.012388612 6.798951e-11 -1.5328543e-10   0.00145745   -27.249238 
      20   -27.249238    2.4814587 0.00044128451    4.2979741 0.00072587754    6.0777634            0            0            0 5.4501244e-08 4.6306659e-08 6.7843519e-08 4.9353554e-08 3.4531905e-11 -5.2572213e-11 -5.4560704e-09   -27.249238 
      22   -27.249238    2.4814587 0.00044128451    4.2979741 0.00072587754    6.0777634            0            0            0 2.1285663e-09 8.7986223e-09 -1.3162701e-08 1.0749777e-08 -2.2655336e-11 -1.1659334e-10 5.8496067e-09   -27.249238 
Loop time of 0.00560904 on 1 procs for 22 steps with 6 atoms

98.7% CPU use with 1 MPI tasks x no OpenMP threads

Minimization stats:
  Stopping criterion = energy tolerance
  Energy initial, next-to-last, final = 
        -27.2492076412     -27.2492375724     -27.2492375724
  Force two-norm initial, final = 0.117063 7.90964e-13
  Force max component initial, final = 0.0715809 5.32485e-13
  Final line search alpha, max atom move = 1 5.32485e-13
  Iterations, force evaluations = 22 44

MPI task timing breakdown:
Section |  min time  |  avg time  |  max time  |%varavg| %total
---------------------------------------------------------------
Pair    | 0.0042119  | 0.0042119  | 0.0042119  |   0.0 | 75.09
Neigh   | 0          | 0          | 0          |   0.0 |  0.00
Comm    | 0.00034356 | 0.00034356 | 0.00034356 |   0.0 |  6.13
Output  | 3.0756e-05 | 3.0756e-05 | 3.0756e-05 |   0.0 |  0.55
Modify  | 0          | 0          | 0          |   0.0 |  0.00
Other   |            | 0.001023   |            |       | 18.24

Nlocal:    6 ave 6 max 6 min
Histogram: 1 0 0 0 0 0 0 0 0 0
Nghost:    1626 ave 1626 max 1626 min
Histogram: 1 0 0 0 0 0 0 0 0 0
Neighs:    1590 ave 1590 max 1590 min
Histogram: 1 0 0 0 0 0 0 0 0 0

Total # of neighbors = 1590
Ave neighs/atom = 265
Neighbor list builds = 0
Dangerous builds = 0
pypospack:output_section:begin
tot_energy = -27.2492375724394
num_atoms = 6
a11 = 2.48101743098393
a22 = 4.29724824492826
a33 = 6.07722674886142
a12 = 0
a13 = 0
a23 = 0
tot_press = 2.12856625152714e-09
pxx = 8.79862231052302e-09
pyy = -1.31627010213711e-08
pzz = 1.07497774654295e-08
pxy = -2.2655336226107e-11
pxz = -1.16593336042968e-10
pyz = 5.84960665321555e-09
pypospack:output_section:done
pypospack:lammps_sim:done
Total wall time: 0:00:00
