   2   2   0   0
  0.9639684E+01  0.3009788E-09  0.3009788E-09  0.3009788E-09  0.5000000E-15
  1.000000000000000E-004
  CAR 
 automatically generated by pyflamestk   
     43.83066875    -16.36913031  301      3.54696988      1.00000000
    -16.369  0.0000E+00  0.0000E+00
    -16.168  0.0000E+00  0.0000E+00
    -15.968  0.0000E+00  0.0000E+00
    -15.767  0.0000E+00  0.0000E+00
    -15.566  0.0000E+00  0.0000E+00
    -15.366  0.0000E+00  0.0000E+00
    -15.165  0.0000E+00  0.0000E+00
    -14.964  0.0000E+00  0.0000E+00
    -14.764  0.0000E+00  0.0000E+00
    -14.563  0.0000E+00  0.0000E+00
    -14.362  0.0000E+00  0.0000E+00
    -14.162  0.0000E+00  0.0000E+00
    -13.961  0.0000E+00  0.0000E+00
    -13.760  0.4735E-04  0.9502E-05
    -13.560  0.3053E+00  0.6128E-01
    -13.359  0.1284E-01  0.6386E-01
    -13.158  0.9271E+00  0.2499E+00
    -12.958  0.7403E+00  0.3984E+00
    -12.757  0.8738E+00  0.5738E+00
    -12.556  0.2681E+01  0.1112E+01
    -12.356  0.3054E+01  0.1725E+01
    -12.155  0.1373E+01  0.2000E+01
    -11.954  0.6249E-07  0.2000E+01
    -11.754  0.0000E+00  0.2000E+01
    -11.553  0.0000E+00  0.2000E+01
    -11.352  0.0000E+00  0.2000E+01
    -11.152  0.0000E+00  0.2000E+01
    -10.951  0.0000E+00  0.2000E+01
    -10.750  0.0000E+00  0.2000E+01
    -10.550  0.0000E+00  0.2000E+01
    -10.349  0.0000E+00  0.2000E+01
    -10.148  0.0000E+00  0.2000E+01
     -9.948  0.0000E+00  0.2000E+01
     -9.747  0.0000E+00  0.2000E+01
     -9.546  0.0000E+00  0.2000E+01
     -9.346  0.0000E+00  0.2000E+01
     -9.145  0.0000E+00  0.2000E+01
     -8.944  0.0000E+00  0.2000E+01
     -8.744  0.0000E+00  0.2000E+01
     -8.543  0.0000E+00  0.2000E+01
     -8.342  0.0000E+00  0.2000E+01
     -8.142  0.0000E+00  0.2000E+01
     -7.941  0.0000E+00  0.2000E+01
     -7.740  0.0000E+00  0.2000E+01
     -7.540  0.0000E+00  0.2000E+01
     -7.339  0.0000E+00  0.2000E+01
     -7.138  0.0000E+00  0.2000E+01
     -6.938  0.0000E+00  0.2000E+01
     -6.737  0.0000E+00  0.2000E+01
     -6.536  0.0000E+00  0.2000E+01
     -6.336  0.0000E+00  0.2000E+01
     -6.135  0.0000E+00  0.2000E+01
     -5.934  0.0000E+00  0.2000E+01
     -5.734  0.0000E+00  0.2000E+01
     -5.533  0.0000E+00  0.2000E+01
     -5.333  0.0000E+00  0.2000E+01
     -5.132  0.0000E+00  0.2000E+01
     -4.931  0.0000E+00  0.2000E+01
     -4.731  0.0000E+00  0.2000E+01
     -4.530  0.0000E+00  0.2000E+01
     -4.329  0.0000E+00  0.2000E+01
     -4.129  0.0000E+00  0.2000E+01
     -3.928  0.0000E+00  0.2000E+01
     -3.727  0.0000E+00  0.2000E+01
     -3.527  0.0000E+00  0.2000E+01
     -3.326  0.0000E+00  0.2000E+01
     -3.125  0.0000E+00  0.2000E+01
     -2.925  0.0000E+00  0.2000E+01
     -2.724  0.0000E+00  0.2000E+01
     -2.523  0.0000E+00  0.2000E+01
     -2.323  0.0000E+00  0.2000E+01
     -2.122  0.0000E+00  0.2000E+01
     -1.921  0.0000E+00  0.2000E+01
     -1.721  0.0000E+00  0.2000E+01
     -1.520  0.0000E+00  0.2000E+01
     -1.319  0.0000E+00  0.2000E+01
     -1.119  0.1855E-12  0.2000E+01
     -0.918  0.5322E-01  0.2011E+01
     -0.717  0.8812E+00  0.2188E+01
     -0.517  0.3075E+00  0.2249E+01
     -0.316  0.1107E+01  0.2471E+01
     -0.115  0.2655E+01  0.3004E+01
      0.085  0.2446E+01  0.3495E+01
      0.286  0.1097E+01  0.3715E+01
      0.487  0.1742E+00  0.3750E+01
      0.687  0.1266E-13  0.3750E+01
      0.888  0.4008E-01  0.3758E+01
      1.089  0.2635E+01  0.4287E+01
      1.289  0.1063E+01  0.4500E+01
      1.490  0.5841E-05  0.4500E+01
      1.691  0.1307E+01  0.4762E+01
      1.891  0.1496E+01  0.5063E+01
      2.092  0.1843E+01  0.5432E+01
      2.293  0.2663E+01  0.5967E+01
      2.493  0.3013E+01  0.6571E+01
      2.694  0.3036E+01  0.7180E+01
      2.895  0.1528E+01  0.7487E+01
      3.095  0.1933E+01  0.7875E+01
      3.296  0.4928E+00  0.7974E+01
      3.497  0.1303E+00  0.8000E+01
      3.697  0.0000E+00  0.8000E+01
      3.898  0.0000E+00  0.8000E+01
      4.099  0.0000E+00  0.8000E+01
      4.299  0.0000E+00  0.8000E+01
      4.500  0.0000E+00  0.8000E+01
      4.701  0.0000E+00  0.8000E+01
      4.901  0.0000E+00  0.8000E+01
      5.102  0.0000E+00  0.8000E+01
      5.303  0.0000E+00  0.8000E+01
      5.503  0.0000E+00  0.8000E+01
      5.704  0.0000E+00  0.8000E+01
      5.905  0.0000E+00  0.8000E+01
      6.105  0.0000E+00  0.8000E+01
      6.306  0.0000E+00  0.8000E+01
      6.507  0.0000E+00  0.8000E+01
      6.707  0.0000E+00  0.8000E+01
      6.908  0.0000E+00  0.8000E+01
      7.109  0.0000E+00  0.8000E+01
      7.309  0.0000E+00  0.8000E+01
      7.510  0.0000E+00  0.8000E+01
      7.711  0.0000E+00  0.8000E+01
      7.911  0.0000E+00  0.8000E+01
      8.112  0.0000E+00  0.8000E+01
      8.313  0.0000E+00  0.8000E+01
      8.513  0.2282E-06  0.8000E+01
      8.714  0.2507E+00  0.8050E+01
      8.915  0.6072E-01  0.8062E+01
      9.115  0.0000E+00  0.8062E+01
      9.316  0.0000E+00  0.8062E+01
      9.517  0.0000E+00  0.8062E+01
      9.717  0.0000E+00  0.8062E+01
      9.918  0.0000E+00  0.8062E+01
     10.119  0.3811E-05  0.8063E+01
     10.319  0.8295E+00  0.8229E+01
     10.520  0.1049E+00  0.8250E+01
     10.721  0.2371E-08  0.8250E+01
     10.921  0.1578E+00  0.8282E+01
     11.122  0.7456E+00  0.8431E+01
     11.323  0.3425E+00  0.8500E+01
     11.523  0.2121E-07  0.8500E+01
     11.724  0.5439E+00  0.8609E+01
     11.925  0.3905E+00  0.8687E+01
     12.125  0.7233E-02  0.8689E+01
     12.326  0.9266E+00  0.8875E+01
     12.527  0.1255E+00  0.8900E+01
     12.727  0.1744E+01  0.9250E+01
     12.928  0.9182E+00  0.9434E+01
     13.129  0.8991E+00  0.9615E+01
     13.329  0.5133E-01  0.9625E+01
     13.530  0.8392E+00  0.9793E+01
     13.731  0.4473E+00  0.9883E+01
     13.931  0.2196E+01  0.1032E+02
     14.132  0.2549E+00  0.1037E+02
     14.333  0.0000E+00  0.1038E+02
     14.533  0.4509E-11  0.1038E+02
     14.734  0.2668E+00  0.1043E+02
     14.935  0.3471E+01  0.1112E+02
     15.135  0.1752E-02  0.1113E+02
     15.336  0.1860E+01  0.1150E+02
     15.537  0.2372E+01  0.1197E+02
     15.737  0.1684E+01  0.1231E+02
     15.938  0.6671E-02  0.1231E+02
     16.139  0.1533E+01  0.1262E+02
     16.339  0.3294E+00  0.1269E+02
     16.540  0.0000E+00  0.1269E+02
     16.741  0.5005E-07  0.1269E+02
     16.941  0.1109E+01  0.1291E+02
     17.142  0.1011E+01  0.1311E+02
     17.343  0.9410E+00  0.1330E+02
     17.543  0.5378E-01  0.1331E+02
     17.744  0.1161E-05  0.1331E+02
     17.945  0.7784E+00  0.1347E+02
     18.145  0.1560E+00  0.1350E+02
     18.346  0.7054E-14  0.1350E+02
     18.547  0.2071E-01  0.1350E+02
     18.747  0.9136E+00  0.1369E+02
     18.948  0.1157E-03  0.1369E+02
     19.149  0.7069E-06  0.1369E+02
     19.349  0.5403E+00  0.1380E+02
     19.550  0.2545E+01  0.1431E+02
     19.751  0.1708E+01  0.1465E+02
     19.951  0.1031E+01  0.1486E+02
     20.152  0.1639E+01  0.1519E+02
     20.353  0.1239E+01  0.1543E+02
     20.553  0.9536E+00  0.1562E+02
     20.754  0.1821E+00  0.1566E+02
     20.955  0.7530E+00  0.1581E+02
     21.155  0.9340E+00  0.1600E+02
     21.356  0.9341E+00  0.1619E+02
     21.557  0.1827E+01  0.1655E+02
     21.757  0.4164E-01  0.1656E+02
     21.958  0.5096E-05  0.1656E+02
     22.159  0.8402E+00  0.1673E+02
     22.359  0.9415E-01  0.1675E+02
     22.560  0.8827E+00  0.1693E+02
     22.761  0.1855E+01  0.1730E+02
     22.961  0.4017E+00  0.1738E+02
     23.162  0.1532E+01  0.1769E+02
     23.363  0.2599E-05  0.1769E+02
     23.563  0.5197E+00  0.1779E+02
     23.764  0.1010E+01  0.1799E+02
     23.965  0.2831E-01  0.1800E+02
     24.165  0.3098E+00  0.1806E+02
     24.366  0.7945E+00  0.1822E+02
     24.567  0.7640E+00  0.1837E+02
     24.767  0.9509E-03  0.1838E+02
     24.968  0.1196E+01  0.1862E+02
     25.169  0.4924E-01  0.1863E+02
     25.369  0.1235E+01  0.1887E+02
     25.570  0.1322E+01  0.1914E+02
     25.771  0.2460E+00  0.1919E+02
     25.971  0.7301E+00  0.1933E+02
     26.172  0.1139E+01  0.1956E+02
     26.373  0.1715E+00  0.1960E+02
     26.573  0.2631E+01  0.2012E+02
     26.774  0.2911E-02  0.2013E+02
     26.975  0.9309E+00  0.2031E+02
     27.175  0.9331E+00  0.2050E+02
     27.376  0.3134E+00  0.2056E+02
     27.577  0.1548E-03  0.2056E+02
     27.777  0.0000E+00  0.2056E+02
     27.978  0.0000E+00  0.2056E+02
     28.179  0.0000E+00  0.2056E+02
     28.379  0.0000E+00  0.2056E+02
     28.580  0.9185E-03  0.2056E+02
     28.781  0.6371E+00  0.2069E+02
     28.981  0.2775E+01  0.2125E+02
     29.182  0.9464E+00  0.2144E+02
     29.383  0.3601E+00  0.2151E+02
     29.583  0.5758E+00  0.2162E+02
     29.784  0.8633E-06  0.2163E+02
     29.985  0.1921E+01  0.2201E+02
     30.185  0.1706E+01  0.2235E+02
     30.386  0.1374E+01  0.2263E+02
     30.587  0.6045E+00  0.2275E+02
     30.787  0.6115E-07  0.2275E+02
     30.988  0.4853E+00  0.2285E+02
     31.189  0.1383E+01  0.2312E+02
     31.389  0.5374E+00  0.2323E+02
     31.590  0.1702E+01  0.2357E+02
     31.791  0.2433E+01  0.2406E+02
     31.991  0.1111E+01  0.2429E+02
     32.192  0.1264E+01  0.2454E+02
     32.393  0.4417E+01  0.2543E+02
     32.593  0.1144E+00  0.2545E+02
     32.794  0.2755E+01  0.2600E+02
     32.995  0.9274E+00  0.2619E+02
     33.195  0.5834E+00  0.2630E+02
     33.396  0.1909E+01  0.2669E+02
     33.597  0.6025E-05  0.2669E+02
     33.797  0.0000E+00  0.2669E+02
     33.998  0.0000E+00  0.2669E+02
     34.199  0.0000E+00  0.2669E+02
     34.399  0.0000E+00  0.2669E+02
     34.600  0.1440E-09  0.2669E+02
     34.801  0.2701E+00  0.2674E+02
     35.001  0.2532E+01  0.2725E+02
     35.202  0.7088E-03  0.2725E+02
     35.403  0.7875E+00  0.2741E+02
     35.603  0.2737E+01  0.2796E+02
     35.804  0.7346E+00  0.2810E+02
     36.005  0.4129E+00  0.2819E+02
     36.205  0.2057E-03  0.2819E+02
     36.406  0.1865E+01  0.2856E+02
     36.607  0.9384E+00  0.2875E+02
     36.807  0.1109E+00  0.2877E+02
     37.008  0.5121E+00  0.2887E+02
     37.209  0.9305E+00  0.2906E+02
     37.409  0.9421E+00  0.2925E+02
     37.610  0.9295E+00  0.2944E+02
     37.811  0.6703E+00  0.2957E+02
     38.011  0.1200E+01  0.2981E+02
     38.212  0.8356E+00  0.2998E+02
     38.413  0.9880E-01  0.3000E+02
     38.613  0.7604E-11  0.3000E+02
     38.814  0.1910E+00  0.3004E+02
     39.015  0.3797E+01  0.3080E+02
     39.215  0.6074E-01  0.3081E+02
     39.416  0.0000E+00  0.3081E+02
     39.617  0.0000E+00  0.3081E+02
     39.817  0.5187E-16  0.3081E+02
     40.018  0.4000E-02  0.3081E+02
     40.219  0.9293E+00  0.3100E+02
     40.419  0.1081E-02  0.3100E+02
     40.620  0.9269E-09  0.3100E+02
     40.821  0.1381E+00  0.3103E+02
     41.021  0.1463E+01  0.3132E+02
     41.222  0.3382E+01  0.3200E+02
     41.423  0.2706E-03  0.3200E+02
     41.623  0.0000E+00  0.3200E+02
     41.824  0.0000E+00  0.3200E+02
     42.025  0.0000E+00  0.3200E+02
     42.225  0.0000E+00  0.3200E+02
     42.426  0.0000E+00  0.3200E+02
     42.627  0.0000E+00  0.3200E+02
     42.827  0.0000E+00  0.3200E+02
     43.028  0.0000E+00  0.3200E+02
     43.229  0.0000E+00  0.3200E+02
     43.429  0.0000E+00  0.3200E+02
     43.630  0.0000E+00  0.3200E+02
     43.831  0.0000E+00  0.3200E+02
