# ['Al']

107 atoms
1 atom types

    0.0000    11.3456 xlo xhi
    0.0000    11.3456 ylo yhi
    0.0000    11.3456 zlo zhi

    0.0000    -0.0000    -0.0000 xy xz yz

Atoms

1 1     1.8909     1.8909     0.0000
2 1     1.8909     0.0000     1.8909
3 1     0.0000     1.8909     1.8909
4 1     0.0000     0.0000     3.7818
5 1     1.8909     1.8909     3.7818
6 1     1.8909     0.0000     5.6728
7 1     0.0000     1.8909     5.6728
8 1     0.0000     0.0000     7.5637
9 1     1.8909     1.8909     7.5637
10 1     1.8909     0.0000     9.4546
11 1     0.0000     1.8909     9.4546
12 1     0.0000     3.7818     0.0000
13 1     1.8909     5.6728     0.0000
14 1     1.8909     3.7818     1.8909
15 1     0.0000     5.6728     1.8909
16 1     0.0000     3.7818     3.7818
17 1     1.8909     5.6728     3.7818
18 1     1.8909     3.7818     5.6728
19 1     0.0000     5.6728     5.6728
20 1     0.0000     3.7818     7.5637
21 1     1.8909     5.6728     7.5637
22 1     1.8909     3.7818     9.4546
23 1     0.0000     5.6728     9.4546
24 1     0.0000     7.5637     0.0000
25 1     1.8909     9.4546     0.0000
26 1     1.8909     7.5637     1.8909
27 1     0.0000     9.4546     1.8909
28 1     0.0000     7.5637     3.7818
29 1     1.8909     9.4546     3.7818
30 1     1.8909     7.5637     5.6728
31 1     0.0000     9.4546     5.6728
32 1     0.0000     7.5637     7.5637
33 1     1.8909     9.4546     7.5637
34 1     1.8909     7.5637     9.4546
35 1     0.0000     9.4546     9.4546
36 1     3.7818     0.0000     0.0000
37 1     5.6728     1.8909     0.0000
38 1     5.6728     0.0000     1.8909
39 1     3.7818     1.8909     1.8909
40 1     3.7818     0.0000     3.7818
41 1     5.6728     1.8909     3.7818
42 1     5.6728     0.0000     5.6728
43 1     3.7818     1.8909     5.6728
44 1     3.7818     0.0000     7.5637
45 1     5.6728     1.8909     7.5637
46 1     5.6728     0.0000     9.4546
47 1     3.7818     1.8909     9.4546
48 1     3.7818     3.7818     0.0000
49 1     5.6728     5.6728     0.0000
50 1     5.6728     3.7818     1.8909
51 1     3.7818     5.6728     1.8909
52 1     3.7818     3.7818     3.7818
53 1     5.6728     5.6728     3.7818
54 1     5.6728     3.7818     5.6728
55 1     3.7818     5.6728     5.6728
56 1     3.7818     3.7818     7.5637
57 1     5.6728     5.6728     7.5637
58 1     5.6728     3.7818     9.4546
59 1     3.7818     5.6728     9.4546
60 1     3.7818     7.5637     0.0000
61 1     5.6728     9.4546     0.0000
62 1     5.6728     7.5637     1.8909
63 1     3.7818     9.4546     1.8909
64 1     3.7818     7.5637     3.7818
65 1     5.6728     9.4546     3.7818
66 1     5.6728     7.5637     5.6728
67 1     3.7818     9.4546     5.6728
68 1     3.7818     7.5637     7.5637
69 1     5.6728     9.4546     7.5637
70 1     5.6728     7.5637     9.4546
71 1     3.7818     9.4546     9.4546
72 1     7.5637     0.0000     0.0000
73 1     9.4546     1.8909     0.0000
74 1     9.4546     0.0000     1.8909
75 1     7.5637     1.8909     1.8909
76 1     7.5637     0.0000     3.7818
77 1     9.4546     1.8909     3.7818
78 1     9.4546     0.0000     5.6728
79 1     7.5637     1.8909     5.6728
80 1     7.5637     0.0000     7.5637
81 1     9.4546     1.8909     7.5637
82 1     9.4546     0.0000     9.4546
83 1     7.5637     1.8909     9.4546
84 1     7.5637     3.7818     0.0000
85 1     9.4546     5.6728     0.0000
86 1     9.4546     3.7818     1.8909
87 1     7.5637     5.6728     1.8909
88 1     7.5637     3.7818     3.7818
89 1     9.4546     5.6728     3.7818
90 1     9.4546     3.7818     5.6728
91 1     7.5637     5.6728     5.6728
92 1     7.5637     3.7818     7.5637
93 1     9.4546     5.6728     7.5637
94 1     9.4546     3.7818     9.4546
95 1     7.5637     5.6728     9.4546
96 1     7.5637     7.5637     0.0000
97 1     9.4546     9.4546     0.0000
98 1     9.4546     7.5637     1.8909
99 1     7.5637     9.4546     1.8909
100 1     7.5637     7.5637     3.7818
101 1     9.4546     9.4546     3.7818
102 1     9.4546     7.5637     5.6728
103 1     7.5637     9.4546     5.6728
104 1     7.5637     7.5637     7.5637
105 1     9.4546     9.4546     7.5637
106 1     9.4546     7.5637     9.4546
107 1     7.5637     9.4546     9.4546
