LAMMPS (11 Aug 2017)
# ---- initialize simulations
clear
units metal
dimension 3
boundary p p p
atom_style atomic
atom_modify map array
# ---- create atoms
read_data /home/sullberg/repos/pypospack/examples/Al__eam__born_exp_fs/pareto_optimization_3.5NN/rank_1/Al_fcc_vac.lmps_min_pos/lammps.structure
  triclinic box = (0 0 0) to (11.3456 11.3456 11.3456) with tilt (0 -0 -0)
  1 by 1 by 1 MPI processor grid
  reading atoms ...
  107 atoms
# ---- define interatomic potential
include potential.mod
mass 1 26.982

group Al type 1
107 atoms in group Al

pair_style eam/alloy
pair_coeff * * /home/sullberg/repos/pypospack/examples/Al__eam__born_exp_fs/pareto_optimization_3.5NN/rank_1/Al_fcc_vac.lmps_min_pos/Al.eam.alloy Al

neighbor 1.0 bin
neigh_modify every 1 delay 0 check yes
# ---- define settings
compute eng all pe/atom
compute eatoms all reduce sum c_eng

# ---- run minimization
reset_timestep 0
thermo 1
thermo_style custom step pe lx ly lz xy xz yz press pxx pyy pzz pxy pxz pyz c_eatoms
min_style cg
minimize 1e-20 1e-20 1000 100000
Neighbor list info ...
  update every 1 steps, delay 0 steps, check yes
  max neighbors/atom: 2000, page size: 100000
  master list distance cutoff = 6.34397
  ghost atom cutoff = 6.34397
  binsize = 3.17199, bins = 4 4 4
  1 neighbor lists, perpetual/occasional/extra = 1 0 0
  (1) pair eam/alloy, perpetual
      attributes: half, newton on
      pair build: half/bin/newton/tri
      stencil: half/bin/3d/newton/tri
      bin: standard
Per MPI rank memory allocation (min/avg/max) = 4.229 | 4.229 | 4.229 Mbytes
Step PotEng Lx Ly Lz Xy Xz Yz Press Pxx Pyy Pzz Pxy Pxz Pyz c_eatoms 
       0   -202.33618      11.3456      11.3456      11.3456            0           -0           -0   -1390.6649   -1390.6649   -1390.6649   -1390.6649 -6.0246083e-05 -6.0246084e-05 -6.0246085e-05   -202.33618 
       1   -202.34152      11.3456      11.3456      11.3456            0           -0           -0   -1649.4748   -1649.4748   -1649.4748   -1649.4748 2.351202e-05 2.3512025e-05 2.3512022e-05   -202.34152 
       2   -202.34228      11.3456      11.3456      11.3456            0           -0           -0   -1658.1721   -1658.1721   -1658.1721   -1658.1721 6.0673101e-05 6.0673111e-05 6.0673107e-05   -202.34228 
       3   -202.34238      11.3456      11.3456      11.3456            0           -0           -0   -1676.4613   -1676.4613   -1676.4613   -1676.4613 -1.497025e-05 -1.4970257e-05 -1.4970238e-05   -202.34238 
       4   -202.34239      11.3456      11.3456      11.3456            0           -0           -0   -1678.3744   -1678.3744   -1678.3744   -1678.3744 -8.9114551e-06 -8.9114502e-06 -8.9114622e-06   -202.34239 
       5   -202.34239      11.3456      11.3456      11.3456            0           -0           -0   -1678.2045   -1678.2045   -1678.2045   -1678.2045 -4.6825944e-06 -4.6825877e-06 -4.6825935e-06   -202.34239 
       6   -202.34239      11.3456      11.3456      11.3456            0           -0           -0   -1678.0899   -1678.0899   -1678.0899   -1678.0899 -3.0833449e-06 -3.0833494e-06 -3.0833415e-06   -202.34239 
       7   -202.34239      11.3456      11.3456      11.3456            0           -0           -0   -1678.0308   -1678.0308   -1678.0308   -1678.0308 -1.7517665e-06 -1.7517672e-06 -1.7517705e-06   -202.34239 
       8   -202.34239      11.3456      11.3456      11.3456            0           -0           -0   -1678.0397   -1678.0397   -1678.0397   -1678.0397 -1.0252258e-06 -1.0252255e-06 -1.025227e-06   -202.34239 
       9   -202.34239      11.3456      11.3456      11.3456            0           -0           -0   -1678.0409   -1678.0409   -1678.0409   -1678.0409 -7.1315948e-07 -7.1316018e-07 -7.1315762e-07   -202.34239 
      10   -202.34239      11.3456      11.3456      11.3456            0           -0           -0   -1678.0398   -1678.0398   -1678.0398   -1678.0398 -4.6618943e-07 -4.6620655e-07 -4.6621328e-07   -202.34239 
      11   -202.34239      11.3456      11.3456      11.3456            0           -0           -0   -1678.0394   -1678.0394   -1678.0394   -1678.0394 -9.3981049e-08 -9.3981494e-08 -9.3984608e-08   -202.34239 
      12   -202.34239      11.3456      11.3456      11.3456            0           -0           -0   -1678.0397   -1678.0397   -1678.0397   -1678.0397 2.7985567e-08 2.7968709e-08 2.7980093e-08   -202.34239 
      13   -202.34239      11.3456      11.3456      11.3456            0           -0           -0   -1678.0397   -1678.0397   -1678.0397   -1678.0397 3.2558871e-08 3.2541324e-08 3.2552149e-08   -202.34239 
      14   -202.34239      11.3456      11.3456      11.3456            0           -0           -0   -1678.0397   -1678.0397   -1678.0397   -1678.0397 1.0205088e-08 1.0202085e-08 1.0201819e-08   -202.34239 
      15   -202.34239      11.3456      11.3456      11.3456            0           -0           -0   -1678.0397   -1678.0397   -1678.0397   -1678.0397 3.6286276e-09 3.6243989e-09 3.6373551e-09   -202.34239 
      16   -202.34239      11.3456      11.3456      11.3456            0           -0           -0   -1678.0398   -1678.0398   -1678.0398   -1678.0398 -7.7315116e-10 -7.7142696e-10 -7.7362693e-10   -202.34239 
      17   -202.34239      11.3456      11.3456      11.3456            0           -0           -0   -1678.0397   -1678.0397   -1678.0397   -1678.0397 -9.1410887e-10 -9.2033576e-10 -9.2305717e-10   -202.34239 
      18   -202.34239      11.3456      11.3456      11.3456            0           -0           -0   -1678.0397   -1678.0397   -1678.0397   -1678.0397 -3.9677041e-10 -3.8903246e-10 -3.8669928e-10   -202.34239 
      19   -202.34239      11.3456      11.3456      11.3456            0           -0           -0   -1678.0397   -1678.0397   -1678.0397   -1678.0397 3.5610528e-11 3.5972115e-11 2.7309271e-11   -202.34239 
      20   -202.34239      11.3456      11.3456      11.3456            0           -0           -0   -1678.0397   -1678.0397   -1678.0397   -1678.0397 2.756124e-10 2.8333892e-10 2.8963433e-10   -202.34239 
      21   -202.34239      11.3456      11.3456      11.3456            0           -0           -0   -1678.0397   -1678.0397   -1678.0397   -1678.0397 2.6646617e-10 2.6254962e-10 2.5994239e-10   -202.34239 
      22   -202.34239      11.3456      11.3456      11.3456            0           -0           -0   -1678.0397   -1678.0397   -1678.0397   -1678.0397 1.8775457e-10 1.9096317e-10 1.9205935e-10   -202.34239 
      23   -202.34239      11.3456      11.3456      11.3456            0           -0           -0   -1678.0397   -1678.0397   -1678.0397   -1678.0397 1.3294953e-10 1.3751693e-10 1.3509621e-10   -202.34239 
      24   -202.34239      11.3456      11.3456      11.3456            0           -0           -0   -1678.0397   -1678.0397   -1678.0397   -1678.0397 8.7340188e-11 8.0161751e-11 7.567047e-11   -202.34239 
      25   -202.34239      11.3456      11.3456      11.3456            0           -0           -0   -1678.0397   -1678.0397   -1678.0397   -1678.0397 6.6588948e-11 6.8621443e-11 6.396269e-11   -202.34239 
      26   -202.34239      11.3456      11.3456      11.3456            0           -0           -0   -1678.0397   -1678.0397   -1678.0397   -1678.0397 4.6458113e-11 4.553702e-11  4.76837e-11   -202.34239 
      27   -202.34239      11.3456      11.3456      11.3456            0           -0           -0   -1678.0397   -1678.0397   -1678.0397   -1678.0397 3.9062725e-11 4.4258147e-11 4.8014837e-11   -202.34239 
      28   -202.34239      11.3456      11.3456      11.3456            0           -0           -0   -1678.0397   -1678.0397   -1678.0397   -1678.0397 3.286628e-11 2.522349e-11 3.8347165e-11   -202.34239 
      29   -202.34239      11.3456      11.3456      11.3456            0           -0           -0   -1678.0397   -1678.0397   -1678.0397   -1678.0397 1.2773507e-11 1.5163782e-11 1.7649211e-11   -202.34239 
      30   -202.34239      11.3456      11.3456      11.3456            0           -0           -0   -1678.0397   -1678.0397   -1678.0397   -1678.0397 1.4992504e-11 1.7356136e-11 1.0794299e-11   -202.34239 
      31   -202.34239      11.3456      11.3456      11.3456            0           -0           -0   -1678.0397   -1678.0397   -1678.0397   -1678.0397 1.6640576e-11 8.4877595e-13 1.3390107e-11   -202.34239 
      32   -202.34239      11.3456      11.3456      11.3456            0           -0           -0   -1678.0397   -1678.0397   -1678.0397   -1678.0397 1.5860311e-11 1.8855767e-11 4.3923204e-12   -202.34239 
      33   -202.34239      11.3456      11.3456      11.3456            0           -0           -0   -1678.0397   -1678.0397   -1678.0397   -1678.0397 1.260223e-11 1.6077263e-11 1.0078739e-11   -202.34239 
Loop time of 0.015728 on 1 procs for 33 steps with 107 atoms

92.2% CPU use with 1 MPI tasks x no OpenMP threads

Minimization stats:
  Stopping criterion = energy tolerance
  Energy initial, next-to-last, final = 
        -202.336184443     -202.342387181     -202.342387181
  Force two-norm initial, final = 0.199457 2.24127e-14
  Force max component initial, final = 0.0380634 4.67335e-15
  Final line search alpha, max atom move = 1 4.67335e-15
  Iterations, force evaluations = 33 66

MPI task timing breakdown:
Section |  min time  |  avg time  |  max time  |%varavg| %total
---------------------------------------------------------------
Pair    | 0.014706   | 0.014706   | 0.014706   |   0.0 | 93.50
Neigh   | 0          | 0          | 0          |   0.0 |  0.00
Comm    | 0.00033045 | 0.00033045 | 0.00033045 |   0.0 |  2.10
Output  | 0.00046349 | 0.00046349 | 0.00046349 |   0.0 |  2.95
Modify  | 0          | 0          | 0          |   0.0 |  0.00
Other   |            | 0.0002284  |            |       |  1.45

Nlocal:    107 ave 107 max 107 min
Histogram: 1 0 0 0 0 0 0 0 0 0
Nghost:    983 ave 983 max 983 min
Histogram: 1 0 0 0 0 0 0 0 0 0
Neighs:    4134 ave 4134 max 4134 min
Histogram: 1 0 0 0 0 0 0 0 0 0

Total # of neighbors = 4134
Ave neighs/atom = 38.6355
Neighbor list builds = 0
Dangerous builds = 0

# ---- define output variables ----
variable natoms equal "count(all)"
variable tot_energy equal "c_eatoms"
variable a11 equal "xhi-xlo"
variable a22 equal "yhi-ylo"
variable a33 equal "zhi-zlo"
variable tilt_xy equal "xy"
variable tilt_xz equal "xz"
variable tilt_yz equal "yz"
variable tot_press equal "press"
variable press_xx equal "pxx"
variable press_yy equal "pyy"
variable press_zz equal "pzz"
variable press_xy equal "pxy"
variable press_xz equal "pxz"
variable press_yz equal "pyz"

# ---- output ----
print "pypospack:output_section:begin"
pypospack:output_section:begin
print "tot_energy = ${tot_energy}"
tot_energy = -202.342387181419
print "num_atoms = ${natoms}"
num_atoms = 107
print "a11 = ${a11}"
a11 = 11.3456
print "a22 = ${a22}"
a22 = 11.3456
print "a33 = ${a33}"
a33 = 11.3456
print "a12 = ${tilt_xy}"
a12 = 0
print "a13 = ${tilt_xz}"
a13 = -0
print "a23 = ${tilt_yz}"
a23 = -0
print "tot_press = ${tot_press}"
tot_press = -1678.03973719086
print "pxx = ${press_xx}"
pxx = -1678.03973719086
print "pyy = ${press_yy}"
pyy = -1678.03973719085
print "pzz = ${press_zz}"
pzz = -1678.03973719086
print "pxy = ${press_xy}"
pxy = 1.26022295361721e-11
print "pxz = ${press_xz}"
pxz = 1.60772629298674e-11
print "pyz = ${press_yz}"
pyz = 1.00787386927767e-11
print "pypospack:output_section:done"
pypospack:output_section:done
print "pypospack:lammps_sim:done"
pypospack:lammps_sim:done
Total wall time: 0:00:00
