# ['Ni']

28 atoms
1 atom types

    0.0000     2.4125 xlo xhi
    0.0000     4.1785 ylo yhi
    0.0000    27.5770 zlo zhi

    0.0000     0.0000     0.0000 xy xz yz

Atoms

1 1     0.0000     0.0000     0.0000
2 1     1.2062     2.0893     0.0000
3 1     1.2062     0.6964     1.9698
4 1     0.0000     2.7857     1.9698
5 1     0.0000     1.3928     3.9396
6 1     1.2062     3.4821     3.9396
7 1     0.0000     0.0000     5.9094
8 1     1.2062     2.0893     5.9094
9 1     1.2062     0.6964     7.8791
10 1     0.0000     2.7857     7.8791
11 1     0.0000     1.3928     9.8489
12 1     1.2062     3.4821     9.8489
13 1     0.0000     0.0000    11.8187
14 1     1.2062     2.0893    11.8187
15 1     0.0000     1.3928    13.7885
16 1     1.2062     3.4821    13.7885
17 1     0.0000     0.0000    15.7583
18 1     1.2062     2.0893    15.7583
19 1     1.2062     0.6964    17.7280
20 1     0.0000     2.7857    17.7280
21 1     0.0000     1.3928    19.6978
22 1     1.2062     3.4821    19.6978
23 1     0.0000     0.0000    21.6676
24 1     1.2062     2.0893    21.6676
25 1     1.2062     0.6964    23.6374
26 1     0.0000     2.7857    23.6374
27 1     0.0000     1.3928    25.6072
28 1     1.2062     3.4821    25.6072
