# ['Mg', 'O']

216 atoms
2 atom types

    0.0000    13.2406 xlo xhi
    0.0000    13.2406 ylo yhi
    0.0000    13.2406 zlo zhi

    0.0000     0.0000     0.0000 xy xz yz

Atoms

1 1     1.0000     2.2068     2.2068     0.0000
2 1     1.0000     2.2068     0.0000     2.2068
3 1     1.0000     0.0000     0.0000     0.0000
4 1     1.0000     0.0000     2.2068     2.2068
5 1     1.0000     2.2068     2.2068     4.4135
6 1     1.0000     2.2068     0.0000     6.6203
7 1     1.0000     0.0000     0.0000     4.4135
8 1     1.0000     0.0000     2.2068     6.6203
9 1     1.0000     2.2068     2.2068     8.8271
10 1     1.0000     2.2068     0.0000    11.0338
11 1     1.0000     0.0000     0.0000     8.8271
12 1     1.0000     0.0000     2.2068    11.0338
13 1     1.0000     2.2068     6.6203     0.0000
14 1     1.0000     2.2068     4.4135     2.2068
15 1     1.0000     0.0000     4.4135     0.0000
16 1     1.0000     0.0000     6.6203     2.2068
17 1     1.0000     2.2068     6.6203     4.4135
18 1     1.0000     2.2068     4.4135     6.6203
19 1     1.0000     0.0000     4.4135     4.4135
20 1     1.0000     0.0000     6.6203     6.6203
21 1     1.0000     2.2068     6.6203     8.8271
22 1     1.0000     2.2068     4.4135    11.0338
23 1     1.0000     0.0000     4.4135     8.8271
24 1     1.0000     0.0000     6.6203    11.0338
25 1     1.0000     2.2068    11.0338     0.0000
26 1     1.0000     2.2068     8.8271     2.2068
27 1     1.0000     0.0000     8.8271     0.0000
28 1     1.0000     0.0000    11.0338     2.2068
29 1     1.0000     2.2068    11.0338     4.4135
30 1     1.0000     2.2068     8.8271     6.6203
31 1     1.0000     0.0000     8.8271     4.4135
32 1     1.0000     0.0000    11.0338     6.6203
33 1     1.0000     2.2068    11.0338     8.8271
34 1     1.0000     2.2068     8.8271    11.0338
35 1     1.0000     0.0000     8.8271     8.8271
36 1     1.0000     0.0000    11.0338    11.0338
37 1     1.0000     6.6203     2.2068     0.0000
38 1     1.0000     6.6203     0.0000     2.2068
39 1     1.0000     4.4135     0.0000     0.0000
40 1     1.0000     4.4135     2.2068     2.2068
41 1     1.0000     6.6203     2.2068     4.4135
42 1     1.0000     6.6203     0.0000     6.6203
43 1     1.0000     4.4135     0.0000     4.4135
44 1     1.0000     4.4135     2.2068     6.6203
45 1     1.0000     6.6203     2.2068     8.8271
46 1     1.0000     6.6203     0.0000    11.0338
47 1     1.0000     4.4135     0.0000     8.8271
48 1     1.0000     4.4135     2.2068    11.0338
49 1     1.0000     6.6203     6.6203     0.0000
50 1     1.0000     6.6203     4.4135     2.2068
51 1     1.0000     4.4135     4.4135     0.0000
52 1     1.0000     4.4135     6.6203     2.2068
53 1     1.0000     6.6203     6.6203     4.4135
54 1     1.0000     6.6203     4.4135     6.6203
55 1     1.0000     4.4135     4.4135     4.4135
56 1     1.0000     6.6203     6.6203     8.8271
57 1     1.0000     6.6203     4.4135    11.0338
58 1     1.0000     4.4135     4.4135     8.8271
59 1     1.0000     4.4135     6.6203    11.0338
60 1     1.0000     6.6203    11.0338     0.0000
61 1     1.0000     6.6203     8.8271     2.2068
62 1     1.0000     4.4135     8.8271     0.0000
63 1     1.0000     4.4135    11.0338     2.2068
64 1     1.0000     6.6203    11.0338     4.4135
65 1     1.0000     6.6203     8.8271     6.6203
66 1     1.0000     4.4135     8.8271     4.4135
67 1     1.0000     4.4135    11.0338     6.6203
68 1     1.0000     6.6203    11.0338     8.8271
69 1     1.0000     6.6203     8.8271    11.0338
70 1     1.0000     4.4135     8.8271     8.8271
71 1     1.0000     4.4135    11.0338    11.0338
72 1     1.0000    11.0338     2.2068     0.0000
73 1     1.0000    11.0338     0.0000     2.2068
74 1     1.0000     8.8271     0.0000     0.0000
75 1     1.0000     8.8271     2.2068     2.2068
76 1     1.0000    11.0338     2.2068     4.4135
77 1     1.0000    11.0338     0.0000     6.6203
78 1     1.0000     8.8271     0.0000     4.4135
79 1     1.0000     8.8271     2.2068     6.6203
80 1     1.0000    11.0338     2.2068     8.8271
81 1     1.0000    11.0338     0.0000    11.0338
82 1     1.0000     8.8271     0.0000     8.8271
83 1     1.0000     8.8271     2.2068    11.0338
84 1     1.0000    11.0338     6.6203     0.0000
85 1     1.0000    11.0338     4.4135     2.2068
86 1     1.0000     8.8271     4.4135     0.0000
87 1     1.0000     8.8271     6.6203     2.2068
88 1     1.0000    11.0338     6.6203     4.4135
89 1     1.0000    11.0338     4.4135     6.6203
90 1     1.0000     8.8271     4.4135     4.4135
91 1     1.0000     8.8271     6.6203     6.6203
92 1     1.0000    11.0338     6.6203     8.8271
93 1     1.0000    11.0338     4.4135    11.0338
94 1     1.0000     8.8271     4.4135     8.8271
95 1     1.0000     8.8271     6.6203    11.0338
96 1     1.0000    11.0338    11.0338     0.0000
97 1     1.0000    11.0338     8.8271     2.2068
98 1     1.0000     8.8271     8.8271     0.0000
99 1     1.0000     8.8271    11.0338     2.2068
100 1     1.0000    11.0338    11.0338     4.4135
101 1     1.0000    11.0338     8.8271     6.6203
102 1     1.0000     8.8271     8.8271     4.4135
103 1     1.0000     8.8271    11.0338     6.6203
104 1     1.0000    11.0338    11.0338     8.8271
105 1     1.0000    11.0338     8.8271    11.0338
106 1     1.0000     8.8271     8.8271     8.8271
107 1     1.0000     8.8271    11.0338    11.0338
108 1     1.0000     9.9304     9.9304     9.9304
109 2     1.0000     0.0000     2.2068     0.0000
110 2     1.0000     2.2068     0.0000     0.0000
111 2     1.0000     2.2068     2.2068     2.2068
112 2     1.0000     0.0000     0.0000     2.2068
113 2     1.0000     0.0000     2.2068     4.4135
114 2     1.0000     2.2068     0.0000     4.4135
115 2     1.0000     2.2068     2.2068     6.6203
116 2     1.0000     0.0000     0.0000     6.6203
117 2     1.0000     0.0000     2.2068     8.8271
118 2     1.0000     2.2068     0.0000     8.8271
119 2     1.0000     2.2068     2.2068    11.0338
120 2     1.0000     0.0000     0.0000    11.0338
121 2     1.0000     0.0000     6.6203     0.0000
122 2     1.0000     2.2068     4.4135     0.0000
123 2     1.0000     2.2068     6.6203     2.2068
124 2     1.0000     0.0000     4.4135     2.2068
125 2     1.0000     0.0000     6.6203     4.4135
126 2     1.0000     2.2068     4.4135     4.4135
127 2     1.0000     2.2068     6.6203     6.6203
128 2     1.0000     0.0000     4.4135     6.6203
129 2     1.0000     0.0000     6.6203     8.8271
130 2     1.0000     2.2068     4.4135     8.8271
131 2     1.0000     2.2068     6.6203    11.0338
132 2     1.0000     0.0000     4.4135    11.0338
133 2     1.0000     0.0000    11.0338     0.0000
134 2     1.0000     2.2068     8.8271     0.0000
135 2     1.0000     2.2068    11.0338     2.2068
136 2     1.0000     0.0000     8.8271     2.2068
137 2     1.0000     0.0000    11.0338     4.4135
138 2     1.0000     2.2068     8.8271     4.4135
139 2     1.0000     2.2068    11.0338     6.6203
140 2     1.0000     0.0000     8.8271     6.6203
141 2     1.0000     0.0000    11.0338     8.8271
142 2     1.0000     2.2068     8.8271     8.8271
143 2     1.0000     2.2068    11.0338    11.0338
144 2     1.0000     0.0000     8.8271    11.0338
145 2     1.0000     4.4135     2.2068     0.0000
146 2     1.0000     6.6203     0.0000     0.0000
147 2     1.0000     6.6203     2.2068     2.2068
148 2     1.0000     4.4135     0.0000     2.2068
149 2     1.0000     4.4135     2.2068     4.4135
150 2     1.0000     6.6203     0.0000     4.4135
151 2     1.0000     6.6203     2.2068     6.6203
152 2     1.0000     4.4135     0.0000     6.6203
153 2     1.0000     4.4135     2.2068     8.8271
154 2     1.0000     6.6203     0.0000     8.8271
155 2     1.0000     6.6203     2.2068    11.0338
156 2     1.0000     4.4135     0.0000    11.0338
157 2     1.0000     4.4135     6.6203     0.0000
158 2     1.0000     6.6203     4.4135     0.0000
159 2     1.0000     6.6203     6.6203     2.2068
160 2     1.0000     4.4135     4.4135     2.2068
161 2     1.0000     4.4135     6.6203     4.4135
162 2     1.0000     6.6203     4.4135     4.4135
163 2     1.0000     6.6203     6.6203     6.6203
164 2     1.0000     4.4135     4.4135     6.6203
165 2     1.0000     4.4135     6.6203     8.8271
166 2     1.0000     6.6203     4.4135     8.8271
167 2     1.0000     6.6203     6.6203    11.0338
168 2     1.0000     4.4135     4.4135    11.0338
169 2     1.0000     4.4135    11.0338     0.0000
170 2     1.0000     6.6203     8.8271     0.0000
171 2     1.0000     6.6203    11.0338     2.2068
172 2     1.0000     4.4135     8.8271     2.2068
173 2     1.0000     4.4135    11.0338     4.4135
174 2     1.0000     6.6203     8.8271     4.4135
175 2     1.0000     6.6203    11.0338     6.6203
176 2     1.0000     4.4135     8.8271     6.6203
177 2     1.0000     4.4135    11.0338     8.8271
178 2     1.0000     6.6203     8.8271     8.8271
179 2     1.0000     6.6203    11.0338    11.0338
180 2     1.0000     4.4135     8.8271    11.0338
181 2     1.0000     8.8271     2.2068     0.0000
182 2     1.0000    11.0338     0.0000     0.0000
183 2     1.0000    11.0338     2.2068     2.2068
184 2     1.0000     8.8271     0.0000     2.2068
185 2     1.0000     8.8271     2.2068     4.4135
186 2     1.0000    11.0338     0.0000     4.4135
187 2     1.0000    11.0338     2.2068     6.6203
188 2     1.0000     8.8271     0.0000     6.6203
189 2     1.0000     8.8271     2.2068     8.8271
190 2     1.0000    11.0338     0.0000     8.8271
191 2     1.0000    11.0338     2.2068    11.0338
192 2     1.0000     8.8271     0.0000    11.0338
193 2     1.0000     8.8271     6.6203     0.0000
194 2     1.0000    11.0338     4.4135     0.0000
195 2     1.0000    11.0338     6.6203     2.2068
196 2     1.0000     8.8271     4.4135     2.2068
197 2     1.0000     8.8271     6.6203     4.4135
198 2     1.0000    11.0338     4.4135     4.4135
199 2     1.0000    11.0338     6.6203     6.6203
200 2     1.0000     8.8271     4.4135     6.6203
201 2     1.0000     8.8271     6.6203     8.8271
202 2     1.0000    11.0338     4.4135     8.8271
203 2     1.0000    11.0338     6.6203    11.0338
204 2     1.0000     8.8271     4.4135    11.0338
205 2     1.0000     8.8271    11.0338     0.0000
206 2     1.0000    11.0338     8.8271     0.0000
207 2     1.0000    11.0338    11.0338     2.2068
208 2     1.0000     8.8271     8.8271     2.2068
209 2     1.0000     8.8271    11.0338     4.4135
210 2     1.0000    11.0338     8.8271     4.4135
211 2     1.0000    11.0338    11.0338     6.6203
212 2     1.0000     8.8271     8.8271     6.6203
213 2     1.0000     8.8271    11.0338     8.8271
214 2     1.0000    11.0338     8.8271     8.8271
215 2     1.0000    11.0338    11.0338    11.0338
216 2     1.0000     8.8271     8.8271    11.0338
