    2    2    1    2
  0.1090254E+02  0.2793739E-09  0.2793739E-09  0.2793739E-09  0.5000000E-15
  1.000000000000000E-004
  CAR 
 automatically generated by pyflamestk   
     20      4     16
 
  0.1250000E+00  0.1250000E+00  0.1250000E+00  0.1250000E+00
    1        1.277584      1.297239   1.000000   1.000000
    2        5.712150      5.411143   1.000000   1.000000
    3        5.712150      5.411143   1.000000   1.000000
    4        7.362513      6.787657   1.000000   1.000000
    5        7.362513      6.787657   1.000000   1.000000
    6        8.059885      7.455352   1.000000   1.000000
    7        8.535419      7.940579   1.000003   1.000000
    8        8.763937      8.306269   1.001673   1.000000
    9        8.763937      8.306269   1.001673   1.000000
   10        9.438060      8.790413  -0.019789   1.002884
   11        9.438060      8.790413  -0.019789   1.002884
   12       17.611899     17.520971   0.000000   0.000000
   13       17.611899     17.520971   0.000000   0.000000
   14       18.624410     18.523924   0.000000   0.000000
   15       27.876524     27.836971   0.000000   0.000000
   16       27.876524     27.836971   0.000000   0.000000
 
  0.3750000E+00  0.1250000E+00  0.1250000E+00  0.3750000E+00
    1        3.492326      3.476413   1.000000   1.000000
    2        5.757596      5.536725   1.000000   1.000000
    3        6.432808      6.081314   1.000000   1.000000
    4        7.130113      6.637143   1.000000   1.000000
    5        7.251338      6.701579   1.000000   1.000000
    6        7.599263      7.058714   1.000000   1.000000
    7        8.312572      7.827059   1.000000   1.000000
    8        8.482556      7.904706   1.000000   1.000000
    9        8.834080      8.223658   1.006443   1.000000
   10        9.188323      8.684643   0.737139   1.000257
   11        9.312336      8.728240   0.239510   1.000752
   12       11.750438     11.495485  -0.000000  -0.000000
   13       20.774534     20.650422   0.000000   0.000000
   14       21.266994     21.150777   0.000000   0.000000
   15       25.365594     25.291663   0.000000   0.000000
   16       26.145066     26.055166   0.000000   0.000000
 
  0.3750000E+00  0.3750000E+00  0.1250000E+00  0.3750000E+00
    1        4.778659      4.579431   1.000000   1.000000
    2        5.514872      5.176043   1.000000   1.000000
    3        6.668969      6.132576   1.000000   1.000000
    4        6.805377      6.279162   1.000000   1.000000
    5        7.368731      7.069032   1.000000   1.000000
    6        7.498409      7.177500   1.000000   1.000000
    7        8.642508      8.125728   1.000082   1.000000
    8        8.777618      8.271255   1.002229   1.000000
    9        8.962712      8.493999   1.030946   1.000001
   10        9.459610      8.862472  -0.030466   1.010169
   11       10.076266      9.532836  -0.000000  -0.030674
   12       12.285185     12.086156  -0.000000  -0.000000
   13       16.192631     15.927873   0.000000   0.000000
   14       19.335674     19.167318   0.000000   0.000000
   15       23.177902     23.092287   0.000000   0.000000
   16       26.919070     26.910668   0.000000   0.000000
 
  0.3750000E+00  0.3750000E+00  0.3750000E+00  0.1250000E+00
    1        6.164239      5.690649   1.000000   1.000000
    2        6.201077      5.938055   1.000000   1.000000
    3        6.491734      6.014790   1.000000   1.000000
    4        6.491734      6.014790   1.000000   1.000000
    5        6.729521      6.337119   1.000000   1.000000
    6        6.729521      6.337119   1.000000   1.000000
    7        8.966402      8.477031   1.031647   1.000000
    8        8.966402      8.477031   1.031647   1.000000
    9        8.981214      8.487423   1.034001   1.000001
   10        8.981214      8.487423   1.034001   1.000001
   11       12.392834     12.010654  -0.000000  -0.000000
   12       15.902240     15.706436   0.000000   0.000000
   13       15.902240     15.706436   0.000000   0.000000
   14       18.125660     17.949333   0.000000   0.000000
   15       20.878274     20.757843   0.000000   0.000000
   16       20.878274     20.757843   0.000000   0.000000
