# ['Ni']

107 atoms
1 atom types

    0.0000     9.9027 xlo xhi
    0.0000     9.9027 ylo yhi
    0.0000     9.9027 zlo zhi

    0.0000    -0.0000    -0.0000 xy xz yz

Atoms

1 1     1.6505     1.6505     0.0000
2 1     1.6505     0.0000     1.6505
3 1     0.0000     1.6505     1.6505
4 1     0.0000     0.0000     3.3009
5 1     1.6505     1.6505     3.3009
6 1     1.6505     0.0000     4.9514
7 1     0.0000     1.6505     4.9514
8 1     0.0000     0.0000     6.6018
9 1     1.6505     1.6505     6.6018
10 1     1.6505     0.0000     8.2523
11 1     0.0000     1.6505     8.2523
12 1     0.0000     3.3009     0.0000
13 1     1.6505     4.9514     0.0000
14 1     1.6505     3.3009     1.6505
15 1     0.0000     4.9514     1.6505
16 1     0.0000     3.3009     3.3009
17 1     1.6505     4.9514     3.3009
18 1     1.6505     3.3009     4.9514
19 1     0.0000     4.9514     4.9514
20 1     0.0000     3.3009     6.6018
21 1     1.6505     4.9514     6.6018
22 1     1.6505     3.3009     8.2523
23 1     0.0000     4.9514     8.2523
24 1     0.0000     6.6018     0.0000
25 1     1.6505     8.2523     0.0000
26 1     1.6505     6.6018     1.6505
27 1     0.0000     8.2523     1.6505
28 1     0.0000     6.6018     3.3009
29 1     1.6505     8.2523     3.3009
30 1     1.6505     6.6018     4.9514
31 1     0.0000     8.2523     4.9514
32 1     0.0000     6.6018     6.6018
33 1     1.6505     8.2523     6.6018
34 1     1.6505     6.6018     8.2523
35 1     0.0000     8.2523     8.2523
36 1     3.3009     0.0000     0.0000
37 1     4.9514     1.6505     0.0000
38 1     4.9514     0.0000     1.6505
39 1     3.3009     1.6505     1.6505
40 1     3.3009     0.0000     3.3009
41 1     4.9514     1.6505     3.3009
42 1     4.9514     0.0000     4.9514
43 1     3.3009     1.6505     4.9514
44 1     3.3009     0.0000     6.6018
45 1     4.9514     1.6505     6.6018
46 1     4.9514     0.0000     8.2523
47 1     3.3009     1.6505     8.2523
48 1     3.3009     3.3009     0.0000
49 1     4.9514     4.9514     0.0000
50 1     4.9514     3.3009     1.6505
51 1     3.3009     4.9514     1.6505
52 1     3.3009     3.3009     3.3009
53 1     4.9514     4.9514     3.3009
54 1     4.9514     3.3009     4.9514
55 1     3.3009     4.9514     4.9514
56 1     3.3009     3.3009     6.6018
57 1     4.9514     4.9514     6.6018
58 1     4.9514     3.3009     8.2523
59 1     3.3009     4.9514     8.2523
60 1     3.3009     6.6018     0.0000
61 1     4.9514     8.2523     0.0000
62 1     4.9514     6.6018     1.6505
63 1     3.3009     8.2523     1.6505
64 1     3.3009     6.6018     3.3009
65 1     4.9514     8.2523     3.3009
66 1     4.9514     6.6018     4.9514
67 1     3.3009     8.2523     4.9514
68 1     3.3009     6.6018     6.6018
69 1     4.9514     8.2523     6.6018
70 1     4.9514     6.6018     8.2523
71 1     3.3009     8.2523     8.2523
72 1     6.6018     0.0000     0.0000
73 1     8.2523     1.6505     0.0000
74 1     8.2523     0.0000     1.6505
75 1     6.6018     1.6505     1.6505
76 1     6.6018     0.0000     3.3009
77 1     8.2523     1.6505     3.3009
78 1     8.2523     0.0000     4.9514
79 1     6.6018     1.6505     4.9514
80 1     6.6018     0.0000     6.6018
81 1     8.2523     1.6505     6.6018
82 1     8.2523     0.0000     8.2523
83 1     6.6018     1.6505     8.2523
84 1     6.6018     3.3009     0.0000
85 1     8.2523     4.9514     0.0000
86 1     8.2523     3.3009     1.6505
87 1     6.6018     4.9514     1.6505
88 1     6.6018     3.3009     3.3009
89 1     8.2523     4.9514     3.3009
90 1     8.2523     3.3009     4.9514
91 1     6.6018     4.9514     4.9514
92 1     6.6018     3.3009     6.6018
93 1     8.2523     4.9514     6.6018
94 1     8.2523     3.3009     8.2523
95 1     6.6018     4.9514     8.2523
96 1     6.6018     6.6018     0.0000
97 1     8.2523     8.2523     0.0000
98 1     8.2523     6.6018     1.6505
99 1     6.6018     8.2523     1.6505
100 1     6.6018     6.6018     3.3009
101 1     8.2523     8.2523     3.3009
102 1     8.2523     6.6018     4.9514
103 1     6.6018     8.2523     4.9514
104 1     6.6018     6.6018     6.6018
105 1     8.2523     8.2523     6.6018
106 1     8.2523     6.6018     8.2523
107 1     6.6018     8.2523     8.2523
