# ['Mg', 'O']

40 atoms
2 atom types

    0.0000     4.2107 xlo xhi
    0.0000     4.2107 ylo yhi
    0.0000    42.1069 zlo zhi

    0.0000     0.0000     0.0000 xy xz yz

Atoms

1 1     1.0000     2.1053     2.1053     0.0000
2 1     1.0000     2.1053     0.0000     2.1053
3 1     1.0000     0.0000     0.0000     0.0000
4 1     1.0000     0.0000     2.1053     2.1053
5 1     1.0000     2.1053     2.1053     4.2107
6 1     1.0000     2.1053     0.0000     6.3160
7 1     1.0000     0.0000     0.0000     4.2107
8 1     1.0000     0.0000     2.1053     6.3160
9 1     1.0000     2.1053     2.1053     8.4214
10 1     1.0000     2.1053     0.0000    10.5267
11 1     1.0000     0.0000     0.0000     8.4214
12 1     1.0000     0.0000     2.1053    10.5267
13 1     1.0000     2.1053     2.1053    12.6321
14 1     1.0000     2.1053     0.0000    14.7374
15 1     1.0000     0.0000     0.0000    12.6321
16 1     1.0000     0.0000     2.1053    14.7374
17 1     1.0000     2.1053     2.1053    16.8428
18 1     1.0000     2.1053     0.0000    18.9481
19 1     1.0000     0.0000     0.0000    16.8428
20 1     1.0000     0.0000     2.1053    18.9481
21 2     1.0000     0.0000     2.1053     0.0000
22 2     1.0000     2.1053     0.0000     0.0000
23 2     1.0000     2.1053     2.1053     2.1053
24 2     1.0000     0.0000     0.0000     2.1053
25 2     1.0000     0.0000     2.1053     4.2107
26 2     1.0000     2.1053     0.0000     4.2107
27 2     1.0000     2.1053     2.1053     6.3160
28 2     1.0000     0.0000     0.0000     6.3160
29 2     1.0000     0.0000     2.1053     8.4214
30 2     1.0000     2.1053     0.0000     8.4214
31 2     1.0000     2.1053     2.1053    10.5267
32 2     1.0000     0.0000     0.0000    10.5267
33 2     1.0000     0.0000     2.1053    12.6321
34 2     1.0000     2.1053     0.0000    12.6321
35 2     1.0000     2.1053     2.1053    14.7374
36 2     1.0000     0.0000     0.0000    14.7374
37 2     1.0000     0.0000     2.1053    16.8428
38 2     1.0000     2.1053     0.0000    16.8428
39 2     1.0000     2.1053     2.1053    18.9481
40 2     1.0000     0.0000     0.0000    18.9481
