# ['Ni']

10 atoms
1 atom types

    0.0000     3.2967 xlo xhi
    0.0000     2.3599 ylo yhi
    0.0000    23.5989 zlo zhi

    0.0000     0.0000     0.0000 xy xz yz

Atoms

1 1     0.0000     0.0000     0.0000
2 1     1.6483     1.1799     1.1799
3 1     0.0000     0.0000     2.3599
4 1     1.6483     1.1799     3.5398
5 1     0.0000     0.0000     4.7198
6 1     1.6483     1.1799     5.8997
7 1     0.0000     0.0000     7.0797
8 1     1.6483     1.1799     8.2596
9 1     0.0000     0.0000     9.4396
10 1     1.6483     1.1799    10.6195
