# ['Ni']

107 atoms
1 atom types

    0.0000    10.6831 xlo xhi
    0.0000    10.6831 ylo yhi
    0.0000    10.6831 zlo zhi

    0.0000    -0.0000    -0.0000 xy xz yz

Atoms

1 1     1.7805     1.7805     0.0000
2 1     1.7805     0.0000     1.7805
3 1     0.0000     1.7805     1.7805
4 1     0.0000     0.0000     3.5610
5 1     1.7805     1.7805     3.5610
6 1     1.7805     0.0000     5.3416
7 1     0.0000     1.7805     5.3416
8 1     0.0000     0.0000     7.1221
9 1     1.7805     1.7805     7.1221
10 1     1.7805     0.0000     8.9026
11 1     0.0000     1.7805     8.9026
12 1     0.0000     3.5610     0.0000
13 1     1.7805     5.3416     0.0000
14 1     1.7805     3.5610     1.7805
15 1     0.0000     5.3416     1.7805
16 1     0.0000     3.5610     3.5610
17 1     1.7805     5.3416     3.5610
18 1     1.7805     3.5610     5.3416
19 1     0.0000     5.3416     5.3416
20 1     0.0000     3.5610     7.1221
21 1     1.7805     5.3416     7.1221
22 1     1.7805     3.5610     8.9026
23 1     0.0000     5.3416     8.9026
24 1     0.0000     7.1221     0.0000
25 1     1.7805     8.9026     0.0000
26 1     1.7805     7.1221     1.7805
27 1     0.0000     8.9026     1.7805
28 1     0.0000     7.1221     3.5610
29 1     1.7805     8.9026     3.5610
30 1     1.7805     7.1221     5.3416
31 1     0.0000     8.9026     5.3416
32 1     0.0000     7.1221     7.1221
33 1     1.7805     8.9026     7.1221
34 1     1.7805     7.1221     8.9026
35 1     0.0000     8.9026     8.9026
36 1     3.5610     0.0000     0.0000
37 1     5.3416     1.7805     0.0000
38 1     5.3416     0.0000     1.7805
39 1     3.5610     1.7805     1.7805
40 1     3.5610     0.0000     3.5610
41 1     5.3416     1.7805     3.5610
42 1     5.3416     0.0000     5.3416
43 1     3.5610     1.7805     5.3416
44 1     3.5610     0.0000     7.1221
45 1     5.3416     1.7805     7.1221
46 1     5.3416     0.0000     8.9026
47 1     3.5610     1.7805     8.9026
48 1     3.5610     3.5610     0.0000
49 1     5.3416     5.3416     0.0000
50 1     5.3416     3.5610     1.7805
51 1     3.5610     5.3416     1.7805
52 1     3.5610     3.5610     3.5610
53 1     5.3416     5.3416     3.5610
54 1     5.3416     3.5610     5.3416
55 1     3.5610     5.3416     5.3416
56 1     3.5610     3.5610     7.1221
57 1     5.3416     5.3416     7.1221
58 1     5.3416     3.5610     8.9026
59 1     3.5610     5.3416     8.9026
60 1     3.5610     7.1221     0.0000
61 1     5.3416     8.9026     0.0000
62 1     5.3416     7.1221     1.7805
63 1     3.5610     8.9026     1.7805
64 1     3.5610     7.1221     3.5610
65 1     5.3416     8.9026     3.5610
66 1     5.3416     7.1221     5.3416
67 1     3.5610     8.9026     5.3416
68 1     3.5610     7.1221     7.1221
69 1     5.3416     8.9026     7.1221
70 1     5.3416     7.1221     8.9026
71 1     3.5610     8.9026     8.9026
72 1     7.1221     0.0000     0.0000
73 1     8.9026     1.7805     0.0000
74 1     8.9026     0.0000     1.7805
75 1     7.1221     1.7805     1.7805
76 1     7.1221     0.0000     3.5610
77 1     8.9026     1.7805     3.5610
78 1     8.9026     0.0000     5.3416
79 1     7.1221     1.7805     5.3416
80 1     7.1221     0.0000     7.1221
81 1     8.9026     1.7805     7.1221
82 1     8.9026     0.0000     8.9026
83 1     7.1221     1.7805     8.9026
84 1     7.1221     3.5610     0.0000
85 1     8.9026     5.3416     0.0000
86 1     8.9026     3.5610     1.7805
87 1     7.1221     5.3416     1.7805
88 1     7.1221     3.5610     3.5610
89 1     8.9026     5.3416     3.5610
90 1     8.9026     3.5610     5.3416
91 1     7.1221     5.3416     5.3416
92 1     7.1221     3.5610     7.1221
93 1     8.9026     5.3416     7.1221
94 1     8.9026     3.5610     8.9026
95 1     7.1221     5.3416     8.9026
96 1     7.1221     7.1221     0.0000
97 1     8.9026     8.9026     0.0000
98 1     8.9026     7.1221     1.7805
99 1     7.1221     8.9026     1.7805
100 1     7.1221     7.1221     3.5610
101 1     8.9026     8.9026     3.5610
102 1     8.9026     7.1221     5.3416
103 1     7.1221     8.9026     5.3416
104 1     7.1221     7.1221     7.1221
105 1     8.9026     8.9026     7.1221
106 1     8.9026     7.1221     8.9026
107 1     7.1221     8.9026     8.9026
