    4    4    1    2
  0.1064635E+02  0.3492102E-09  0.3492102E-09  0.3492102E-09  0.5000000E-15
  1.000000000000000E-004
  CAR 
 automatically generated by pyflamestk   
     40      4     32
 
  0.1250000E+00  0.1250000E+00  0.1250000E+00  0.1250000E+00
    1        1.113400      1.125972   1.000000   1.000000
    2        5.504541      5.100959   1.000000   1.000000
    3        5.504541      5.100959   1.000000   1.000000
    4        5.504541      5.100959   1.000000   1.000000
    5        6.190281      5.549095   1.000000   1.000000
    6        6.190281      5.549095   1.000000   1.000000
    7        6.190281      5.549095   1.000000   1.000000
    8        7.784413      7.023425   1.000000   1.000000
    9        8.077360      7.291832   1.000000   1.000000
   10        8.077360      7.291832   1.000000   1.000000
   11        9.001888      8.313511   1.000007   1.000000
   12        9.001888      8.313511   1.000007   1.000000
   13        9.022470      8.340000   1.000013   1.000000
   14        9.022470      8.340000   1.000013   1.000000
   15        9.022470      8.340000   1.000013   1.000000
   16        9.525003      8.788490   0.993923   1.000000
   17        9.525003      8.788490   0.993923   1.000000
   18        9.525003      8.788490   0.993923   1.000000
   19        9.991785      9.138188  -0.026826   1.000353
   20        9.991785      9.138188  -0.026826   1.000353
   21        9.991785      9.138188  -0.026826   1.000353
   22       12.477278     12.215124  -0.000000  -0.000000
   23       12.477278     12.215124  -0.000000  -0.000000
   24       12.477278     12.215124  -0.000000  -0.000000
   25       20.803661     20.580000   0.000000   0.000000
   26       20.803661     20.580000   0.000000   0.000000
   27       20.803661     20.580000   0.000000   0.000000
   28       22.073833     21.950567   0.000000   0.000000
   29       22.073833     21.950567   0.000000   0.000000
   30       22.073833     21.950567   0.000000   0.000000
   31       25.688050     25.635286   0.000000   0.000000
   32       25.688050     25.635286   0.000000   0.000000
 
  0.3750000E+00  0.1250000E+00  0.1250000E+00  0.3750000E+00
    1        2.637688      2.634905   1.000000   1.000000
    2        4.849185      4.687098   1.000000   1.000000
    3        6.190521      5.734579   1.000000   1.000000
    4        6.190521      5.734579   1.000000   1.000000
    5        6.629437      5.982664   1.000000   1.000000
    6        6.629437      6.025980   1.000000   1.000000
    7        6.650401      6.025980   1.000000   1.000000
    8        7.322778      6.603703   1.000000   1.000000
    9        7.679507      7.046809   1.000000   1.000000
   10        7.679507      7.046809   1.000000   1.000000
   11        8.071102      7.476716   1.000000   1.000000
   12        8.200501      7.478937   1.000000   1.000000
   13        8.380469      7.604693   1.000000   1.000000
   14        8.873748      8.154717   1.000000   1.000000
   15        8.964109      8.194248   1.000002   1.000000
   16        9.047797      8.369859   1.000029   1.000000
   17        9.047797      8.369859   1.000029   1.000000
   18        9.330607      8.608549   1.014915   1.000000
   19        9.745029      8.971311   0.269648   1.000002
   20        9.914594      9.040550  -0.033973   1.000023
   21        9.914594      9.040550  -0.033973   1.000023
   22        9.925181      9.265954  -0.035205   1.005499
   23       14.808321     14.522602  -0.000000  -0.000000
   24       14.808321     14.522602  -0.000000  -0.000000
   25       18.086152     17.867593   0.000000   0.000000
   26       18.086152     17.867593   0.000000   0.000000
   27       21.799368     21.616166   0.000000   0.000000
   28       21.799368     21.616166   0.000000   0.000000
   29       23.890633     23.750057   0.000000   0.000000
   30       24.047567     23.921377   0.000000   0.000000
   31       24.047567     23.921377   0.000000   0.000000
   32       26.991884     26.867824   0.000000   0.000000
 
  0.3750000E+00  0.3750000E+00  0.1250000E+00  0.3750000E+00
    1        3.933976      3.867339   1.000000   1.000000
    2        5.662505      5.354409   1.000000   1.000000
    3        5.662505      5.354409   1.000000   1.000000
    4        6.279456      5.746098   1.000000   1.000000
    5        6.835250      6.374760   1.000000   1.000000
    6        6.995877      6.437973   1.000000   1.000000
    7        6.995877      6.437973   1.000000   1.000000
    8        7.317331      6.666746   1.000000   1.000000
    9        7.498465      6.845680   1.000000   1.000000
   10        7.498465      6.845680   1.000000   1.000000
   11        7.611384      6.976378   1.000000   1.000000
   12        7.951042      7.266140   1.000000   1.000000
   13        8.299598      7.580718   1.000000   1.000000
   14        8.632911      7.945111   1.000000   1.000000
   15        8.640898      7.945111   1.000000   1.000000
   16        8.640898      7.949571   1.000000   1.000000
   17        8.982139      8.223270   1.000004   1.000000
   18        9.531149      8.728134   0.986064   1.000000
   19        9.531149      8.728134   0.986064   1.000000
   20        9.615666      8.776908   0.785397   1.000000
   21        9.917093      9.170296  -0.034365   1.000771
   22       11.365492     10.802575  -0.000000  -0.000000
   23       11.365492     10.802575  -0.000000  -0.000000
   24       13.580988     13.235936  -0.000000  -0.000000
   25       17.103419     16.804076   0.000000   0.000000
   26       19.898089     19.674531   0.000000   0.000000
   27       19.898089     19.674531   0.000000   0.000000
   28       22.896524     22.711585   0.000000   0.000000
   29       23.004739     22.848921   0.000000   0.000000
   30       25.464870     25.347680   0.000000   0.000000
   31       25.464870     25.347680   0.000000   0.000000
   32       28.329821     28.238751   0.000000   0.000000
 
  0.3750000E+00  0.3750000E+00  0.3750000E+00  0.1250000E+00
    1        4.636179      4.370276   1.000000   1.000000
    2        5.483888      5.020316   1.000000   1.000000
    3        5.483888      5.020316   1.000000   1.000000
    4        5.483888      5.020316   1.000000   1.000000
    5        7.484437      6.919982   1.000000   1.000000
    6        7.484437      6.919982   1.000000   1.000000
    7        7.484437      6.919982   1.000000   1.000000
    8        7.961353      7.263360   1.000000   1.000000
    9        7.961353      7.263360   1.000000   1.000000
   10        8.014688      7.422694   1.000000   1.000000
   11        8.115876      7.422694   1.000000   1.000000
   12        8.115876      7.422694   1.000000   1.000000
   13        8.115876      7.606787   1.000000   1.000000
   14        8.134847      7.606787   1.000000   1.000000
   15        8.134847      7.606787   1.000000   1.000000
   16        8.134847      7.698259   1.000000   1.000000
   17        9.634887      8.839161   0.716624   1.000000
   18        9.634887      8.839161   0.716624   1.000000
   19        9.884049      9.064625  -0.022886   1.000048
   20        9.884049      9.064625  -0.022886   1.000048
   21        9.884049      9.064625  -0.022886   1.000048
   22       11.313134     10.913642  -0.000000  -0.000000
   23       11.313134     10.913642  -0.000000  -0.000000
   24       11.313134     10.913642  -0.000000  -0.000000
   25       16.491763     16.111147   0.000000   0.000000
   26       16.491763     16.111147   0.000000   0.000000
   27       16.491763     16.111147   0.000000   0.000000
   28       18.886478     18.603979   0.000000   0.000000
   29       29.350125     29.314391   0.000000   0.000000
   30       29.350125     29.314391   0.000000   0.000000
   31       29.350125     29.314391   0.000000   0.000000
   32       31.748936     31.645032   0.000000   0.000000
