LAMMPS (11 Aug 2017)
# ---- initialize simulations
clear
units metal
dimension 3
boundary p p p
atom_style atomic
atom_modify map array
# ---- create atoms
read_data /ufrc/phillpot/eragasa/pareto_optimization_3.5NN/rank_9/Ni_fcc_111_s.lmps_min_pos/lammps.structure
  triclinic box = (0 0 0) to (2.1404 3.7074 31.4528) with tilt (0 0 -0.0003)
  1 by 1 by 1 MPI processor grid
  reading atoms ...
  18 atoms
# ---- define interatomic potential
include potential.mod
mass 1 58.6934

group Ni type 1
18 atoms in group Ni

pair_style eam/alloy
pair_coeff * * /ufrc/phillpot/eragasa/pareto_optimization_3.5NN/rank_9/Ni_fcc_111_s.lmps_min_pos/Ni.eam.alloy Ni

neighbor 1.0 bin
neigh_modify every 1 delay 0 check yes
# ---- define settings
compute eng all pe/atom
compute eatoms all reduce sum c_eng

# ---- run minimization
reset_timestep 0
thermo 1
thermo_style custom step pe lx ly lz xy xz yz press pxx pyy pzz pxy pxz pyz c_eatoms
min_style cg
minimize 1e-20 1e-20 1000 100000
Neighbor list info ...
  update every 1 steps, delay 0 steps, check yes
  max neighbors/atom: 2000, page size: 100000
  master list distance cutoff = 5.64464
  ghost atom cutoff = 5.64464
  binsize = 2.82232, bins = 1 2 12
  1 neighbor lists, perpetual/occasional/extra = 1 0 0
  (1) pair eam/alloy, perpetual
      attributes: half, newton on
      pair build: half/bin/newton/tri
      stencil: half/bin/3d/newton/tri
      bin: standard
Per MPI rank memory allocation (min/avg/max) = 4.233 | 4.233 | 4.233 Mbytes
Step PotEng Lx Ly Lz Xy Xz Yz Press Pxx Pyy Pzz Pxy Pxz Pyz c_eatoms 
       0   -121.08398       2.1404       3.7074      31.4528            0            0      -0.0003   -6658.1627   -9306.4444   -9349.8249   -1318.2189 5.8796413e-12 9.2648894e-12    8.0878225   -121.08398 
       1   -121.08421       2.1404       3.7074      31.4528            0            0      -0.0003   -6699.3517   -9321.5017   -9364.7657   -1411.7876 -9.6212313e-12 8.9085475e-12    7.9901315   -121.08421 
       2   -121.08427       2.1404       3.7074      31.4528            0            0      -0.0003   -6466.3164    -9178.193    -9221.107   -999.64915 4.0979318e-12 6.0578123e-12    7.7077757   -121.08427 
       3   -121.08428       2.1404       3.7074      31.4528            0            0      -0.0003   -6374.5661   -9121.4194   -9164.1152   -838.16376 1.9598804e-12 5.3451285e-12    7.5292988   -121.08428 
       4   -121.08428       2.1404       3.7074      31.4528            0            0      -0.0003   -6241.5302   -9041.4633   -9083.6659   -599.46134 -4.6324447e-12 7.126838e-12    7.1220694   -121.08428 
       5    -121.0843       2.1404       3.7074      31.4528            0            0      -0.0003   -5907.4741   -8833.3992   -8873.5084   -15.514838 3.2427113e-11 2.7438326e-11    5.3822639    -121.0843 
       6    -121.0843       2.1404       3.7074      31.4528            0            0      -0.0003   -5903.4999   -8830.9653   -8871.0461   -8.4883145 -1.0512086e-11 3.2070771e-12     5.356962    -121.0843 
       7    -121.0843       2.1404       3.7074      31.4528            0            0      -0.0003   -5902.5603   -8830.3378   -8870.4031   -6.9398791 -2.6725642e-11 1.0333915e-11     5.341624    -121.0843 
       8    -121.0843       2.1404       3.7074      31.4528            0            0      -0.0003   -5900.8173   -8829.2732   -8869.3106   -3.8681953 7.6613508e-12 1.7817095e-12    5.3154332    -121.0843 
       9    -121.0843       2.1404       3.7074      31.4528            0            0      -0.0003   -5899.9014    -8828.748   -8868.7539   -2.2021708 -1.6213556e-11 1.9955146e-11     5.287136    -121.0843 
      10    -121.0843       2.1404       3.7074      31.4528            0            0      -0.0003   -5899.6128   -8828.6079   -8868.5225   -1.7080825 -1.2471966e-12 1.0333915e-11     5.206675    -121.0843 
      11    -121.0843       2.1404       3.7074      31.4528            0            0      -0.0003   -5898.7517   -8828.3549   -8867.7114  -0.18877084 -3.1358087e-11 1.9598804e-11    4.7214841    -121.0843 
      12    -121.0843       2.1404       3.7074      31.4528            0            0      -0.0003    -5897.902   -8828.1497   -8866.8487    1.2924461 2.4943933e-12 -2.6369301e-11    4.1539293    -121.0843 
      13    -121.0843       2.1404       3.7074      31.4528            0            0      -0.0003   -5897.2843   -8828.0466   -8866.2018    2.3955263 -3.3317968e-11 -2.244954e-11    3.6934254    -121.0843 
      14    -121.0843       2.1404       3.7074      31.4528            0            0      -0.0003   -5896.0829   -8828.1572   -8864.6204    4.5290213 -1.0690257e-11 2.1380514e-11    2.2671757    -121.0843 
      15    -121.0843       2.1404       3.7074      31.4528            0            0      -0.0003   -5896.2825   -8828.4934   -8864.4991    4.1450534 -5.0066037e-11 -7.4831799e-12    1.8816704    -121.0843 
      16    -121.0843       2.1404       3.7074      31.4528            0            0      -0.0003   -5896.8159   -8829.1041   -8864.5519    3.2082535 -1.9776975e-11 4.6324447e-12    1.4103514    -121.0843 
      17    -121.0843       2.1404       3.7074      31.4528            0            0      -0.0003   -5897.8348   -8830.2817   -8864.6363    1.4137004 -1.5500873e-11 1.1402941e-11   0.48622913    -121.0843 
      18    -121.0843       2.1404       3.7074      31.4528            0            0      -0.0003   -5897.9824   -8830.6167   -8864.4987    1.1683877 -7.126838e-12 2.1380514e-12  0.085994238    -121.0843 
      19    -121.0843       2.1404       3.7074      31.4528            0            0      -0.0003    -5898.105   -8830.7466   -8864.5156   0.94720245 -5.3451285e-13 -1.1402941e-11 -0.0099464109    -121.0843 
      20    -121.0843       2.1404       3.7074      31.4528            0            0      -0.0003   -5898.3406   -8830.9042   -8864.6435   0.52584955 6.4141542e-12 -1.9598804e-11 -0.035791295    -121.0843 
      21    -121.0843       2.1404       3.7074      31.4528            0            0      -0.0003   -5898.4446    -8830.974   -8864.7079   0.34823183 -1.6035385e-12 -4.6324447e-12 -0.040977284    -121.0843 
      22    -121.0843       2.1404       3.7074      31.4528            0            0      -0.0003    -5898.485   -8830.9958   -8864.7361   0.27686488 1.0512086e-11 4.2404686e-11 -0.036040648    -121.0843 
      23    -121.0843       2.1404       3.7074      31.4528            0            0      -0.0003   -5898.5668   -8831.0337   -8864.7995   0.13296098 1.7460753e-11 1.1402941e-11 -0.015403044    -121.0843 
      24    -121.0843       2.1404       3.7074      31.4528            0            0      -0.0003   -5898.6149   -8831.0553   -8864.8371  0.047508918 1.9776975e-11 6.7704961e-12 -0.002277993    -121.0843 
      25    -121.0843       2.1404       3.7074      31.4528            0            0      -0.0003   -5898.6206    -8831.058   -8864.8421  0.038439853 -7.2337406e-11 4.2761028e-12 -0.0003182379    -121.0843 
      26    -121.0843       2.1404       3.7074      31.4528            0            0      -0.0003   -5898.6354   -8831.0675   -8864.8514  0.012662701 -2.2805882e-11 2.8507352e-12 -0.00029794727    -121.0843 
      27    -121.0843       2.1404       3.7074      31.4528            0            0      -0.0003   -5898.6418   -8831.0713    -8864.855 0.0009844739 1.7638924e-11 -1.3540992e-11 -0.00040136419    -121.0843 
      28    -121.0843       2.1404       3.7074      31.4528            0            0      -0.0003    -5898.642   -8831.0714   -8864.8551 0.00061445071 1.0690257e-11 3.9197609e-12 -0.00043037264    -121.0843 
      29    -121.0843       2.1404       3.7074      31.4528            0            0      -0.0003   -5898.6408   -8831.0707   -8864.8544 0.0026254843 -1.9598804e-12 2.3162223e-11 -0.0004443386    -121.0843 
      30    -121.0843       2.1404       3.7074      31.4528            0            0      -0.0003   -5898.6408   -8831.0707   -8864.8544 0.0027348602 -2.3162223e-11 -9.6212313e-12 -0.00044203688    -121.0843 
      31    -121.0843       2.1404       3.7074      31.4528            0            0      -0.0003   -5898.6413    -8831.071   -8864.8547 0.0018886651 5.5232994e-12 1.2828308e-11 -0.00041648109    -121.0843 
      32    -121.0843       2.1404       3.7074      31.4528            0            0      -0.0003   -5898.6422   -8831.0716   -8864.8553 0.00020428965 3.1358087e-11 5.4163969e-11 -0.00037365317    -121.0843 
      33    -121.0843       2.1404       3.7074      31.4528            0            0      -0.0003   -5898.6424   -8831.0716   -8864.8554 -8.5582899e-05 -8.9085475e-13 1.4253676e-12 -0.00036351225    -121.0843 
      34    -121.0843       2.1404       3.7074      31.4528            0            0      -0.0003   -5898.6424   -8831.0716   -8864.8554 -8.6202928e-05 -4.6324447e-12 1.3897334e-11 -0.00035769501    -121.0843 
      35    -121.0843       2.1404       3.7074      31.4528            0            0      -0.0003   -5898.6424   -8831.0716   -8864.8554 -3.8217261e-05 -3.5456019e-11 6.0578123e-12 -0.00034958182    -121.0843 
      36    -121.0843       2.1404       3.7074      31.4528            0            0      -0.0003   -5898.6423   -8831.0716   -8864.8554 -1.0542965e-05 -2.0846001e-11 2.6369301e-11 -0.00031977902    -121.0843 
      37    -121.0843       2.1404       3.7074      31.4528            0            0      -0.0003   -5898.6423   -8831.0716   -8864.8555 -1.5270077e-06 -6.7883132e-11 -5.3807627e-11 -0.0002563861    -121.0843 
      38    -121.0843       2.1404       3.7074      31.4528            0            0      -0.0003   -5898.6424   -8831.0714   -8864.8556 -4.8203535e-05 4.6502618e-11 2.8863694e-11 -3.1681834e-05    -121.0843 
      39    -121.0843       2.1404       3.7074      31.4528            0            0      -0.0003   -5898.6424   -8831.0714   -8864.8556 -4.9437567e-05 1.0868428e-11 3.2070771e-12 -1.4177689e-05    -121.0843 
      40    -121.0843       2.1404       3.7074      31.4528            0            0      -0.0003   -5898.6424   -8831.0714   -8864.8556 -2.4417074e-05 2.4231249e-11 -2.4943933e-12 -8.19757e-06    -121.0843 
      41    -121.0843       2.1404       3.7074      31.4528            0            0      -0.0003   -5898.6424   -8831.0714   -8864.8556 -1.5721827e-05 1.7638924e-11 -1.2115625e-11 2.0451014e-07    -121.0843 
      42    -121.0843       2.1404       3.7074      31.4528            0            0      -0.0003   -5898.6424   -8831.0714   -8864.8556 -1.6140352e-05 1.7817095e-13 -2.5300275e-11 5.3842085e-07    -121.0843 
      43    -121.0843       2.1404       3.7074      31.4528            0            0      -0.0003   -5898.6424   -8831.0714   -8864.8556 -1.8435784e-05 -1.8886121e-11 -3.9553951e-11 5.8922933e-07    -121.0843 
      44    -121.0843       2.1404       3.7074      31.4528            0            0      -0.0003   -5898.6424   -8831.0714   -8864.8556 -1.6380915e-05 -4.0444806e-11 -9.6212313e-12 4.5056778e-07    -121.0843 
      45    -121.0843       2.1404       3.7074      31.4528            0            0      -0.0003   -5898.6423   -8831.0714   -8864.8556 -9.2106513e-06 2.3874907e-11 1.0690257e-12 6.1049207e-08    -121.0843 
      46    -121.0843       2.1404       3.7074      31.4528            0            0      -0.0003   -5898.6423   -8831.0714   -8864.8556 -7.4883397e-06 -3.563419e-11 -1.0333915e-11 -7.649253e-08    -121.0843 
      47    -121.0843       2.1404       3.7074      31.4528            0            0      -0.0003   -5898.6423   -8831.0714   -8864.8556 -4.0061838e-06 2.1736856e-11 -2.3162223e-11 -1.2618316e-07    -121.0843 
      48    -121.0843       2.1404       3.7074      31.4528            0            0      -0.0003   -5898.6423   -8831.0714   -8864.8556 -2.2200613e-06 4.4542737e-11 2.4587591e-11 -1.2054316e-07    -121.0843 
      49    -121.0843       2.1404       3.7074      31.4528            0            0      -0.0003   -5898.6423   -8831.0714   -8864.8556 -1.0017854e-06 2.5656617e-11 8.5522056e-12 -8.6305473e-08    -121.0843 
      50    -121.0843       2.1404       3.7074      31.4528            0            0      -0.0003   -5898.6423   -8831.0714   -8864.8556 -4.8326803e-07 -2.5300275e-11 3.2070771e-12 -4.870392e-08    -121.0843 
      51    -121.0843       2.1404       3.7074      31.4528            0            0      -0.0003   -5898.6423   -8831.0714   -8864.8556 -9.9014585e-08 -2.6369301e-11 -2.4943933e-12 -1.1221385e-08    -121.0843 
      52    -121.0843       2.1404       3.7074      31.4528            0            0      -0.0003   -5898.6423   -8831.0714   -8864.8556 -4.3844307e-08 2.1915027e-11 -2.4943933e-12 -6.269123e-09    -121.0843 
      53    -121.0843       2.1404       3.7074      31.4528            0            0      -0.0003   -5898.6423   -8831.0714   -8864.8556 -6.2992696e-08 6.948667e-12 4.9887866e-12 4.0460841e-09    -121.0843 
      54    -121.0843       2.1404       3.7074      31.4528            0            0      -0.0003   -5898.6423   -8831.0714   -8864.8556 -5.7185748e-08 -2.7972839e-11 -5.1669575e-11 5.4527437e-09    -121.0843 
      55    -121.0843       2.1404       3.7074      31.4528            0            0      -0.0003   -5898.6423   -8831.0714   -8864.8556 -4.8756124e-08 -2.8863694e-11 -1.7817095e-12 1.1765697e-08    -121.0843 
      56    -121.0843       2.1404       3.7074      31.4528            0            0      -0.0003   -5898.6423   -8831.0714   -8864.8556 -7.9678049e-09 9.7994022e-12 -1.496636e-11 2.2192439e-08    -121.0843 
      57    -121.0843       2.1404       3.7074      31.4528            0            0      -0.0003   -5898.6423   -8831.0714   -8864.8556 -1.3655022e-09 -1.9776975e-11 1.9598804e-11 2.5131903e-08    -121.0843 
      58    -121.0843       2.1404       3.7074      31.4528            0            0      -0.0003   -5898.6423   -8831.0714   -8864.8556 -1.2702876e-08 8.0176927e-12 3.1001745e-11 2.6754328e-08    -121.0843 
      59    -121.0843       2.1404       3.7074      31.4528            0            0      -0.0003   -5898.6423   -8831.0714   -8864.8556 -1.4239422e-08 -2.066783e-11 3.4208822e-11 2.6870495e-08    -121.0843 
      60    -121.0843       2.1404       3.7074      31.4528            0            0      -0.0003   -5898.6423   -8831.0714   -8864.8556 -5.7841417e-09 -3.7059558e-11 -6.1290807e-11 2.5671761e-08    -121.0843 
      61    -121.0843       2.1404       3.7074      31.4528            0            0      -0.0003   -5898.6423   -8831.0714   -8864.8556 -2.4174234e-09 -1.9064292e-11 1.2115625e-11 2.4671688e-08    -121.0843 
      62    -121.0843       2.1404       3.7074      31.4528            0            0      -0.0003   -5898.6423   -8831.0714   -8864.8556 6.3656917e-09 -6.5210568e-11 6.7704961e-12 2.0414649e-08    -121.0843 
Loop time of 0.025362 on 1 procs for 62 steps with 18 atoms

22.3% CPU use with 1 MPI tasks x no OpenMP threads

Minimization stats:
  Stopping criterion = energy tolerance
  Energy initial, next-to-last, final = 
        -121.083975628     -121.084304816     -121.084304816
  Force two-norm initial, final = 0.110005 6.90704e-13
  Force max component initial, final = 0.0403254 2.76695e-13
  Final line search alpha, max atom move = 1 2.76695e-13
  Iterations, force evaluations = 62 124

MPI task timing breakdown:
Section |  min time  |  avg time  |  max time  |%varavg| %total
---------------------------------------------------------------
Pair    | 0.0046778  | 0.0046778  | 0.0046778  |   0.0 | 18.44
Neigh   | 0          | 0          | 0          |   0.0 |  0.00
Comm    | 0.00040245 | 0.00040245 | 0.00040245 |   0.0 |  1.59
Output  | 0.020108   | 0.020108   | 0.020108   |   0.0 | 79.28
Modify  | 0          | 0          | 0          |   0.0 |  0.00
Other   |            | 0.000174   |            |       |  0.69

Nlocal:    18 ave 18 max 18 min
Histogram: 1 0 0 0 0 0 0 0 0 0
Nghost:    693 ave 693 max 693 min
Histogram: 1 0 0 0 0 0 0 0 0 0
Neighs:    678 ave 678 max 678 min
Histogram: 1 0 0 0 0 0 0 0 0 0

Total # of neighbors = 678
Ave neighs/atom = 37.6667
Neighbor list builds = 0
Dangerous builds = 0

# ---- define output variables ----
variable natoms equal "count(all)"
variable tot_energy equal "c_eatoms"
variable a11 equal "xhi-xlo"
variable a22 equal "yhi-ylo"
variable a33 equal "zhi-zlo"
variable tilt_xy equal "xy"
variable tilt_xz equal "xz"
variable tilt_yz equal "yz"
variable tot_press equal "press"
variable press_xx equal "pxx"
variable press_yy equal "pyy"
variable press_zz equal "pzz"
variable press_xy equal "pxy"
variable press_xz equal "pxz"
variable press_yz equal "pyz"

# ---- output ----
print "pypospack:output_section:begin"
pypospack:output_section:begin
print "tot_energy = ${tot_energy}"
tot_energy = -121.084304816151
print "num_atoms = ${natoms}"
num_atoms = 18
print "a11 = ${a11}"
a11 = 2.1404
print "a22 = ${a22}"
a22 = 3.7074
print "a33 = ${a33}"
a33 = 31.4528
print "a12 = ${tilt_xy}"
a12 = 0
print "a13 = ${tilt_xz}"
a13 = 0
print "a23 = ${tilt_yz}"
a23 = -0.0003
print "tot_press = ${tot_press}"
tot_press = -5898.64234308863
print "pxx = ${press_xx}"
pxx = -8831.07140448298
print "pyy = ${press_yy}"
pyy = -8864.85562478928
print "pzz = ${press_zz}"
pzz = 6.36569168639145e-09
print "pxy = ${press_xy}"
pxy = -6.52105675442026e-11
print "pxz = ${press_xz}"
pxz = 6.77049608382431e-12
print "pyz = ${press_yz}"
pyz = 2.04146492312765e-08
print "pypospack:output_section:done"
pypospack:output_section:done
print "pypospack:lammps_sim:done"
pypospack:lammps_sim:done
Total wall time: 0:00:00
