 vasp.5.4.1 24Jun15 (build Jun 05 2017 10:38:15) complex                        
  
 executed on           IFC91_ompi date 2017.10.17  23:10:29
 running on   16 total cores
 distrk:  each k-point on   16 cores,    1 groups
 distr:  one band on NCORES_PER_BAND=   1 cores,   16 groups


--------------------------------------------------------------------------------------------------------


 INCAR:
 POTCAR:    PAW_PBE O_h 06Feb2004                 
 POTCAR:    PAW_PBE Mg 13Apr2007                  

 ----------------------------------------------------------------------------- 
|                                                                             |
|           W    W    AA    RRRRR   N    N  II  N    N   GGGG   !!!           |
|           W    W   A  A   R    R  NN   N  II  NN   N  G    G  !!!           |
|           W    W  A    A  R    R  N N  N  II  N N  N  G       !!!           |
|           W WW W  AAAAAA  RRRRR   N  N N  II  N  N N  G  GGG   !            |
|           WW  WW  A    A  R   R   N   NN  II  N   NN  G    G                |
|           W    W  A    A  R    R  N    N  II  N    N   GGGG   !!!           |
|                                                                             |
|      For optimal performance we recommend to set                            |
|        NCORE= 4 - approx SQRT( number of cores)                             |
|      NCORE specifies how many cores store one orbital (NPAR=cpu/NCORE).     |
|      This setting can  greatly improve the performance of VASP for DFT.     |
|      The default, NPAR=number of cores might be grossly inefficient         |
|      on modern multi-core architectures or massively parallel machines.     |
|      Do your own testing !!!!                                               |
|      Unfortunately you need to use the default for GW and RPA calculations. |
|      (for HF NCORE is supported but not extensively tested yet)             |
|                                                                             |
 ----------------------------------------------------------------------------- 

 POTCAR:    PAW_PBE O_h 06Feb2004                 
   VRHFIN =O: s2p4                                                              
   LEXCH  = PE                                                                  
   EATOM  =   432.3788 eV,   31.7789 Ry                                         
                                                                                
   TITEL  = PAW_PBE O_h 06Feb2004                                               
   LULTRA =        F    use ultrasoft PP ?                                      
   IUNSCR =        1    unscreen: 0-lin 1-nonlin 2-no                           
   RPACOR =     .800    partial core radius                                     
   POMASS =   16.000; ZVAL   =    6.000    mass and valenz                      
   RCORE  =    1.100    outmost cutoff radius                                   
   RWIGS  =    1.400; RWIGS  =     .741    wigner-seitz radius (au A)           
   ENMAX  =  700.000; ENMIN  =  500.000 eV                                      
   ICORE  =        2    local potential                                         
   LCOR   =        T    correct aug charges                                     
   LPAW   =        T    paw PP                                                  
   EAUG   =  888.804                                                            
   DEXC   =     .000                                                            
   RMAX   =    1.666    core radius for proj-oper                               
   RAUG   =    1.300    factor for augmentation sphere                          
   RDEP   =    1.125    radius for radial grids                                 
   QCUT   =   -7.501; QGAM   =   15.002    optimization parameters              
                                                                                
   Description                                                                  
     l     E      TYP  RCUT    TYP  RCUT                                        
     0   .000     23  1.100                                                     
     0   .000     23  1.100                                                     
     1   .000     23  1.100                                                     
     1   .000     23  1.100                                                     
     2   .000      7  1.100                                                     
  local pseudopotential read in
  partial core-charges read in
  atomic valenz-charges read in
  non local Contribution for L=           0  read in
    real space projection operators read in
  non local Contribution for L=           0  read in
    real space projection operators read in
  non local Contribution for L=           1  read in
    real space projection operators read in
  non local Contribution for L=           1  read in
    real space projection operators read in
    PAW grid and wavefunctions read in
 
   number of l-projection  operators is LMAX  =           4
   number of lm-projection operators is LMMAX =           8
 
 POTCAR:    PAW_PBE Mg 13Apr2007                  
   VRHFIN =Mg: s2p0                                                             
   LEXCH  = PE                                                                  
   EATOM  =    23.0369 eV,    1.6932 Ry                                         
                                                                                
   TITEL  = PAW_PBE Mg 13Apr2007                                                
   LULTRA =        F    use ultrasoft PP ?                                      
   IUNSCR =        1    unscreen: 0-lin 1-nonlin 2-no                           
   RPACOR =    1.500    partial core radius                                     
   POMASS =   24.305; ZVAL   =    2.000    mass and valenz                      
   RCORE  =    2.000    outmost cutoff radius                                   
   RWIGS  =    2.880; RWIGS  =    1.524    wigner-seitz radius (au A)           
   ENMAX  =  126.143; ENMIN  =   94.607 eV                                      
   RCLOC  =    1.506    cutoff for local pot                                    
   LCOR   =        T    correct aug charges                                     
   LPAW   =        T    paw PP                                                  
   EAUG   =  454.734                                                            
   DEXC   =     .000                                                            
   RMAX   =    4.105    core radius for proj-oper                               
   RAUG   =    1.300    factor for augmentation sphere                          
   RDEP   =    2.025    radius for radial grids                                 
   QCUT   =   -3.045; QGAM   =    6.090    optimization parameters              
                                                                                
   Description                                                                  
     l     E      TYP  RCUT    TYP  RCUT                                        
     0   .000     23  2.000                                                     
     0  2.000     23  2.000                                                     
     1   .100     23  2.000                                                     
     1  2.000     23  2.000                                                     
     2   .000     23  2.000                                                     
  local pseudopotential read in
  partial core-charges read in
  atomic valenz-charges read in
  non local Contribution for L=           0  read in
    real space projection operators read in
  non local Contribution for L=           0  read in
    real space projection operators read in
  non local Contribution for L=           1  read in
    real space projection operators read in
  non local Contribution for L=           1  read in
    real space projection operators read in
  non local Contribution for L=           2  read in
    real space projection operators read in
    PAW grid and wavefunctions read in
 
   number of l-projection  operators is LMAX  =           5
   number of lm-projection operators is LMMAX =          13
 
  PAW_PBE O_h 06Feb2004                 :
 energy of atom  1       EATOM= -432.3788
 kinetic energy error for atom=    0.0170 (will be added to EATOM!!)
  PAW_PBE Mg 13Apr2007                  :
 energy of atom  2       EATOM=  -23.0369
 kinetic energy error for atom=    0.0000 (will be added to EATOM!!)
 
 
 POSCAR: Mg1 O1                                  
  positions in direct lattice
  No initial velocities read in
 exchange correlation table for  LEXCH =        8
   RHO(1)=    0.500       N(1)  =     2000
   RHO(2)=  100.500       N(2)  =     4000
 


--------------------------------------------------------------------------------------------------------


 ion  position               nearest neighbor table
   1  0.500  0.500  0.500-   2 2.13   2 2.13   2 2.13   2 2.13   2 2.13   2 2.13
   2  0.000  0.000  0.000-   1 2.13   1 2.13   1 2.13   1 2.13   1 2.13   1 2.13
 
  LATTYP: Found a face centered cubic cell.
 ALAT       =     4.2564834762
  
  Lattice vectors:
  
 A1 = (   3.0097880000,   0.0000000000,   0.0000000000)
 A2 = (   1.5048940000,   2.6065530000,   0.0000000000)
 A3 = (   1.5048940000,   0.8688510000,   2.4574820000)


Analysis of symmetry for initial positions (statically):
=====================================================================
 Subroutine PRICEL returns:
 Original cell was already a primitive cell.
 

 Routine SETGRP: Setting up the symmetry group for a 
 face centered cubic supercell.


 Subroutine GETGRP returns: Found 48 space group operations
 (whereof 48 operations were pure point group operations)
 out of a pool of 48 trial point group operations.


The static configuration has the point symmetry O_h .


Analysis of symmetry for dynamics (positions and initial velocities):
=====================================================================
 Subroutine PRICEL returns:
 Original cell was already a primitive cell.
 

 Routine SETGRP: Setting up the symmetry group for a 
 face centered cubic supercell.


 Subroutine GETGRP returns: Found 48 space group operations
 (whereof 48 operations were pure point group operations)
 out of a pool of 48 trial point group operations.


The dynamic configuration has the point symmetry O_h .


 Subroutine INISYM returns: Found 48 space group operations
 (whereof 48 operations are pure point group operations),
 and found     1 'primitive' translations

 
 
 KPOINTS: Automatic Mesh                          

Automatic generation of k-mesh.
Space group operators:
 irot       det(A)        alpha          n_x          n_y          n_z        tau_x        tau_y        tau_z
    1     1.000000     0.000000     1.000000     0.000000     0.000000     0.000000     0.000000     0.000000
    2    -1.000000     0.000000     1.000000     0.000000     0.000000     0.000000     0.000000     0.000000
    3     1.000000   120.000000    -0.816497    -0.471404    -0.333333     0.000000     0.000000     0.000000
    4    -1.000000   120.000000    -0.816497    -0.471404    -0.333333     0.000000     0.000000     0.000000
    5     1.000000   120.000000     0.816497     0.471405     0.333333     0.000000     0.000000     0.000000
    6    -1.000000   120.000000     0.816497     0.471405     0.333333     0.000000     0.000000     0.000000
    7     1.000000    90.000000    -0.707107    -0.408248     0.577350     0.000000     0.000000     0.000000
    8    -1.000000    90.000000    -0.707107    -0.408248     0.577350     0.000000     0.000000     0.000000
    9     1.000000   180.000000     1.000000    -0.000000     0.000000     0.000000     0.000000     0.000000
   10    -1.000000   180.000000     1.000000    -0.000000     0.000000     0.000000     0.000000     0.000000
   11     1.000000    90.000000     0.707107    -0.408248     0.577350     0.000000     0.000000     0.000000
   12    -1.000000    90.000000     0.707107    -0.408248     0.577350     0.000000     0.000000     0.000000
   13     1.000000   180.000000     0.707107     0.408248    -0.577350     0.000000     0.000000     0.000000
   14    -1.000000   180.000000     0.707107     0.408248    -0.577350     0.000000     0.000000     0.000000
   15     1.000000   120.000000     0.816497    -0.471405    -0.333333     0.000000     0.000000     0.000000
   16    -1.000000   120.000000     0.816497    -0.471405    -0.333333     0.000000     0.000000     0.000000
   17     1.000000   120.000000     0.000000    -0.942809     0.333333     0.000000     0.000000     0.000000
   18    -1.000000   120.000000     0.000000    -0.942809     0.333333     0.000000     0.000000     0.000000
   19     1.000000    90.000000     0.707107     0.408248    -0.577350     0.000000     0.000000     0.000000
   20    -1.000000    90.000000     0.707107     0.408248    -0.577350     0.000000     0.000000     0.000000
   21     1.000000    90.000000    -0.000000    -0.816497    -0.577350     0.000000     0.000000     0.000000
   22    -1.000000    90.000000    -0.000000    -0.816497    -0.577350     0.000000     0.000000     0.000000
   23     1.000000   180.000000     0.500000     0.866025    -0.000000     0.000000     0.000000     0.000000
   24    -1.000000   180.000000     0.500000     0.866025    -0.000000     0.000000     0.000000     0.000000
   25     1.000000   120.000000     0.000000     0.942809    -0.333333     0.000000     0.000000     0.000000
   26    -1.000000   120.000000     0.000000     0.942809    -0.333333     0.000000     0.000000     0.000000
   27     1.000000   120.000000     0.000000     0.000000    -1.000000     0.000000     0.000000     0.000000
   28    -1.000000   120.000000     0.000000     0.000000    -1.000000     0.000000     0.000000     0.000000
   29     1.000000   180.000000     0.000000    -0.816497    -0.577350     0.000000     0.000000     0.000000
   30    -1.000000   180.000000     0.000000    -0.816497    -0.577350     0.000000     0.000000     0.000000
   31     1.000000    90.000000    -0.707107     0.408248    -0.577350     0.000000     0.000000     0.000000
   32    -1.000000    90.000000    -0.707107     0.408248    -0.577350     0.000000     0.000000     0.000000
   33     1.000000   180.000000     0.500000     0.288675     0.816497     0.000000     0.000000     0.000000
   34    -1.000000   180.000000     0.500000     0.288675     0.816497     0.000000     0.000000     0.000000
   35     1.000000    90.000000    -0.000000     0.816497     0.577350     0.000000     0.000000     0.000000
   36    -1.000000    90.000000    -0.000000     0.816497     0.577350     0.000000     0.000000     0.000000
   37     1.000000   120.000000    -0.816497     0.471404     0.333333     0.000000     0.000000     0.000000
   38    -1.000000   120.000000    -0.816497     0.471404     0.333333     0.000000     0.000000     0.000000
   39     1.000000   180.000000    -0.707107     0.408248    -0.577350     0.000000     0.000000     0.000000
   40    -1.000000   180.000000    -0.707107     0.408248    -0.577350     0.000000     0.000000     0.000000
   41     1.000000   120.000000     0.000000     0.000000     1.000000     0.000000     0.000000     0.000000
   42    -1.000000   120.000000     0.000000     0.000000     1.000000     0.000000     0.000000     0.000000
   43     1.000000   180.000000     0.000000    -0.577350     0.816497     0.000000     0.000000     0.000000
   44    -1.000000   180.000000     0.000000    -0.577350     0.816497     0.000000     0.000000     0.000000
   45     1.000000   180.000000    -0.500000     0.866025    -0.000000     0.000000     0.000000     0.000000
   46    -1.000000   180.000000    -0.500000     0.866025    -0.000000     0.000000     0.000000     0.000000
   47     1.000000   180.000000    -0.500000     0.288675     0.816497     0.000000     0.000000     0.000000
   48    -1.000000   180.000000    -0.500000     0.288675     0.816497     0.000000     0.000000     0.000000
 
 Subroutine IBZKPT returns following result:
 ===========================================
 
 Found     10 irreducible k-points:
 
 Following reciprocal coordinates:
            Coordinates               Weight
  0.125000  0.125000  0.125000     96.000000
  0.375000  0.125000  0.125000    288.000000
 -0.375000  0.125000  0.125000    288.000000
 -0.125000  0.125000  0.125000    288.000000
  0.375000  0.375000  0.125000    288.000000
 -0.375000  0.375000  0.125000    576.000000
 -0.125000  0.375000  0.125000    576.000000
 -0.375000 -0.375000  0.125000    288.000000
  0.375000  0.375000  0.375000     96.000000
 -0.375000  0.375000  0.375000    288.000000
 
 Following cartesian coordinates:
            Coordinates               Weight
  0.041531  0.023978  0.016955     96.000000
  0.124593 -0.023978 -0.016955    288.000000
 -0.124593  0.119890  0.084775    288.000000
 -0.041531  0.071934  0.050865    288.000000
  0.124593  0.071934 -0.050865    288.000000
 -0.124593  0.215802  0.050865    576.000000
 -0.041531  0.167846  0.016955    576.000000
 -0.124593 -0.071934  0.152595    288.000000
  0.124593  0.071934  0.050865     96.000000
 -0.124593  0.215802  0.152595    288.000000
 


--------------------------------------------------------------------------------------------------------




 Dimension of arrays:
   k-points           NKPTS =     10   k-points in BZ     NKDIM =     10   number of bands    NBANDS=     16
   number of dos      NEDOS =    301   number of ions     NIONS =      2
   non local maximal  LDIM  =      5   non local SUM 2l+1 LMDIM =     13
   total plane-waves  NPLWV =  32768
   max r-space proj   IRMAX =      1   max aug-charges    IRDMAX=  17825
   dimension x,y,z NGX =    32 NGY =   32 NGZ =   32
   dimension x,y,z NGXF=    40 NGYF=   40 NGZF=   40
   support grid    NGXF=    40 NGYF=   40 NGZF=   40
   ions per type =               1   1
 NGX,Y,Z   is equivalent  to a cutoff of  17.68, 17.68, 17.68 a.u.
 NGXF,Y,Z  is equivalent  to a cutoff of  22.09, 22.09, 22.09 a.u.


 I would recommend the setting:
   dimension x,y,z NGX =    31 NGY =   31 NGZ =   31
 SYSTEM =  automatically generated by pyflamestk   
 POSCAR =  Mg1 O1                                  

 Startparameter for this run:
   NWRITE =      2    write-flag & timer
   PREC   = high      normal or accurate (medium, high low for compatibility)
   ISTART =      0    job   : 0-new  1-cont  2-samecut
   ICHARG =      0    charge: 1-file 2-atom 10-const
   ISPIN  =      1    spin polarized calculation?
   LNONCOLLINEAR =      F non collinear calculations
   LSORBIT =      F    spin-orbit coupling
   INIWAV =      1    electr: 0-lowe 1-rand  2-diag
   LASPH  =      F    aspherical Exc in radial PAW
   METAGGA=      F    non-selfconsistent MetaGGA calc.

 Electronic Relaxation 1
   ENCUT  = 1025.0 eV  75.34 Ry    8.68 a.u.   7.86  7.86  7.86*2*pi/ulx,y,z
   ENINI  = 1025.0     initial cutoff
   ENAUG  =  888.8 eV  augmentation charge cutoff
   NELM   =     40;   NELMIN=  2; NELMDL= -5     # of ELM steps 
   EDIFF  = 0.1E-05   stopping-criterion for ELM
   LREAL  =      F    real-space projection
   NLSPLINE    = F    spline interpolate recip. space projectors
   LCOMPAT=      F    compatible to vasp.4.4
   GGA_COMPAT  = T    GGA compatible to vasp.4.4-vasp.4.6
   LMAXPAW     = -100 max onsite density
   LMAXMIX     =    2 max onsite mixed and CHGCAR
   VOSKOWN=      0    Vosko Wilk Nusair interpolation
   ROPT   =    0.00000   0.00000
 Ionic relaxation
   EDIFFG = 0.1E-04   stopping-criterion for IOM
   NSW    =      0    number of steps for IOM
   NBLOCK =      1;   KBLOCK =      1    inner block; outer block 
   IBRION =     -1    ionic relax: 0-MD 1-quasi-New 2-CG
   NFREE  =      0    steps in history (QN), initial steepest desc. (CG)
   ISIF   =      2    stress and relaxation
   IWAVPR =     10    prediction:  0-non 1-charg 2-wave 3-comb
   ISYM   =      2    0-nonsym 1-usesym 2-fastsym
   LCORR  =      T    Harris-Foulkes like correction to forces

   POTIM  = 0.5000    time-step for ionic-motion
   TEIN   =    0.0    initial temperature
   TEBEG  =    0.0;   TEEND  =   0.0 temperature during run
   SMASS  =  -3.00    Nose mass-parameter (am)
   estimated Nose-frequenzy (Omega)   =  0.10E-29 period in steps =****** mass=  -0.207E-27a.u.
   SCALEE = 1.0000    scale energy and forces
   NPACO  =    256;   APACO  = 16.0  distance and # of slots for P.C.
   PSTRESS=    0.0 pullay stress

  Mass of Ions in am
   POMASS =  16.00 24.30
  Ionic Valenz
   ZVAL   =   6.00  2.00
  Atomic Wigner-Seitz radii
   RWIGS  =  -1.00 -1.00
  virtual crystal weights 
   VCA    =   1.00  1.00
   NELECT =       8.0000    total number of electrons
   NUPDOWN=      -1.0000    fix difference up-down

 DOS related values:
   EMIN   =  10.00;   EMAX   =-10.00  energy-range for DOS
   EFERMI =   0.00
   ISMEAR =     0;   SIGMA  =   0.05  broadening in eV -4-tet -1-fermi 0-gaus

 Electronic relaxation 2 (details)
   IALGO  =     38    algorithm
   LDIAG  =      T    sub-space diagonalisation (order eigenvalues)
   LSUBROT=      F    optimize rotation matrix (better conditioning)
   TURBO    =      0    0=normal 1=particle mesh
   IRESTART =      0    0=no restart 2=restart with 2 vectors
   NREBOOT  =      0    no. of reboots
   NMIN     =      0    reboot dimension
   EREF     =   0.00    reference energy to select bands
   IMIX   =      4    mixing-type and parameters
     AMIX     =   0.40;   BMIX     =  1.00
     AMIX_MAG =   1.60;   BMIX_MAG =  1.00
     AMIN     =   0.10
     WC   =   100.;   INIMIX=   1;  MIXPRE=   1;  MAXMIX= -45

 Intra band minimization:
   WEIMIN = 0.0000     energy-eigenvalue tresh-hold
   EBREAK =  0.16E-07  absolut break condition
   DEPER  =   0.30     relativ break condition  

   TIME   =   0.40     timestep for ELM

  volume/ion in A,a.u.               =       9.64        65.05
  Fermi-wavevector in a.u.,A,eV,Ry     =   1.221070  2.307488 20.286449  1.491012
  Thomas-Fermi vector in A             =   2.356265
 
 Write flags
   LWAVE  =      F    write WAVECAR
   LCHARG =      F    write CHGCAR
   LVTOT  =      F    write LOCPOT, total local potential
   LVHAR  =      F    write LOCPOT, Hartree potential only
   LELF   =      F    write electronic localiz. function (ELF)
   LORBIT =      0    0 simple, 1 ext, 2 COOP (PROOUT)


 Dipole corrections
   LMONO  =      F    monopole corrections only (constant potential shift)
   LDIPOL =      F    correct potential (dipole corrections)
   IDIPOL =      0    1-x, 2-y, 3-z, 4-all directions 
   EPSILON=  1.0000000 bulk dielectric constant

 Exchange correlation treatment:
   GGA     =    --    GGA type
   LEXCH   =     8    internal setting for exchange type
   VOSKOWN=      0    Vosko Wilk Nusair interpolation
   LHFCALC =     F    Hartree Fock is set to
   LHFONE  =     F    Hartree Fock one center treatment
   AEXX    =    0.0000 exact exchange contribution

 Linear response parameters
   LEPSILON=     F    determine dielectric tensor
   LRPA    =     F    only Hartree local field effects (RPA)
   LNABLA  =     F    use nabla operator in PAW spheres
   LVEL    =     F    velocity operator in full k-point grid
   LINTERFAST=   F  fast interpolation
   KINTER  =     0    interpolate to denser k-point grid
   CSHIFT  =0.1000    complex shift for real part using Kramers Kronig
   OMEGAMAX=  -1.0    maximum frequency
   DEG_THRESHOLD= 0.2000000E-02 threshold for treating states as degnerate
   RTIME   =    0.100 relaxation time in fs

 Orbital magnetization related:
   ORBITALMAG=     F  switch on orbital magnetization
   LCHIMAG   =     F  perturbation theory with respect to B field
   DQ        =  0.001000  dq finite difference perturbation B field



--------------------------------------------------------------------------------------------------------


 Static calculation
 charge density and potential will be updated during run
 non-spin polarized calculation
 Variant of blocked Davidson
 Davidson routine will perform the subspace rotation
 perform sub-space diagonalisation
    after iterative eigenvector-optimisation
 modified Broyden-mixing scheme, WC =      100.0
 initial mixing is a Kerker type mixing with AMIX =  0.4000 and BMIX =      1.0000
 Hartree-type preconditioning will be used
 using additional bands           12
 reciprocal scheme for non local part
 use partial core corrections
 calculate Harris-corrections to forces 
   (improved forces if not selfconsistent)
 use gradient corrections 
 use of overlap-Matrix (Vanderbilt PP)
 Gauss-broadening in eV      SIGMA  =   0.05


--------------------------------------------------------------------------------------------------------


  energy-cutoff  :     1025.00
  volume of cell :       19.28
      direct lattice vectors                 reciprocal lattice vectors
     3.009788000  0.000000000  0.000000000     0.332249315 -0.191824221 -0.135640193
     1.504894000  2.606553000  0.000000000     0.000000000  0.383648443 -0.135640193
     1.504894000  0.868851000  2.457482000     0.000000000  0.000000000  0.406920580

  length of vectors
     3.009788000  3.009788114  3.009788330     0.406920632  0.406920619  0.406920580


 
 k-points in units of 2pi/SCALE and weight: Automatic Mesh                          
   0.04153116  0.02397803  0.01695502       0.031
   0.12459349 -0.02397803 -0.01695502       0.094
  -0.12459349  0.11989014  0.08477512       0.094
  -0.04153116  0.07193408  0.05086507       0.094
   0.12459349  0.07193408 -0.05086507       0.094
  -0.12459349  0.21580225  0.05086507       0.188
  -0.04153116  0.16784619  0.01695502       0.188
  -0.12459349 -0.07193408  0.15259522       0.094
   0.12459349  0.07193408  0.05086507       0.031
  -0.12459349  0.21580225  0.15259522       0.094
 
 k-points in reciprocal lattice and weights: Automatic Mesh                          
   0.12500000  0.12500000  0.12500000       0.031
   0.37500000  0.12500000  0.12500000       0.094
  -0.37500000  0.12500000  0.12500000       0.094
  -0.12500000  0.12500000  0.12500000       0.094
   0.37500000  0.37500000  0.12500000       0.094
  -0.37500000  0.37500000  0.12500000       0.188
  -0.12500000  0.37500000  0.12500000       0.188
  -0.37500000 -0.37500000  0.12500000       0.094
   0.37500000  0.37500000  0.37500000       0.031
  -0.37500000  0.37500000  0.37500000       0.094
 
 position of ions in fractional coordinates (direct lattice) 
   0.50000000  0.50000000  0.50000000
   0.00000000  0.00000000  0.00000000
 
 position of ions in cartesian coordinates  (Angst):
   3.00978800  1.73770200  1.22874100
   0.00000000  0.00000000  0.00000000
 


--------------------------------------------------------------------------------------------------------


 k-point  1 :   0.1250 0.1250 0.1250  plane waves:    1429
 k-point  2 :   0.3750 0.1250 0.1250  plane waves:    1427
 k-point  3 :  -0.3750 0.1250 0.1250  plane waves:    1444
 k-point  4 :  -0.1250 0.1250 0.1250  plane waves:    1430
 k-point  5 :   0.3750 0.3750 0.1250  plane waves:    1430
 k-point  6 :  -0.3750 0.3750 0.1250  plane waves:    1439
 k-point  7 :  -0.1250 0.3750 0.1250  plane waves:    1438
 k-point  8 :  -0.3750-0.3750 0.1250  plane waves:    1438
 k-point  9 :   0.3750 0.3750 0.3750  plane waves:    1429
 k-point 10 :  -0.3750 0.3750 0.3750  plane waves:    1444

 maximum and minimum number of plane-waves per node :      1444     1427

 maximum number of plane-waves:      1444
 maximum index in each direction: 
   IXMAX=    8   IYMAX=    8   IZMAX=    7
   IXMIN=   -8   IYMIN=   -8   IZMIN=   -8

 WARNING: aliasing errors must be expected set NGX to  34 to avoid them
 WARNING: aliasing errors must be expected set NGY to  34 to avoid them
 NGZ is ok and might be reduce to  32
 aliasing errors are usually negligible using standard VASP settings
 and one can safely disregard these warnings

 serial   3D FFT for wavefunctions
 parallel 3D FFT for charge:
    minimum data exchange during FFTs selected (reduces bandwidth)


 total amount of memory used by VASP on root node    35254. kBytes
========================================================================

   base      :      30000. kBytes
   nonl-proj :       3075. kBytes
   fftplans  :        320. kBytes
   grid      :       1605. kBytes
   one-center:         16. kBytes
   wavefun   :        238. kBytes
 
     INWAV:  cpu time    0.0000: real time    0.0003
 Broyden mixing: mesh for mixing (old mesh)
   NGX = 15   NGY = 15   NGZ = 15
  (NGX  = 40   NGY  = 40   NGZ  = 40)
  gives a total of   3375 points

 charge density for first step will be calculated from the start-wavefunctions


--------------------------------------------------------------------------------------------------------


 Maximum index for augmentation-charges         1435 (set IRDMAX)


--------------------------------------------------------------------------------------------------------


 initial charge from wavefunction
 First call to EWALD:  gamma=   0.661
 Maximum number of real-space cells 3x 3x 3
 Maximum number of reciprocal cells 3x 3x 3

 FEWALD executed in parallel
    FEWALD:  cpu time    0.0020: real time    0.0015


----------------------------------------- Iteration    1(   1)  ---------------------------------------


    POTLOK:  cpu time    0.0060: real time    0.0060
    SETDIJ:  cpu time    0.0020: real time    0.0028
     EDDAV:  cpu time    0.0600: real time    0.0599
       DOS:  cpu time    0.0000: real time    0.0002
    --------------------------------------------
      LOOP:  cpu time    0.0720: real time    0.0742

 eigenvalue-minimisations  :   352
 total energy-change (2. order) :-0.2398386E+03  (-0.1117350E+04)
 number of electron       7.9999999 magnetization 
 augmentation part       -0.9241698 magnetization 

 Free energy of the ion-electron system (eV)
  ---------------------------------------------------
  alpha Z        PSCENC =        15.79325893
  Ewald energy   TEWEN  =      -354.45312954
  -Hartree energ DENC   =       -32.67145103
  -exchange      EXHF   =         0.00000000
  -V(xc)+E(xc)   XCENC  =       -29.84932463
  PAW double counting   =    101133.61651718  -101080.26663038
  entropy T*S    EENTRO =        -0.00000000
  eigenvalues    EBANDS =      -347.40653756
  atomic energy  EATOM  =       455.39866312
  Solvation  Ediel_sol  =         0.00000000
  ---------------------------------------------------
  free energy    TOTEN  =      -239.83863391 eV

  energy without entropy =     -239.83863391  energy(sigma->0) =     -239.83863391


--------------------------------------------------------------------------------------------------------




----------------------------------------- Iteration    1(   2)  ---------------------------------------


     EDDAV:  cpu time    0.0720: real time    0.0724
       DOS:  cpu time    0.0000: real time    0.0001
    --------------------------------------------
      LOOP:  cpu time    0.0730: real time    0.0749

 eigenvalue-minimisations  :   416
 total energy-change (2. order) :-0.7187119E+02  (-0.7187119E+02)
 number of electron       7.9999999 magnetization 
 augmentation part       -0.9241698 magnetization 

 Free energy of the ion-electron system (eV)
  ---------------------------------------------------
  alpha Z        PSCENC =        15.79325893
  Ewald energy   TEWEN  =      -354.45312954
  -Hartree energ DENC   =       -32.67145103
  -exchange      EXHF   =         0.00000000
  -V(xc)+E(xc)   XCENC  =       -29.84932463
  PAW double counting   =    101133.61651718  -101080.26663038
  entropy T*S    EENTRO =        -0.00000000
  eigenvalues    EBANDS =      -419.27773080
  atomic energy  EATOM  =       455.39866312
  Solvation  Ediel_sol  =         0.00000000
  ---------------------------------------------------
  free energy    TOTEN  =      -311.70982714 eV

  energy without entropy =     -311.70982714  energy(sigma->0) =     -311.70982714


--------------------------------------------------------------------------------------------------------




----------------------------------------- Iteration    1(   3)  ---------------------------------------


     EDDAV:  cpu time    0.0730: real time    0.0730
       DOS:  cpu time    0.0000: real time    0.0001
    --------------------------------------------
      LOOP:  cpu time    0.0730: real time    0.0758

 eigenvalue-minimisations  :   416
 total energy-change (2. order) :-0.6606997E+00  (-0.6606997E+00)
 number of electron       7.9999999 magnetization 
 augmentation part       -0.9241698 magnetization 

 Free energy of the ion-electron system (eV)
  ---------------------------------------------------
  alpha Z        PSCENC =        15.79325893
  Ewald energy   TEWEN  =      -354.45312954
  -Hartree energ DENC   =       -32.67145103
  -exchange      EXHF   =         0.00000000
  -V(xc)+E(xc)   XCENC  =       -29.84932463
  PAW double counting   =    101133.61651718  -101080.26663038
  entropy T*S    EENTRO =        -0.00000000
  eigenvalues    EBANDS =      -419.93843048
  atomic energy  EATOM  =       455.39866312
  Solvation  Ediel_sol  =         0.00000000
  ---------------------------------------------------
  free energy    TOTEN  =      -312.37052682 eV

  energy without entropy =     -312.37052682  energy(sigma->0) =     -312.37052682


--------------------------------------------------------------------------------------------------------




----------------------------------------- Iteration    1(   4)  ---------------------------------------


     EDDAV:  cpu time    0.0940: real time    0.0952
       DOS:  cpu time    0.0010: real time    0.0001
    --------------------------------------------
      LOOP:  cpu time    0.0960: real time    0.0980

 eigenvalue-minimisations  :   528
 total energy-change (2. order) :-0.1846750E-02  (-0.1846750E-02)
 number of electron       7.9999999 magnetization 
 augmentation part       -0.9241698 magnetization 

 Free energy of the ion-electron system (eV)
  ---------------------------------------------------
  alpha Z        PSCENC =        15.79325893
  Ewald energy   TEWEN  =      -354.45312954
  -Hartree energ DENC   =       -32.67145103
  -exchange      EXHF   =         0.00000000
  -V(xc)+E(xc)   XCENC  =       -29.84932463
  PAW double counting   =    101133.61651718  -101080.26663038
  entropy T*S    EENTRO =        -0.00000000
  eigenvalues    EBANDS =      -419.94027723
  atomic energy  EATOM  =       455.39866312
  Solvation  Ediel_sol  =         0.00000000
  ---------------------------------------------------
  free energy    TOTEN  =      -312.37237357 eV

  energy without entropy =     -312.37237357  energy(sigma->0) =     -312.37237357


--------------------------------------------------------------------------------------------------------




----------------------------------------- Iteration    1(   5)  ---------------------------------------


     EDDAV:  cpu time    0.0830: real time    0.0831
       DOS:  cpu time    0.0000: real time    0.0001
    CHARGE:  cpu time    0.0120: real time    0.0126
    MIXING:  cpu time    0.0010: real time    0.0003
    --------------------------------------------
      LOOP:  cpu time    0.0960: real time    0.0987

 eigenvalue-minimisations  :   464
 total energy-change (2. order) :-0.6575401E-06  (-0.6575399E-06)
 number of electron       7.9999984 magnetization 
 augmentation part        0.6056711 magnetization 

 Broyden mixing:
  rms(total) = 0.94811E+01    rms(broyden)= 0.94625E+01
  rms(prec ) = 0.29146E+02
  weight for this iteration     100.00

 Free energy of the ion-electron system (eV)
  ---------------------------------------------------
  alpha Z        PSCENC =        15.79325893
  Ewald energy   TEWEN  =      -354.45312954
  -Hartree energ DENC   =       -32.67145103
  -exchange      EXHF   =         0.00000000
  -V(xc)+E(xc)   XCENC  =       -29.84932463
  PAW double counting   =    101133.61651718  -101080.26663038
  entropy T*S    EENTRO =        -0.00000000
  eigenvalues    EBANDS =      -419.94027789
  atomic energy  EATOM  =       455.39866312
  Solvation  Ediel_sol  =         0.00000000
  ---------------------------------------------------
  free energy    TOTEN  =      -312.37237423 eV

  energy without entropy =     -312.37237423  energy(sigma->0) =     -312.37237423


--------------------------------------------------------------------------------------------------------




----------------------------------------- Iteration    1(   6)  ---------------------------------------


    POTLOK:  cpu time    0.0050: real time    0.0049
    SETDIJ:  cpu time    0.0030: real time    0.0028
     EDDAV:  cpu time    0.0530: real time    0.0536
       DOS:  cpu time    0.0000: real time    0.0001
    CHARGE:  cpu time    0.0120: real time    0.0121
    MIXING:  cpu time    0.0010: real time    0.0004
    --------------------------------------------
      LOOP:  cpu time    0.0740: real time    0.1411

 eigenvalue-minimisations  :   320
 total energy-change (2. order) : 0.2435476E+03  (-0.2853475E+02)
 number of electron       7.9999993 magnetization 
 augmentation part        0.2574145 magnetization 

 Broyden mixing:
  rms(total) = 0.40686E+01    rms(broyden)= 0.40663E+01
  rms(prec ) = 0.13548E+02
  weight for this iteration     100.00

 eigenvalues of (default mixing * dielectric matrix)
  average eigenvalue GAMMA=   1.4748
  1.4748

 Free energy of the ion-electron system (eV)
  ---------------------------------------------------
  alpha Z        PSCENC =        15.79325893
  Ewald energy   TEWEN  =      -354.45312954
  -Hartree energ DENC   =       -67.45060312
  -exchange      EXHF   =         0.00000000
  -V(xc)+E(xc)   XCENC  =       -26.07502459
  PAW double counting   =    347192.65672009  -347143.05114145
  entropy T*S    EENTRO =        -0.00000000
  eigenvalues    EBANDS =      -141.64354255
  atomic energy  EATOM  =       455.39866312
  Solvation  Ediel_sol  =         0.00000000
  ---------------------------------------------------
  free energy    TOTEN  =       -68.82479910 eV

  energy without entropy =      -68.82479910  energy(sigma->0) =      -68.82479910


--------------------------------------------------------------------------------------------------------




----------------------------------------- Iteration    1(   7)  ---------------------------------------


    POTLOK:  cpu time    0.0050: real time    0.0048
    SETDIJ:  cpu time    0.0030: real time    0.0028
     EDDAV:  cpu time    0.0860: real time    0.0859
       DOS:  cpu time    0.0000: real time    0.0001
    CHARGE:  cpu time    0.0120: real time    0.0126
    MIXING:  cpu time    0.0010: real time    0.0003
    --------------------------------------------
      LOOP:  cpu time    0.1070: real time    0.1596

 eigenvalue-minimisations  :   496
 total energy-change (2. order) : 0.4585626E+02  (-0.3909138E+02)
 number of electron       8.0000001 magnetization 
 augmentation part       -0.0146745 magnetization 

 Broyden mixing:
  rms(total) = 0.26304E+01    rms(broyden)= 0.26288E+01
  rms(prec ) = 0.70073E+01
  weight for this iteration     100.00

 eigenvalues of (default mixing * dielectric matrix)
  average eigenvalue GAMMA=   1.3287
  1.3287  1.3287

 Free energy of the ion-electron system (eV)
  ---------------------------------------------------
  alpha Z        PSCENC =        15.79325893
  Ewald energy   TEWEN  =      -354.45312954
  -Hartree energ DENC   =      -179.23279236
  -exchange      EXHF   =         0.00000000
  -V(xc)+E(xc)   XCENC  =       -18.78003985
  PAW double counting   =     50995.29561144   -50947.12982021
  entropy T*S    EENTRO =        -0.00000000
  eigenvalues    EBANDS =        10.13971259
  atomic energy  EATOM  =       455.39866312
  Solvation  Ediel_sol  =         0.00000000
  ---------------------------------------------------
  free energy    TOTEN  =       -22.96853588 eV

  energy without entropy =      -22.96853588  energy(sigma->0) =      -22.96853588


--------------------------------------------------------------------------------------------------------




----------------------------------------- Iteration    1(   8)  ---------------------------------------


    POTLOK:  cpu time    0.0050: real time    0.0048
    SETDIJ:  cpu time    0.0030: real time    0.0028
     EDDAV:  cpu time    0.0560: real time    0.0568
       DOS:  cpu time    0.0010: real time    0.0001
    CHARGE:  cpu time    0.0120: real time    0.0121
    MIXING:  cpu time    0.0000: real time    0.0003
    --------------------------------------------
      LOOP:  cpu time    0.0770: real time    0.0807

 eigenvalue-minimisations  :   336
 total energy-change (2. order) : 0.1784411E+01  (-0.1797177E+02)
 number of electron       7.9999996 magnetization 
 augmentation part        0.1488852 magnetization 

 Broyden mixing:
  rms(total) = 0.16836E+01    rms(broyden)= 0.16834E+01
  rms(prec ) = 0.60063E+01
  weight for this iteration     100.00

 eigenvalues of (default mixing * dielectric matrix)
  average eigenvalue GAMMA=   1.5670
  2.5994  1.3376  0.7642

 Free energy of the ion-electron system (eV)
  ---------------------------------------------------
  alpha Z        PSCENC =        15.79325893
  Ewald energy   TEWEN  =      -354.45312954
  -Hartree energ DENC   =      -101.07137849
  -exchange      EXHF   =         0.00000000
  -V(xc)+E(xc)   XCENC  =       -23.99282649
  PAW double counting   =     60579.89150780   -60529.89748978
  entropy T*S    EENTRO =        -0.00000000
  eigenvalues    EBANDS =       -62.85273035
  atomic energy  EATOM  =       455.39866312
  Solvation  Ediel_sol  =         0.00000000
  ---------------------------------------------------
  free energy    TOTEN  =       -21.18412479 eV

  energy without entropy =      -21.18412479  energy(sigma->0) =      -21.18412479


--------------------------------------------------------------------------------------------------------




----------------------------------------- Iteration    1(   9)  ---------------------------------------


    POTLOK:  cpu time    0.0050: real time    0.0049
    SETDIJ:  cpu time    0.0030: real time    0.0027
     EDDAV:  cpu time    0.0540: real time    0.0537
       DOS:  cpu time    0.0000: real time    0.0001
    CHARGE:  cpu time    0.0110: real time    0.0116
    MIXING:  cpu time    0.0010: real time    0.0004
    --------------------------------------------
      LOOP:  cpu time    0.0740: real time    0.0843

 eigenvalue-minimisations  :   320
 total energy-change (2. order) : 0.9216114E+01  (-0.3184319E+01)
 number of electron       7.9999998 magnetization 
 augmentation part        0.0806288 magnetization 

 Broyden mixing:
  rms(total) = 0.25354E+00    rms(broyden)= 0.25332E+00
  rms(prec ) = 0.68125E+00
  weight for this iteration     100.00

 eigenvalues of (default mixing * dielectric matrix)
  average eigenvalue GAMMA=   1.4882
  2.5778  1.3128  1.3128  0.7492

 Free energy of the ion-electron system (eV)
  ---------------------------------------------------
  alpha Z        PSCENC =        15.79325893
  Ewald energy   TEWEN  =      -354.45312954
  -Hartree energ DENC   =      -138.34994633
  -exchange      EXHF   =         0.00000000
  -V(xc)+E(xc)   XCENC  =       -20.92245420
  PAW double counting   =      1156.86870355    -1106.35320258
  entropy T*S    EENTRO =        -0.00000000
  eigenvalues    EBANDS =       -19.94990395
  atomic energy  EATOM  =       455.39866312
  Solvation  Ediel_sol  =         0.00000000
  ---------------------------------------------------
  free energy    TOTEN  =       -11.96801099 eV

  energy without entropy =      -11.96801099  energy(sigma->0) =      -11.96801099


--------------------------------------------------------------------------------------------------------




----------------------------------------- Iteration    1(  10)  ---------------------------------------


    POTLOK:  cpu time    0.0050: real time    0.0047
    SETDIJ:  cpu time    0.0030: real time    0.0027
     EDDAV:  cpu time    0.0720: real time    0.0722
       DOS:  cpu time    0.0000: real time    0.0001
    CHARGE:  cpu time    0.0120: real time    0.0125
    MIXING:  cpu time    0.0010: real time    0.0004
    --------------------------------------------
      LOOP:  cpu time    0.0930: real time    0.0951

 eigenvalue-minimisations  :   416
 total energy-change (2. order) :-0.2121350E-01  (-0.2261654E+00)
 number of electron       7.9999999 magnetization 
 augmentation part        0.0606272 magnetization 

 Broyden mixing:
  rms(total) = 0.20073E+00    rms(broyden)= 0.20059E+00
  rms(prec ) = 0.63522E+00
  weight for this iteration     100.00

 eigenvalues of (default mixing * dielectric matrix)
  average eigenvalue GAMMA=   1.6404
  2.6905  2.5607  1.2321  0.8755  0.8433

 Free energy of the ion-electron system (eV)
  ---------------------------------------------------
  alpha Z        PSCENC =        15.79325893
  Ewald energy   TEWEN  =      -354.45312954
  -Hartree energ DENC   =      -145.62506453
  -exchange      EXHF   =         0.00000000
  -V(xc)+E(xc)   XCENC  =       -20.45806865
  PAW double counting   =       876.68902528     -826.36744291
  entropy T*S    EENTRO =        -0.00000000
  eigenvalues    EBANDS =       -12.96646620
  atomic energy  EATOM  =       455.39866312
  Solvation  Ediel_sol  =         0.00000000
  ---------------------------------------------------
  free energy    TOTEN  =       -11.98922450 eV

  energy without entropy =      -11.98922450  energy(sigma->0) =      -11.98922450


--------------------------------------------------------------------------------------------------------




----------------------------------------- Iteration    1(  11)  ---------------------------------------


    POTLOK:  cpu time    0.0050: real time    0.0049
    SETDIJ:  cpu time    0.0030: real time    0.0028
     EDDAV:  cpu time    0.0600: real time    0.0602
       DOS:  cpu time    0.0000: real time    0.0001
    CHARGE:  cpu time    0.0120: real time    0.0125
    MIXING:  cpu time    0.0010: real time    0.0004
    --------------------------------------------
      LOOP:  cpu time    0.0810: real time    0.0856

 eigenvalue-minimisations  :   352
 total energy-change (2. order) : 0.6644676E-01  (-0.7453968E-01)
 number of electron       7.9999999 magnetization 
 augmentation part        0.0721252 magnetization 

 Broyden mixing:
  rms(total) = 0.38640E-01    rms(broyden)= 0.38601E-01
  rms(prec ) = 0.14194E+00
  weight for this iteration     100.00

 eigenvalues of (default mixing * dielectric matrix)
  average eigenvalue GAMMA=   1.5788
  2.9118  2.5361  1.3159  0.8405  0.9343  0.9343

 Free energy of the ion-electron system (eV)
  ---------------------------------------------------
  alpha Z        PSCENC =        15.79325893
  Ewald energy   TEWEN  =      -354.45312954
  -Hartree energ DENC   =      -140.79796149
  -exchange      EXHF   =         0.00000000
  -V(xc)+E(xc)   XCENC  =       -20.75448533
  PAW double counting   =       667.46031464     -617.06803457
  entropy T*S    EENTRO =        -0.00000000
  eigenvalues    EBANDS =       -17.50140351
  atomic energy  EATOM  =       455.39866312
  Solvation  Ediel_sol  =         0.00000000
  ---------------------------------------------------
  free energy    TOTEN  =       -11.92277774 eV

  energy without entropy =      -11.92277774  energy(sigma->0) =      -11.92277774


--------------------------------------------------------------------------------------------------------




----------------------------------------- Iteration    1(  12)  ---------------------------------------


    POTLOK:  cpu time    0.0050: real time    0.0047
    SETDIJ:  cpu time    0.0030: real time    0.0028
     EDDAV:  cpu time    0.0690: real time    0.0700
       DOS:  cpu time    0.0010: real time    0.0001
    CHARGE:  cpu time    0.0120: real time    0.0130
    MIXING:  cpu time    0.0010: real time    0.0004
    --------------------------------------------
      LOOP:  cpu time    0.0910: real time    0.0940

 eigenvalue-minimisations  :   400
 total energy-change (2. order) : 0.3317813E-02  (-0.2969560E-02)
 number of electron       7.9999999 magnetization 
 augmentation part        0.0701422 magnetization 

 Broyden mixing:
  rms(total) = 0.26668E-02    rms(broyden)= 0.26613E-02
  rms(prec ) = 0.93511E-02
  weight for this iteration     100.00

 eigenvalues of (default mixing * dielectric matrix)
  average eigenvalue GAMMA=   1.5275
  2.8763  2.5348  1.4274  1.2230  0.8385  0.8385  0.9539

 Free energy of the ion-electron system (eV)
  ---------------------------------------------------
  alpha Z        PSCENC =        15.79325893
  Ewald energy   TEWEN  =      -354.45312954
  -Hartree energ DENC   =      -141.74752496
  -exchange      EXHF   =         0.00000000
  -V(xc)+E(xc)   XCENC  =       -20.68150486
  PAW double counting   =       592.55385116     -542.17670760
  entropy T*S    EENTRO =        -0.00000000
  eigenvalues    EBANDS =       -16.60636617
  atomic energy  EATOM  =       455.39866312
  Solvation  Ediel_sol  =         0.00000000
  ---------------------------------------------------
  free energy    TOTEN  =       -11.91945993 eV

  energy without entropy =      -11.91945993  energy(sigma->0) =      -11.91945993


--------------------------------------------------------------------------------------------------------




----------------------------------------- Iteration    1(  13)  ---------------------------------------


    POTLOK:  cpu time    0.0050: real time    0.0050
    SETDIJ:  cpu time    0.0030: real time    0.0028
     EDDAV:  cpu time    0.0700: real time    0.0705
       DOS:  cpu time    0.0010: real time    0.0001
    CHARGE:  cpu time    0.0130: real time    0.0132
    MIXING:  cpu time    0.0000: real time    0.0005
    --------------------------------------------
      LOOP:  cpu time    0.0920: real time    0.0952

 eigenvalue-minimisations  :   400
 total energy-change (2. order) :-0.4306255E-04  (-0.7693804E-04)
 number of electron       7.9999999 magnetization 
 augmentation part        0.0697948 magnetization 

 Broyden mixing:
  rms(total) = 0.44954E-02    rms(broyden)= 0.44938E-02
  rms(prec ) = 0.12344E-01
  weight for this iteration     100.00

 eigenvalues of (default mixing * dielectric matrix)
  average eigenvalue GAMMA=   1.6861
  3.3246  2.6974  2.5248  1.2903  0.8897  0.8897  0.8941  0.9779

 Free energy of the ion-electron system (eV)
  ---------------------------------------------------
  alpha Z        PSCENC =        15.79325893
  Ewald energy   TEWEN  =      -354.45312954
  -Hartree energ DENC   =      -141.86238768
  -exchange      EXHF   =         0.00000000
  -V(xc)+E(xc)   XCENC  =       -20.67487460
  PAW double counting   =       613.01725047     -562.64236589
  entropy T*S    EENTRO =        -0.00000000
  eigenvalues    EBANDS =       -16.49591780
  atomic energy  EATOM  =       455.39866312
  Solvation  Ediel_sol  =         0.00000000
  ---------------------------------------------------
  free energy    TOTEN  =       -11.91950299 eV

  energy without entropy =      -11.91950299  energy(sigma->0) =      -11.91950299


--------------------------------------------------------------------------------------------------------




----------------------------------------- Iteration    1(  14)  ---------------------------------------


    POTLOK:  cpu time    0.0050: real time    0.0049
    SETDIJ:  cpu time    0.0030: real time    0.0028
     EDDAV:  cpu time    0.0820: real time    0.0816
       DOS:  cpu time    0.0000: real time    0.0001
    CHARGE:  cpu time    0.0130: real time    0.0132
    MIXING:  cpu time    0.0000: real time    0.0005
    --------------------------------------------
      LOOP:  cpu time    0.1030: real time    0.1057

 eigenvalue-minimisations  :   464
 total energy-change (2. order) : 0.2553668E-04  (-0.2349189E-04)
 number of electron       7.9999999 magnetization 
 augmentation part        0.0700271 magnetization 

 Broyden mixing:
  rms(total) = 0.91643E-03    rms(broyden)= 0.91538E-03
  rms(prec ) = 0.22578E-02
  weight for this iteration     100.00

 eigenvalues of (default mixing * dielectric matrix)
  average eigenvalue GAMMA=   1.5814
  2.9795  2.6791  2.5196  1.2158  1.2158  0.8796  0.8796  0.9118  0.9519

 Free energy of the ion-electron system (eV)
  ---------------------------------------------------
  alpha Z        PSCENC =        15.79325893
  Ewald energy   TEWEN  =      -354.45312954
  -Hartree energ DENC   =      -141.80140678
  -exchange      EXHF   =         0.00000000
  -V(xc)+E(xc)   XCENC  =       -20.67842785
  PAW double counting   =       631.46330142     -581.08626320
  entropy T*S    EENTRO =        -0.00000000
  eigenvalues    EBANDS =       -16.55547356
  atomic energy  EATOM  =       455.39866312
  Solvation  Ediel_sol  =         0.00000000
  ---------------------------------------------------
  free energy    TOTEN  =       -11.91947745 eV

  energy without entropy =      -11.91947745  energy(sigma->0) =      -11.91947745


--------------------------------------------------------------------------------------------------------




----------------------------------------- Iteration    1(  15)  ---------------------------------------


    POTLOK:  cpu time    0.0050: real time    0.0049
    SETDIJ:  cpu time    0.0020: real time    0.0028
     EDDAV:  cpu time    0.0630: real time    0.0625
       DOS:  cpu time    0.0000: real time    0.0002
    CHARGE:  cpu time    0.0120: real time    0.0127
    MIXING:  cpu time    0.0010: real time    0.0005
    --------------------------------------------
      LOOP:  cpu time    0.0840: real time    0.0864

 eigenvalue-minimisations  :   368
 total energy-change (2. order) : 0.1582537E-06  (-0.1249640E-05)
 number of electron       7.9999999 magnetization 
 augmentation part        0.0699792 magnetization 

 Broyden mixing:
  rms(total) = 0.32695E-03    rms(broyden)= 0.32689E-03
  rms(prec ) = 0.12301E-02
  weight for this iteration     100.00

 eigenvalues of (default mixing * dielectric matrix)
  average eigenvalue GAMMA=   1.6888
  3.2348  2.8194  2.5242  2.4082  1.2875  0.8868  0.8868  1.0182  0.8783  0.9434

 Free energy of the ion-electron system (eV)
  ---------------------------------------------------
  alpha Z        PSCENC =        15.79325893
  Ewald energy   TEWEN  =      -354.45312954
  -Hartree energ DENC   =      -141.81657176
  -exchange      EXHF   =         0.00000000
  -V(xc)+E(xc)   XCENC  =       -20.67773890
  PAW double counting   =       628.86165729     -578.48507655
  entropy T*S    EENTRO =        -0.00000000
  eigenvalues    EBANDS =       -16.54053990
  atomic energy  EATOM  =       455.39866312
  Solvation  Ediel_sol  =         0.00000000
  ---------------------------------------------------
  free energy    TOTEN  =       -11.91947730 eV

  energy without entropy =      -11.91947730  energy(sigma->0) =      -11.91947730


--------------------------------------------------------------------------------------------------------




----------------------------------------- Iteration    1(  16)  ---------------------------------------


    POTLOK:  cpu time    0.0050: real time    0.0049
    SETDIJ:  cpu time    0.0030: real time    0.0028
     EDDAV:  cpu time    0.0320: real time    0.0323
       DOS:  cpu time    0.0000: real time    0.0001
    --------------------------------------------
      LOOP:  cpu time    0.0400: real time    0.0428

 eigenvalue-minimisations  :   160
 total energy-change (2. order) : 0.8174277E-07  (-0.8457779E-07)
 number of electron       7.9999999 magnetization 
 augmentation part        0.0699792 magnetization 

 Free energy of the ion-electron system (eV)
  ---------------------------------------------------
  alpha Z        PSCENC =        15.79325893
  Ewald energy   TEWEN  =      -354.45312954
  -Hartree energ DENC   =      -141.81073755
  -exchange      EXHF   =         0.00000000
  -V(xc)+E(xc)   XCENC  =       -20.67821839
  PAW double counting   =       626.63101808     -576.25439268
  entropy T*S    EENTRO =        -0.00000000
  eigenvalues    EBANDS =       -16.54593919
  atomic energy  EATOM  =       455.39866312
  Solvation  Ediel_sol  =         0.00000000
  ---------------------------------------------------
  free energy    TOTEN  =       -11.91947721 eV

  energy without entropy =      -11.91947721  energy(sigma->0) =      -11.91947721


--------------------------------------------------------------------------------------------------------




 average (electrostatic) potential at core
  the test charge radii are     0.5955  1.0714
  (the norm of the test charge is              1.0000)
       1-108.5186       2 -34.9638
 
 
 
 E-fermi :   3.5471     XC(G=0): -10.9350     alpha+bet :-13.1194


 k-point     1 :       0.1250    0.1250    0.1250
  band No.  band energies     occupation 
      1     -13.5969      2.00000
      2       2.4102      2.00000
      3       3.2555      2.00000
      4       3.2555      2.00000
      5       8.6988      0.00000
      6      17.3083      0.00000
      7      19.3176      0.00000
      8      19.3176      0.00000
      9      23.5296      0.00000
     10      23.5296      0.00000
     11      24.8622      0.00000
     12      27.2578      0.00000
     13      28.6799      0.00000
     14      28.6799      0.00000
     15      38.8917      0.00000
     16      40.7985      0.00000

 k-point     2 :       0.3750    0.1250    0.1250
  band No.  band energies     occupation 
      1     -12.9478      2.00000
      2       0.2545      2.00000
      3       2.4019      2.00000
      4       2.9618      2.00000
      5      11.1173      0.00000
      6      15.2393      0.00000
      7      18.6167      0.00000
      8      20.2906      0.00000
      9      22.1140      0.00000
     10      24.3292      0.00000
     11      26.4077      0.00000
     12      31.0596      0.00000
     13      32.3137      0.00000
     14      33.2064      0.00000
     15      35.5737      0.00000
     16      38.8453      0.00000

 k-point     3 :      -0.3750    0.1250    0.1250
  band No.  band energies     occupation 
      1     -12.5142      2.00000
      2      -0.8668      2.00000
      3       2.2531      2.00000
      4       2.6250      2.00000
      5      11.7227      0.00000
      6      15.4168      0.00000
      7      17.9100      0.00000
      8      19.7209      0.00000
      9      23.6973      0.00000
     10      25.9464      0.00000
     11      26.0234      0.00000
     12      32.2853      0.00000
     13      32.8701      0.00000
     14      33.2390      0.00000
     15      35.7933      0.00000
     16      37.5018      0.00000

 k-point     4 :      -0.1250    0.1250    0.1250
  band No.  band energies     occupation 
      1     -13.2353      2.00000
      2       1.1355      2.00000
      3       2.8886      2.00000
      4       2.8920      2.00000
      5      10.2858      0.00000
      6      15.4956      0.00000
      7      19.4177      0.00000
      8      19.9048      0.00000
      9      21.0698      0.00000
     10      24.9106      0.00000
     11      26.8689      0.00000
     12      29.9504      0.00000
     13      30.2578      0.00000
     14      30.9815      0.00000
     15      37.1774      0.00000
     16      38.9488      0.00000

 k-point     5 :       0.3750    0.3750    0.1250
  band No.  band energies     occupation 
      1     -12.7132      2.00000
      2       0.0713      2.00000
      3       2.2027      2.00000
      4       2.4336      2.00000
      5      12.2134      0.00000
      6      13.9067      0.00000
      7      17.1599      0.00000
      8      20.7790      0.00000
      9      21.2346      0.00000
     10      27.0830      0.00000
     11      30.1451      0.00000
     12      30.3986      0.00000
     13      32.3275      0.00000
     14      34.8178      0.00000
     15      36.4647      0.00000
     16      37.8682      0.00000

 k-point     6 :      -0.3750    0.3750    0.1250
  band No.  band energies     occupation 
      1     -12.3039      2.00000
      2      -0.0421      2.00000
      3       0.9516      2.00000
      4       2.0255      2.00000
      5      13.7573      0.00000
      6      14.7659      0.00000
      7      15.5604      0.00000
      8      19.5461      0.00000
      9      22.9904      0.00000
     10      26.4438      0.00000
     11      29.9743      0.00000
     12      31.3988      0.00000
     13      32.6673      0.00000
     14      36.3330      0.00000
     15      38.8803      0.00000
     16      41.0852      0.00000

 k-point     7 :      -0.1250    0.3750    0.1250
  band No.  band energies     occupation 
      1     -12.5588      2.00000
      2      -0.2468      2.00000
      3       1.6892      2.00000
      4       2.5237      2.00000
      5      12.5826      0.00000
      6      14.7882      0.00000
      7      16.9311      0.00000
      8      20.1169      0.00000
      9      22.6957      0.00000
     10      25.3542      0.00000
     11      28.8624      0.00000
     12      31.6295      0.00000
     13      32.2325      0.00000
     14      34.8812      0.00000
     15      35.5233      0.00000
     16      41.0058      0.00000

 k-point     8 :      -0.3750   -0.3750    0.1250
  band No.  band energies     occupation 
      1     -12.3398      2.00000
      2      -0.4043      2.00000
      3       1.6876      2.00000
      4       2.1410      2.00000
      5      12.8526      0.00000
      6      13.4854      0.00000
      7      16.0072      0.00000
      8      21.4720      0.00000
      9      21.4842      0.00000
     10      28.9143      0.00000
     11      29.3908      0.00000
     12      31.9629      0.00000
     13      32.6593      0.00000
     14      37.7931      0.00000
     15      38.1685      0.00000
     16      41.0962      0.00000

 k-point     9 :       0.3750    0.3750    0.3750
  band No.  band energies     occupation 
      1     -12.7496      2.00000
      2      -0.6003      2.00000
      3       2.8188      2.00000
      4       2.8188      2.00000
      5      10.9290      0.00000
      6      15.4299      0.00000
      7      19.5242      0.00000
      8      19.5242      0.00000
      9      24.0696      0.00000
     10      24.4411      0.00000
     11      24.4411      0.00000
     12      31.8984      0.00000
     13      33.2097      0.00000
     14      33.2098      0.00000
     15      36.8389      0.00000
     16      36.8389      0.00000

 k-point    10 :      -0.3750    0.3750    0.3750
  band No.  band energies     occupation 
      1     -12.3872      2.00000
      2      -0.2835      2.00000
      3       1.0570      2.00000
      4       2.4937      2.00000
      5      13.0727      0.00000
      6      15.2304      0.00000
      7      16.1211      0.00000
      8      20.4262      0.00000
      9      22.5100      0.00000
     10      25.5484      0.00000
     11      29.0747      0.00000
     12      31.6133      0.00000
     13      32.0358      0.00000
     14      35.3634      0.00000
     15      37.2373      0.00000
     16      40.1098      0.00000


--------------------------------------------------------------------------------------------------------


 soft charge-density along one line, spin component           1
         0         1         2         3         4         5         6         7         8         9
 total charge-density along one line
 
 pseudopotential strength for first ion, spin component:           1
 25.191  -0.005  -0.000  -0.000  -0.000   0.000   0.000   0.000
 -0.005   0.001  -0.000  -0.000  -0.000  -0.000  -0.000  -0.000
 -0.000  -0.000  -8.632   0.000   0.000   0.013   0.000   0.000
 -0.000  -0.000   0.000  -8.632   0.000   0.000   0.013   0.000
 -0.000  -0.000   0.000   0.000  -8.632   0.000   0.000   0.013
  0.000  -0.000   0.013   0.000   0.000   0.018   0.000   0.000
  0.000  -0.000   0.000   0.013   0.000   0.000   0.018   0.000
  0.000  -0.000   0.000   0.000   0.013   0.000   0.000   0.018
 total augmentation occupancy for first ion, spin component:           1
  1.787   2.138   0.000   0.000   0.000   0.000   0.000   0.000
  2.138   4.115   0.000   0.000   0.000   0.000   0.000   0.000
  0.000   0.000   1.497   0.000  -0.000  -0.965  -0.000   0.000
  0.000   0.000   0.000   1.497  -0.000  -0.000  -0.965   0.000
  0.000   0.000  -0.000  -0.000   1.497   0.000   0.000  -0.965
  0.000   0.000  -0.965  -0.000   0.000   0.684   0.000   0.000
  0.000   0.000  -0.000  -0.965   0.000   0.000   0.684  -0.000
  0.000   0.000   0.000   0.000  -0.965  -0.000  -0.000   0.684


------------------------ aborting loop because EDIFF is reached ----------------------------------------


    CHARGE:  cpu time    0.0110: real time    0.0113
    FORLOC:  cpu time    0.0010: real time    0.0002
    FORNL :  cpu time    0.0070: real time    0.0068
    STRESS:  cpu time    0.0660: real time    0.0663
    FORCOR:  cpu time    0.0040: real time    0.0036
    FORHAR:  cpu time    0.0010: real time    0.0008
    MIXING:  cpu time    0.0000: real time    0.0006
    OFIELD:  cpu time    0.0000: real time    0.0000

  FORCE on cell =-STRESS in cart. coord.  units (eV):
  Direction    XX          YY          ZZ          XY          YZ          ZX
  --------------------------------------------------------------------------------------
  Alpha Z    15.79326    15.79326    15.79326
  Ewald    -118.15107  -118.15107  -118.15107    -0.00000    -0.00000     0.00000
  Hartree    47.26731    47.26731    47.26731     0.00000     0.00000     0.00000
  E(xc)     -36.93241   -36.93241   -36.93241    -0.00000    -0.00000    -0.00000
  Local     -89.00271   -89.00271   -89.00273    -0.00000     0.00000    -0.00000
  n-local    -9.05358    -9.26561   -10.39692     0.22721     0.47477    -1.15187
  augment     0.83624     0.83625     0.83625    -0.00000    -0.00000    -0.00000
  Kinetic   185.68639   188.70556   194.54366     0.68019    -1.76785     4.00049
  Fock        0.00000     0.00000     0.00000     0.00000     0.00000     0.00000
  -------------------------------------------------------------------------------------
  Total      -0.11621    -0.11621    -0.11621    -0.00000    -0.00000     0.00000
  in kB      -9.65772    -9.65772    -9.65772    -0.00000    -0.00000     0.00000
  external pressure =       -9.66 kB  Pullay stress =        0.00 kB


 VOLUME and BASIS-vectors are now :
 -----------------------------------------------------------------------------
  energy-cutoff  :     1025.00
  volume of cell :       19.28
      direct lattice vectors                 reciprocal lattice vectors
     3.009788000  0.000000000  0.000000000     0.332249315 -0.191824221 -0.135640193
     1.504894000  2.606553000  0.000000000     0.000000000  0.383648443 -0.135640193
     1.504894000  0.868851000  2.457482000     0.000000000  0.000000000  0.406920580

  length of vectors
     3.009788000  3.009788114  3.009788330     0.406920632  0.406920619  0.406920580


 FORCES acting on ions
    electron-ion (+dipol)            ewald-force                    non-local-force                 convergence-correction
 -----------------------------------------------------------------------------------------------
   0.750E-12 0.783E-12 0.377E-12   0.522E-15 -.592E-15 -.130E-15   0.291E-24 0.451E-24 -.171E-23   0.401E-14 0.128E-14 -.684E-14
   -.252E-14 0.350E-15 -.214E-15   -.124E-14 0.371E-15 0.144E-15   -.937E-23 0.357E-23 0.461E-23   0.407E-16 -.116E-17 -.930E-18
 -----------------------------------------------------------------------------------------------
   0.748E-12 0.783E-12 0.377E-12   -.716E-15 -.221E-15 0.145E-16   -.908E-23 0.403E-23 0.290E-23   0.405E-14 0.128E-14 -.684E-14
 
 
 POSITION                                       TOTAL-FORCE (eV/Angst)
 -----------------------------------------------------------------------------------
      3.00979      1.73770      1.22874         0.000000     -0.000000      0.000000
      0.00000      0.00000      0.00000        -0.000000      0.000000     -0.000000
 -----------------------------------------------------------------------------------
    total drift:                                0.000000      0.000000      0.000000


--------------------------------------------------------------------------------------------------------



  FREE ENERGIE OF THE ION-ELECTRON SYSTEM (eV)
  ---------------------------------------------------
  free  energy   TOTEN  =       -11.91947721 eV

  energy  without entropy=      -11.91947721  energy(sigma->0) =      -11.91947721
 


--------------------------------------------------------------------------------------------------------


    POTLOK:  cpu time    0.0080: real time    0.0076


--------------------------------------------------------------------------------------------------------


     LOOP+:  cpu time    1.4318: real time    1.6040
    4ORBIT:  cpu time    0.0000: real time    0.0000

 total amount of memory used by VASP on root node    35254. kBytes
========================================================================

   base      :      30000. kBytes
   nonl-proj :       3075. kBytes
   fftplans  :        320. kBytes
   grid      :       1605. kBytes
   one-center:         16. kBytes
   wavefun   :        238. kBytes
 
  
  
 General timing and accounting informations for this job:
 ========================================================
  
                  Total CPU time used (sec):        5.324
                            User time (sec):        2.029
                          System time (sec):        3.295
                         Elapsed time (sec):        5.891
  
                   Maximum memory used (kb):       66300.
                   Average memory used (kb):           0.
  
                          Minor page faults:        43414
                          Major page faults:            8
                 Voluntary context switches:         1386
