# ['Mg', 'O']

216 atoms
2 atom types

    0.0000    13.3849 xlo xhi
    0.0000    13.3849 ylo yhi
    0.0000    13.3849 zlo zhi

    0.0000     0.0000     0.0000 xy xz yz

Atoms

1 1     1.0000     2.2308     2.2308     0.0000
2 1     1.0000     2.2308     0.0000     2.2308
3 1     1.0000     0.0000     0.0000     0.0000
4 1     1.0000     0.0000     2.2308     2.2308
5 1     1.0000     2.2308     2.2308     4.4616
6 1     1.0000     2.2308     0.0000     6.6925
7 1     1.0000     0.0000     0.0000     4.4616
8 1     1.0000     0.0000     2.2308     6.6925
9 1     1.0000     2.2308     2.2308     8.9233
10 1     1.0000     2.2308     0.0000    11.1541
11 1     1.0000     0.0000     0.0000     8.9233
12 1     1.0000     0.0000     2.2308    11.1541
13 1     1.0000     2.2308     6.6925     0.0000
14 1     1.0000     2.2308     4.4616     2.2308
15 1     1.0000     0.0000     4.4616     0.0000
16 1     1.0000     0.0000     6.6925     2.2308
17 1     1.0000     2.2308     6.6925     4.4616
18 1     1.0000     2.2308     4.4616     6.6925
19 1     1.0000     0.0000     4.4616     4.4616
20 1     1.0000     0.0000     6.6925     6.6925
21 1     1.0000     2.2308     6.6925     8.9233
22 1     1.0000     2.2308     4.4616    11.1541
23 1     1.0000     0.0000     4.4616     8.9233
24 1     1.0000     0.0000     6.6925    11.1541
25 1     1.0000     2.2308    11.1541     0.0000
26 1     1.0000     2.2308     8.9233     2.2308
27 1     1.0000     0.0000     8.9233     0.0000
28 1     1.0000     0.0000    11.1541     2.2308
29 1     1.0000     2.2308    11.1541     4.4616
30 1     1.0000     2.2308     8.9233     6.6925
31 1     1.0000     0.0000     8.9233     4.4616
32 1     1.0000     0.0000    11.1541     6.6925
33 1     1.0000     2.2308    11.1541     8.9233
34 1     1.0000     2.2308     8.9233    11.1541
35 1     1.0000     0.0000     8.9233     8.9233
36 1     1.0000     0.0000    11.1541    11.1541
37 1     1.0000     6.6925     2.2308     0.0000
38 1     1.0000     6.6925     0.0000     2.2308
39 1     1.0000     4.4616     0.0000     0.0000
40 1     1.0000     4.4616     2.2308     2.2308
41 1     1.0000     6.6925     2.2308     4.4616
42 1     1.0000     6.6925     0.0000     6.6925
43 1     1.0000     4.4616     0.0000     4.4616
44 1     1.0000     4.4616     2.2308     6.6925
45 1     1.0000     6.6925     2.2308     8.9233
46 1     1.0000     6.6925     0.0000    11.1541
47 1     1.0000     4.4616     0.0000     8.9233
48 1     1.0000     4.4616     2.2308    11.1541
49 1     1.0000     6.6925     6.6925     0.0000
50 1     1.0000     6.6925     4.4616     2.2308
51 1     1.0000     4.4616     4.4616     0.0000
52 1     1.0000     4.4616     6.6925     2.2308
53 1     1.0000     6.6925     6.6925     4.4616
54 1     1.0000     6.6925     4.4616     6.6925
55 1     1.0000     4.4616     4.4616     4.4616
56 1     1.0000     4.4616     6.6925     6.6925
57 1     1.0000     6.6925     6.6925     8.9233
58 1     1.0000     6.6925     4.4616    11.1541
59 1     1.0000     4.4616     4.4616     8.9233
60 1     1.0000     4.4616     6.6925    11.1541
61 1     1.0000     6.6925    11.1541     0.0000
62 1     1.0000     6.6925     8.9233     2.2308
63 1     1.0000     4.4616     8.9233     0.0000
64 1     1.0000     4.4616    11.1541     2.2308
65 1     1.0000     6.6925    11.1541     4.4616
66 1     1.0000     6.6925     8.9233     6.6925
67 1     1.0000     4.4616     8.9233     4.4616
68 1     1.0000     4.4616    11.1541     6.6925
69 1     1.0000     6.6925    11.1541     8.9233
70 1     1.0000     6.6925     8.9233    11.1541
71 1     1.0000     4.4616     8.9233     8.9233
72 1     1.0000     4.4616    11.1541    11.1541
73 1     1.0000    11.1541     2.2308     0.0000
74 1     1.0000    11.1541     0.0000     2.2308
75 1     1.0000     8.9233     0.0000     0.0000
76 1     1.0000     8.9233     2.2308     2.2308
77 1     1.0000    11.1541     2.2308     4.4616
78 1     1.0000    11.1541     0.0000     6.6925
79 1     1.0000     8.9233     0.0000     4.4616
80 1     1.0000     8.9233     2.2308     6.6925
81 1     1.0000    11.1541     2.2308     8.9233
82 1     1.0000    11.1541     0.0000    11.1541
83 1     1.0000     8.9233     0.0000     8.9233
84 1     1.0000     8.9233     2.2308    11.1541
85 1     1.0000    11.1541     6.6925     0.0000
86 1     1.0000    11.1541     4.4616     2.2308
87 1     1.0000     8.9233     4.4616     0.0000
88 1     1.0000     8.9233     6.6925     2.2308
89 1     1.0000    11.1541     6.6925     4.4616
90 1     1.0000    11.1541     4.4616     6.6925
91 1     1.0000     8.9233     4.4616     4.4616
92 1     1.0000     8.9233     6.6925     6.6925
93 1     1.0000    11.1541     6.6925     8.9233
94 1     1.0000    11.1541     4.4616    11.1541
95 1     1.0000     8.9233     4.4616     8.9233
96 1     1.0000     8.9233     6.6925    11.1541
97 1     1.0000    11.1541    11.1541     0.0000
98 1     1.0000    11.1541     8.9233     2.2308
99 1     1.0000     8.9233     8.9233     0.0000
100 1     1.0000     8.9233    11.1541     2.2308
101 1     1.0000    11.1541    11.1541     4.4616
102 1     1.0000    11.1541     8.9233     6.6925
103 1     1.0000     8.9233     8.9233     4.4616
104 1     1.0000     8.9233    11.1541     6.6925
105 1     1.0000    11.1541    11.1541     8.9233
106 1     1.0000    11.1541     8.9233    11.1541
107 1     1.0000     8.9233     8.9233     8.9233
108 1     1.0000     8.9233    11.1541    11.1541
109 2     1.0000     0.0000     2.2308     0.0000
110 2     1.0000     2.2308     0.0000     0.0000
111 2     1.0000     2.2308     2.2308     2.2308
112 2     1.0000     0.0000     0.0000     2.2308
113 2     1.0000     0.0000     2.2308     4.4616
114 2     1.0000     2.2308     0.0000     4.4616
115 2     1.0000     2.2308     2.2308     6.6925
116 2     1.0000     0.0000     0.0000     6.6925
117 2     1.0000     0.0000     2.2308     8.9233
118 2     1.0000     2.2308     0.0000     8.9233
119 2     1.0000     2.2308     2.2308    11.1541
120 2     1.0000     0.0000     0.0000    11.1541
121 2     1.0000     0.0000     6.6925     0.0000
122 2     1.0000     2.2308     4.4616     0.0000
123 2     1.0000     2.2308     6.6925     2.2308
124 2     1.0000     0.0000     4.4616     2.2308
125 2     1.0000     0.0000     6.6925     4.4616
126 2     1.0000     2.2308     4.4616     4.4616
127 2     1.0000     2.2308     6.6925     6.6925
128 2     1.0000     0.0000     4.4616     6.6925
129 2     1.0000     0.0000     6.6925     8.9233
130 2     1.0000     2.2308     4.4616     8.9233
131 2     1.0000     2.2308     6.6925    11.1541
132 2     1.0000     0.0000     4.4616    11.1541
133 2     1.0000     0.0000    11.1541     0.0000
134 2     1.0000     2.2308     8.9233     0.0000
135 2     1.0000     2.2308    11.1541     2.2308
136 2     1.0000     0.0000     8.9233     2.2308
137 2     1.0000     0.0000    11.1541     4.4616
138 2     1.0000     2.2308     8.9233     4.4616
139 2     1.0000     2.2308    11.1541     6.6925
140 2     1.0000     0.0000     8.9233     6.6925
141 2     1.0000     0.0000    11.1541     8.9233
142 2     1.0000     2.2308     8.9233     8.9233
143 2     1.0000     2.2308    11.1541    11.1541
144 2     1.0000     0.0000     8.9233    11.1541
145 2     1.0000     4.4616     2.2308     0.0000
146 2     1.0000     6.6925     0.0000     0.0000
147 2     1.0000     6.6925     2.2308     2.2308
148 2     1.0000     4.4616     0.0000     2.2308
149 2     1.0000     4.4616     2.2308     4.4616
150 2     1.0000     6.6925     0.0000     4.4616
151 2     1.0000     6.6925     2.2308     6.6925
152 2     1.0000     4.4616     0.0000     6.6925
153 2     1.0000     4.4616     2.2308     8.9233
154 2     1.0000     6.6925     0.0000     8.9233
155 2     1.0000     6.6925     2.2308    11.1541
156 2     1.0000     4.4616     0.0000    11.1541
157 2     1.0000     4.4616     6.6925     0.0000
158 2     1.0000     6.6925     4.4616     0.0000
159 2     1.0000     6.6925     6.6925     2.2308
160 2     1.0000     4.4616     4.4616     2.2308
161 2     1.0000     4.4616     6.6925     4.4616
162 2     1.0000     6.6925     4.4616     4.4616
163 2     1.0000     4.4616     4.4616     6.6925
164 2     1.0000     4.4616     6.6925     8.9233
165 2     1.0000     6.6925     4.4616     8.9233
166 2     1.0000     6.6925     6.6925    11.1541
167 2     1.0000     4.4616     4.4616    11.1541
168 2     1.0000     4.4616    11.1541     0.0000
169 2     1.0000     6.6925     8.9233     0.0000
170 2     1.0000     6.6925    11.1541     2.2308
171 2     1.0000     4.4616     8.9233     2.2308
172 2     1.0000     4.4616    11.1541     4.4616
173 2     1.0000     6.6925     8.9233     4.4616
174 2     1.0000     6.6925    11.1541     6.6925
175 2     1.0000     4.4616     8.9233     6.6925
176 2     1.0000     4.4616    11.1541     8.9233
177 2     1.0000     6.6925     8.9233     8.9233
178 2     1.0000     6.6925    11.1541    11.1541
179 2     1.0000     4.4616     8.9233    11.1541
180 2     1.0000     8.9233     2.2308     0.0000
181 2     1.0000    11.1541     0.0000     0.0000
182 2     1.0000    11.1541     2.2308     2.2308
183 2     1.0000     8.9233     0.0000     2.2308
184 2     1.0000     8.9233     2.2308     4.4616
185 2     1.0000    11.1541     0.0000     4.4616
186 2     1.0000    11.1541     2.2308     6.6925
187 2     1.0000     8.9233     0.0000     6.6925
188 2     1.0000     8.9233     2.2308     8.9233
189 2     1.0000    11.1541     0.0000     8.9233
190 2     1.0000    11.1541     2.2308    11.1541
191 2     1.0000     8.9233     0.0000    11.1541
192 2     1.0000     8.9233     6.6925     0.0000
193 2     1.0000    11.1541     4.4616     0.0000
194 2     1.0000    11.1541     6.6925     2.2308
195 2     1.0000     8.9233     4.4616     2.2308
196 2     1.0000     8.9233     6.6925     4.4616
197 2     1.0000    11.1541     4.4616     4.4616
198 2     1.0000    11.1541     6.6925     6.6925
199 2     1.0000     8.9233     4.4616     6.6925
200 2     1.0000     8.9233     6.6925     8.9233
201 2     1.0000    11.1541     4.4616     8.9233
202 2     1.0000    11.1541     6.6925    11.1541
203 2     1.0000     8.9233     4.4616    11.1541
204 2     1.0000     8.9233    11.1541     0.0000
205 2     1.0000    11.1541     8.9233     0.0000
206 2     1.0000    11.1541    11.1541     2.2308
207 2     1.0000     8.9233     8.9233     2.2308
208 2     1.0000     8.9233    11.1541     4.4616
209 2     1.0000    11.1541     8.9233     4.4616
210 2     1.0000    11.1541    11.1541     6.6925
211 2     1.0000     8.9233     8.9233     6.6925
212 2     1.0000     8.9233    11.1541     8.9233
213 2     1.0000    11.1541     8.9233     8.9233
214 2     1.0000    11.1541    11.1541    11.1541
215 2     1.0000     8.9233     8.9233    11.1541
216 2     1.0000    10.0387    10.0387    10.0387
