LAMMPS (11 Aug 2017)
# ---- initialize simulations
clear
units metal
dimension 3
boundary p p p
atom_style atomic
atom_modify map array
# ---- create atoms
read_data /ufrc/phillpot/eragasa/pareto_optimization_3.5NN/rank_40/Ni_hcp.lmps_min_all/lammps.structure
  triclinic box = (0 0 0) to (3.6 6.2354 5.8788) with tilt (0 0 0)
  1 by 1 by 1 MPI processor grid
  reading atoms ...
  4 atoms
# ---- define interatomic potential
include potential.mod
mass 1 58.6934

group Ni type 1
4 atoms in group Ni

pair_style eam/alloy
pair_coeff * * /ufrc/phillpot/eragasa/pareto_optimization_3.5NN/rank_40/Ni_hcp.lmps_min_all/Ni.eam.alloy Ni

neighbor 1.0 bin
neigh_modify every 1 delay 0 check yes
# ---- define settings
compute eng all pe/atom
compute eatoms all reduce sum c_eng
# ---- run minimization
reset_timestep 0
fix 1 all box/relax aniso 0.0 vmax 0.001
thermo 10
thermo_style custom step pe xhi xlo yhi ylo zhi xy xz yz press pxx pyy pzz pxy pxz pyz c_eatoms
min_style cg
minimize 1e-25 1e-25 5000 10000
Neighbor list info ...
  update every 1 steps, delay 0 steps, check yes
  max neighbors/atom: 2000, page size: 100000
  master list distance cutoff = 5.64464
  ghost atom cutoff = 5.64464
  binsize = 2.82232, bins = 2 3 3
  1 neighbor lists, perpetual/occasional/extra = 1 0 0
  (1) pair eam/alloy, perpetual
      attributes: half, newton on
      pair build: half/bin/newton/tri
      stencil: half/bin/3d/newton/tri
      bin: standard
Per MPI rank memory allocation (min/avg/max) = 4.194 | 4.194 | 4.194 Mbytes
Step PotEng Xhi Xlo Yhi Ylo Zhi Xy Xz Yz Press Pxx Pyy Pzz Pxy Pxz Pyz c_eatoms 
       0   -5.8485744          3.6            0       6.2354            0       5.8788            0            0            0   -113173.82   -113174.92   -113173.19   -113173.36 -3.3698075e-13 6.739615e-13 1.8870922e-11   -5.8485744 
      10   -6.1317056        3.582        0.018    6.2042235  0.031176525    5.8494064            0            0            0   -118359.77   -118360.89   -118359.11   -118359.29 -9.9521918e-12 1.3132118e-12 -2.2226923e-11   -6.1317056 
      20   -6.4218996        3.564        0.036    6.1730469  0.062353053    5.8200128            0            0            0   -123791.92   -123793.08   -123791.24   -123791.43 -2.0564689e-11 8.7271257e-12 -8.5928622e-12   -6.4218996 
      30   -6.7192864        3.546        0.054    6.1418704  0.093529582    5.7906192            0            0            0   -129477.61    -129478.8   -129476.91   -129477.11 5.0075956e-12 -3.1614774e-12 -5.9075783e-12   -6.7192864 
      40   -7.0239838        3.528        0.072    6.1106939   0.12470611    5.7612256            0            0            0   -135423.09   -135424.32   -135422.38   -135422.58 -1.5639982e-11 1.9044119e-13 -3.047059e-11   -7.0239838 
      50   -7.3360939         3.51         0.09    6.0795174   0.15588265     5.731832            0            0            0   -141633.16   -141634.42   -141632.42   -141632.64 1.0808522e-12 3.1442973e-12 1.8865784e-11   -7.3360939 
      60   -7.6556988        3.492        0.108    6.0483408   0.18705918    5.7024384            0            0            0   -148110.65   -148111.95   -148109.89   -148110.12 1.2475727e-11 3.0428602e-12 -1.298287e-11   -7.6556988 
      70   -7.9828561        3.474        0.126    6.0171643   0.21823572    5.6730448            0            0            0   -154855.89   -154857.22   -154855.11   -154855.35 1.4663018e-12 -1.1625678e-11 1.0054641e-11   -7.9828561 
      80   -8.3175935        3.456        0.144    5.9859877   0.24941227    5.6436511            0            0            0   -161865.94   -161867.29   -161865.14   -161865.39 8.5468806e-12 -1.060246e-11 1.0386083e-11   -8.3175935 
      90   -8.6599513        3.438        0.162    5.9548112   0.28058883    5.6142575            0            0            0   -169367.95   -169369.12   -169367.34    -169367.4 1.2639745e-11 1.087025e-11 3.7241481e-12   -8.6599513 
     100   -9.0113985         3.42         0.18    5.9236345   0.31176546    5.5848639            0            0            0   -178021.55   -178022.71   -178020.94   -178020.99 -1.0400608e-11 1.1614013e-11 2.6044857e-11   -9.0113985 
     110   -9.3724921        3.402        0.198    5.8924579   0.34294211    5.5554702            0            0            0      -186918   -186919.15   -186917.39   -186917.45 4.2423058e-12 3.2265425e-12 3.2564179e-12   -9.3724921 
     120   -9.7429974        3.384        0.216    5.8612812   0.37411877    5.5260765            0            0            0   -196036.81   -196037.94   -196036.21   -196036.27 1.1805894e-11 2.7474973e-11 -9.5806992e-12   -9.7429974 
     130   -10.122615        3.366        0.234    5.8301046   0.40529544    5.4966828            0            0            0   -205347.35   -205348.44   -205346.76   -205346.83 4.3497526e-12 3.083207e-11 1.0938348e-11   -10.122615 
     140   -10.510963        3.348        0.252    5.7989279   0.43647213    5.4672891            0            0            0   -214806.45    -214807.5   -214805.89   -214805.95 -8.2118237e-12 -2.1655374e-11 1.9205072e-11   -10.510963 
     150   -10.907561         3.33         0.27    5.7677512   0.46764883    5.4378953            0            0            0   -224355.44   -224356.43   -224354.92   -224354.98 -3.0179293e-12 -6.9275196e-12 2.2977417e-11   -10.907561 
     160   -11.311808        3.312        0.288    5.7365744   0.49882556    5.4085016            0            0            0   -233916.53   -233917.43   -233916.04   -233916.11 -2.7432318e-11 -9.9495453e-13  3.28335e-11   -11.311808 
     170   -11.722956        3.294        0.306    5.7053977   0.53000231    5.3791078            0            0            0    -243388.3   -243389.09   -243387.87   -243387.94 -3.2413905e-12 -7.0721247e-12 2.2689733e-11   -11.722956 
     180   -12.140081        3.276        0.324    5.6742209   0.56117908     5.349714            0            0            0   -252640.34   -252640.99   -252639.98   -252640.06 -6.2644817e-12 -8.7091575e-12 -3.2391954e-11   -12.140081 
     190    -12.56205        3.258        0.342    5.6430441   0.59235589    5.3203201            0            0            0   -261506.56   -261507.03   -261506.28   -261506.36 -4.4385972e-12 -3.3289479e-12 1.5376569e-11    -12.56205 
     200   -12.987482         3.24         0.36    5.6118673   0.62353273    5.2909263            0            0            0   -269777.04   -269777.29   -269776.87   -269776.95 1.1517832e-11 -2.4681069e-11 2.3035665e-11   -12.987482 
     210   -13.414697        3.222        0.378    5.5806904   0.65470961    5.2615324            0            0            0   -277188.04   -277188.11   -277188.09   -277187.91 -1.1277303e-11 -1.2644249e-11 -1.6061614e-11   -13.414697 
     220   -13.841409    3.2040356   0.39596444    5.5495751   0.68582494    5.2321384            0            0            0   -283818.72   -283395.57   -283396.04   -284664.54 -3.9053452e-12 1.2426098e-11 -6.3905649e-11   -13.841409 
     230   -14.264765    3.1861542    0.4138458    5.5186036   0.71679643    5.2027444            0            0            0    -288867.4   -287984.96   -287986.02   -290631.21 8.1175765e-12 1.6235153e-11 5.6823035e-11   -14.264765 
     240   -14.681835      3.16836   0.43163996     5.487783   0.74761696    5.1733504            0            0            0   -291846.57   -290476.05   -290477.81   -294585.85 -2.3784544e-11 -9.590542e-12 2.0715571e-11   -14.681835 
     250   -15.089168    3.1506585   0.44934151    5.4571228   0.77827715    5.1439564            0            0            0   -292168.35   -290285.41   -290287.98   -295931.66 7.9798571e-13 3.9899286e-12 1.4363743e-11   -15.089168 
     260     -15.4834    3.1330426   0.46695744    5.4266109   0.80878908    5.1145624            0            0            0   -290802.86   -288859.19   -288861.16   -294688.24 1.3955941e-11 -2.4162621e-13 -6.1071429e-12     -15.4834 
     270   -15.865799    3.1153663   0.48463372    5.3959945   0.83940554    5.0851684            0            0            0   -287543.72   -286217.43   -286220.45   -290193.27 -3.1963751e-11 5.1325694e-12 1.1291653e-11   -15.865799 
     280   -16.232076    3.0975784   0.50242161    5.3651846   0.87021545    5.0557744            0            0            0   -279042.96   -278407.85   -278412.11   -280308.92 -4.6157434e-12 1.1708227e-11 1.1032753e-11   -16.232076 
     290   -16.575361    3.0796587   0.52034127    5.3341462   0.90125376    5.0263804            0            0            0   -263842.52   -263969.23   -263974.92    -263583.4 -7.659341e-12 1.8634795e-12 3.6389206e-12   -16.575361 
     300   -16.885991    3.0616591   0.53834086    5.3029692   0.93243076    4.9971222            0            0            0   -240218.98   -241159.75   -241167.02   -238330.17 2.4739918e-11 -1.6595341e-11 9.8592246e-12   -16.885991 
     310    -17.15273    3.0436597   0.55634027    5.2717922   0.96360776    4.9682108            0            0            0   -206232.65   -207995.32   -208004.23   -202698.41 2.7965415e-11 5.3693597e-12 3.1321265e-11    -17.15273 
     320   -17.364435    3.0256606   0.57433937    5.2406152   0.99478476    4.9397937            0            0            0   -159545.88   -162046.44   -162056.84   -154534.36 1.0559388e-10 1.5018093e-11 1.348291e-11   -17.364435 
     330   -17.508612    3.0076621   0.59233792    5.2094382    1.0259618    4.9121855            0            0            0   -98330.041   -100815.15   -100826.28   -93348.697 -5.4237242e-11 2.7327762e-11 -4.3571049e-11   -17.508612 
     340   -17.574216    2.9896653    0.6103347    5.1782612    1.0571388    4.8851561            0            0            0   -20576.358    -21263.28   -21271.924   -19193.869 6.2202776e-11 4.7198359e-11 1.2090938e-11   -17.574216 
     350    -17.57668    2.9855064   0.61449358    5.1710573    1.0643427    4.8794131            0            0            0 0.0068405942 0.0091058753  0.010084743 0.0013311643 -8.1658329e-11 -5.1496244e-11 6.4664569e-11    -17.57668 
     360    -17.57668    2.9855064   0.61449358    5.1710573    1.0643427    4.8794131            0            0            0 5.7764317e-09 5.7734645e-09 5.8709396e-09 5.684891e-09 7.9451347e-12 -8.3571046e-11 1.341845e-10    -17.57668 
     367    -17.57668    2.9855064   0.61449358    5.1710573    1.0643427    4.8794131            0            0            0 -1.6472667e-10 -6.3561078e-10 9.0681206e-10 -7.6538131e-10 -4.1785523e-11 5.885285e-11 -1.1822066e-10    -17.57668 
Loop time of 0.0413859 on 1 procs for 367 steps with 4 atoms

12.2% CPU use with 1 MPI tasks x no OpenMP threads

Minimization stats:
  Stopping criterion = energy tolerance
  Energy initial, next-to-last, final = 
        -5.84857442586     -17.5766797201     -17.5766797201
  Force two-norm initial, final = 16.1455 5.33418e-14
  Force max component initial, final = 9.3217 3.24668e-14
  Final line search alpha, max atom move = 1 3.24668e-14
  Iterations, force evaluations = 367 392

MPI task timing breakdown:
Section |  min time  |  avg time  |  max time  |%varavg| %total
---------------------------------------------------------------
Pair    | 0.0024469  | 0.0024469  | 0.0024469  |   0.0 |  5.91
Neigh   | 0.00010586 | 0.00010586 | 0.00010586 |   0.0 |  0.26
Comm    | 0.00051975 | 0.00051975 | 0.00051975 |   0.0 |  1.26
Output  | 0.036589   | 0.036589   | 0.036589   |   0.0 | 88.41
Modify  | 0          | 0          | 0          |   0.0 |  0.00
Other   |            | 0.001724   |            |       |  4.17

Nlocal:    4 ave 4 max 4 min
Histogram: 1 0 0 0 0 0 0 0 0 0
Nghost:    284 ave 284 max 284 min
Histogram: 1 0 0 0 0 0 0 0 0 0
Neighs:    136 ave 136 max 136 min
Histogram: 1 0 0 0 0 0 0 0 0 0

Total # of neighbors = 136
Ave neighs/atom = 34
Neighbor list builds = 6
Dangerous builds = 0
# ---- define output variables ----
variable natoms equal "count(all)"
variable tot_energy equal "c_eatoms"
variable a11 equal "xhi-xlo"
variable a22 equal "yhi-ylo"
variable a33 equal "zhi-zlo"
variable tilt_xy equal "xy"
variable tilt_xz equal "xz"
variable tilt_yz equal "yz"
variable tot_press equal "press"
variable press_xx equal "pxx"
variable press_yy equal "pyy"
variable press_zz equal "pzz"
variable press_xy equal "pxy"
variable press_xz equal "pxz"
variable press_yz equal "pyz"

# ---- output ----
print "pypospack:output_section:begin"
pypospack:output_section:begin
print "tot_energy = ${tot_energy}"
tot_energy = -17.5766797200641
print "num_atoms = ${natoms}"
num_atoms = 4
print "a11 = ${a11}"
a11 = 2.37101283419546
print "a22 = ${a22}"
a22 = 4.10671469422441
print "a33 = ${a33}"
a33 = 3.88002628094172
print "a12 = ${tilt_xy}"
a12 = 0
print "a13 = ${tilt_xz}"
a13 = 0
print "a23 = ${tilt_yz}"
a23 = 0
print "tot_press = ${tot_press}"
tot_press = -1.64726673900749e-10
print "pxx = ${press_xx}"
pxx = -6.35610775959422e-10
print "pyy = ${press_yy}"
pyy = 9.06812063641646e-10
print "pzz = ${press_zz}"
pzz = -7.65381309384471e-10
print "pxy = ${press_xy}"
pxy = -4.17855232343694e-11
print "pxz = ${press_xz}"
pxz = 5.88528496258725e-11
print "pyz = ${press_yz}"
pyz = -1.18220661685971e-10
print "pypospack:output_section:done"
pypospack:output_section:done
print "pypospack:lammps_sim:done"
pypospack:lammps_sim:done
Total wall time: 0:00:00
