# ['Si']

215 atoms
1 atom types

    0.0000    87.7770 xlo xhi
    0.0000    87.7770 ylo yhi
    0.0000    87.7770 zlo zhi

    0.0000     0.0000     0.0000 xy xz yz

Atoms

1 1     7.3147     7.3147     7.3147
2 1     0.0000    14.6295    14.6295
3 1     7.3147    21.9443    21.9443
4 1    14.6295     0.0000    14.6295
5 1    21.9443     7.3147    21.9443
6 1    14.6295    14.6295     0.0000
7 1    21.9443    21.9443     7.3147
8 1     0.0000     0.0000    29.2590
9 1     7.3147     7.3147    36.5738
10 1     0.0000    14.6295    43.8885
11 1     7.3147    21.9443    51.2032
12 1    14.6295     0.0000    43.8885
13 1    21.9443     7.3147    51.2032
14 1    14.6295    14.6295    29.2590
15 1    21.9443    21.9443    36.5738
16 1     0.0000     0.0000    58.5181
17 1     7.3147     7.3147    65.8328
18 1     0.0000    14.6295    73.1475
19 1     7.3147    21.9443    80.4623
20 1    14.6295     0.0000    73.1475
21 1    21.9443     7.3147    80.4623
22 1    14.6295    14.6295    58.5181
23 1    21.9443    21.9443    65.8328
24 1     0.0000    29.2590     0.0000
25 1     7.3147    36.5738     7.3147
26 1     0.0000    43.8885    14.6295
27 1     7.3147    51.2032    21.9443
28 1    14.6295    29.2590    14.6295
29 1    21.9443    36.5738    21.9443
30 1    14.6295    43.8885     0.0000
31 1    21.9443    51.2032     7.3147
32 1     0.0000    29.2590    29.2590
33 1     7.3147    36.5738    36.5738
34 1     0.0000    43.8885    43.8885
35 1     7.3147    51.2032    51.2032
36 1    14.6295    29.2590    43.8885
37 1    21.9443    36.5738    51.2032
38 1    14.6295    43.8885    29.2590
39 1    21.9443    51.2032    36.5738
40 1     0.0000    29.2590    58.5181
41 1     7.3147    36.5738    65.8328
42 1     0.0000    43.8885    73.1475
43 1     7.3147    51.2032    80.4623
44 1    14.6295    29.2590    73.1475
45 1    21.9443    36.5738    80.4623
46 1    14.6295    43.8885    58.5181
47 1    21.9443    51.2032    65.8328
48 1     0.0000    58.5181     0.0000
49 1     7.3147    65.8328     7.3147
50 1     0.0000    73.1475    14.6295
51 1     7.3147    80.4623    21.9443
52 1    14.6295    58.5181    14.6295
53 1    21.9443    65.8328    21.9443
54 1    14.6295    73.1475     0.0000
55 1    21.9443    80.4623     7.3147
56 1     0.0000    58.5181    29.2590
57 1     7.3147    65.8328    36.5738
58 1     0.0000    73.1475    43.8885
59 1     7.3147    80.4623    51.2032
60 1    14.6295    58.5181    43.8885
61 1    21.9443    65.8328    51.2032
62 1    14.6295    73.1475    29.2590
63 1    21.9443    80.4623    36.5738
64 1     0.0000    58.5181    58.5181
65 1     7.3147    65.8328    65.8328
66 1     0.0000    73.1475    73.1475
67 1     7.3147    80.4623    80.4623
68 1    14.6295    58.5181    73.1475
69 1    21.9443    65.8328    80.4623
70 1    14.6295    73.1475    58.5181
71 1    21.9443    80.4623    65.8328
72 1    29.2590     0.0000     0.0000
73 1    36.5738     7.3147     7.3147
74 1    29.2590    14.6295    14.6295
75 1    36.5738    21.9443    21.9443
76 1    43.8885     0.0000    14.6295
77 1    51.2032     7.3147    21.9443
78 1    43.8885    14.6295     0.0000
79 1    51.2032    21.9443     7.3147
80 1    29.2590     0.0000    29.2590
81 1    36.5738     7.3147    36.5738
82 1    29.2590    14.6295    43.8885
83 1    36.5738    21.9443    51.2032
84 1    43.8885     0.0000    43.8885
85 1    51.2032     7.3147    51.2032
86 1    43.8885    14.6295    29.2590
87 1    51.2032    21.9443    36.5738
88 1    29.2590     0.0000    58.5181
89 1    36.5738     7.3147    65.8328
90 1    29.2590    14.6295    73.1475
91 1    36.5738    21.9443    80.4623
92 1    43.8885     0.0000    73.1475
93 1    51.2032     7.3147    80.4623
94 1    43.8885    14.6295    58.5181
95 1    51.2032    21.9443    65.8328
96 1    29.2590    29.2590     0.0000
97 1    36.5738    36.5738     7.3147
98 1    29.2590    43.8885    14.6295
99 1    36.5738    51.2032    21.9443
100 1    43.8885    29.2590    14.6295
101 1    51.2032    36.5738    21.9443
102 1    43.8885    43.8885     0.0000
103 1    51.2032    51.2032     7.3147
104 1    29.2590    29.2590    29.2590
105 1    36.5738    36.5738    36.5738
106 1    29.2590    43.8885    43.8885
107 1    36.5738    51.2032    51.2032
108 1    43.8885    29.2590    43.8885
109 1    51.2032    36.5738    51.2032
110 1    43.8885    43.8885    29.2590
111 1    51.2032    51.2032    36.5738
112 1    29.2590    29.2590    58.5181
113 1    36.5738    36.5738    65.8328
114 1    29.2590    43.8885    73.1475
115 1    36.5738    51.2032    80.4623
116 1    43.8885    29.2590    73.1475
117 1    51.2032    36.5738    80.4623
118 1    43.8885    43.8885    58.5181
119 1    51.2032    51.2032    65.8328
120 1    29.2590    58.5181     0.0000
121 1    36.5738    65.8328     7.3147
122 1    29.2590    73.1475    14.6295
123 1    36.5738    80.4623    21.9443
124 1    43.8885    58.5181    14.6295
125 1    51.2032    65.8328    21.9443
126 1    43.8885    73.1475     0.0000
127 1    51.2032    80.4623     7.3147
128 1    29.2590    58.5181    29.2590
129 1    36.5738    65.8328    36.5738
130 1    29.2590    73.1475    43.8885
131 1    36.5738    80.4623    51.2032
132 1    43.8885    58.5181    43.8885
133 1    51.2032    65.8328    51.2032
134 1    43.8885    73.1475    29.2590
135 1    51.2032    80.4623    36.5738
136 1    29.2590    58.5181    58.5181
137 1    36.5738    65.8328    65.8328
138 1    29.2590    73.1475    73.1475
139 1    36.5738    80.4623    80.4623
140 1    43.8885    58.5181    73.1475
141 1    51.2032    65.8328    80.4623
142 1    43.8885    73.1475    58.5181
143 1    51.2032    80.4623    65.8328
144 1    58.5181     0.0000     0.0000
145 1    65.8328     7.3147     7.3147
146 1    58.5181    14.6295    14.6295
147 1    65.8328    21.9443    21.9443
148 1    73.1475     0.0000    14.6295
149 1    80.4623     7.3147    21.9443
150 1    73.1475    14.6295     0.0000
151 1    80.4623    21.9443     7.3147
152 1    58.5181     0.0000    29.2590
153 1    65.8328     7.3147    36.5738
154 1    58.5181    14.6295    43.8885
155 1    65.8328    21.9443    51.2032
156 1    73.1475     0.0000    43.8885
157 1    80.4623     7.3147    51.2032
158 1    73.1475    14.6295    29.2590
159 1    80.4623    21.9443    36.5738
160 1    58.5181     0.0000    58.5181
161 1    65.8328     7.3147    65.8328
162 1    58.5181    14.6295    73.1475
163 1    65.8328    21.9443    80.4623
164 1    73.1475     0.0000    73.1475
165 1    80.4623     7.3147    80.4623
166 1    73.1475    14.6295    58.5181
167 1    80.4623    21.9443    65.8328
168 1    58.5181    29.2590     0.0000
169 1    65.8328    36.5738     7.3147
170 1    58.5181    43.8885    14.6295
171 1    65.8328    51.2032    21.9443
172 1    73.1475    29.2590    14.6295
173 1    80.4623    36.5738    21.9443
174 1    73.1475    43.8885     0.0000
175 1    80.4623    51.2032     7.3147
176 1    58.5181    29.2590    29.2590
177 1    65.8328    36.5738    36.5738
178 1    58.5181    43.8885    43.8885
179 1    65.8328    51.2032    51.2032
180 1    73.1475    29.2590    43.8885
181 1    80.4623    36.5738    51.2032
182 1    73.1475    43.8885    29.2590
183 1    80.4623    51.2032    36.5738
184 1    58.5181    29.2590    58.5181
185 1    65.8328    36.5738    65.8328
186 1    58.5181    43.8885    73.1475
187 1    65.8328    51.2032    80.4623
188 1    73.1475    29.2590    73.1475
189 1    80.4623    36.5738    80.4623
190 1    73.1475    43.8885    58.5181
191 1    80.4623    51.2032    65.8328
192 1    58.5181    58.5181     0.0000
193 1    65.8328    65.8328     7.3147
194 1    58.5181    73.1475    14.6295
195 1    65.8328    80.4623    21.9443
196 1    73.1475    58.5181    14.6295
197 1    80.4623    65.8328    21.9443
198 1    73.1475    73.1475     0.0000
199 1    80.4623    80.4623     7.3147
200 1    58.5181    58.5181    29.2590
201 1    65.8328    65.8328    36.5738
202 1    58.5181    73.1475    43.8885
203 1    65.8328    80.4623    51.2032
204 1    73.1475    58.5181    43.8885
205 1    80.4623    65.8328    51.2032
206 1    73.1475    73.1475    29.2590
207 1    80.4623    80.4623    36.5738
208 1    58.5181    58.5181    58.5181
209 1    65.8328    65.8328    65.8328
210 1    58.5181    73.1475    73.1475
211 1    65.8328    80.4623    80.4623
212 1    73.1475    58.5181    73.1475
213 1    80.4623    65.8328    80.4623
214 1    73.1475    73.1475    58.5181
215 1    80.4623    80.4623    65.8328
