# ['Ni']

18 atoms
1 atom types

    0.0000     2.4694 xlo xhi
    0.0000     4.2771 ylo yhi
    0.0000    36.2865 zlo zhi

    0.0000     0.0000    -0.0004 xy xz yz

Atoms

1 1     0.0000     0.0000     0.0000
2 1     1.2347     0.7129     2.0159
3 1     0.0000     1.4257     4.0318
4 1     1.2347     2.1386     0.0000
5 1     0.0000     2.8514     2.0159
6 1     1.2347     3.5643     4.0318
7 1     0.0000     0.0000     6.0478
8 1     1.2347     0.7129     8.0637
9 1     0.0000     1.4257    10.0796
10 1     1.2347     2.1386     6.0478
11 1     0.0000     2.8514     8.0637
12 1     1.2347     3.5643    10.0796
13 1     0.0000     0.0000    12.0955
14 1     1.2347     0.7129    14.1114
15 1     0.0000     1.4257    16.1273
16 1     1.2347     2.1386    12.0955
17 1     0.0000     2.8514    14.1114
18 1     1.2347     3.5643    16.1273
