# ['Ni']

107 atoms
1 atom types

    0.0000    27.6895 xlo xhi
    0.0000    27.6895 ylo yhi
    0.0000    27.6895 zlo zhi

    0.0000    -0.0000    -0.0000 xy xz yz

Atoms

1 1     4.6149     4.6149     0.0000
2 1     4.6149     0.0000     4.6149
3 1     0.0000     4.6149     4.6149
4 1     0.0000     0.0000     9.2298
5 1     4.6149     4.6149     9.2298
6 1     4.6149     0.0000    13.8447
7 1     0.0000     4.6149    13.8447
8 1     0.0000     0.0000    18.4597
9 1     4.6149     4.6149    18.4597
10 1     4.6149     0.0000    23.0746
11 1     0.0000     4.6149    23.0746
12 1     0.0000     9.2298     0.0000
13 1     4.6149    13.8447     0.0000
14 1     4.6149     9.2298     4.6149
15 1     0.0000    13.8447     4.6149
16 1     0.0000     9.2298     9.2298
17 1     4.6149    13.8447     9.2298
18 1     4.6149     9.2298    13.8447
19 1     0.0000    13.8447    13.8447
20 1     0.0000     9.2298    18.4597
21 1     4.6149    13.8447    18.4597
22 1     4.6149     9.2298    23.0746
23 1     0.0000    13.8447    23.0746
24 1     0.0000    18.4597     0.0000
25 1     4.6149    23.0746     0.0000
26 1     4.6149    18.4597     4.6149
27 1     0.0000    23.0746     4.6149
28 1     0.0000    18.4597     9.2298
29 1     4.6149    23.0746     9.2298
30 1     4.6149    18.4597    13.8447
31 1     0.0000    23.0746    13.8447
32 1     0.0000    18.4597    18.4597
33 1     4.6149    23.0746    18.4597
34 1     4.6149    18.4597    23.0746
35 1     0.0000    23.0746    23.0746
36 1     9.2298     0.0000     0.0000
37 1    13.8447     4.6149     0.0000
38 1    13.8447     0.0000     4.6149
39 1     9.2298     4.6149     4.6149
40 1     9.2298     0.0000     9.2298
41 1    13.8447     4.6149     9.2298
42 1    13.8447     0.0000    13.8447
43 1     9.2298     4.6149    13.8447
44 1     9.2298     0.0000    18.4597
45 1    13.8447     4.6149    18.4597
46 1    13.8447     0.0000    23.0746
47 1     9.2298     4.6149    23.0746
48 1     9.2298     9.2298     0.0000
49 1    13.8447    13.8447     0.0000
50 1    13.8447     9.2298     4.6149
51 1     9.2298    13.8447     4.6149
52 1     9.2298     9.2298     9.2298
53 1    13.8447    13.8447     9.2298
54 1    13.8447     9.2298    13.8447
55 1     9.2298    13.8447    13.8447
56 1     9.2298     9.2298    18.4597
57 1    13.8447    13.8447    18.4597
58 1    13.8447     9.2298    23.0746
59 1     9.2298    13.8447    23.0746
60 1     9.2298    18.4597     0.0000
61 1    13.8447    23.0746     0.0000
62 1    13.8447    18.4597     4.6149
63 1     9.2298    23.0746     4.6149
64 1     9.2298    18.4597     9.2298
65 1    13.8447    23.0746     9.2298
66 1    13.8447    18.4597    13.8447
67 1     9.2298    23.0746    13.8447
68 1     9.2298    18.4597    18.4597
69 1    13.8447    23.0746    18.4597
70 1    13.8447    18.4597    23.0746
71 1     9.2298    23.0746    23.0746
72 1    18.4597     0.0000     0.0000
73 1    23.0746     4.6149     0.0000
74 1    23.0746     0.0000     4.6149
75 1    18.4597     4.6149     4.6149
76 1    18.4597     0.0000     9.2298
77 1    23.0746     4.6149     9.2298
78 1    23.0746     0.0000    13.8447
79 1    18.4597     4.6149    13.8447
80 1    18.4597     0.0000    18.4597
81 1    23.0746     4.6149    18.4597
82 1    23.0746     0.0000    23.0746
83 1    18.4597     4.6149    23.0746
84 1    18.4597     9.2298     0.0000
85 1    23.0746    13.8447     0.0000
86 1    23.0746     9.2298     4.6149
87 1    18.4597    13.8447     4.6149
88 1    18.4597     9.2298     9.2298
89 1    23.0746    13.8447     9.2298
90 1    23.0746     9.2298    13.8447
91 1    18.4597    13.8447    13.8447
92 1    18.4597     9.2298    18.4597
93 1    23.0746    13.8447    18.4597
94 1    23.0746     9.2298    23.0746
95 1    18.4597    13.8447    23.0746
96 1    18.4597    18.4597     0.0000
97 1    23.0746    23.0746     0.0000
98 1    23.0746    18.4597     4.6149
99 1    18.4597    23.0746     4.6149
100 1    18.4597    18.4597     9.2298
101 1    23.0746    23.0746     9.2298
102 1    23.0746    18.4597    13.8447
103 1    18.4597    23.0746    13.8447
104 1    18.4597    18.4597    18.4597
105 1    23.0746    23.0746    18.4597
106 1    23.0746    18.4597    23.0746
107 1    18.4597    23.0746    23.0746
