# ['Ni']

18 atoms
1 atom types

    0.0000     2.3354 xlo xhi
    0.0000     4.0450 ylo yhi
    0.0000    34.3170 zlo zhi

    0.0000     0.0000    -0.0004 xy xz yz

Atoms

1 1     0.0000     0.0000     0.0000
2 1     1.1677     0.6742     1.9065
3 1     0.0000     1.3483     3.8130
4 1     1.1677     2.0225     0.0000
5 1     0.0000     2.6967     1.9065
6 1     1.1677     3.3708     3.8130
7 1     0.0000     0.0000     5.7195
8 1     1.1677     0.6742     7.6260
9 1     0.0000     1.3483     9.5325
10 1     1.1677     2.0225     5.7195
11 1     0.0000     2.6967     7.6260
12 1     1.1677     3.3708     9.5325
13 1     0.0000     0.0000    11.4390
14 1     1.1677     0.6742    13.3455
15 1     0.0000     1.3483    15.2520
16 1     1.1677     2.0225    11.4390
17 1     0.0000     2.6967    13.3455
18 1     1.1677     3.3708    15.2520
