# ['Ni']

18 atoms
1 atom types

    0.0000     2.4947 xlo xhi
    0.0000     4.3210 ylo yhi
    0.0000    36.6586 zlo zhi

    0.0000     0.0000    -0.0004 xy xz yz

Atoms

1 1     0.0000     0.0000     0.0000
2 1     1.2473     0.7202     2.0366
3 1     0.0000     1.4403     4.0732
4 1     1.2473     2.1605     0.0000
5 1     0.0000     2.8807     2.0366
6 1     1.2473     3.6008     4.0732
7 1     0.0000     0.0000     6.1098
8 1     1.2473     0.7202     8.1463
9 1     0.0000     1.4403    10.1829
10 1     1.2473     2.1605     6.1098
11 1     0.0000     2.8807     8.1463
12 1     1.2473     3.6008    10.1829
13 1     0.0000     0.0000    12.2195
14 1     1.2473     0.7202    14.2561
15 1     0.0000     1.4403    16.2927
16 1     1.2473     2.1605    12.2195
17 1     0.0000     2.8807    14.2561
18 1     1.2473     3.6008    16.2927
