   4   4   0   0
  0.1064635E+02  0.3492102E-09  0.3492102E-09  0.3492102E-09  0.5000000E-15
  1.000000000000000E-004
  CAR 
 automatically generated by pyflamestk   
     33.67482412     -0.87867659  301      9.53178496      1.00000000
     -0.879  0.0000E+00  0.0000E+00  0.0000E+00  0.0000E+00
     -0.763  0.0000E+00  0.0000E+00  0.0000E+00  0.0000E+00
     -0.648  0.0000E+00  0.0000E+00  0.0000E+00  0.0000E+00
     -0.533 -0.4833E-29 -0.4824E-29 -0.5566E-30 -0.5556E-30
     -0.418 -0.4433E-25 -0.4425E-25 -0.5107E-26 -0.5098E-26
     -0.303 -0.2083E-21 -0.2080E-21 -0.2400E-22 -0.2396E-22
     -0.188 -0.5009E-18 -0.5002E-18 -0.5772E-19 -0.5763E-19
     -0.072 -0.6155E-15 -0.6147E-15 -0.7095E-16 -0.7086E-16
      0.043 -0.3728E-12 -0.3724E-12 -0.4301E-13 -0.4296E-13
      0.158 -0.1179E-09 -0.1178E-09 -0.1362E-10 -0.1361E-10
      0.273 -0.1883E-07 -0.1882E-07 -0.2183E-08 -0.2181E-08
      0.388 -0.1507E-05 -0.1506E-05 -0.1757E-06 -0.1756E-06
      0.503 -0.5946E-04 -0.5942E-04 -0.7024E-05 -0.7020E-05
      0.619 -0.1122E-02 -0.1122E-02 -0.1363E-03 -0.1362E-03
      0.734 -0.9378E-02 -0.9375E-02 -0.1216E-02 -0.1216E-02
      0.849 -0.2534E-01 -0.2534E-01 -0.4135E-02 -0.4134E-02
      0.964  0.5076E-01  0.5072E-01  0.1712E-02  0.1708E-02
      1.079  0.3397E+00  0.3396E+00  0.4083E-01  0.4082E-01
      1.195  0.5006E+00  0.5006E+00  0.9850E-01  0.9849E-01
      1.310  0.2497E+00  0.2497E+00  0.1273E+00  0.1272E+00
      1.425  0.9598E-02  0.9621E-02  0.1284E+00  0.1284E+00
      1.540 -0.2280E-01 -0.2281E-01  0.1257E+00  0.1257E+00
      1.655 -0.5765E-02 -0.5767E-02  0.1251E+00  0.1251E+00
      1.770 -0.5458E-03 -0.5461E-03  0.1250E+00  0.1250E+00
      1.886 -0.2573E-04 -0.2574E-04  0.1250E+00  0.1250E+00
      2.001 -0.9785E-04 -0.9778E-04  0.1250E+00  0.1250E+00
      2.116 -0.2105E-02 -0.2104E-02  0.1247E+00  0.1247E+00
      2.231 -0.2057E-01 -0.2056E-01  0.1224E+00  0.1224E+00
      2.346 -0.7226E-01 -0.7225E-01  0.1141E+00  0.1141E+00
      2.461  0.6432E-01  0.6424E-01  0.1215E+00  0.1215E+00
      2.577  0.8412E+00  0.8410E+00  0.2183E+00  0.2183E+00
      2.692  0.1515E+01  0.1515E+01  0.3928E+00  0.3928E+00
      2.807  0.9284E+00  0.9286E+00  0.4997E+00  0.4997E+00
      2.922  0.1039E+00  0.1040E+00  0.5117E+00  0.5117E+00
      3.037 -0.7483E-01 -0.7483E-01  0.5031E+00  0.5031E+00
      3.153 -0.2405E-01 -0.2406E-01  0.5003E+00  0.5003E+00
      3.268 -0.2742E-02 -0.2744E-02  0.5000E+00  0.5000E+00
      3.383 -0.2089E-02 -0.2088E-02  0.4998E+00  0.4998E+00
      3.498 -0.1958E-01 -0.1957E-01  0.4975E+00  0.4975E+00
      3.613 -0.7125E-01 -0.7124E-01  0.4893E+00  0.4893E+00
      3.728  0.5335E-01  0.5328E-01  0.4954E+00  0.4954E+00
      3.844  0.8143E+00  0.8142E+00  0.5892E+00  0.5892E+00
      3.959  0.1512E+01  0.1512E+01  0.7634E+00  0.7634E+00
      4.074  0.9517E+00  0.9519E+00  0.8730E+00  0.8730E+00
      4.189  0.9944E-01  0.9953E-01  0.8845E+00  0.8845E+00
      4.304 -0.9558E-01 -0.9558E-01  0.8735E+00  0.8735E+00
      4.420  0.9568E-01  0.9567E-01  0.8845E+00  0.8845E+00
      4.535  0.3863E+00  0.3862E+00  0.9290E+00  0.9290E+00
      4.650  0.6973E+00  0.6971E+00  0.1009E+01  0.1009E+01
      4.765  0.1306E+01  0.1305E+01  0.1160E+01  0.1160E+01
      4.880  0.1381E+01  0.1382E+01  0.1319E+01  0.1319E+01
      4.995  0.4215E+00  0.4219E+00  0.1367E+01  0.1367E+01
      5.111 -0.1012E-01 -0.1012E-01  0.1366E+01  0.1366E+01
      5.226  0.1189E+01  0.1188E+01  0.1503E+01  0.1503E+01
      5.341  0.2900E+01  0.2900E+01  0.1837E+01  0.1837E+01
      5.456  0.3507E+01  0.3507E+01  0.2241E+01  0.2241E+01
      5.571  0.3306E+01  0.3306E+01  0.2622E+01  0.2622E+01
      5.686  0.1806E+01  0.1807E+01  0.2830E+01  0.2830E+01
      5.802  0.7725E+00  0.7724E+00  0.2919E+01  0.2919E+01
      5.917  0.2904E+01  0.2902E+01  0.3253E+01  0.3253E+01
      6.032  0.5212E+01  0.5211E+01  0.3853E+01  0.3853E+01
      6.147  0.3792E+01  0.3793E+01  0.4290E+01  0.4290E+01
      6.262  0.2503E+01  0.2504E+01  0.4578E+01  0.4579E+01
      6.378  0.3941E+01  0.3941E+01  0.5032E+01  0.5032E+01
      6.493  0.3488E+01  0.3487E+01  0.5434E+01  0.5434E+01
      6.608  0.2351E+01  0.2350E+01  0.5705E+01  0.5705E+01
      6.723  0.3440E+01  0.3440E+01  0.6101E+01  0.6101E+01
      6.838  0.3511E+01  0.3512E+01  0.6505E+01  0.6505E+01
      6.953  0.2640E+01  0.2641E+01  0.6809E+01  0.6810E+01
      7.069  0.3260E+01  0.3259E+01  0.7185E+01  0.7185E+01
      7.184  0.4907E+01  0.4905E+01  0.7750E+01  0.7750E+01
      7.299  0.6728E+01  0.6729E+01  0.8525E+01  0.8525E+01
      7.414  0.6457E+01  0.6458E+01  0.9269E+01  0.9269E+01
      7.529  0.4005E+01  0.4004E+01  0.9730E+01  0.9730E+01
      7.645  0.3244E+01  0.3243E+01  0.1010E+02  0.1010E+02
      7.760  0.5532E+01  0.5531E+01  0.1074E+02  0.1074E+02
      7.875  0.7859E+01  0.7859E+01  0.1165E+02  0.1165E+02
      7.990  0.7158E+01  0.7159E+01  0.1247E+02  0.1247E+02
      8.105  0.3762E+01  0.3763E+01  0.1290E+02  0.1290E+02
      8.220  0.1982E+01  0.1981E+01  0.1313E+02  0.1313E+02
      8.336  0.3534E+01  0.3533E+01  0.1354E+02  0.1354E+02
      8.451  0.4226E+01  0.4227E+01  0.1403E+02  0.1403E+02
      8.566  0.4628E+01  0.4628E+01  0.1456E+02  0.1456E+02
      8.681  0.7320E+01  0.7318E+01  0.1540E+02  0.1540E+02
      8.796  0.7389E+01  0.7390E+01  0.1625E+02  0.1625E+02
      8.911  0.3520E+01  0.3522E+01  0.1666E+02  0.1666E+02
      9.027  0.1913E+01  0.1914E+01  0.1688E+02  0.1688E+02
      9.142  0.4537E+01  0.4537E+01  0.1740E+02  0.1740E+02
      9.257  0.6736E+01  0.6737E+01  0.1818E+02  0.1818E+02
      9.372  0.5847E+01  0.5848E+01  0.1885E+02  0.1885E+02
      9.487  0.6666E+01  0.6667E+01  0.1962E+02  0.1962E+02
      9.603  0.8719E+01  0.8719E+01  0.2062E+02  0.2062E+02
      9.718  0.5886E+01  0.5887E+01  0.2130E+02  0.2130E+02
      9.833  0.1225E+01  0.1225E+01  0.2144E+02  0.2144E+02
      9.948 -0.3550E+00 -0.3549E+00  0.2140E+02  0.2140E+02
     10.063 -0.1932E+00 -0.1932E+00  0.2138E+02  0.2138E+02
     10.178 -0.3031E-01 -0.3031E-01  0.2138E+02  0.2138E+02
     10.294 -0.2113E-02 -0.2114E-02  0.2138E+02  0.2138E+02
     10.409 -0.1070E-03 -0.1070E-03  0.2137E+02  0.2137E+02
     10.524 -0.1176E-02 -0.1176E-02  0.2137E+02  0.2137E+02
     10.639 -0.1830E-01 -0.1830E-01  0.2137E+02  0.2137E+02
     10.754 -0.1218E+00 -0.1218E+00  0.2136E+02  0.2136E+02
     10.870 -0.2032E+00 -0.2032E+00  0.2134E+02  0.2134E+02
     10.985  0.9318E+00  0.9314E+00  0.2144E+02  0.2144E+02
     11.100  0.3701E+01  0.3701E+01  0.2187E+02  0.2187E+02
     11.215  0.4223E+01  0.4223E+01  0.2236E+02  0.2236E+02
     11.330  0.1561E+01  0.1561E+01  0.2254E+02  0.2254E+02
     11.445 -0.1040E+00 -0.1039E+00  0.2252E+02  0.2252E+02
     11.561 -0.1659E+00 -0.1660E+00  0.2250E+02  0.2250E+02
     11.676 -0.3219E-01 -0.3220E-01  0.2250E+02  0.2250E+02
     11.791 -0.3334E-02 -0.3335E-02  0.2250E+02  0.2250E+02
     11.906 -0.1058E-01 -0.1057E-01  0.2250E+02  0.2250E+02
     12.021 -0.5494E-01 -0.5493E-01  0.2249E+02  0.2249E+02
     12.136 -0.3712E-01 -0.3717E-01  0.2249E+02  0.2249E+02
     12.252  0.5131E+00  0.5128E+00  0.2255E+02  0.2255E+02
     12.367  0.1406E+01  0.1406E+01  0.2271E+02  0.2271E+02
     12.482  0.1241E+01  0.1241E+01  0.2285E+02  0.2285E+02
     12.597  0.3143E+00  0.3145E+00  0.2289E+02  0.2289E+02
     12.712 -0.6797E-01 -0.6795E-01  0.2288E+02  0.2288E+02
     12.828 -0.4128E-01 -0.4129E-01  0.2288E+02  0.2288E+02
     12.943 -0.1181E-01 -0.1181E-01  0.2287E+02  0.2287E+02
     13.058 -0.3938E-01 -0.3937E-01  0.2287E+02  0.2287E+02
     13.173 -0.7032E-01 -0.7033E-01  0.2286E+02  0.2286E+02
     13.288  0.2888E+00  0.2887E+00  0.2289E+02  0.2289E+02
     13.403  0.1212E+01  0.1212E+01  0.2303E+02  0.2303E+02
     13.519  0.1425E+01  0.1425E+01  0.2320E+02  0.2320E+02
     13.634  0.5446E+00  0.5448E+00  0.2326E+02  0.2326E+02
     13.749 -0.3020E-01 -0.3016E-01  0.2326E+02  0.2326E+02
     13.864 -0.5698E-01 -0.5699E-01  0.2325E+02  0.2325E+02
     13.979 -0.1132E-01 -0.1132E-01  0.2325E+02  0.2325E+02
     14.095 -0.1899E-02 -0.1899E-02  0.2325E+02  0.2325E+02
     14.210 -0.1475E-01 -0.1474E-01  0.2325E+02  0.2325E+02
     14.325 -0.9082E-01 -0.9079E-01  0.2324E+02  0.2324E+02
     14.440 -0.1217E+00 -0.1218E+00  0.2322E+02  0.2322E+02
     14.555  0.7501E+00  0.7497E+00  0.2331E+02  0.2331E+02
     14.670  0.2603E+01  0.2603E+01  0.2361E+02  0.2361E+02
     14.786  0.2719E+01  0.2719E+01  0.2392E+02  0.2392E+02
     14.901  0.8885E+00  0.8889E+00  0.2403E+02  0.2403E+02
     15.016 -0.1005E+00 -0.1005E+00  0.2401E+02  0.2401E+02
     15.131 -0.1006E+00 -0.1006E+00  0.2400E+02  0.2400E+02
     15.246 -0.1771E-01 -0.1772E-01  0.2400E+02  0.2400E+02
     15.361 -0.1288E-02 -0.1288E-02  0.2400E+02  0.2400E+02
     15.477 -0.4387E-04 -0.4391E-04  0.2400E+02  0.2400E+02
     15.592 -0.7857E-05 -0.7854E-05  0.2400E+02  0.2400E+02
     15.707 -0.2592E-03 -0.2591E-03  0.2400E+02  0.2400E+02
     15.822 -0.4482E-02 -0.4480E-02  0.2400E+02  0.2400E+02
     15.937 -0.3377E-01 -0.3376E-01  0.2400E+02  0.2400E+02
     16.053 -0.7463E-01 -0.7463E-01  0.2399E+02  0.2399E+02
     16.168  0.2217E+00  0.2216E+00  0.2401E+02  0.2401E+02
     16.283  0.1127E+01  0.1127E+01  0.2414E+02  0.2414E+02
     16.398  0.1467E+01  0.1467E+01  0.2431E+02  0.2431E+02
     16.513  0.6262E+00  0.6263E+00  0.2438E+02  0.2438E+02
     16.628 -0.6158E-01 -0.6154E-01  0.2438E+02  0.2438E+02
     16.744 -0.1001E+00 -0.1001E+00  0.2436E+02  0.2436E+02
     16.859  0.4972E+00  0.4970E+00  0.2442E+02  0.2442E+02
     16.974  0.1404E+01  0.1404E+01  0.2458E+02  0.2458E+02
     17.089  0.1243E+01  0.1243E+01  0.2473E+02  0.2473E+02
     17.204  0.3161E+00  0.3162E+00  0.2476E+02  0.2476E+02
     17.320 -0.6788E-01 -0.6787E-01  0.2476E+02  0.2476E+02
     17.435 -0.4353E-01 -0.4354E-01  0.2475E+02  0.2475E+02
     17.550 -0.3461E-01 -0.3460E-01  0.2475E+02  0.2475E+02
     17.665 -0.1271E+00 -0.1271E+00  0.2473E+02  0.2473E+02
     17.780 -0.5437E-02 -0.5550E-02  0.2473E+02  0.2473E+02
     17.895  0.1302E+01  0.1301E+01  0.2488E+02  0.2488E+02
     18.011  0.2947E+01  0.2947E+01  0.2522E+02  0.2522E+02
     18.126  0.2227E+01  0.2227E+01  0.2548E+02  0.2548E+02
     18.241  0.4234E+00  0.4236E+00  0.2553E+02  0.2553E+02
     18.356 -0.1589E+00 -0.1589E+00  0.2551E+02  0.2551E+02
     18.471 -0.9129E-01 -0.9131E-01  0.2550E+02  0.2550E+02
     18.586  0.3621E-01  0.3618E-01  0.2550E+02  0.2550E+02
     18.702  0.3287E+00  0.3287E+00  0.2554E+02  0.2554E+02
     18.817  0.5026E+00  0.5026E+00  0.2560E+02  0.2560E+02
     18.932  0.2604E+00  0.2604E+00  0.2563E+02  0.2563E+02
     19.047  0.1350E-01  0.1351E-01  0.2563E+02  0.2563E+02
     19.162 -0.2361E-01 -0.2361E-01  0.2563E+02  0.2563E+02
     19.278 -0.1233E-01 -0.1233E-01  0.2562E+02  0.2562E+02
     19.393 -0.5389E-01 -0.5387E-01  0.2562E+02  0.2562E+02
     19.508 -0.1516E+00 -0.1516E+00  0.2560E+02  0.2560E+02
     19.623  0.2689E+00  0.2687E+00  0.2563E+02  0.2563E+02
     19.738  0.1975E+01  0.1974E+01  0.2586E+02  0.2586E+02
     19.853  0.3016E+01  0.3016E+01  0.2621E+02  0.2621E+02
     19.969  0.1563E+01  0.1563E+01  0.2639E+02  0.2639E+02
     20.084  0.8097E-01  0.8111E-01  0.2640E+02  0.2640E+02
     20.199 -0.1441E+00 -0.1441E+00  0.2638E+02  0.2638E+02
     20.314 -0.7004E-01 -0.7005E-01  0.2637E+02  0.2637E+02
     20.429 -0.7849E-01 -0.7849E-01  0.2636E+02  0.2636E+02
     20.544  0.2149E+00  0.2148E+00  0.2639E+02  0.2639E+02
     20.660  0.1117E+01  0.1117E+01  0.2652E+02  0.2652E+02
     20.775  0.1472E+01  0.1472E+01  0.2669E+02  0.2669E+02
     20.890  0.6466E+00  0.6467E+00  0.2676E+02  0.2676E+02
     21.005 -0.3975E-02 -0.3934E-02  0.2676E+02  0.2676E+02
     21.120 -0.6411E-01 -0.6411E-01  0.2675E+02  0.2675E+02
     21.236 -0.2886E-01 -0.2886E-01  0.2675E+02  0.2675E+02
     21.351 -0.9228E-01 -0.9227E-01  0.2674E+02  0.2674E+02
     21.466 -0.1227E+00 -0.1228E+00  0.2672E+02  0.2672E+02
     21.581  0.7381E+00  0.7378E+00  0.2681E+02  0.2681E+02
     21.696  0.2541E+01  0.2541E+01  0.2710E+02  0.2710E+02
     21.811  0.2718E+01  0.2718E+01  0.2741E+02  0.2741E+02
     21.927  0.1552E+01  0.1552E+01  0.2759E+02  0.2759E+02
     22.042  0.1378E+01  0.1378E+01  0.2775E+02  0.2775E+02
     22.157  0.9985E+00  0.9988E+00  0.2787E+02  0.2787E+02
     22.272  0.1822E+00  0.1823E+00  0.2789E+02  0.2789E+02
     22.387 -0.1017E+00 -0.1016E+00  0.2788E+02  0.2788E+02
     22.503 -0.1257E+00 -0.1257E+00  0.2786E+02  0.2786E+02
     22.618  0.1832E-01  0.1824E-01  0.2786E+02  0.2786E+02
     22.733  0.9549E+00  0.9546E+00  0.2797E+02  0.2797E+02
     22.848  0.2319E+01  0.2319E+01  0.2824E+02  0.2824E+02
     22.963  0.2374E+01  0.2375E+01  0.2851E+02  0.2851E+02
     23.078  0.1040E+01  0.1040E+01  0.2863E+02  0.2863E+02
     23.194  0.4983E-01  0.4991E-01  0.2864E+02  0.2864E+02
     23.309 -0.1015E+00 -0.1015E+00  0.2863E+02  0.2863E+02
     23.424 -0.6358E-01 -0.6358E-01  0.2862E+02  0.2862E+02
     23.539 -0.1008E+00 -0.1008E+00  0.2861E+02  0.2861E+02
     23.654  0.1068E+00  0.1067E+00  0.2862E+02  0.2862E+02
     23.769  0.1072E+01  0.1072E+01  0.2874E+02  0.2874E+02
     23.885  0.2578E+01  0.2578E+01  0.2904E+02  0.2904E+02
     24.000  0.3497E+01  0.3497E+01  0.2944E+02  0.2944E+02
     24.115  0.2399E+01  0.2399E+01  0.2972E+02  0.2972E+02
     24.230  0.4987E+00  0.4990E+00  0.2978E+02  0.2978E+02
     24.345 -0.1557E+00 -0.1557E+00  0.2976E+02  0.2976E+02
     24.461 -0.7791E-01 -0.7793E-01  0.2975E+02  0.2975E+02
     24.576 -0.1108E-01 -0.1108E-01  0.2975E+02  0.2975E+02
     24.691 -0.7105E-03 -0.7110E-03  0.2975E+02  0.2975E+02
     24.806 -0.9150E-03 -0.9146E-03  0.2975E+02  0.2975E+02
     24.921 -0.1353E-01 -0.1353E-01  0.2975E+02  0.2975E+02
     25.036 -0.8667E-01 -0.8665E-01  0.2974E+02  0.2974E+02
     25.152 -0.1310E+00 -0.1310E+00  0.2972E+02  0.2972E+02
     25.267  0.6751E+00  0.6749E+00  0.2980E+02  0.2980E+02
     25.382  0.2497E+01  0.2497E+01  0.3009E+02  0.3009E+02
     25.497  0.2844E+01  0.2844E+01  0.3042E+02  0.3042E+02
     25.612  0.1592E+01  0.1592E+01  0.3060E+02  0.3060E+02
     25.728  0.9189E+00  0.9190E+00  0.3071E+02  0.3071E+02
     25.843  0.4351E+00  0.4353E+00  0.3076E+02  0.3076E+02
     25.958  0.1526E-01  0.1532E-01  0.3076E+02  0.3076E+02
     26.073 -0.4882E-01 -0.4883E-01  0.3075E+02  0.3075E+02
     26.188 -0.1300E-01 -0.1301E-01  0.3075E+02  0.3075E+02
     26.303 -0.1550E-02 -0.1551E-02  0.3075E+02  0.3075E+02
     26.419 -0.4535E-02 -0.4532E-02  0.3075E+02  0.3075E+02
     26.534 -0.3374E-01 -0.3373E-01  0.3075E+02  0.3075E+02
     26.649 -0.7464E-01 -0.7465E-01  0.3074E+02  0.3074E+02
     26.764  0.2214E+00  0.2213E+00  0.3076E+02  0.3076E+02
     26.879  0.1126E+01  0.1126E+01  0.3089E+02  0.3089E+02
     26.994  0.1468E+01  0.1468E+01  0.3106E+02  0.3106E+02
     27.110  0.6371E+00  0.6373E+00  0.3113E+02  0.3113E+02
     27.225 -0.6655E-02 -0.6588E-02  0.3113E+02  0.3113E+02
     27.340 -0.6256E-01 -0.6257E-01  0.3113E+02  0.3113E+02
     27.455 -0.1381E-01 -0.1382E-01  0.3113E+02  0.3113E+02
     27.570 -0.1206E-02 -0.1206E-02  0.3113E+02  0.3113E+02
     27.686 -0.5492E-03 -0.5490E-03  0.3112E+02  0.3112E+02
     27.801 -0.7371E-02 -0.7368E-02  0.3112E+02  0.3112E+02
     27.916 -0.4546E-01 -0.4545E-01  0.3112E+02  0.3112E+02
     28.031 -0.6077E-01 -0.6079E-01  0.3111E+02  0.3111E+02
     28.146  0.3757E+00  0.3756E+00  0.3116E+02  0.3116E+02
     28.261  0.1302E+01  0.1302E+01  0.3131E+02  0.3131E+02
     28.377  0.1359E+01  0.1359E+01  0.3146E+02  0.3146E+02
     28.492  0.4435E+00  0.4437E+00  0.3151E+02  0.3151E+02
     28.607 -0.5042E-01 -0.5039E-01  0.3151E+02  0.3151E+02
     28.722 -0.5084E-01 -0.5085E-01  0.3150E+02  0.3150E+02
     28.837 -0.1702E-01 -0.1702E-01  0.3150E+02  0.3150E+02
     28.953 -0.4883E-01 -0.4882E-01  0.3149E+02  0.3149E+02
     29.068 -0.5528E-01 -0.5529E-01  0.3149E+02  0.3149E+02
     29.183  0.4138E+00  0.4138E+00  0.3153E+02  0.3153E+02
     29.298  0.1335E+01  0.1335E+01  0.3169E+02  0.3169E+02
     29.413  0.1327E+01  0.1327E+01  0.3184E+02  0.3184E+02
     29.528  0.4044E+00  0.4044E+00  0.3189E+02  0.3189E+02
     29.644 -0.5670E-01 -0.5669E-01  0.3188E+02  0.3188E+02
     29.759 -0.4752E-01 -0.4752E-01  0.3188E+02  0.3188E+02
     29.874 -0.7976E-02 -0.7977E-02  0.3188E+02  0.3188E+02
     29.989 -0.5585E-03 -0.5585E-03  0.3188E+02  0.3188E+02
     30.104 -0.1835E-04 -0.1835E-04  0.3188E+02  0.3188E+02
     30.219 -0.2948E-06 -0.2949E-06  0.3188E+02  0.3188E+02
     30.335 -0.2363E-08 -0.2363E-08  0.3188E+02  0.3188E+02
     30.450 -0.9539E-11 -0.9541E-11  0.3188E+02  0.3188E+02
     30.565 -0.8923E-13 -0.8912E-13  0.3187E+02  0.3187E+02
     30.680 -0.2650E-10 -0.2646E-10  0.3187E+02  0.3187E+02
     30.795 -0.5097E-08 -0.5091E-08  0.3187E+02  0.3187E+02
     30.911 -0.4923E-06 -0.4918E-06  0.3187E+02  0.3187E+02
     31.026 -0.2358E-04 -0.2356E-04  0.3187E+02  0.3187E+02
     31.141 -0.5461E-03 -0.5458E-03  0.3187E+02  0.3187E+02
     31.256 -0.5768E-02 -0.5765E-02  0.3187E+02  0.3187E+02
     31.371 -0.2281E-01 -0.2280E-01  0.3187E+02  0.3187E+02
     31.486  0.9627E-02  0.9598E-02  0.3187E+02  0.3187E+02
     31.602  0.2497E+00  0.2497E+00  0.3190E+02  0.3190E+02
     31.717  0.5006E+00  0.5006E+00  0.3196E+02  0.3196E+02
     31.832  0.3396E+00  0.3397E+00  0.3200E+02  0.3200E+02
     31.947  0.5071E-01  0.5076E-01  0.3200E+02  0.3200E+02
     32.062 -0.2534E-01 -0.2534E-01  0.3200E+02  0.3200E+02
     32.178 -0.9374E-02 -0.9378E-02  0.3200E+02  0.3200E+02
     32.293 -0.1122E-02 -0.1122E-02  0.3200E+02  0.3200E+02
     32.408 -0.5941E-04 -0.5946E-04  0.3200E+02  0.3200E+02
     32.523 -0.1505E-05 -0.1507E-05  0.3200E+02  0.3200E+02
     32.638 -0.1881E-07 -0.1883E-07  0.3200E+02  0.3200E+02
     32.753 -0.1178E-09 -0.1179E-09  0.3200E+02  0.3200E+02
     32.869 -0.3721E-12 -0.3728E-12  0.3200E+02  0.3200E+02
     32.984 -0.7229E-15 -0.7229E-15  0.3200E+02  0.3200E+02
     33.099  0.0000E+00  0.0000E+00  0.3200E+02  0.3200E+02
     33.214  0.0000E+00  0.0000E+00  0.3200E+02  0.3200E+02
     33.329  0.0000E+00  0.0000E+00  0.3200E+02  0.3200E+02
     33.444  0.0000E+00  0.0000E+00  0.3200E+02  0.3200E+02
     33.560  0.0000E+00  0.0000E+00  0.3200E+02  0.3200E+02
     33.675  0.0000E+00  0.0000E+00  0.3200E+02  0.3200E+02
