 vasp.5.4.1 24Jun15 (build Jun 05 2017 10:38:15) complex                        
  
 executed on           IFC91_ompi date 2017.08.15  16:46:42
 running on   16 total cores
 distrk:  each k-point on   16 cores,    1 groups
 distr:  one band on NCORES_PER_BAND=   1 cores,   16 groups


--------------------------------------------------------------------------------------------------------


 INCAR:
 POTCAR:    PAW_PBE Ni 02Aug2007                  

 ----------------------------------------------------------------------------- 
|                                                                             |
|           W    W    AA    RRRRR   N    N  II  N    N   GGGG   !!!           |
|           W    W   A  A   R    R  NN   N  II  NN   N  G    G  !!!           |
|           W    W  A    A  R    R  N N  N  II  N N  N  G       !!!           |
|           W WW W  AAAAAA  RRRRR   N  N N  II  N  N N  G  GGG   !            |
|           WW  WW  A    A  R   R   N   NN  II  N   NN  G    G                |
|           W    W  A    A  R    R  N    N  II  N    N   GGGG   !!!           |
|                                                                             |
|      For optimal performance we recommend to set                            |
|        NCORE= 4 - approx SQRT( number of cores)                             |
|      NCORE specifies how many cores store one orbital (NPAR=cpu/NCORE).     |
|      This setting can  greatly improve the performance of VASP for DFT.     |
|      The default, NPAR=number of cores might be grossly inefficient         |
|      on modern multi-core architectures or massively parallel machines.     |
|      Do your own testing !!!!                                               |
|      Unfortunately you need to use the default for GW and RPA calculations. |
|      (for HF NCORE is supported but not extensively tested yet)             |
|                                                                             |
 ----------------------------------------------------------------------------- 

 POTCAR:    PAW_PBE Ni 02Aug2007                  
   VRHFIN =Ni:                                                                  
   LEXCH  = PE                                                                  
   EATOM  =  1077.6734 eV,   79.2068 Ry                                         
                                                                                
   TITEL  = PAW_PBE Ni 02Aug2007                                                
   LULTRA =        F    use ultrasoft PP ?                                      
   IUNSCR =        1    unscreen: 0-lin 1-nonlin 2-no                           
   RPACOR =    2.000    partial core radius                                     
   POMASS =   58.690; ZVAL   =   10.000    mass and valenz                      
   RCORE  =    2.300    outmost cutoff radius                                   
   RWIGS  =    2.430; RWIGS  =    1.286    wigner-seitz radius (au A)           
   ENMAX  =  269.532; ENMIN  =  202.149 eV                                      
   RCLOC  =    1.201    cutoff for local pot                                    
   LCOR   =        T    correct aug charges                                     
   LPAW   =        T    paw PP                                                  
   EAUG   =  544.565                                                            
   DEXC   =    0.000                                                            
   RMAX   =    2.808    core radius for proj-oper                               
   RAUG   =    1.300    factor for augmentation sphere                          
   RDEP   =    2.390    radius for radial grids                                 
   QCUT   =   -4.451; QGAM   =    8.902    optimization parameters              
                                                                                
   Description                                                                  
     l     E      TYP  RCUT    TYP  RCUT                                        
     2    -4.65     23  2.300                                                   
     2    -6.01     23  2.300                                                   
     0    -4.49     23  2.300                                                   
     0     5.01     23  2.300                                                   
     1    -2.72     23  2.300                                                   
     1    16.52     23  2.300                                                   
  local pseudopotential read in
  partial core-charges read in
  atomic valenz-charges read in
  non local Contribution for L=           2  read in
    real space projection operators read in
  non local Contribution for L=           2  read in
    real space projection operators read in
  non local Contribution for L=           0  read in
    real space projection operators read in
  non local Contribution for L=           0  read in
    real space projection operators read in
  non local Contribution for L=           1  read in
    real space projection operators read in
  non local Contribution for L=           1  read in
    real space projection operators read in
    PAW grid and wavefunctions read in
 
   number of l-projection  operators is LMAX  =           6
   number of lm-projection operators is LMMAX =          18
 
  PAW_PBE Ni 02Aug2007                  :
 energy of atom  1       EATOM=-1077.6734
 kinetic energy error for atom=    0.0019 (will be added to EATOM!!)
 
 
 POSCAR: Automatically generated by pypospack    
  positions in direct lattice
  No initial velocities read in
 exchange correlation table for  LEXCH =        8
   RHO(1)=    0.500       N(1)  =     2000
   RHO(2)=  100.500       N(2)  =     4000
 


--------------------------------------------------------------------------------------------------------


 ion  position               nearest neighbor table
   1  0.000  0.000  0.000-   2 2.47   3 2.47   4 2.47   2 2.47   3 2.47   2 2.47   4 2.47   2 2.47
                             3 2.47   4 2.47   3 2.47   4 2.47
   2  0.000  0.500  0.500-   1 2.47   3 2.47   4 2.47   1 2.47   4 2.47   1 2.47   3 2.47   1 2.47
                             3 2.47   4 2.47   4 2.47   3 2.47
   3  0.500  0.000  0.500-   1 2.47   2 2.47   4 2.47   1 2.47   4 2.47   2 2.47   4 2.47   4 2.47
                             1 2.47   2 2.47   1 2.47   2 2.47
   4  0.500  0.500  0.000-   1 2.47   2 2.47   3 2.47   2 2.47   3 2.47   1 2.47   3 2.47   3 2.47
                             1 2.47   2 2.47   2 2.47   1 2.47
 
  LATTYP: Found a simple cubic cell.
 ALAT       =     3.4921020000
  
  Lattice vectors:
  
 A1 = (   3.4921020000,   0.0000000000,   0.0000000000)
 A2 = (   0.0000000000,   3.4921020000,   0.0000000000)
 A3 = (   0.0000000000,   0.0000000000,   3.4921020000)


Analysis of symmetry for initial positions (statically):
=====================================================================
 Subroutine PRICEL returns following result:
 
  LATTYP: Found a face centered cubic cell.
 ALAT       =     3.4921020000
  
  Lattice vectors:
  
 A1 = (   1.7460510000,   1.7460510000,  -0.0000000000)
 A2 = (   1.7460510000,   0.0000000000,  -1.7460510000)
 A3 = (   0.0000000000,   1.7460510000,  -1.7460510000)
 
   4 primitive cells build up your supercell.
 

 Routine SETGRP: Setting up the symmetry group for a 
 simple cubic supercell.


 Subroutine GETGRP returns: Found 48 space group operations
 (whereof 48 operations were pure point group operations)
 out of a pool of 48 trial point group operations.


The static configuration has the point symmetry O_h .


Analysis of symmetry for dynamics (positions and initial velocities):
=====================================================================
 Subroutine PRICEL returns following result:
 
  LATTYP: Found a face centered cubic cell.
 ALAT       =     3.4921020000
  
  Lattice vectors:
  
 A1 = (   1.7460510000,   1.7460510000,  -0.0000000000)
 A2 = (   1.7460510000,   0.0000000000,  -1.7460510000)
 A3 = (   0.0000000000,   1.7460510000,  -1.7460510000)
 
   4 primitive cells build up your supercell.
 

 Routine SETGRP: Setting up the symmetry group for a 
 simple cubic supercell.


 Subroutine GETGRP returns: Found 48 space group operations
 (whereof 48 operations were pure point group operations)
 out of a pool of 48 trial point group operations.


The dynamic configuration has the point symmetry O_h .


Analysis of structural, dynamic, and magnetic symmetry:
=====================================================================
 Subroutine PRICEL returns following result:
 
  LATTYP: Found a face centered cubic cell.
 ALAT       =     3.4921020000
  
  Lattice vectors:
  
 A1 = (   1.7460510000,   1.7460510000,  -0.0000000000)
 A2 = (   1.7460510000,   0.0000000000,  -1.7460510000)
 A3 = (   0.0000000000,   1.7460510000,  -1.7460510000)
 
   4 primitive cells build up your supercell.
 

 Routine SETGRP: Setting up the symmetry group for a 
 simple cubic supercell.


 Subroutine GETGRP returns: Found 48 space group operations
 (whereof 48 operations were pure point group operations)
 out of a pool of 48 trial point group operations.


The magnetic configuration has the point symmetry O_h .


 Subroutine INISYM returns: Found 48 space group operations
 (whereof 48 operations are pure point group operations),
 and found     4 'primitive' translations

 
 
 KPOINTS: Automatic Mesh                          

Automatic generation of k-mesh.
Space group operators:
 irot       det(A)        alpha          n_x          n_y          n_z        tau_x        tau_y        tau_z
    1     1.000000     0.000000     1.000000     0.000000     0.000000     0.000000     0.000000     0.000000
    2    -1.000000     0.000000     1.000000     0.000000     0.000000     0.000000     0.000000     0.000000
    3     1.000000   120.000000    -0.577350    -0.577350    -0.577350     0.000000     0.000000     0.000000
    4    -1.000000   120.000000    -0.577350    -0.577350    -0.577350     0.000000     0.000000     0.000000
    5     1.000000   120.000000     0.577350     0.577350     0.577350     0.000000     0.000000     0.000000
    6    -1.000000   120.000000     0.577350     0.577350     0.577350     0.000000     0.000000     0.000000
    7     1.000000    90.000000     0.000000     0.000000    -1.000000     0.000000     0.000000     0.000000
    8    -1.000000    90.000000     0.000000     0.000000    -1.000000     0.000000     0.000000     0.000000
    9     1.000000   180.000000     0.000000     0.707107     0.707107     0.000000     0.000000     0.000000
   10    -1.000000   180.000000     0.000000     0.707107     0.707107     0.000000     0.000000     0.000000
   11     1.000000    90.000000     0.000000     1.000000     0.000000     0.000000     0.000000     0.000000
   12    -1.000000    90.000000     0.000000     1.000000     0.000000     0.000000     0.000000     0.000000
   13     1.000000   180.000000     0.000000     0.000000     1.000000     0.000000     0.000000     0.000000
   14    -1.000000   180.000000     0.000000     0.000000     1.000000     0.000000     0.000000     0.000000
   15     1.000000   120.000000    -0.577350     0.577350     0.577350     0.000000     0.000000     0.000000
   16    -1.000000   120.000000    -0.577350     0.577350     0.577350     0.000000     0.000000     0.000000
   17     1.000000   120.000000    -0.577350     0.577350    -0.577350     0.000000     0.000000     0.000000
   18    -1.000000   120.000000    -0.577350     0.577350    -0.577350     0.000000     0.000000     0.000000
   19     1.000000    90.000000     0.000000     0.000000     1.000000     0.000000     0.000000     0.000000
   20    -1.000000    90.000000     0.000000     0.000000     1.000000     0.000000     0.000000     0.000000
   21     1.000000    90.000000    -1.000000     0.000000     0.000000     0.000000     0.000000     0.000000
   22    -1.000000    90.000000    -1.000000     0.000000     0.000000     0.000000     0.000000     0.000000
   23     1.000000   180.000000     0.707107     0.000000     0.707107     0.000000     0.000000     0.000000
   24    -1.000000   180.000000     0.707107     0.000000     0.707107     0.000000     0.000000     0.000000
   25     1.000000   120.000000     0.577350    -0.577350     0.577350     0.000000     0.000000     0.000000
   26    -1.000000   120.000000     0.577350    -0.577350     0.577350     0.000000     0.000000     0.000000
   27     1.000000   120.000000    -0.577350    -0.577350     0.577350     0.000000     0.000000     0.000000
   28    -1.000000   120.000000    -0.577350    -0.577350     0.577350     0.000000     0.000000     0.000000
   29     1.000000   180.000000     1.000000     0.000000     0.000000     0.000000     0.000000     0.000000
   30    -1.000000   180.000000     1.000000     0.000000     0.000000     0.000000     0.000000     0.000000
   31     1.000000    90.000000     0.000000    -1.000000     0.000000     0.000000     0.000000     0.000000
   32    -1.000000    90.000000     0.000000    -1.000000     0.000000     0.000000     0.000000     0.000000
   33     1.000000   180.000000     0.707107     0.707107     0.000000     0.000000     0.000000     0.000000
   34    -1.000000   180.000000     0.707107     0.707107     0.000000     0.000000     0.000000     0.000000
   35     1.000000    90.000000     1.000000     0.000000     0.000000     0.000000     0.000000     0.000000
   36    -1.000000    90.000000     1.000000     0.000000     0.000000     0.000000     0.000000     0.000000
   37     1.000000   120.000000     0.577350    -0.577350    -0.577350     0.000000     0.000000     0.000000
   38    -1.000000   120.000000     0.577350    -0.577350    -0.577350     0.000000     0.000000     0.000000
   39     1.000000   180.000000     0.000000     1.000000     0.000000     0.000000     0.000000     0.000000
   40    -1.000000   180.000000     0.000000     1.000000     0.000000     0.000000     0.000000     0.000000
   41     1.000000   120.000000     0.577350     0.577350    -0.577350     0.000000     0.000000     0.000000
   42    -1.000000   120.000000     0.577350     0.577350    -0.577350     0.000000     0.000000     0.000000
   43     1.000000   180.000000     0.000000    -0.707107     0.707107     0.000000     0.000000     0.000000
   44    -1.000000   180.000000     0.000000    -0.707107     0.707107     0.000000     0.000000     0.000000
   45     1.000000   180.000000     0.707107    -0.707107     0.000000     0.000000     0.000000     0.000000
   46    -1.000000   180.000000     0.707107    -0.707107     0.000000     0.000000     0.000000     0.000000
   47     1.000000   180.000000     0.707107     0.000000    -0.707107     0.000000     0.000000     0.000000
   48    -1.000000   180.000000     0.707107     0.000000    -0.707107     0.000000     0.000000     0.000000
 
 Subroutine IBZKPT returns following result:
 ===========================================
 
 Found      4 irreducible k-points:
 
 Following reciprocal coordinates:
            Coordinates               Weight
  0.125000  0.125000  0.125000      8.000000
  0.375000  0.125000  0.125000     24.000000
  0.375000  0.375000  0.125000     24.000000
  0.375000  0.375000  0.375000      8.000000
 
 Following cartesian coordinates:
            Coordinates               Weight
  0.035795  0.035795  0.035795      8.000000
  0.107385  0.035795  0.035795     24.000000
  0.107385  0.107385  0.035795     24.000000
  0.107385  0.107385  0.107385      8.000000
 


--------------------------------------------------------------------------------------------------------




 Dimension of arrays:
   k-points           NKPTS =      4   k-points in BZ     NKDIM =      4   number of bands    NBANDS=     32
   number of dos      NEDOS =    301   number of ions     NIONS =      4
   non local maximal  LDIM  =      6   non local SUM 2l+1 LMDIM =     18
   total plane-waves  NPLWV =  21952
   max r-space proj   IRMAX =      1   max aug-charges    IRDMAX=   4638
   dimension x,y,z NGX =    28 NGY =   28 NGZ =   28
   dimension x,y,z NGXF=    36 NGYF=   36 NGZF=   36
   support grid    NGXF=    36 NGYF=   36 NGZF=   36
   ions per type =               4
 NGX,Y,Z   is equivalent  to a cutoff of  13.33, 13.33, 13.33 a.u.
 NGXF,Y,Z  is equivalent  to a cutoff of  17.14, 17.14, 17.14 a.u.


 I would recommend the setting:
   dimension x,y,z NGX =    28 NGY =   28 NGZ =   28
 SYSTEM =  automatically generated by pyflamestk   
 POSCAR =  Automatically generated by pypospack    

 Startparameter for this run:
   NWRITE =      2    write-flag & timer
   PREC   = high      normal or accurate (medium, high low for compatibility)
   ISTART =      0    job   : 0-new  1-cont  2-samecut
   ICHARG =      0    charge: 1-file 2-atom 10-const
   ISPIN  =      2    spin polarized calculation?
   LNONCOLLINEAR =      F non collinear calculations
   LSORBIT =      F    spin-orbit coupling
   INIWAV =      1    electr: 0-lowe 1-rand  2-diag
   LASPH  =      F    aspherical Exc in radial PAW
   METAGGA=      F    non-selfconsistent MetaGGA calc.

 Electronic Relaxation 1
   ENCUT  =  600.0 eV  44.10 Ry    6.64 a.u.   6.97  6.97  6.97*2*pi/ulx,y,z
   ENINI  =  600.0     initial cutoff
   ENAUG  =  544.6 eV  augmentation charge cutoff
   NELM   =     40;   NELMIN=  2; NELMDL= -5     # of ELM steps 
   EDIFF  = 0.1E-05   stopping-criterion for ELM
   LREAL  =      F    real-space projection
   NLSPLINE    = F    spline interpolate recip. space projectors
   LCOMPAT=      F    compatible to vasp.4.4
   GGA_COMPAT  = T    GGA compatible to vasp.4.4-vasp.4.6
   LMAXPAW     = -100 max onsite density
   LMAXMIX     =    2 max onsite mixed and CHGCAR
   VOSKOWN=      0    Vosko Wilk Nusair interpolation
   ROPT   =    0.00000
 Ionic relaxation
   EDIFFG = 0.1E-04   stopping-criterion for IOM
   NSW    =      0    number of steps for IOM
   NBLOCK =      1;   KBLOCK =      1    inner block; outer block 
   IBRION =     -1    ionic relax: 0-MD 1-quasi-New 2-CG
   NFREE  =      0    steps in history (QN), initial steepest desc. (CG)
   ISIF   =      2    stress and relaxation
   IWAVPR =     10    prediction:  0-non 1-charg 2-wave 3-comb
   ISYM   =      2    0-nonsym 1-usesym 2-fastsym
   LCORR  =      T    Harris-Foulkes like correction to forces

   POTIM  = 0.5000    time-step for ionic-motion
   TEIN   =    0.0    initial temperature
   TEBEG  =    0.0;   TEEND  =   0.0 temperature during run
   SMASS  =  -3.00    Nose mass-parameter (am)
   estimated Nose-frequenzy (Omega)   =  0.10E-29 period in steps =****** mass=  -0.279E-27a.u.
   SCALEE = 1.0000    scale energy and forces
   NPACO  =    256;   APACO  = 16.0  distance and # of slots for P.C.
   PSTRESS=    0.0 pullay stress

  Mass of Ions in am
   POMASS =  58.69
  Ionic Valenz
   ZVAL   =  10.00
  Atomic Wigner-Seitz radii
   RWIGS  =  -1.00
  virtual crystal weights 
   VCA    =   1.00
   NELECT =      40.0000    total number of electrons
   NUPDOWN=      -1.0000    fix difference up-down

 DOS related values:
   EMIN   =  10.00;   EMAX   =-10.00  energy-range for DOS
   EFERMI =   0.00
   ISMEAR =     1;   SIGMA  =   0.20  broadening in eV -4-tet -1-fermi 0-gaus

 Electronic relaxation 2 (details)
   IALGO  =     38    algorithm
   LDIAG  =      T    sub-space diagonalisation (order eigenvalues)
   LSUBROT=      F    optimize rotation matrix (better conditioning)
   TURBO    =      0    0=normal 1=particle mesh
   IRESTART =      0    0=no restart 2=restart with 2 vectors
   NREBOOT  =      0    no. of reboots
   NMIN     =      0    reboot dimension
   EREF     =   0.00    reference energy to select bands
   IMIX   =      4    mixing-type and parameters
     AMIX     =   0.40;   BMIX     =  1.00
     AMIX_MAG =   1.60;   BMIX_MAG =  1.00
     AMIN     =   0.10
     WC   =   100.;   INIMIX=   1;  MIXPRE=   1;  MAXMIX= -45

 Intra band minimization:
   WEIMIN = 0.0000     energy-eigenvalue tresh-hold
   EBREAK =  0.78E-08  absolut break condition
   DEPER  =   0.30     relativ break condition  

   TIME   =   0.40     timestep for ELM

  volume/ion in A,a.u.               =      10.65        71.85
  Fermi-wavevector in a.u.,A,eV,Ry     =   1.603275  3.029750 34.973631  2.570489
  Thomas-Fermi vector in A             =   2.699963
 
 Write flags
   LWAVE  =      F    write WAVECAR
   LCHARG =      F    write CHGCAR
   LVTOT  =      F    write LOCPOT, total local potential
   LVHAR  =      F    write LOCPOT, Hartree potential only
   LELF   =      F    write electronic localiz. function (ELF)
   LORBIT =      0    0 simple, 1 ext, 2 COOP (PROOUT)


 Dipole corrections
   LMONO  =      F    monopole corrections only (constant potential shift)
   LDIPOL =      F    correct potential (dipole corrections)
   IDIPOL =      0    1-x, 2-y, 3-z, 4-all directions 
   EPSILON=  1.0000000 bulk dielectric constant

 Exchange correlation treatment:
   GGA     =    --    GGA type
   LEXCH   =     8    internal setting for exchange type
   VOSKOWN=      0    Vosko Wilk Nusair interpolation
   LHFCALC =     F    Hartree Fock is set to
   LHFONE  =     F    Hartree Fock one center treatment
   AEXX    =    0.0000 exact exchange contribution

 Linear response parameters
   LEPSILON=     F    determine dielectric tensor
   LRPA    =     F    only Hartree local field effects (RPA)
   LNABLA  =     F    use nabla operator in PAW spheres
   LVEL    =     F    velocity operator in full k-point grid
   LINTERFAST=   F  fast interpolation
   KINTER  =     0    interpolate to denser k-point grid
   CSHIFT  =0.1000    complex shift for real part using Kramers Kronig
   OMEGAMAX=  -1.0    maximum frequency
   DEG_THRESHOLD= 0.2000000E-02 threshold for treating states as degnerate
   RTIME   =    0.100 relaxation time in fs

 Orbital magnetization related:
   ORBITALMAG=     F  switch on orbital magnetization
   LCHIMAG   =     F  perturbation theory with respect to B field
   DQ        =  0.001000  dq finite difference perturbation B field



--------------------------------------------------------------------------------------------------------


 Static calculation
 charge density and potential will be updated during run
 spin polarized calculation
 Variant of blocked Davidson
 Davidson routine will perform the subspace rotation
 perform sub-space diagonalisation
    after iterative eigenvector-optimisation
 modified Broyden-mixing scheme, WC =      100.0
 initial mixing is a Kerker type mixing with AMIX =  0.4000 and BMIX =      1.0000
 Hartree-type preconditioning will be used
 using additional bands           12
 reciprocal scheme for non local part
 use partial core corrections
 calculate Harris-corrections to forces 
   (improved forces if not selfconsistent)
 use gradient corrections 
 use of overlap-Matrix (Vanderbilt PP)
 Methfessel and Paxton  Order N= 1 SIGMA  =   0.20


--------------------------------------------------------------------------------------------------------


  energy-cutoff  :      600.00
  volume of cell :       42.59
      direct lattice vectors                 reciprocal lattice vectors
     3.492102000  0.000000000  0.000000000     0.286360479  0.000000000  0.000000000
     0.000000000  3.492102000  0.000000000     0.000000000  0.286360479  0.000000000
     0.000000000  0.000000000  3.492102000     0.000000000  0.000000000  0.286360479

  length of vectors
     3.492102000  3.492102000  3.492102000     0.286360479  0.286360479  0.286360479


 
 k-points in units of 2pi/SCALE and weight: Automatic Mesh                          
   0.03579506  0.03579506  0.03579506       0.125
   0.10738518  0.03579506  0.03579506       0.375
   0.10738518  0.10738518  0.03579506       0.375
   0.10738518  0.10738518  0.10738518       0.125
 
 k-points in reciprocal lattice and weights: Automatic Mesh                          
   0.12500000  0.12500000  0.12500000       0.125
   0.37500000  0.12500000  0.12500000       0.375
   0.37500000  0.37500000  0.12500000       0.375
   0.37500000  0.37500000  0.37500000       0.125
 
 position of ions in fractional coordinates (direct lattice) 
   0.00000000  0.00000000  0.00000000
   0.00000000  0.50000000  0.50000000
   0.50000000  0.00000000  0.50000000
   0.50000000  0.50000000  0.00000000
 
 position of ions in cartesian coordinates  (Angst):
   0.00000000  0.00000000  0.00000000
   0.00000000  1.74605100  1.74605100
   1.74605100  0.00000000  1.74605100
   1.74605100  1.74605100  0.00000000
 


--------------------------------------------------------------------------------------------------------


 k-point  1 :   0.1250 0.1250 0.1250  plane waves:    1412
 k-point  2 :   0.3750 0.1250 0.1250  plane waves:    1416
 k-point  3 :   0.3750 0.3750 0.1250  plane waves:    1427
 k-point  4 :   0.3750 0.3750 0.3750  plane waves:    1430

 maximum and minimum number of plane-waves per node :      1430     1412

 maximum number of plane-waves:      1430
 maximum index in each direction: 
   IXMAX=    6   IYMAX=    6   IZMAX=    6
   IXMIN=   -7   IYMIN=   -7   IZMIN=   -7

 NGX is ok and might be reduce to  28
 NGY is ok and might be reduce to  28
 NGZ is ok and might be reduce to  28

 serial   3D FFT for wavefunctions
 parallel 3D FFT for charge:
    minimum data exchange during FFTs selected (reduces bandwidth)


 total amount of memory used by VASP on root node    33741. kBytes
========================================================================

   base      :      30000. kBytes
   nonl-proj :        921. kBytes
   fftplans  :        234. kBytes
   grid      :       2073. kBytes
   one-center:        124. kBytes
   wavefun   :        389. kBytes
 
     INWAV:  cpu time    0.0000: real time    0.0001
 Broyden mixing: mesh for mixing (old mesh)
   NGX = 13   NGY = 13   NGZ = 13
  (NGX  = 36   NGY  = 36   NGZ  = 36)
  gives a total of   2197 points

 charge density for first step will be calculated from the start-wavefunctions


--------------------------------------------------------------------------------------------------------


 Maximum index for augmentation-charges          602 (set IRDMAX)


--------------------------------------------------------------------------------------------------------


 initial charge from wavefunction
 First call to EWALD:  gamma=   0.508
 Maximum number of real-space cells 3x 3x 3
 Maximum number of reciprocal cells 3x 3x 3

 FEWALD executed in parallel
    FEWALD:  cpu time    0.0010: real time    0.0015


----------------------------------------- Iteration    1(   1)  ---------------------------------------


    POTLOK:  cpu time    0.0080: real time    0.0085
    SETDIJ:  cpu time    0.0060: real time    0.0064
     EDDAV:  cpu time    0.1180: real time    0.1180
       DOS:  cpu time    0.0010: real time    0.0003
    --------------------------------------------
      LOOP:  cpu time    0.1370: real time    0.1387

 eigenvalue-minimisations  :   528
 total energy-change (2. order) :-0.8385150E+03  (-0.3258857E+04)
 number of electron      40.0000067 magnetization      -0.0000005
 augmentation part        3.5698444 magnetization      -0.2862159

 Free energy of the ion-electron system (eV)
  ---------------------------------------------------
  alpha Z        PSCENC =       191.61485929
  Ewald energy   TEWEN  =     -3781.16325108
  -Hartree energ DENC   =       -86.74002362
  -exchange      EXHF   =         0.00000000
  -V(xc)+E(xc)   XCENC  =        86.12641207
  PAW double counting   =     75354.65374850   -75404.76313542
  entropy T*S    EENTRO =         0.00478583
  eigenvalues    EBANDS =     -1508.93445734
  atomic energy  EATOM  =      4310.68601437
  Solvation  Ediel_sol  =         0.00000000
  ---------------------------------------------------
  free energy    TOTEN  =      -838.51504740 eV

  energy without entropy =     -838.51983322  energy(sigma->0) =     -838.51664267


--------------------------------------------------------------------------------------------------------




----------------------------------------- Iteration    1(   2)  ---------------------------------------


     EDDAV:  cpu time    0.1840: real time    0.1848
       DOS:  cpu time    0.0010: real time    0.0003
    --------------------------------------------
      LOOP:  cpu time    0.1850: real time    0.1879

 eigenvalue-minimisations  :   768
 total energy-change (2. order) :-0.1752466E+03  (-0.1741119E+03)
 number of electron      40.0000067 magnetization      -0.0000005
 augmentation part        3.5698444 magnetization      -0.2862159

 Free energy of the ion-electron system (eV)
  ---------------------------------------------------
  alpha Z        PSCENC =       191.61485929
  Ewald energy   TEWEN  =     -3781.16325108
  -Hartree energ DENC   =       -86.74002362
  -exchange      EXHF   =         0.00000000
  -V(xc)+E(xc)   XCENC  =        86.12641207
  PAW double counting   =     75354.65374850   -75404.76313542
  entropy T*S    EENTRO =         0.26065406
  eigenvalues    EBANDS =     -1684.43687769
  atomic energy  EATOM  =      4310.68601437
  Solvation  Ediel_sol  =         0.00000000
  ---------------------------------------------------
  free energy    TOTEN  =     -1013.76159952 eV

  energy without entropy =    -1014.02225358  energy(sigma->0) =    -1013.84848420


--------------------------------------------------------------------------------------------------------




----------------------------------------- Iteration    1(   3)  ---------------------------------------


     EDDAV:  cpu time    0.1130: real time    0.1125
       DOS:  cpu time    0.0000: real time    0.0003
    --------------------------------------------
      LOOP:  cpu time    0.1130: real time    0.1161

 eigenvalue-minimisations  :   512
 total energy-change (2. order) :-0.2294118E+01  (-0.2230057E+01)
 number of electron      40.0000067 magnetization      -0.0000005
 augmentation part        3.5698444 magnetization      -0.2862159

 Free energy of the ion-electron system (eV)
  ---------------------------------------------------
  alpha Z        PSCENC =       191.61485929
  Ewald energy   TEWEN  =     -3781.16325108
  -Hartree energ DENC   =       -86.74002362
  -exchange      EXHF   =         0.00000000
  -V(xc)+E(xc)   XCENC  =        86.12641207
  PAW double counting   =     75354.65374850   -75404.76313542
  entropy T*S    EENTRO =         0.26295225
  eigenvalues    EBANDS =     -1686.73329415
  atomic energy  EATOM  =      4310.68601437
  Solvation  Ediel_sol  =         0.00000000
  ---------------------------------------------------
  free energy    TOTEN  =     -1016.05571779 eV

  energy without entropy =    -1016.31867004  energy(sigma->0) =    -1016.14336854


--------------------------------------------------------------------------------------------------------




----------------------------------------- Iteration    1(   4)  ---------------------------------------


     EDDAV:  cpu time    0.1670: real time    0.1681
       DOS:  cpu time    0.0010: real time    0.0003
    --------------------------------------------
      LOOP:  cpu time    0.1680: real time    0.1718

 eigenvalue-minimisations  :   736
 total energy-change (2. order) :-0.5951710E-01  (-0.5946032E-01)
 number of electron      40.0000067 magnetization      -0.0000005
 augmentation part        3.5698444 magnetization      -0.2862159

 Free energy of the ion-electron system (eV)
  ---------------------------------------------------
  alpha Z        PSCENC =       191.61485929
  Ewald energy   TEWEN  =     -3781.16325108
  -Hartree energ DENC   =       -86.74002362
  -exchange      EXHF   =         0.00000000
  -V(xc)+E(xc)   XCENC  =        86.12641207
  PAW double counting   =     75354.65374850   -75404.76313542
  entropy T*S    EENTRO =         0.26301189
  eigenvalues    EBANDS =     -1686.79287088
  atomic energy  EATOM  =      4310.68601437
  Solvation  Ediel_sol  =         0.00000000
  ---------------------------------------------------
  free energy    TOTEN  =     -1016.11523488 eV

  energy without entropy =    -1016.37824677  energy(sigma->0) =    -1016.20290551


--------------------------------------------------------------------------------------------------------




----------------------------------------- Iteration    1(   5)  ---------------------------------------


     EDDAV:  cpu time    0.1630: real time    0.1631
       DOS:  cpu time    0.0000: real time    0.0003
    CHARGE:  cpu time    0.0200: real time    0.0196
    MIXING:  cpu time    0.0000: real time    0.0003
    --------------------------------------------
      LOOP:  cpu time    0.1830: real time    0.1885

 eigenvalue-minimisations  :   720
 total energy-change (2. order) :-0.1868545E-02  (-0.1868491E-02)
 number of electron      40.0000736 magnetization      -1.4397006
 augmentation part       37.3179264 magnetization      -1.3637540

 Broyden mixing:
  rms(total) = 0.14005E+02    rms(broyden)= 0.13998E+02
  rms(prec ) = 0.33174E+02
  weight for this iteration     100.00

 Free energy of the ion-electron system (eV)
  ---------------------------------------------------
  alpha Z        PSCENC =       191.61485929
  Ewald energy   TEWEN  =     -3781.16325108
  -Hartree energ DENC   =       -86.74002362
  -exchange      EXHF   =         0.00000000
  -V(xc)+E(xc)   XCENC  =        86.12641207
  PAW double counting   =     75354.65374850   -75404.76313542
  entropy T*S    EENTRO =         0.26301088
  eigenvalues    EBANDS =     -1686.79473842
  atomic energy  EATOM  =      4310.68601437
  Solvation  Ediel_sol  =         0.00000000
  ---------------------------------------------------
  free energy    TOTEN  =     -1016.11710343 eV

  energy without entropy =    -1016.38011430  energy(sigma->0) =    -1016.20477372


--------------------------------------------------------------------------------------------------------




----------------------------------------- Iteration    1(   6)  ---------------------------------------


    POTLOK:  cpu time    0.0070: real time    0.0066
    SETDIJ:  cpu time    0.0060: real time    0.0060
     EDDAV:  cpu time    0.1810: real time    0.1811
       DOS:  cpu time    0.0000: real time    0.0003
    CHARGE:  cpu time    0.0200: real time    0.0195
    MIXING:  cpu time    0.0000: real time    0.0003
    --------------------------------------------
      LOOP:  cpu time    0.2140: real time    0.2174

 eigenvalue-minimisations  :   768
 total energy-change (2. order) : 0.8854117E+03  (-0.6010705E+02)
 number of electron      40.0000685 magnetization       2.1646878
 augmentation part       33.8229809 magnetization       2.1011027

 Broyden mixing:
  rms(total) = 0.71697E+01    rms(broyden)= 0.71689E+01
  rms(prec ) = 0.17250E+02
  weight for this iteration     100.00

 eigenvalues of (default mixing * dielectric matrix)
  average eigenvalue GAMMA=   1.8137
  1.8137

 Free energy of the ion-electron system (eV)
  ---------------------------------------------------
  alpha Z        PSCENC =       191.61485929
  Ewald energy   TEWEN  =     -3781.16325108
  -Hartree energ DENC   =      -505.27417528
  -exchange      EXHF   =         0.00000000
  -V(xc)+E(xc)   XCENC  =       105.02046275
  PAW double counting   =     40821.01500177   -41112.89008552
  entropy T*S    EENTRO =         0.04279366
  eigenvalues    EBANDS =      -159.75698057
  atomic energy  EATOM  =      4310.68601437
  Solvation  Ediel_sol  =         0.00000000
  ---------------------------------------------------
  free energy    TOTEN  =      -130.70536061 eV

  energy without entropy =     -130.74815427  energy(sigma->0) =     -130.71962516


--------------------------------------------------------------------------------------------------------




----------------------------------------- Iteration    1(   7)  ---------------------------------------


    POTLOK:  cpu time    0.0070: real time    0.0067
    SETDIJ:  cpu time    0.0060: real time    0.0059
     EDDAV:  cpu time    0.1450: real time    0.1449
       DOS:  cpu time    0.0000: real time    0.0003
    CHARGE:  cpu time    0.0220: real time    0.0222
    MIXING:  cpu time    0.0010: real time    0.0003
    --------------------------------------------
      LOOP:  cpu time    0.1810: real time    0.1838

 eigenvalue-minimisations  :   656
 total energy-change (2. order) :-0.1601886E+03  (-0.3536902E+03)
 number of electron      40.0000196 magnetization       0.3038160
 augmentation part        8.9673231 magnetization       0.0575202

 Broyden mixing:
  rms(total) = 0.11148E+02    rms(broyden)= 0.11148E+02
  rms(prec ) = 0.26019E+02
  weight for this iteration     100.00

 eigenvalues of (default mixing * dielectric matrix)
  average eigenvalue GAMMA=   0.9053
  0.9053  0.9053

 Free energy of the ion-electron system (eV)
  ---------------------------------------------------
  alpha Z        PSCENC =       191.61485929
  Ewald energy   TEWEN  =     -3781.16325108
  -Hartree energ DENC   =     -1345.28604213
  -exchange      EXHF   =         0.00000000
  -V(xc)+E(xc)   XCENC  =       149.06548778
  PAW double counting   =      9113.27255423    -9631.57353003
  entropy T*S    EENTRO =        -0.01617985
  eigenvalues    EBANDS =       702.50615254
  atomic energy  EATOM  =      4310.68601437
  Solvation  Ediel_sol  =         0.00000000
  ---------------------------------------------------
  free energy    TOTEN  =      -290.89393488 eV

  energy without entropy =     -290.87775503  energy(sigma->0) =     -290.88854160


--------------------------------------------------------------------------------------------------------




----------------------------------------- Iteration    1(   8)  ---------------------------------------


    POTLOK:  cpu time    0.0070: real time    0.0067
    SETDIJ:  cpu time    0.0050: real time    0.0059
     EDDAV:  cpu time    0.1130: real time    0.1125
       DOS:  cpu time    0.0000: real time    0.0003
    CHARGE:  cpu time    0.0210: real time    0.0209
    MIXING:  cpu time    0.0000: real time    0.0003
    --------------------------------------------
      LOOP:  cpu time    0.1460: real time    0.1498

 eigenvalue-minimisations  :   512
 total energy-change (2. order) : 0.2632530E+03  (-0.1557536E+03)
 number of electron      40.0000592 magnetization       0.2785956
 augmentation part       28.6570867 magnetization       0.1831262

 Broyden mixing:
  rms(total) = 0.29604E+01    rms(broyden)= 0.29602E+01
  rms(prec ) = 0.71965E+01
  weight for this iteration     100.00

 eigenvalues of (default mixing * dielectric matrix)
  average eigenvalue GAMMA=   1.2164
  2.0472  0.8914  0.7106

 Free energy of the ion-electron system (eV)
  ---------------------------------------------------
  alpha Z        PSCENC =       191.61485929
  Ewald energy   TEWEN  =     -3781.16325108
  -Hartree energ DENC   =      -729.56687419
  -exchange      EXHF   =         0.00000000
  -V(xc)+E(xc)   XCENC  =       115.70898371
  PAW double counting   =     17171.09944754   -17488.80270117
  entropy T*S    EENTRO =        -0.02756565
  eigenvalues    EBANDS =       182.81012002
  atomic energy  EATOM  =      4310.68601437
  Solvation  Ediel_sol  =         0.00000000
  ---------------------------------------------------
  free energy    TOTEN  =       -27.64096715 eV

  energy without entropy =      -27.61340150  energy(sigma->0) =      -27.63177860


--------------------------------------------------------------------------------------------------------




----------------------------------------- Iteration    1(   9)  ---------------------------------------


    POTLOK:  cpu time    0.0060: real time    0.0067
    SETDIJ:  cpu time    0.0060: real time    0.0059
     EDDAV:  cpu time    0.1530: real time    0.1527
       DOS:  cpu time    0.0000: real time    0.0003
    CHARGE:  cpu time    0.0200: real time    0.0195
    MIXING:  cpu time    0.0000: real time    0.0003
    --------------------------------------------
      LOOP:  cpu time    0.1860: real time    0.1914

 eigenvalue-minimisations  :   672
 total energy-change (2. order) : 0.5772695E+01  (-0.8250763E+01)
 number of electron      40.0000533 magnetization       0.1193850
 augmentation part       25.2831000 magnetization       0.0378630

 Broyden mixing:
  rms(total) = 0.61044E+00    rms(broyden)= 0.61039E+00
  rms(prec ) = 0.14538E+01
  weight for this iteration     100.00

 eigenvalues of (default mixing * dielectric matrix)
  average eigenvalue GAMMA=   1.4076
  2.5773  1.6593  0.6969  0.6969

 Free energy of the ion-electron system (eV)
  ---------------------------------------------------
  alpha Z        PSCENC =       191.61485929
  Ewald energy   TEWEN  =     -3781.16325108
  -Hartree energ DENC   =      -842.55507021
  -exchange      EXHF   =         0.00000000
  -V(xc)+E(xc)   XCENC  =       121.09394008
  PAW double counting   =      6961.19259230    -7257.01198009
  entropy T*S    EENTRO =        -0.04698591
  eigenvalues    EBANDS =       274.32160955
  atomic energy  EATOM  =      4310.68601437
  Solvation  Ediel_sol  =         0.00000000
  ---------------------------------------------------
  free energy    TOTEN  =       -21.86827170 eV

  energy without entropy =      -21.82128579  energy(sigma->0) =      -21.85260973


--------------------------------------------------------------------------------------------------------




----------------------------------------- Iteration    1(  10)  ---------------------------------------


    POTLOK:  cpu time    0.0070: real time    0.0067
    SETDIJ:  cpu time    0.0060: real time    0.0059
     EDDAV:  cpu time    0.1290: real time    0.1292
       DOS:  cpu time    0.0010: real time    0.0003
    CHARGE:  cpu time    0.0200: real time    0.0207
    MIXING:  cpu time    0.0010: real time    0.0003
    --------------------------------------------
      LOOP:  cpu time    0.1640: real time    0.1666

 eigenvalue-minimisations  :   592
 total energy-change (2. order) :-0.8135328E+01  (-0.1520611E+01)
 number of electron      40.0000578 magnetization       0.3968826
 augmentation part       27.9710140 magnetization       0.3723530

 Broyden mixing:
  rms(total) = 0.21723E+01    rms(broyden)= 0.21722E+01
  rms(prec ) = 0.51435E+01
  weight for this iteration     100.00

 eigenvalues of (default mixing * dielectric matrix)
  average eigenvalue GAMMA=   1.2813
  2.6745  1.2054  1.2054  0.7566  0.5644

 Free energy of the ion-electron system (eV)
  ---------------------------------------------------
  alpha Z        PSCENC =       191.61485929
  Ewald energy   TEWEN  =     -3781.16325108
  -Hartree energ DENC   =      -807.59535629
  -exchange      EXHF   =         0.00000000
  -V(xc)+E(xc)   XCENC  =       118.86691212
  PAW double counting   =      4551.65036480    -4801.86856740
  entropy T*S    EENTRO =        -0.02292055
  eigenvalues    EBANDS =       187.82834549
  atomic energy  EATOM  =      4310.68601437
  Solvation  Ediel_sol  =         0.00000000
  ---------------------------------------------------
  free energy    TOTEN  =       -30.00359926 eV

  energy without entropy =      -29.98067871  energy(sigma->0) =      -29.99595907


--------------------------------------------------------------------------------------------------------




----------------------------------------- Iteration    1(  11)  ---------------------------------------


    POTLOK:  cpu time    0.0060: real time    0.0067
    SETDIJ:  cpu time    0.0060: real time    0.0059
     EDDAV:  cpu time    0.1130: real time    0.1125
       DOS:  cpu time    0.0000: real time    0.0003
    CHARGE:  cpu time    0.0200: real time    0.0197
    MIXING:  cpu time    0.0000: real time    0.0003
    --------------------------------------------
      LOOP:  cpu time    0.1450: real time    0.1489

 eigenvalue-minimisations  :   512
 total energy-change (2. order) : 0.7932803E+01  (-0.4492279E+01)
 number of electron      40.0000514 magnetization       0.7025833
 augmentation part       23.8926460 magnetization       0.5460508

 Broyden mixing:
  rms(total) = 0.58324E+00    rms(broyden)= 0.58317E+00
  rms(prec ) = 0.11977E+01
  weight for this iteration     100.00

 eigenvalues of (default mixing * dielectric matrix)
  average eigenvalue GAMMA=   1.1631
  2.6440  1.5659  0.8884  0.8884  0.4958  0.4958

 Free energy of the ion-electron system (eV)
  ---------------------------------------------------
  alpha Z        PSCENC =       191.61485929
  Ewald energy   TEWEN  =     -3781.16325108
  -Hartree energ DENC   =      -900.00766205
  -exchange      EXHF   =         0.00000000
  -V(xc)+E(xc)   XCENC  =       123.74204095
  PAW double counting   =      4623.45103480    -4906.91358834
  entropy T*S    EENTRO =        -0.06571970
  eigenvalues    EBANDS =       316.58547513
  atomic energy  EATOM  =      4310.68601437
  Solvation  Ediel_sol  =         0.00000000
  ---------------------------------------------------
  free energy    TOTEN  =       -22.07079664 eV

  energy without entropy =      -22.00507694  energy(sigma->0) =      -22.04889007


--------------------------------------------------------------------------------------------------------




----------------------------------------- Iteration    1(  12)  ---------------------------------------


    POTLOK:  cpu time    0.0070: real time    0.0068
    SETDIJ:  cpu time    0.0060: real time    0.0059
     EDDAV:  cpu time    0.1370: real time    0.1369
       DOS:  cpu time    0.0000: real time    0.0003
    CHARGE:  cpu time    0.0210: real time    0.0209
    MIXING:  cpu time    0.0010: real time    0.0003
    --------------------------------------------
      LOOP:  cpu time    0.1720: real time    0.1747

 eigenvalue-minimisations  :   624
 total energy-change (2. order) : 0.4145559E+00  (-0.1643634E+00)
 number of electron      40.0000525 magnetization       0.5956906
 augmentation part       24.7756527 magnetization       0.3757647

 Broyden mixing:
  rms(total) = 0.38949E+00    rms(broyden)= 0.38948E+00
  rms(prec ) = 0.45575E+00
  weight for this iteration     100.00

 eigenvalues of (default mixing * dielectric matrix)
  average eigenvalue GAMMA=   1.0602
  2.6327  1.6048  0.9181  0.9181  0.5276  0.5276  0.2929

 Free energy of the ion-electron system (eV)
  ---------------------------------------------------
  alpha Z        PSCENC =       191.61485929
  Ewald energy   TEWEN  =     -3781.16325108
  -Hartree energ DENC   =      -878.64159552
  -exchange      EXHF   =         0.00000000
  -V(xc)+E(xc)   XCENC  =       122.60640083
  PAW double counting   =      4693.73817119    -4970.44236860
  entropy T*S    EENTRO =        -0.02585495
  eigenvalues    EBANDS =       289.97138374
  atomic energy  EATOM  =      4310.68601437
  Solvation  Ediel_sol  =         0.00000000
  ---------------------------------------------------
  free energy    TOTEN  =       -21.65624073 eV

  energy without entropy =      -21.63038578  energy(sigma->0) =      -21.64762241


--------------------------------------------------------------------------------------------------------




----------------------------------------- Iteration    1(  13)  ---------------------------------------


    POTLOK:  cpu time    0.0070: real time    0.0068
    SETDIJ:  cpu time    0.0060: real time    0.0059
     EDDAV:  cpu time    0.1350: real time    0.1357
       DOS:  cpu time    0.0010: real time    0.0003
    CHARGE:  cpu time    0.0210: real time    0.0209
    MIXING:  cpu time    0.0000: real time    0.0004
    --------------------------------------------
      LOOP:  cpu time    0.1700: real time    0.1729

 eigenvalue-minimisations  :   608
 total energy-change (2. order) : 0.1438512E-01  (-0.2685113E-02)
 number of electron      40.0000526 magnetization       0.3282415
 augmentation part       24.7544976 magnetization       0.1334787

 Broyden mixing:
  rms(total) = 0.34842E+00    rms(broyden)= 0.34842E+00
  rms(prec ) = 0.40651E+00
  weight for this iteration     100.00

 eigenvalues of (default mixing * dielectric matrix)
  average eigenvalue GAMMA=   0.9888
  2.6263  1.5826  0.9101  0.9101  0.5328  0.5328  0.4080  0.4080

 Free energy of the ion-electron system (eV)
  ---------------------------------------------------
  alpha Z        PSCENC =       191.61485929
  Ewald energy   TEWEN  =     -3781.16325108
  -Hartree energ DENC   =      -879.38528384
  -exchange      EXHF   =         0.00000000
  -V(xc)+E(xc)   XCENC  =       122.63475040
  PAW double counting   =      4680.68343930    -4957.41815848
  entropy T*S    EENTRO =        -0.03542103
  eigenvalues    EBANDS =       290.74119545
  atomic energy  EATOM  =      4310.68601437
  Solvation  Ediel_sol  =         0.00000000
  ---------------------------------------------------
  free energy    TOTEN  =       -21.64185561 eV

  energy without entropy =      -21.60643458  energy(sigma->0) =      -21.63004860


--------------------------------------------------------------------------------------------------------




----------------------------------------- Iteration    1(  14)  ---------------------------------------


    POTLOK:  cpu time    0.0070: real time    0.0069
    SETDIJ:  cpu time    0.0060: real time    0.0059
     EDDAV:  cpu time    0.1390: real time    0.1388
       DOS:  cpu time    0.0000: real time    0.0003
    CHARGE:  cpu time    0.0200: real time    0.0203
    MIXING:  cpu time    0.0010: real time    0.0004
    --------------------------------------------
      LOOP:  cpu time    0.1730: real time    0.1762

 eigenvalue-minimisations  :   624
 total energy-change (2. order) : 0.2876321E-01  (-0.2083177E-02)
 number of electron      40.0000525 magnetization      -0.1355134
 augmentation part       24.6583195 magnetization      -0.2687133

 Broyden mixing:
  rms(total) = 0.26019E+00    rms(broyden)= 0.26019E+00
  rms(prec ) = 0.26668E+00
  weight for this iteration     100.00

 eigenvalues of (default mixing * dielectric matrix)
  average eigenvalue GAMMA=   1.2274
  2.7613  2.4629  0.9884  1.1249  1.1249  0.7538  0.7538  0.4963  0.5805

 Free energy of the ion-electron system (eV)
  ---------------------------------------------------
  alpha Z        PSCENC =       191.61485929
  Ewald energy   TEWEN  =     -3781.16325108
  -Hartree energ DENC   =      -883.69512928
  -exchange      EXHF   =         0.00000000
  -V(xc)+E(xc)   XCENC  =       122.79567091
  PAW double counting   =      4543.64380931    -4819.53951864
  entropy T*S    EENTRO =        -0.05690716
  eigenvalues    EBANDS =       294.10135989
  atomic energy  EATOM  =      4310.68601437
  Solvation  Ediel_sol  =         0.00000000
  ---------------------------------------------------
  free energy    TOTEN  =       -21.61309240 eV

  energy without entropy =      -21.55618523  energy(sigma->0) =      -21.59412334


--------------------------------------------------------------------------------------------------------




----------------------------------------- Iteration    1(  15)  ---------------------------------------


    POTLOK:  cpu time    0.0070: real time    0.0069
    SETDIJ:  cpu time    0.0060: real time    0.0059
     EDDAV:  cpu time    0.1340: real time    0.1345
       DOS:  cpu time    0.0010: real time    0.0003
    CHARGE:  cpu time    0.0200: real time    0.0200
    MIXING:  cpu time    0.0000: real time    0.0004
    --------------------------------------------
      LOOP:  cpu time    0.1680: real time    0.1713

 eigenvalue-minimisations  :   608
 total energy-change (2. order) : 0.6778386E-02  (-0.1893824E-02)
 number of electron      40.0000523 magnetization      -0.0608959
 augmentation part       24.5760100 magnetization      -0.0242925

 Broyden mixing:
  rms(total) = 0.80027E-01    rms(broyden)= 0.79915E-01
  rms(prec ) = 0.14190E+00
  weight for this iteration     100.00

 eigenvalues of (default mixing * dielectric matrix)
  average eigenvalue GAMMA=   1.1977
  2.5818  2.5818  0.9592  1.0448  1.0448  1.1371  0.7555  0.7555  0.5099  0.6065

 Free energy of the ion-electron system (eV)
  ---------------------------------------------------
  alpha Z        PSCENC =       191.61485929
  Ewald energy   TEWEN  =     -3781.16325108
  -Hartree energ DENC   =      -887.16501980
  -exchange      EXHF   =         0.00000000
  -V(xc)+E(xc)   XCENC  =       122.92143256
  PAW double counting   =      4430.35207359    -4705.74595575
  entropy T*S    EENTRO =        -0.07723486
  eigenvalues    EBANDS =       296.97076766
  atomic energy  EATOM  =      4310.68601437
  Solvation  Ediel_sol  =         0.00000000
  ---------------------------------------------------
  free energy    TOTEN  =       -21.60631401 eV

  energy without entropy =      -21.52907916  energy(sigma->0) =      -21.58056906


--------------------------------------------------------------------------------------------------------




----------------------------------------- Iteration    1(  16)  ---------------------------------------


    POTLOK:  cpu time    0.0070: real time    0.0069
    SETDIJ:  cpu time    0.0060: real time    0.0060
     EDDAV:  cpu time    0.1380: real time    0.1382
       DOS:  cpu time    0.0010: real time    0.0003
    CHARGE:  cpu time    0.0200: real time    0.0204
    MIXING:  cpu time    0.0010: real time    0.0006
    --------------------------------------------
      LOOP:  cpu time    0.1730: real time    0.1753

 eigenvalue-minimisations  :   624
 total energy-change (2. order) : 0.2861198E-02  (-0.5752382E-03)
 number of electron      40.0000524 magnetization       0.2684568
 augmentation part       24.6240395 magnetization       0.2836120

 Broyden mixing:
  rms(total) = 0.43333E-01    rms(broyden)= 0.43307E-01
  rms(prec ) = 0.66322E-01
  weight for this iteration     100.00

 eigenvalues of (default mixing * dielectric matrix)
  average eigenvalue GAMMA=   1.2032
  2.5851  2.5851  0.9415  1.4497  1.4497  1.0692  0.7546  0.7546  0.6421  0.5014
  0.5014

 Free energy of the ion-electron system (eV)
  ---------------------------------------------------
  alpha Z        PSCENC =       191.61485929
  Ewald energy   TEWEN  =     -3781.16325108
  -Hartree energ DENC   =      -885.94174095
  -exchange      EXHF   =         0.00000000
  -V(xc)+E(xc)   XCENC  =       122.86066544
  PAW double counting   =      4430.29100528    -4705.40084658
  entropy T*S    EENTRO =        -0.07641225
  eigenvalues    EBANDS =       295.52625368
  atomic energy  EATOM  =      4310.68601437
  Solvation  Ediel_sol  =         0.00000000
  ---------------------------------------------------
  free energy    TOTEN  =       -21.60345281 eV

  energy without entropy =      -21.52704056  energy(sigma->0) =      -21.57798206


--------------------------------------------------------------------------------------------------------




----------------------------------------- Iteration    1(  17)  ---------------------------------------


    POTLOK:  cpu time    0.0070: real time    0.0069
    SETDIJ:  cpu time    0.0060: real time    0.0059
     EDDAV:  cpu time    0.1330: real time    0.1329
       DOS:  cpu time    0.0000: real time    0.0003
    CHARGE:  cpu time    0.0220: real time    0.0214
    MIXING:  cpu time    0.0000: real time    0.0005
    --------------------------------------------
      LOOP:  cpu time    0.1680: real time    0.1715

 eigenvalue-minimisations  :   608
 total energy-change (2. order) :-0.4677425E-02  (-0.1636907E-02)
 number of electron      40.0000524 magnetization      -0.0029837
 augmentation part       24.6927468 magnetization      -0.0898770

 Broyden mixing:
  rms(total) = 0.14565E+00    rms(broyden)= 0.14564E+00
  rms(prec ) = 0.15403E+00
  weight for this iteration     100.00

 eigenvalues of (default mixing * dielectric matrix)
  average eigenvalue GAMMA=   1.2001
  3.1979  2.5487  0.9501  1.2466  1.2466  0.9867  0.9867  0.8602  0.8044  0.6045
  0.5219  0.4473

 Free energy of the ion-electron system (eV)
  ---------------------------------------------------
  alpha Z        PSCENC =       191.61485929
  Ewald energy   TEWEN  =     -3781.16325108
  -Hartree energ DENC   =      -884.47700350
  -exchange      EXHF   =         0.00000000
  -V(xc)+E(xc)   XCENC  =       122.78957144
  PAW double counting   =      4359.15045429    -4633.60710577
  entropy T*S    EENTRO =        -0.06787709
  eigenvalues    EBANDS =       293.46620781
  atomic energy  EATOM  =      4310.68601437
  Solvation  Ediel_sol  =         0.00000000
  ---------------------------------------------------
  free energy    TOTEN  =       -21.60813024 eV

  energy without entropy =      -21.54025315  energy(sigma->0) =      -21.58550454


--------------------------------------------------------------------------------------------------------




----------------------------------------- Iteration    1(  18)  ---------------------------------------


    POTLOK:  cpu time    0.0070: real time    0.0069
    SETDIJ:  cpu time    0.0060: real time    0.0060
     EDDAV:  cpu time    0.1420: real time    0.1417
       DOS:  cpu time    0.0000: real time    0.0003
    CHARGE:  cpu time    0.0210: real time    0.0204
    MIXING:  cpu time    0.0000: real time    0.0006
    --------------------------------------------
      LOOP:  cpu time    0.1760: real time    0.1789

 eigenvalue-minimisations  :   640
 total energy-change (2. order) : 0.4502035E-02  (-0.3746441E-03)
 number of electron      40.0000525 magnetization       0.0394632
 augmentation part       24.6787255 magnetization       0.0431007

 Broyden mixing:
  rms(total) = 0.17096E-01    rms(broyden)= 0.17052E-01
  rms(prec ) = 0.28218E-01
  weight for this iteration     100.00

 eigenvalues of (default mixing * dielectric matrix)
  average eigenvalue GAMMA=   1.2247
  2.8032  2.6198  2.2247  0.9479  1.1538  1.1538  0.9105  0.9105  0.8277  0.5097
  0.6404  0.6404  0.5791

 Free energy of the ion-electron system (eV)
  ---------------------------------------------------
  alpha Z        PSCENC =       191.61485929
  Ewald energy   TEWEN  =     -3781.16325108
  -Hartree energ DENC   =      -885.36109210
  -exchange      EXHF   =         0.00000000
  -V(xc)+E(xc)   XCENC  =       122.81451415
  PAW double counting   =      4324.33510121    -4598.52055218
  entropy T*S    EENTRO =        -0.07460070
  eigenvalues    EBANDS =       294.06537883
  atomic energy  EATOM  =      4310.68601437
  Solvation  Ediel_sol  =         0.00000000
  ---------------------------------------------------
  free energy    TOTEN  =       -21.60362820 eV

  energy without entropy =      -21.52902750  energy(sigma->0) =      -21.57876130


--------------------------------------------------------------------------------------------------------




----------------------------------------- Iteration    1(  19)  ---------------------------------------


    POTLOK:  cpu time    0.0070: real time    0.0069
    SETDIJ:  cpu time    0.0060: real time    0.0059
     EDDAV:  cpu time    0.1360: real time    0.1358
       DOS:  cpu time    0.0000: real time    0.0003
    CHARGE:  cpu time    0.0210: real time    0.0206
    MIXING:  cpu time    0.0010: real time    0.0006
    --------------------------------------------
      LOOP:  cpu time    0.1710: real time    0.1749

 eigenvalue-minimisations  :   608
 total energy-change (2. order) :-0.1775500E-03  (-0.8070509E-04)
 number of electron      40.0000524 magnetization      -0.0143266
 augmentation part       24.6619236 magnetization      -0.0280139

 Broyden mixing:
  rms(total) = 0.23101E-01    rms(broyden)= 0.23101E-01
  rms(prec ) = 0.23204E-01
  weight for this iteration     100.00

 eigenvalues of (default mixing * dielectric matrix)
  average eigenvalue GAMMA=   1.2145
  2.9676  2.6836  2.2287  0.9484  1.2021  1.2021  0.9634  0.9634  0.7512  0.7512
  0.7535  0.5966  0.4957  0.4957

 Free energy of the ion-electron system (eV)
  ---------------------------------------------------
  alpha Z        PSCENC =       191.61485929
  Ewald energy   TEWEN  =     -3781.16325108
  -Hartree energ DENC   =      -885.52220667
  -exchange      EXHF   =         0.00000000
  -V(xc)+E(xc)   XCENC  =       122.82921898
  PAW double counting   =      4315.70412849    -4590.22302158
  entropy T*S    EENTRO =        -0.07509367
  eigenvalues    EBANDS =       294.54554611
  atomic energy  EATOM  =      4310.68601437
  Solvation  Ediel_sol  =         0.00000000
  ---------------------------------------------------
  free energy    TOTEN  =       -21.60380575 eV

  energy without entropy =      -21.52871209  energy(sigma->0) =      -21.57877453


--------------------------------------------------------------------------------------------------------




----------------------------------------- Iteration    1(  20)  ---------------------------------------


    POTLOK:  cpu time    0.0070: real time    0.0070
    SETDIJ:  cpu time    0.0060: real time    0.0060
     EDDAV:  cpu time    0.1530: real time    0.1535
       DOS:  cpu time    0.0010: real time    0.0003
    CHARGE:  cpu time    0.0200: real time    0.0206
    MIXING:  cpu time    0.0010: real time    0.0006
    --------------------------------------------
      LOOP:  cpu time    0.1880: real time    0.1913

 eigenvalue-minimisations  :   672
 total energy-change (2. order) : 0.3239097E-04  (-0.2649338E-04)
 number of electron      40.0000524 magnetization       0.0009987
 augmentation part       24.6532247 magnetization       0.0063304

 Broyden mixing:
  rms(total) = 0.11060E-01    rms(broyden)= 0.11056E-01
  rms(prec ) = 0.16297E-01
  weight for this iteration     100.00

 eigenvalues of (default mixing * dielectric matrix)
  average eigenvalue GAMMA=   1.2367
  3.3749  2.6473  2.4379  0.9483  1.2330  1.2330  0.9557  0.9557  0.8870  0.8870
  0.6834  0.6834  0.5707  0.5264  0.5264

 Free energy of the ion-electron system (eV)
  ---------------------------------------------------
  alpha Z        PSCENC =       191.61485929
  Ewald energy   TEWEN  =     -3781.16325108
  -Hartree energ DENC   =      -885.77460420
  -exchange      EXHF   =         0.00000000
  -V(xc)+E(xc)   XCENC  =       122.83999051
  PAW double counting   =      4303.76491147    -4578.31527263
  entropy T*S    EENTRO =        -0.07552002
  eigenvalues    EBANDS =       294.81909893
  atomic energy  EATOM  =      4310.68601437
  Solvation  Ediel_sol  =         0.00000000
  ---------------------------------------------------
  free energy    TOTEN  =       -21.60377336 eV

  energy without entropy =      -21.52825335  energy(sigma->0) =      -21.57860002


--------------------------------------------------------------------------------------------------------




----------------------------------------- Iteration    1(  21)  ---------------------------------------


    POTLOK:  cpu time    0.0070: real time    0.0070
    SETDIJ:  cpu time    0.0060: real time    0.0060
     EDDAV:  cpu time    0.1480: real time    0.1481
       DOS:  cpu time    0.0000: real time    0.0003
    CHARGE:  cpu time    0.0210: real time    0.0206
    MIXING:  cpu time    0.0010: real time    0.0006
    --------------------------------------------
      LOOP:  cpu time    0.1830: real time    0.1902

 eigenvalue-minimisations  :   656
 total energy-change (2. order) : 0.3797235E-04  (-0.2919001E-05)
 number of electron      40.0000524 magnetization       0.0010227
 augmentation part       24.6554137 magnetization       0.0008694

 Broyden mixing:
  rms(total) = 0.39057E-02    rms(broyden)= 0.39055E-02
  rms(prec ) = 0.92028E-02
  weight for this iteration     100.00

 eigenvalues of (default mixing * dielectric matrix)
  average eigenvalue GAMMA=   1.2429
  3.3674  2.6050  2.5100  0.9483  1.4196  1.4196  1.0048  1.0048  0.9108  0.9108
  0.7661  0.7661  0.6541  0.5915  0.5036  0.5036

 Free energy of the ion-electron system (eV)
  ---------------------------------------------------
  alpha Z        PSCENC =       191.61485929
  Ewald energy   TEWEN  =     -3781.16325108
  -Hartree energ DENC   =      -885.68665087
  -exchange      EXHF   =         0.00000000
  -V(xc)+E(xc)   XCENC  =       122.83644293
  PAW double counting   =      4303.91175225    -4578.47527056
  entropy T*S    EENTRO =        -0.07546590
  eigenvalues    EBANDS =       294.74783417
  atomic energy  EATOM  =      4310.68601437
  Solvation  Ediel_sol  =         0.00000000
  ---------------------------------------------------
  free energy    TOTEN  =       -21.60373539 eV

  energy without entropy =      -21.52826949  energy(sigma->0) =      -21.57858009


--------------------------------------------------------------------------------------------------------




----------------------------------------- Iteration    1(  22)  ---------------------------------------


    POTLOK:  cpu time    0.0070: real time    0.0071
    SETDIJ:  cpu time    0.0060: real time    0.0060
     EDDAV:  cpu time    0.1500: real time    0.1504
       DOS:  cpu time    0.0010: real time    0.0003
    CHARGE:  cpu time    0.0200: real time    0.0207
    MIXING:  cpu time    0.0010: real time    0.0007
    --------------------------------------------
      LOOP:  cpu time    0.1850: real time    0.1888

 eigenvalue-minimisations  :   656
 total energy-change (2. order) : 0.1168368E-04  (-0.7202888E-06)
 number of electron      40.0000524 magnetization       0.0014772
 augmentation part       24.6572975 magnetization       0.0013686

 Broyden mixing:
  rms(total) = 0.26143E-02    rms(broyden)= 0.26143E-02
  rms(prec ) = 0.60758E-02
  weight for this iteration     100.00

 eigenvalues of (default mixing * dielectric matrix)
  average eigenvalue GAMMA=   1.2780
  3.0609  3.0609  2.4687  2.4687  0.9483  1.2416  0.9818  0.9818  1.0264  1.0264
  0.7874  0.7874  0.6397  0.6397  0.5161  0.5161  0.5740

 Free energy of the ion-electron system (eV)
  ---------------------------------------------------
  alpha Z        PSCENC =       191.61485929
  Ewald energy   TEWEN  =     -3781.16325108
  -Hartree energ DENC   =      -885.63050149
  -exchange      EXHF   =         0.00000000
  -V(xc)+E(xc)   XCENC  =       122.83372849
  PAW double counting   =      4304.18251135    -4578.74305881
  entropy T*S    EENTRO =        -0.07539765
  eigenvalues    EBANDS =       294.69137183
  atomic energy  EATOM  =      4310.68601437
  Solvation  Ediel_sol  =         0.00000000
  ---------------------------------------------------
  free energy    TOTEN  =       -21.60372371 eV

  energy without entropy =      -21.52832606  energy(sigma->0) =      -21.57859116


--------------------------------------------------------------------------------------------------------




----------------------------------------- Iteration    1(  23)  ---------------------------------------


    POTLOK:  cpu time    0.0080: real time    0.0071
    SETDIJ:  cpu time    0.0060: real time    0.0060
     EDDAV:  cpu time    0.1200: real time    0.1203
       DOS:  cpu time    0.0000: real time    0.0003
    CHARGE:  cpu time    0.0210: real time    0.0205
    MIXING:  cpu time    0.0000: real time    0.0007
    --------------------------------------------
      LOOP:  cpu time    0.1550: real time    0.1584

 eigenvalue-minimisations  :   544
 total energy-change (2. order) : 0.8367896E-05  (-0.2553641E-05)
 number of electron      40.0000524 magnetization       0.0001704
 augmentation part       24.6610494 magnetization      -0.0002493

 Broyden mixing:
  rms(total) = 0.63138E-03    rms(broyden)= 0.63092E-03
  rms(prec ) = 0.63689E-03
  weight for this iteration     100.00

 eigenvalues of (default mixing * dielectric matrix)
  average eigenvalue GAMMA=   1.2646
  2.9682  2.9682  2.6935  2.6935  0.9483  0.9786  0.9786  1.2089  1.0858  1.0858
  0.7591  0.7591  0.7054  0.7054  0.5094  0.5094  0.6214  0.5844

 Free energy of the ion-electron system (eV)
  ---------------------------------------------------
  alpha Z        PSCENC =       191.61485929
  Ewald energy   TEWEN  =     -3781.16325108
  -Hartree energ DENC   =      -885.53013342
  -exchange      EXHF   =         0.00000000
  -V(xc)+E(xc)   XCENC  =       122.82871523
  PAW double counting   =      4304.82348686    -4579.36812102
  entropy T*S    EENTRO =        -0.07526200
  eigenvalues    EBANDS =       294.57997643
  atomic energy  EATOM  =      4310.68601437
  Solvation  Ediel_sol  =         0.00000000
  ---------------------------------------------------
  free energy    TOTEN  =       -21.60371534 eV

  energy without entropy =      -21.52845334  energy(sigma->0) =      -21.57862801


--------------------------------------------------------------------------------------------------------




----------------------------------------- Iteration    1(  24)  ---------------------------------------


    POTLOK:  cpu time    0.0070: real time    0.0070
    SETDIJ:  cpu time    0.0060: real time    0.0060
     EDDAV:  cpu time    0.0910: real time    0.0918
       DOS:  cpu time    0.0010: real time    0.0003
    --------------------------------------------
      LOOP:  cpu time    0.1060: real time    0.1088

 eigenvalue-minimisations  :   368
 total energy-change (2. order) :-0.3467253E-06  (-0.8250329E-07)
 number of electron      40.0000524 magnetization       0.0001704
 augmentation part       24.6610494 magnetization      -0.0002493

 Free energy of the ion-electron system (eV)
  ---------------------------------------------------
  alpha Z        PSCENC =       191.61485929
  Ewald energy   TEWEN  =     -3781.16325108
  -Hartree energ DENC   =      -885.52176721
  -exchange      EXHF   =         0.00000000
  -V(xc)+E(xc)   XCENC  =       122.82823313
  PAW double counting   =      4305.00036201    -4579.54267019
  entropy T*S    EENTRO =        -0.07524911
  eigenvalues    EBANDS =       294.56975310
  atomic energy  EATOM  =      4310.68601437
  Solvation  Ediel_sol  =         0.00000000
  ---------------------------------------------------
  free energy    TOTEN  =       -21.60371569 eV

  energy without entropy =      -21.52846657  energy(sigma->0) =      -21.57863265


--------------------------------------------------------------------------------------------------------




 average (electrostatic) potential at core
  the test charge radii are     0.9791
  (the norm of the test charge is              1.0000)
       1 -81.6932       2 -81.6932       3 -81.6932       4 -81.6932
 
 
 
 E-fermi :   9.5318     XC(G=0): -13.3810     alpha+bet :-16.8239


 spin component 1

 k-point     1 :       0.1250    0.1250    0.1250
  band No.  band energies     occupation 
      1       1.1213      1.00000
      2       5.3327      1.00000
      3       5.3327      1.00000
      4       5.3327      1.00000
      5       5.9026      1.00000
      6       5.9026      1.00000
      7       5.9026      1.00000
      8       7.4413      1.00000
      9       7.7252      1.00000
     10       7.7252      1.00000
     11       8.7037      1.00000
     12       8.7037      1.00000
     13       8.7252      1.00000
     14       8.7252      1.00000
     15       8.7252      1.00000
     16       9.2052      1.02155
     17       9.2052      1.02155
     18       9.2052      1.02155
     19       9.6085      0.20045
     20       9.6085      0.20045
     21       9.6085      0.20045
     22      12.3531     -0.00000
     23      12.3531     -0.00000
     24      12.3531     -0.00000
     25      20.6897      0.00000
     26      20.6897      0.00000
     27      20.6897      0.00000
     28      22.0095      0.00000
     29      22.0095      0.00000
     30      22.0095      0.00000
     31      25.6614      0.00000
     32      25.6614      0.00000

 k-point     2 :       0.3750    0.1250    0.1250
  band No.  band energies     occupation 
      1       2.6393      1.00000
      2       4.7852      1.00000
      3       5.9971      1.00000
      4       5.9971      1.00000
      5       6.3494      1.00000
      6       6.3596      1.00000
      7       6.3596      1.00000
      8       7.0000      1.00000
      9       7.4000      1.00000
     10       7.4000      1.00000
     11       7.8113      1.00000
     12       7.8806      1.00000
     13       8.0332      1.00000
     14       8.5516      1.00000
     15       8.6191      1.00000
     16       8.7527      1.00000
     17       8.7527      1.00000
     18       9.0116      1.00073
     19       9.4023      0.94007
     20       9.5222      0.54061
     21       9.5222      0.54061
     22       9.6222      0.15733
     23      14.6752     -0.00000
     24      14.6752     -0.00000
     25      17.9801      0.00000
     26      17.9801      0.00000
     27      21.7008      0.00000
     28      21.7008      0.00000
     29      23.7982      0.00000
     30      23.9809      0.00000
     31      23.9809      0.00000
     32      26.9082      0.00000

 k-point     3 :       0.3750    0.3750    0.1250
  band No.  band energies     occupation 
      1       3.9093      1.00000
      2       5.5361      1.00000
      3       5.5361      1.00000
      4       6.0457      1.00000
      5       6.6389      1.00000
      6       6.7465      1.00000
      7       6.7465      1.00000
      8       7.0242      1.00000
      9       7.2094      1.00000
     10       7.2094      1.00000
     11       7.3282      1.00000
     12       7.6472      1.00000
     13       7.9831      1.00000
     14       8.3345      1.00000
     15       8.3356      1.00000
     16       8.3356      1.00000
     17       8.6412      1.00000
     18       9.1708      1.01423
     19       9.1708      1.01423
     20       9.2384      1.02909
     21       9.5837      0.28823
     22      11.1093     -0.00000
     23      11.1093     -0.00000
     24      13.4211     -0.00000
     25      16.9605      0.00000
     26      19.7840      0.00000
     27      19.7840      0.00000
     28      22.7880      0.00000
     29      22.9151      0.00000
     30      25.3909      0.00000
     31      25.3909      0.00000
     32      28.2661      0.00000

 k-point     4 :       0.3750    0.3750    0.3750
  band No.  band energies     occupation 
      1       4.5258      1.00000
      2       5.2808      1.00000
      3       5.2808      1.00000
      4       5.2808      1.00000
      5       7.2464      1.00000
      6       7.2464      1.00000
      7       7.2464      1.00000
      8       7.6519      1.00000
      9       7.6519      1.00000
     10       7.8092      1.00000
     11       7.8092      1.00000
     12       7.8092      1.00000
     13       7.8691      1.00000
     14       7.8994      1.00000
     15       7.8994      1.00000
     16       7.8994      1.00000
     17       9.2782      1.03519
     18       9.2782      1.03519
     19       9.5169      0.56280
     20       9.5169      0.56280
     21       9.5169      0.56280
     22      11.1244     -0.00000
     23      11.1244     -0.00000
     24      11.1244     -0.00000
     25      16.3117      0.00000
     26      16.3117      0.00000
     27      16.3117      0.00000
     28      18.7473      0.00000
     29      29.2974      0.00000
     30      29.2974      0.00000
     31      29.2974      0.00000
     32      31.6748      0.00000

 spin component 2

 k-point     1 :       0.1250    0.1250    0.1250
  band No.  band energies     occupation 
      1       1.1213      1.00000
      2       5.3328      1.00000
      3       5.3328      1.00000
      4       5.3328      1.00000
      5       5.9026      1.00000
      6       5.9026      1.00000
      7       5.9026      1.00000
      8       7.4412      1.00000
      9       7.7252      1.00000
     10       7.7252      1.00000
     11       8.7038      1.00000
     12       8.7038      1.00000
     13       8.7252      1.00000
     14       8.7252      1.00000
     15       8.7252      1.00000
     16       9.2053      1.02157
     17       9.2053      1.02157
     18       9.2053      1.02157
     19       9.6085      0.20046
     20       9.6085      0.20046
     21       9.6085      0.20046
     22      12.3532     -0.00000
     23      12.3532     -0.00000
     24      12.3532     -0.00000
     25      20.6897      0.00000
     26      20.6897      0.00000
     27      20.6897      0.00000
     28      22.0096      0.00000
     29      22.0096      0.00000
     30      22.0096      0.00000
     31      25.6614      0.00000
     32      25.6614      0.00000

 k-point     2 :       0.3750    0.1250    0.1250
  band No.  band energies     occupation 
      1       2.6393      1.00000
      2       4.7853      1.00000
      3       5.9971      1.00000
      4       5.9971      1.00000
      5       6.3494      1.00000
      6       6.3596      1.00000
      7       6.3596      1.00000
      8       7.0000      1.00000
      9       7.4000      1.00000
     10       7.4000      1.00000
     11       7.8114      1.00000
     12       7.8806      1.00000
     13       8.0331      1.00000
     14       8.5516      1.00000
     15       8.6191      1.00000
     16       8.7528      1.00000
     17       8.7528      1.00000
     18       9.0117      1.00073
     19       9.4024      0.93994
     20       9.5221      0.54073
     21       9.5221      0.54073
     22       9.6222      0.15730
     23      14.6752     -0.00000
     24      14.6752     -0.00000
     25      17.9801      0.00000
     26      17.9801      0.00000
     27      21.7009      0.00000
     28      21.7009      0.00000
     29      23.7982      0.00000
     30      23.9809      0.00000
     31      23.9809      0.00000
     32      26.9082      0.00000

 k-point     3 :       0.3750    0.3750    0.1250
  band No.  band energies     occupation 
      1       3.9093      1.00000
      2       5.5362      1.00000
      3       5.5362      1.00000
      4       6.0457      1.00000
      5       6.6390      1.00000
      6       6.7465      1.00000
      7       6.7465      1.00000
      8       7.0242      1.00000
      9       7.2095      1.00000
     10       7.2095      1.00000
     11       7.3282      1.00000
     12       7.6472      1.00000
     13       7.9831      1.00000
     14       8.3346      1.00000
     15       8.3357      1.00000
     16       8.3357      1.00000
     17       8.6412      1.00000
     18       9.1708      1.01424
     19       9.1708      1.01424
     20       9.2383      1.02909
     21       9.5838      0.28808
     22      11.1093     -0.00000
     23      11.1093     -0.00000
     24      13.4211     -0.00000
     25      16.9606      0.00000
     26      19.7840      0.00000
     27      19.7840      0.00000
     28      22.7880      0.00000
     29      22.9151      0.00000
     30      25.3909      0.00000
     31      25.3909      0.00000
     32      28.2661      0.00000

 k-point     4 :       0.3750    0.3750    0.3750
  band No.  band energies     occupation 
      1       4.5258      1.00000
      2       5.2808      1.00000
      3       5.2808      1.00000
      4       5.2808      1.00000
      5       7.2465      1.00000
      6       7.2465      1.00000
      7       7.2465      1.00000
      8       7.6519      1.00000
      9       7.6519      1.00000
     10       7.8092      1.00000
     11       7.8092      1.00000
     12       7.8092      1.00000
     13       7.8691      1.00000
     14       7.8994      1.00000
     15       7.8994      1.00000
     16       7.8994      1.00000
     17       9.2783      1.03519
     18       9.2783      1.03519
     19       9.5169      0.56270
     20       9.5169      0.56270
     21       9.5169      0.56270
     22      11.1244     -0.00000
     23      11.1244     -0.00000
     24      11.1244     -0.00000
     25      16.3117      0.00000
     26      16.3117      0.00000
     27      16.3117      0.00000
     28      18.7473      0.00000
     29      29.2974      0.00000
     30      29.2974      0.00000
     31      29.2974      0.00000
     32      31.6748      0.00000


--------------------------------------------------------------------------------------------------------


 soft charge-density along one line, spin component           1
         0         1         2         3         4         5         6         7         8         9
 total charge-density along one line
 
 soft charge-density along one line, spin component           2
         0         1         2         3         4         5         6         7         8         9
 total charge-density along one line
 
 pseudopotential strength for first ion, spin component:           1
 -0.051  -0.000   0.000  -0.000   0.000  -2.542   0.000  -0.000
 -0.000  -0.051  -0.000  -0.000   0.000   0.000  -2.542   0.000
  0.000  -0.000  -0.011  -0.000  -0.000  -0.000   0.000  -2.561
 -0.000  -0.000  -0.000  -0.051  -0.000   0.000   0.000   0.000
  0.000   0.000  -0.000  -0.000  -0.011  -0.000  -0.000   0.000
 -2.542   0.000  -0.000   0.000  -0.000   2.505  -0.000   0.000
  0.000  -2.542   0.000   0.000  -0.000  -0.000   2.505  -0.000
 -0.000   0.000  -2.561   0.000   0.000   0.000  -0.000   2.514
  0.000   0.000   0.000  -2.542   0.000  -0.000  -0.000  -0.000
 -0.000  -0.000   0.000   0.000  -2.561   0.000   0.000  -0.000
  0.000   0.000   0.000   0.000   0.000   0.000   0.000  -0.000
 -0.000  -0.000   0.000  -0.000   0.000   0.000   0.000   0.000
 -0.000  -0.000  -0.000   0.000  -0.000   0.000   0.000   0.000
  0.000   0.000  -0.000   0.000  -0.000   0.000  -0.000   0.000
  0.000   0.000   0.000  -0.000   0.000  -0.000   0.000  -0.000
  0.000   0.000   0.000  -0.000   0.000  -0.000  -0.000  -0.000
 -0.000  -0.000   0.000   0.000   0.000   0.000   0.000  -0.000
 -0.000  -0.000  -0.000   0.000   0.000   0.000   0.000   0.000
 pseudopotential strength for first ion, spin component:           2
 -0.051  -0.000   0.000  -0.000   0.000  -2.542   0.000  -0.000
 -0.000  -0.051  -0.000  -0.000   0.000   0.000  -2.542   0.000
  0.000  -0.000  -0.011   0.000  -0.000  -0.000   0.000  -2.561
 -0.000  -0.000   0.000  -0.051  -0.000   0.000   0.000  -0.000
  0.000   0.000  -0.000  -0.000  -0.011  -0.000  -0.000   0.000
 -2.542   0.000  -0.000   0.000  -0.000   2.505  -0.000   0.000
  0.000  -2.542   0.000   0.000  -0.000  -0.000   2.505  -0.000
 -0.000   0.000  -2.561  -0.000   0.000   0.000  -0.000   2.514
  0.000   0.000  -0.000  -2.542   0.000  -0.000  -0.000   0.000
 -0.000  -0.000   0.000   0.000  -2.561   0.000   0.000  -0.000
  0.000   0.000   0.000   0.000   0.000   0.000   0.000  -0.000
 -0.000  -0.000  -0.000  -0.000  -0.000   0.000   0.000   0.000
 -0.000  -0.000  -0.000  -0.000  -0.000   0.000   0.000   0.000
 -0.000   0.000  -0.000  -0.000  -0.000  -0.000  -0.000   0.000
  0.000  -0.000   0.000  -0.000  -0.000  -0.000  -0.000  -0.000
  0.000   0.000   0.000   0.000   0.000  -0.000  -0.000  -0.000
  0.000  -0.000   0.000   0.000   0.000  -0.000   0.000  -0.000
 -0.000   0.000  -0.000   0.000   0.000   0.000  -0.000   0.000
 total augmentation occupancy for first ion, spin component:           1
  1.769  -0.000  -0.000  -0.000  -0.000   0.107   0.000   0.000   0.000   0.000   0.000   0.000   0.000   0.000   0.000  -0.000
 -0.000   1.769   0.000  -0.000  -0.000  -0.000   0.107  -0.000  -0.000   0.000   0.000   0.000   0.000  -0.000   0.000   0.000
 -0.000  -0.000   1.830  -0.000  -0.000  -0.000   0.000   0.021  -0.000   0.000  -0.000   0.000   0.000   0.000   0.000  -0.000
 -0.000  -0.000  -0.000   1.769   0.000   0.000   0.000   0.000   0.107  -0.000   0.000   0.000  -0.000  -0.000   0.000   0.000
 -0.000  -0.000  -0.000   0.000   1.830  -0.000   0.000   0.000   0.000   0.021   0.000   0.000   0.000  -0.000   0.000   0.000
  0.107  -0.000  -0.000   0.000  -0.000   0.115   0.000   0.000  -0.000   0.000  -0.000  -0.000   0.000  -0.000   0.000   0.000
  0.000   0.107   0.000   0.000  -0.000   0.000   0.115  -0.000  -0.000  -0.000   0.000  -0.000   0.000  -0.000   0.000  -0.000
  0.000  -0.000   0.021   0.000   0.000  -0.000  -0.000   0.118  -0.000  -0.000  -0.000   0.000   0.000  -0.000  -0.000   0.000
  0.000   0.000  -0.000   0.107  -0.000  -0.000  -0.000  -0.000   0.115   0.000  -0.000   0.000   0.000   0.000   0.000  -0.000
  0.000   0.000   0.000  -0.000   0.021   0.000  -0.000   0.000   0.000   0.118   0.000   0.000  -0.000   0.000  -0.000   0.000
  0.000   0.000  -0.000   0.000   0.000  -0.000   0.000  -0.000  -0.000   0.000   1.293  -0.337   0.000  -0.000   0.000   0.000
  0.000   0.000   0.000  -0.000   0.000  -0.000  -0.000   0.000   0.000   0.000  -0.337   0.113  -0.000  -0.000   0.000  -0.000
  0.000   0.000   0.000  -0.000   0.000   0.000   0.000   0.000  -0.000  -0.000  -0.000  -0.000   0.222  -0.000   0.000  -0.017
 -0.000  -0.000  -0.000  -0.000  -0.000  -0.000  -0.000   0.000   0.000   0.000   0.000  -0.000   0.000   0.222   0.000  -0.000
  0.000  -0.000   0.000   0.000   0.000   0.000   0.000  -0.000   0.000  -0.000   0.000   0.000  -0.000  -0.000   0.222  -0.000
 -0.000   0.000  -0.000   0.000  -0.000  -0.000  -0.000  -0.000   0.000  -0.000   0.000   0.000  -0.017  -0.000  -0.000   0.002
  0.000   0.000  -0.000   0.000   0.000   0.000  -0.000  -0.000   0.000  -0.000  -0.000  -0.000  -0.000  -0.017  -0.000   0.000
  0.000   0.000   0.000   0.000  -0.000   0.000  -0.000   0.000   0.000  -0.000   0.000   0.000   0.000   0.000  -0.017   0.000
 total augmentation occupancy for first ion, spin component:           2
  0.000  -0.000  -0.000   0.000   0.000  -0.000  -0.000   0.000  -0.000  -0.000  -0.000   0.000   0.000  -0.000  -0.000   0.000
 -0.000   0.000   0.000   0.000   0.000   0.000  -0.000  -0.000   0.000  -0.000   0.000  -0.000  -0.000   0.000   0.000  -0.000
 -0.000   0.000   0.000   0.000  -0.000   0.000   0.000  -0.000  -0.000   0.000   0.000   0.000  -0.000  -0.000  -0.000   0.000
  0.000   0.000   0.000   0.000   0.000  -0.000   0.000  -0.000  -0.000  -0.000  -0.000   0.000  -0.000   0.000   0.000   0.000
  0.000  -0.000  -0.000   0.000   0.000   0.000   0.000   0.000  -0.000  -0.000  -0.000   0.000   0.000   0.000   0.000   0.000
 -0.000   0.000   0.000  -0.000   0.000   0.000   0.000   0.000   0.000   0.000   0.000   0.000   0.000   0.000   0.000  -0.000
 -0.000  -0.000  -0.000   0.000  -0.000   0.000   0.000   0.000   0.000  -0.000   0.000  -0.000  -0.000   0.000   0.000  -0.000
  0.000  -0.000  -0.000  -0.000   0.000  -0.000  -0.000   0.000  -0.000  -0.000  -0.000  -0.000   0.000   0.000   0.000   0.000
 -0.000   0.000  -0.000  -0.000  -0.000   0.000   0.000  -0.000   0.000  -0.000  -0.000  -0.000  -0.000  -0.000   0.000  -0.000
 -0.000  -0.000   0.000   0.000  -0.000  -0.000   0.000  -0.000   0.000   0.000   0.000   0.000   0.000   0.000   0.000   0.000
 -0.000   0.000  -0.000  -0.000  -0.000   0.000   0.000  -0.000  -0.000   0.000   0.000   0.000   0.000   0.000  -0.000   0.000
  0.000  -0.000  -0.000   0.000   0.000   0.000  -0.000  -0.000  -0.000   0.000   0.000  -0.000   0.000  -0.000   0.000   0.000
  0.000  -0.000  -0.000  -0.000   0.000   0.000  -0.000   0.000  -0.000   0.000  -0.000  -0.000   0.000  -0.000   0.000   0.000
  0.000   0.000  -0.000   0.000   0.000   0.000   0.000  -0.000  -0.000   0.000  -0.000  -0.000  -0.000   0.000   0.000   0.000
 -0.000   0.000  -0.000   0.000  -0.000   0.000  -0.000   0.000   0.000   0.000   0.000  -0.000   0.000   0.000   0.000   0.000
  0.000  -0.000  -0.000   0.000   0.000  -0.000   0.000   0.000   0.000   0.000   0.000   0.000   0.000   0.000   0.000  -0.000
  0.000  -0.000   0.000  -0.000  -0.000  -0.000   0.000  -0.000  -0.000  -0.000   0.000   0.000   0.000   0.000  -0.000   0.000
 -0.000   0.000  -0.000  -0.000  -0.000   0.000   0.000   0.000   0.000   0.000  -0.000   0.000  -0.000   0.000   0.000   0.000


------------------------ aborting loop because EDIFF is reached ----------------------------------------


    CHARGE:  cpu time    0.0210: real time    0.0204
    FORLOC:  cpu time    0.0000: real time    0.0001
    FORNL :  cpu time    0.0150: real time    0.0151
    STRESS:  cpu time    0.0400: real time    0.0404
    FORCOR:  cpu time    0.0060: real time    0.0054
    FORHAR:  cpu time    0.0000: real time    0.0006
    MIXING:  cpu time    0.0010: real time    0.0008
    OFIELD:  cpu time    0.0000: real time    0.0000

  FORCE on cell =-STRESS in cart. coord.  units (eV):
  Direction    XX          YY          ZZ          XY          YZ          ZX
  --------------------------------------------------------------------------------------
  Alpha Z   191.61486   191.61486   191.61486
  Ewald   -1260.38830 -1260.38830 -1260.38830    -0.00000     0.00000    -0.00000
  Hartree   295.18677   295.18677   295.18677    -0.00000    -0.00000    -0.00000
  E(xc)    -220.24371  -220.24371  -220.24371     0.00000    -0.00000     0.00000
  Local       8.25696     8.25696     8.25696     0.00000     0.00000    -0.00000
  n-local   -29.23373   -33.68778   -29.52158     6.41978     4.16050     5.11256
  augment   703.81819   703.81819   703.81819    -0.00000     0.00000     0.00000
  Kinetic   318.88868   312.69412   309.36054     1.10372     0.07021     0.38399
  Fock        0.00000     0.00000     0.00000     0.00000     0.00000     0.00000
  -------------------------------------------------------------------------------------
  Total       1.07818     1.07818     1.07818     0.00000     0.00000    -0.00000
  in kB      40.56413    40.56413    40.56413     0.00000     0.00000    -0.00000
  external pressure =       40.56 kB  Pullay stress =        0.00 kB


 VOLUME and BASIS-vectors are now :
 -----------------------------------------------------------------------------
  energy-cutoff  :      600.00
  volume of cell :       42.59
      direct lattice vectors                 reciprocal lattice vectors
     3.492102000  0.000000000  0.000000000     0.286360479  0.000000000  0.000000000
     0.000000000  3.492102000  0.000000000     0.000000000  0.286360479  0.000000000
     0.000000000  0.000000000  3.492102000     0.000000000  0.000000000  0.286360479

  length of vectors
     3.492102000  3.492102000  3.492102000     0.286360479  0.286360479  0.286360479


 FORCES acting on ions
    electron-ion (+dipol)            ewald-force                    non-local-force                 convergence-correction
 -----------------------------------------------------------------------------------------------
   -.393E-13 -.137E-13 -.598E-13   -.842E-14 -.148E-13 -.323E-14   0.608E-23 0.746E-23 -.131E-23   0.150E-13 0.303E-14 -.132E-13
   -.404E-13 0.747E-12 0.699E-12   -.856E-14 0.997E-14 0.441E-14   -.372E-23 -.346E-23 0.448E-23   0.177E-13 0.195E-13 0.234E-13
   0.738E-12 -.223E-13 -.806E-12   0.719E-14 -.116E-13 0.450E-14   0.354E-23 -.137E-23 -.290E-23   0.899E-13 0.792E-14 0.755E-14
   0.742E-12 0.737E-12 0.698E-12   0.705E-14 0.132E-13 -.780E-14   -.125E-23 0.111E-23 -.226E-23   0.781E-13 0.333E-13 -.134E-13
 -----------------------------------------------------------------------------------------------
   0.140E-11 0.145E-11 0.531E-12   -.274E-14 -.328E-14 -.211E-14   0.464E-23 0.373E-23 -.199E-23   0.201E-12 0.638E-13 0.441E-14
 
 
 POSITION                                       TOTAL-FORCE (eV/Angst)
 -----------------------------------------------------------------------------------
      0.00000      0.00000      0.00000        -0.000000     -0.000000      0.000000
      0.00000      1.74605      1.74605         0.000000     -0.000000     -0.000000
      1.74605      0.00000      1.74605        -0.000000      0.000000     -0.000000
      1.74605      1.74605      0.00000         0.000000      0.000000     -0.000000
 -----------------------------------------------------------------------------------
    total drift:                                0.000000      0.000000      0.000000


--------------------------------------------------------------------------------------------------------



  FREE ENERGIE OF THE ION-ELECTRON SYSTEM (eV)
  ---------------------------------------------------
  free  energy   TOTEN  =       -21.60371569 eV

  energy  without entropy=      -21.52846657  energy(sigma->0) =      -21.57863265
 


--------------------------------------------------------------------------------------------------------


    POTLOK:  cpu time    0.0130: real time    0.0132


--------------------------------------------------------------------------------------------------------


     LOOP+:  cpu time    4.1164: real time    4.2106
    4ORBIT:  cpu time    0.0000: real time    0.0000

 total amount of memory used by VASP on root node    33741. kBytes
========================================================================

   base      :      30000. kBytes
   nonl-proj :        921. kBytes
   fftplans  :        234. kBytes
   grid      :       2073. kBytes
   one-center:        124. kBytes
   wavefun   :        389. kBytes
 
  
  
 General timing and accounting informations for this job:
 ========================================================
  
                  Total CPU time used (sec):        5.186
                            User time (sec):        4.076
                          System time (sec):        1.110
                         Elapsed time (sec):        5.543
  
                   Maximum memory used (kb):       63004.
                   Average memory used (kb):           0.
  
                          Minor page faults:       197455
                          Major page faults:           15
                 Voluntary context switches:         1424
