# ['Ni']

20 atoms
1 atom types

    0.0000     3.0270 xlo xhi
    0.0000     3.0270 ylo yhi
    0.0000    30.2703 zlo zhi

    0.0000    -0.0000     0.0000 xy xz yz

Atoms

1 1     0.0000     0.0000     0.0000
2 1     1.5135     1.5135     0.0000
3 1     1.5135     0.0000     1.5135
4 1     0.0000     1.5135     1.5135
5 1     0.0000     0.0000     3.0270
6 1     1.5135     1.5135     3.0270
7 1     1.5135     0.0000     4.5405
8 1     0.0000     1.5135     4.5405
9 1     0.0000     0.0000     6.0541
10 1     1.5135     1.5135     6.0541
11 1     1.5135     0.0000     7.5676
12 1     0.0000     1.5135     7.5676
13 1     0.0000     0.0000     9.0811
14 1     1.5135     1.5135     9.0811
15 1     1.5135     0.0000    10.5946
16 1     0.0000     1.5135    10.5946
17 1     0.0000     0.0000    12.1081
18 1     1.5135     1.5135    12.1081
19 1     1.5135     0.0000    13.6216
20 1     0.0000     1.5135    13.6216
