    2    2    1    2
  0.1090254E+02  0.2793739E-09  0.2793739E-09  0.2793739E-09  0.5000000E-15
  1.000000000000000E-004
  CAR 
 automatically generated by pyflamestk   
     20      4     16
 
  0.1250000E+00  0.1250000E+00  0.1250000E+00  0.1250000E+00
    1        1.277950      1.297567   1.000000   1.000000
    2        5.715970      5.415262   1.000000   1.000000
    3        5.715970      5.415262   1.000000   1.000000
    4        7.368712      6.793268   1.000000   1.000000
    5        7.368712      6.793268   1.000000   1.000000
    6        8.067134      7.462049   1.000000   1.000000
    7        8.540313      7.944955   1.000003   1.000000
    8        8.770235      8.312327   1.001669   1.000000
    9        8.770235      8.312327   1.001669   1.000000
   10        9.444633      8.796381  -0.019890   1.002858
   11        9.444633      8.796381  -0.019890   1.002858
   12       17.611119     17.519399   0.000000   0.000000
   13       17.611119     17.519399   0.000000   0.000000
   14       18.622043     18.520944   0.000000   0.000000
   15       27.834301     27.791711   0.000000   0.000000
   16       27.834301     27.791711   0.000000   0.000000
 
  0.3750000E+00  0.1250000E+00  0.1250000E+00  0.3750000E+00
    1        3.492912      3.477082   1.000000   1.000000
    2        5.759898      5.539196   1.000000   1.000000
    3        6.437521      6.086255   1.000000   1.000000
    4        7.136299      6.643104   1.000000   1.000000
    5        7.257409      6.707078   1.000000   1.000000
    6        7.604909      7.063937   1.000000   1.000000
    7        8.319068      7.833245   1.000000   1.000000
    8        8.488560      7.910235   1.000000   1.000000
    9        8.840330      8.229140   1.006425   1.000000
   10        9.194337      8.690656   0.738628   1.000254
   11        9.318845      8.733825   0.239203   1.000738
   12       11.752189     11.496281  -0.000000  -0.000000
   13       20.766561     20.640955   0.000000   0.000000
   14       21.261292     21.144102   0.000000   0.000000
   15       25.341132     25.264861   0.000000   0.000000
   16       26.127196     26.035993   0.000000   0.000000
 
  0.3750000E+00  0.3750000E+00  0.1250000E+00  0.3750000E+00
    1        4.780542      4.581669   1.000000   1.000000
    2        5.518864      5.180146   1.000000   1.000000
    3        6.674124      6.137166   1.000000   1.000000
    4        6.811649      6.285100   1.000000   1.000000
    5        7.372517      7.072955   1.000000   1.000000
    6        7.502039      7.181026   1.000000   1.000000
    7        8.649131      8.131950   1.000083   1.000000
    8        8.783798      8.276986   1.002218   1.000000
    9        8.967678      8.498383   1.030659   1.000001
   10        9.467370      8.869850  -0.030906   1.010317
   11       10.081869      9.537295  -0.000000  -0.031059
   12       12.287166     12.087037  -0.000000  -0.000000
   13       16.192318     15.926586   0.000000   0.000000
   14       19.327155     19.157530   0.000000   0.000000
   15       23.167385     23.080648   0.000000   0.000000
   16       26.887782     26.877099   0.000000   0.000000
 
  0.3750000E+00  0.3750000E+00  0.3750000E+00  0.1250000E+00
    1        6.169769      5.696028   1.000000   1.000000
    2        6.203139      5.940324   1.000000   1.000000
    3        6.496656      6.019443   1.000000   1.000000
    4        6.496656      6.019443   1.000000   1.000000
    5        6.734167      6.341781   1.000000   1.000000
    6        6.734167      6.341781   1.000000   1.000000
    7        8.971142      8.484576   1.031332   1.000000
    8        8.971142      8.484576   1.031332   1.000000
    9        8.989137      8.491609   1.034189   1.000000
   10        8.989137      8.491609   1.034189   1.000000
   11       12.394639     12.011085  -0.000000  -0.000000
   12       15.900593     15.703624   0.000000   0.000000
   13       15.900593     15.703624   0.000000   0.000000
   14       18.123038     17.946441   0.000000   0.000000
   15       20.863476     20.741189   0.000000   0.000000
   16       20.863476     20.741189   0.000000   0.000000
