LAMMPS (10 Feb 2015)
# ---- initialize simulations
clear
units metal
dimension 3
boundary p p p
atom_style charge
atom_modify map array
# ---- create atoms
read_data /Users/eugeneragasa/pyflamestk_git/pypospack/tests/tests_integration/workflow/WorkflowLammpsThermalExpansion/param_2856/MgO_NaCl_unit.npt.T1400/lammps.structure
  triclinic box = (0 0 0) to (4.2565 4.2565 4.2565) with tilt (0 0 0)
  1 by 1 by 1 MPI processor grid
  reading atoms ...
  8 atoms
# ---- define interatomic potential
include potential.mod
mass 1 24.305
mass 2 15.999

group Mg type 1
4 atoms in group Mg
group O type 2
4 atoms in group O

set group Mg charge 1.71287520642
  4 settings made for charge
set group O charge -1.71287520642
  4 settings made for charge

variable R_cut equal 10.0

pair_style buck/coul/long ${R_cut}
pair_style buck/coul/long 10
pair_coeff 1 1 0.0 0.5 0.0 ${R_cut}
pair_coeff 1 1 0.0 0.5 0.0 10
pair_coeff 1 2 1268.25800143 0.292150986054 0.0 ${R_cut}
pair_coeff 1 2 1268.25800143 0.292150986054 0.0 10
pair_coeff 2 2 34972.2762623 0.190168709461 15.9037418312 ${R_cut}
pair_coeff 2 2 34972.2762623 0.190168709461 15.9037418312 10

kspace_style pppm 1.0e-5

neighbor 1.0 bin
neigh_modify every 1 delay 0 check yes
# ---- define settings
compute eng all pe/atom
compute eatoms all reduce sum c_eng
# ---- run minimization
reset_timestep 0
fix 1 all box/relax iso 0.0 vmax 0.001
thermo 10
thermo_style custom step pe lx ly lz xy xz yz press pxx pyy pzz pxy pxz pyz c_eatoms
min_style cg
minimize 1e-25 1e-25 5000 10000
PPPM initialization ...
  G vector (1/distance) = 0.353245
  grid = 8 8 8
  stencil order = 5
  estimated absolute RMS force accuracy = 4.15075e-05
  estimated relative force accuracy = 2.88254e-06
  using double precision FFTs
  3d grid and FFT values/proc = 3375 512
Neighbor list info ...
  1 neighbor list requests
  update every 1 steps, delay 0 steps, check yes
  master list distance cutoff = 11
Memory usage per processor = 4.06549 Mbytes
Step PotEng Lx Ly Lz Xy Xz Yz Press Pxx Pyy Pzz Pxy Pxz Pyz eatoms 
       0    -118.2398       4.2565       4.2565       4.2565            0            0            0    92099.563    92099.563    92099.563    92099.563 -2.6648665e-10 1.3518399e-10 2.2028947e-10    -118.2398 
      10   -118.33067     4.299065     4.299065     4.299065            0            0            0    34673.493    34673.493    34673.493    34673.493 -1.1760899e-11 -1.3745134e-10 -5.0678772e-11   -118.33067 
      18   -118.34767    4.3277342    4.3277342    4.3277342            0            0            0    -4.391814    -4.391814    -4.391814    -4.391814 -1.1240186e-10 -1.6034703e-10 -8.891662e-11   -118.34767 
Loop time of 0.0119581 on 1 procs for 18 steps with 8 atoms

Minimization stats:
  Stopping criterion = linesearch alpha is zero
  Energy initial, next-to-last, final = 
        -118.239795936     -118.347671294     -118.347671294
  Force two-norm initial, final = 13.2992 0.00175014
  Force max component initial, final = 13.2992 0.000655584
  Final line search alpha, max atom move = 0.00390625 2.56088e-06
  Iterations, force evaluations = 18 35

Pair  time (%) = 0.00317669 (26.5651)
Kspce time (%) = 0.00188041 (15.7249)
Neigh time (%) = 0 (0)
Comm  time (%) = 0.000356674 (2.98269)
Outpt time (%) = 1.5974e-05 (0.133583)
Other time (%) = 0.00652838 (54.5937)

Nlocal:    8 ave 8 max 8 min
Histogram: 1 0 0 0 0 0 0 0 0 0
Nghost:    2189 ave 2189 max 2189 min
Histogram: 1 0 0 0 0 0 0 0 0 0
Neighs:    2344 ave 2344 max 2344 min
Histogram: 1 0 0 0 0 0 0 0 0 0

Total # of neighbors = 2344
Ave neighs/atom = 293
Neighbor list builds = 0
Dangerous builds = 0
unfix 1
# ---- define output variables ----
variable natoms equal "count(all)"
variable tot_energy equal "c_eatoms"
variable length_x equal "lx"
variable length_y equal "ly"
variable length_z equal "lz"
variable tilt_xy equal "xy"
variable tilt_xz equal "xz"
variable tilt_yz equal "yz"
variable tot_press equal "press"
variable press_xx equal "pxx"
variable press_yy equal "pyy"
variable press_zz equal "pzz"
variable press_xy equal "pxy"
variable press_xz equal "pxz"
variable press_yz equal "pyz"

# ---- output ----
print "pypospack:output_section:begin"
pypospack:output_section:begin
print "tot_energy = ${tot_energy}"
tot_energy = -118.347671293792
print "num_atoms = ${natoms}"
num_atoms = 8
print "xx = ${length_x}"
xx = 4.32773421076983
print "yy = ${length_y}"
yy = 4.32773421076983
print "zz = ${length_z}"
zz = 4.32773421076983
print "xy = ${tilt_xy}"
xy = 0
print "xz = ${tilt_xz}"
xz = 0
print "yz = ${tilt_yz}"
yz = 0
print "tot_press = ${tot_press}"
tot_press = -4.39181402043263
print "pxx = ${press_xx}"
pxx = -4.39181402021402
print "pyy = ${press_yy}"
pyy = -4.39181402042068
print "pzz = ${press_zz}"
pzz = -4.39181402066319
print "pxy = ${press_xy}"
pxy = -1.12401857084108e-10
print "pxz = ${press_xz}"
pxz = -1.60347032595802e-10
print "pyz = ${press_yz}"
pyz = -8.89166196817966e-11
print "pypospack:output_section:done"
pypospack:output_section:done
print "pypospack:lammps_sim:done"
pypospack:lammps_sim:done
#------------------------------------------------------------------------------
# RUN THERMOSTAT
# running using an NPT Nose-Hoover style thermostat
#------------------------------------------------------------------------------
variable tempdamp equal 0.1
variable pressdamp equal 1.0
# set initial velocities
velocity all create 1400 6490225 mom yes dist gaussian loop all
# fix for Nose-Hoover style thermostat
fix 20 all npt temp 1400 1400 0.1 aniso 0.0 0.0 1.0 drag 1.0 couple xyz
variable boxx equal lx
variable boxy equal ly
variable boxz equal lz
variable boxp equal press
variable boxt equal temp
# calculate averages every 10000 steps
reset_timestep 0
fix 21 all ave/time 10 10 100 v_boxx v_boxy v_boxz v_boxp v_boxt file lattice.out
thermo_style custom step temp pe ke etotal press lx ly lz press pxx pyy pzz pxy pxz pyz vol
thermo_modify flush yes
thermo 100
run 100000
PPPM initialization ...
  G vector (1/distance) = 0.352508
  grid = 8 8 8
  stencil order = 5
  estimated absolute RMS force accuracy = 4.29555e-05
  estimated relative force accuracy = 2.9831e-06
  using double precision FFTs
  3d grid and FFT values/proc = 3375 512
Memory usage per processor = 3.06549 Mbytes
Step Temp PotEng KinEng TotEng Press Lx Ly Lz Press Pxx Pyy Pzz Pxy Pxz Pyz Volume 
       0         1400   -118.34768    1.2667494   -117.08093    16686.367    4.3277342    4.3277342    4.3277342    16686.367    8677.6211    5731.0733    35650.407   -2134.6452   -4375.7415   -629.74661    81.055361 
     100    963.11169   -117.79771   0.87144369   -116.92626   -9688.8079    4.3638963    4.3638963    4.3638963   -9688.8079   -28346.485   -2209.6938    1489.7551    1011.5051    8030.1092      1827.84    83.104254 
     200    1204.7068   -117.66993     1.090044   -116.57989    -41648.81     4.398565     4.398565     4.398565    -41648.81   -73862.409   -36364.823   -14719.198    447.39869    20648.053   -2141.1415    85.100684 
     300    984.77566   -117.16332   0.89104572   -116.27228    5072.8892    4.3937996    4.3937996    4.3937996    5072.8892   -33828.162   -30517.318    79564.147   -2771.3742    -10151.47     13031.71    84.824387 
     400    1226.9209   -117.15996    1.1101438   -116.04982    4481.8625    4.3852564    4.3852564    4.3852564    4481.8625   -32792.441   -35849.903    82087.931     1697.599    11413.117    11790.188    84.330556 
     500    1100.5747   -116.92147    0.9958231   -115.92565    15965.906    4.3885084    4.3885084    4.3885084    15965.906   -28259.049   -29557.852    105714.62    2195.9642    24868.245   -1416.2962     84.51831 
     600    1259.8079   -117.01953    1.1399007   -115.87963   -1570.5492    4.4088566    4.4088566    4.4088566   -1570.5492   -55045.558   -8222.0344    58555.944    -2107.447    1054.7261   -5641.3291    85.699429 
     700    1263.4372    -116.9926    1.1431845   -115.84942    -8935.062    4.4151239    4.4151239    4.4151239    -8935.062   -59499.842   -68198.756    100893.41   -417.72804    7680.1537   -2828.6259    86.065421 
     800    992.78917   -116.73023   0.89829651   -115.83194    39221.241    4.3832454    4.3832454    4.3832454    39221.241   -15731.038   -3403.3482    136798.11    -1651.225    3030.8898    6105.2155    84.214594 
     900    1261.8606   -116.98274    1.1417579   -115.84099    20203.468    4.3828275    4.3828275    4.3828275    20203.468   -9567.2182     16095.37    54082.253    8062.5921    2214.1764   -2190.0624    84.190507 
    1000    1645.7475    -117.3243    1.4891069   -115.83519    -21418.34     4.410007     4.410007     4.410007    -21418.34   -31749.089   -44153.546    11647.616     1306.536   -7396.3091   -12186.611    85.766529 
    1100    1575.3423    -117.2261    1.4254028   -115.80069   -14137.577    4.4050985    4.4050985    4.4050985   -14137.577   -52211.507   -28612.584    38411.361   -5715.6856     23962.16    7195.0149    85.480465 
    1200    813.51856   -116.52443   0.73608869   -115.78834    38668.231    4.3865319    4.3865319    4.3865319    38668.231    54685.888   -7445.2644     68764.07    1747.7026    5987.2443    4662.1488    84.404163 
    1300    1664.2162   -117.32045    1.5058178   -115.81463   -17964.816    4.4005473    4.4005473    4.4005473   -17964.816   -26764.379   -37149.705    10019.635    4372.3531    -16411.48    3147.7937     85.21579 
    1400    1337.6201   -117.02414    1.2103067   -115.81384   -27536.578     4.417678     4.417678     4.417678   -27536.578   -10791.427   -40348.655   -31469.652    11917.105    20053.069    1488.7359    86.214866 
    1500     1727.061   -117.36903    1.5626811   -115.80635   -27622.631     4.404452     4.404452     4.404452   -27622.631   -26384.823   -39794.734   -16688.336    7163.3014   -437.87153   -10527.496    85.442834 
    1600    993.93721   -116.70373   0.89933528   -115.80439    47063.195    4.3844315    4.3844315    4.3844315    47063.195    42370.579   -4414.3045    103233.31   -2502.3612   -9483.8392    3165.3102    84.282977 
    1700    1037.3085   -116.76873   0.93857854   -115.83015   -18329.529    4.4100131    4.4100131    4.4100131   -18329.529   -23574.066    -57286.63    25872.109    3918.1327    8410.2421   -1263.1243    85.766887 
    1800    1056.9541    -116.7727   0.95635432   -115.81635   -2170.2124    4.4229795    4.4229795    4.4229795   -2170.2124   -39121.772   -48987.695    81598.829    7305.5573   -17831.156   -994.83845    86.525634 
    1900    1144.8697   -116.84823    1.0359022   -115.81233    10065.156    4.3950157    4.3950157    4.3950157    10065.156    22770.464   -2593.9007    10018.904   -537.90438    3176.2986   -10089.848    84.894842 
    2000    1806.1452   -117.44207    1.6342381   -115.80783   -346.17254    4.3753154    4.3753154    4.3753154   -346.17254    8885.8377   -20905.568    10981.213      -2946.6   -9092.2153   -17640.326    83.758344 
    2100    1650.4145   -117.34362    1.4933297   -115.85029   -8632.5122    4.4169104    4.4169104    4.4169104   -8632.5122   -6076.9719   -29921.811    10101.246    8115.0939    5506.2994    8500.3464    86.169933 
    2200    1093.4796   -116.79827   0.98940332   -115.80887   -35590.211    4.4397827    4.4397827    4.4397827   -35590.211   -52839.709   -73254.125    19323.201    1514.7929     10490.58    -10594.75    87.515532 
    2300    749.58051   -116.46903    0.6782362   -115.79079    41965.386    4.3849823    4.3849823    4.3849823    41965.386    65684.967   -50828.067    111039.26    21923.823   -10774.979   -5114.0889    84.314745 
    2400    1975.5148   -117.56974    1.7874873   -115.78225    10780.933    4.3638872    4.3638872    4.3638872    10780.933    3746.9125   -7273.3164    35869.203    10577.476    8747.1237    797.75071    83.103734 
    2500    1559.3162   -117.25416    1.4109021   -115.84325   -21241.029    4.4059408    4.4059408    4.4059408   -21241.029    -12776.26   -53244.223    2297.3973   -7213.0479   -789.34838    2271.9228    85.529508 
    2600    1156.1796   -116.86321    1.0461356   -115.81708   -35732.843    4.4250664    4.4250664    4.4250664   -35732.843   -45380.549   -87353.734    25535.756    7753.2601     -7460.86   -16516.305    86.648168 
    2700    1513.3059   -117.13915     1.369271   -115.76988    16320.029    4.3918701    4.3918701    4.3918701    16320.029    39569.292   -32886.103    42276.898   -2682.1521   -13211.854    13454.399    84.712688 
    2800    1713.7171   -117.32568    1.5506072   -115.77507    7420.4769    4.3917198    4.3917198    4.3917198    7420.4769   -26088.544   -24080.122    72430.097   -9456.2635    2873.2449     -15297.7    84.703991 
    2900    1492.8221   -117.12844    1.3507368   -115.77771   -27123.785    4.4243707    4.4243707    4.4243707   -27123.785   -27397.143   -51217.412   -2756.8009    10247.397     14940.48    -20798.61    86.607305 
    3000    1115.7432   -116.76234    1.0095479   -115.75279    33878.237    4.4114144    4.4114144    4.4114144    33878.237    12099.971   -35730.095    125264.83    4256.6889   -2914.3748    -10581.22    85.848667 
    3100    1477.1747   -117.09846    1.3365787   -115.76188    8779.9849     4.387329     4.387329     4.387329    8779.9849   -41993.093   -5788.2672    74121.315   -6261.0479    6947.1483    4384.5317    84.450186 
    3200    1524.8926    -117.1736    1.3797548   -115.79384   -694.27832    4.3912814    4.3912814    4.3912814   -694.27832   -38250.784    18760.331    17407.619    4895.8749    8644.3764   -19982.261    84.678625 
    3300    1128.8867   -116.83964    1.0214404    -115.8182   -2864.6891    4.4169599    4.4169599    4.4169599   -2864.6891   -45589.843   -49456.161    86451.936   -2387.5976   -13516.253    2549.1456    86.172834 
    3400    1388.5863   -117.05291    1.2564221   -115.79649   -7844.6092    4.4098269    4.4098269    4.4098269   -7844.6092   -51530.685   -40766.024    68762.882   -7054.8935    1689.5003    3204.3735    85.756023 
    3500    1248.9751   -116.91073    1.1300989   -115.78063    22681.769    4.3973771    4.3973771    4.3973771    22681.769   -3266.4778    16285.782    55026.003    -249.3462    8106.0664     4592.748    85.031751 
    3600    1261.2657   -116.93882    1.1412197    -115.7976    3183.3328    4.4103503    4.4103503    4.4103503    3183.3328   -21655.838   -23584.269    54790.106    -4536.564   -4463.0293     4264.901    85.786563 
    3700    1687.2667   -117.32433    1.5266743   -115.79766   -23220.211    4.4119726    4.4119726    4.4119726   -23220.211   -59710.856   -53541.329    43591.553   -304.31954   -3332.3189    5724.6831    85.881264 
    3800    1378.6265   -117.04034    1.2474102   -115.79293   -2830.3869    4.4052363    4.4052363    4.4052363   -2830.3869   -31969.738   -35196.252    58674.829   -5013.2228   -4580.9937    39528.006    85.488485 
    3900    1426.7696   -117.08645    1.2909711   -115.79548    758.83708    4.3984042    4.3984042    4.3984042    758.83708   -15294.051   -47509.089    65079.651    721.55544   -5087.6607    214.39307    85.091351 
    4000    1447.5368   -117.12919    1.3097617   -115.81943   -3680.6788    4.4000733    4.4000733    4.4000733   -3680.6788   -42843.116   -64368.707    96169.787    5917.7452    1203.1158   -9893.0446    85.188256 
    4100    1156.8412   -116.88381    1.0467342   -115.83707    -426.9227    4.4069426    4.4069426    4.4069426    -426.9227   -58178.223   -54695.374    111592.83   -13637.888   -7334.1509   -4048.7155    85.587864 
    4200    1194.7799   -116.91644     1.081062   -115.83538   -8436.5179    4.4112273    4.4112273    4.4112273   -8436.5179   -80042.834     -65729.5    120462.78    6089.4168    691.76656    -4677.303    85.837746 
    4300    1363.5455   -117.04831    1.2337646   -115.81455    4209.2806    4.3937659    4.3937659    4.3937659    4209.2806   -32785.749   -24137.725    69551.316    7505.6259   -2430.2568   -16782.395    84.822438 
    4400    1079.5948   -116.79026   0.97684009   -115.81342    130.91185    4.3875765    4.3875765    4.3875765    130.91185    -7992.138   -42188.797    50573.671   -9677.2919    4988.0358    21480.002    84.464476 
    4500    1567.5505   -117.22782    1.4183527   -115.80947    -500.8681    4.3959752    4.3959752    4.3959752    -500.8681   -31239.069   -53115.647    82852.112    9487.8005     5141.136    8925.8095    84.950455 
    4600    1426.0444   -117.10738     1.290315   -115.81706   -1281.3493    4.4053381    4.4053381    4.4053381   -1281.3493   -28393.017   -25484.268    50033.237   -6982.1753   -17549.263   -1320.9442    85.494412 
    4700    1751.2299   -117.39087    1.5845496   -115.80632   -25448.686    4.3995674    4.3995674    4.3995674   -25448.686   -49450.423   -43485.104    16589.468   -21174.728    2066.7423    5563.4808    85.158878 
    4800    1199.1878   -116.89428    1.0850504   -115.80923    9908.0975    4.4008054    4.4008054    4.4008054    9908.0975   -22303.327   -39225.452    91253.071    3531.2662     8579.772    25035.074    85.230784 
    4900    1123.3541   -116.81659    1.0164344   -115.80016    20138.953    4.4060268    4.4060268    4.4060268    20138.953    13437.114    -29792.67    76772.416   -4889.5812   -3171.4237    15825.365    85.534519 
    5000    1348.9085   -117.00683    1.2205207   -115.78631   -18381.413    4.4087395    4.4087395    4.4087395   -18381.413   -37737.088   -35513.606    18106.457   -2934.4342    14579.092   -11651.543    85.692601 
    5100    1111.5557    -116.7879    1.0057589   -115.78214    9180.1761    4.3986149    4.3986149    4.3986149    9180.1761   -21148.731    16675.459    32013.801    2612.4297   -3197.3486    26681.875    85.103579 
    5200    1554.3413   -117.18618    1.4064007   -115.77978    12474.916    4.3944283    4.3944283    4.3944283    12474.916   -1805.1217   -26060.721    65290.592   -7373.2362    12595.116   -4837.6526    84.860804 
    5300    1774.5415   -117.38222    1.6056425   -115.77658    13137.648    4.3857409    4.3857409    4.3857409    13137.648   -10572.614   -41974.444    91960.002   -9586.1069    21166.755   -13153.484    84.358514 
    5400    1486.6735   -117.14395    1.3451735   -115.79878    9040.2746      4.39486      4.39486      4.39486    9040.2746   -19918.311    14255.797    32783.337   -9175.5384   -7611.0525    30755.687    84.885817 
    5500    1514.7881   -117.17005    1.3706121   -115.79944   -19633.069    4.4253119    4.4253119    4.4253119   -19633.069   -50685.556   -33947.726    25734.076   -5668.2661    5099.8909    -22316.83    86.662588 
    5600    1350.9375   -116.99787    1.2223566   -115.77551   -2531.3052    4.4168037    4.4168037    4.4168037   -2531.3052   -60978.084   -9771.8016     63155.97    693.74631    14696.717   -15551.408     86.16369 
    5700    1340.3906    -116.9851    1.2128136   -115.77228   -2351.2073    4.3858034    4.3858034    4.3858034   -2351.2073   -33581.669   -33518.327    60046.374   -1988.3772    8794.1815    23814.598    84.362116 
    5800    1438.3641    -117.1077     1.301462   -115.80624    22337.439    4.3849819    4.3849819    4.3849819    22337.439   -33224.234    46831.098    53405.454    8182.8014    6319.7621     7617.354    84.314722 
    5900    1732.7568   -117.38759    1.5678348   -115.81975   -36804.377    4.4183581    4.4183581    4.4183581   -36804.377   -57038.177   -63004.076    9629.1214    -6263.323    7995.4201   -7030.5159    86.254696 
    6000    926.64858    -116.6351    0.8384511   -115.79664    21650.409    4.3963734    4.3963734    4.3963734    21650.409   -14558.042    5441.7268    74067.543   -9093.6317    6542.6087    29659.045    84.973543 
    6100    1616.5774   -117.23668    1.4627132   -115.77397   -1529.0853    4.3760465    4.3760465    4.3760465   -1529.0853   -23642.476   -7534.7975    26590.018    8187.9001    1022.3561    7584.1675    83.800341 
    6200    1074.3037   -116.77175   0.97205253    -115.7997     14434.37    4.3962684    4.3962684    4.3962684     14434.37   -42651.499     16410.89     69543.72    107.79794    5574.5925   -627.11893    84.967454 
    6300     1529.913   -117.17838    1.3842974   -115.79408   -21934.025    4.4127234    4.4127234    4.4127234   -21934.025   -44448.537   -19015.128   -2338.4109   -494.99088   -1400.3214    13364.461    85.925116 
    6400    958.06913   -116.64666   0.86688109   -115.77978   -906.09508    4.4122228    4.4122228    4.4122228   -906.09508   -13411.871   -20381.847    31075.432    7250.0313   -9256.0632     31438.48    85.895875 
    6500    1826.9027    -117.4187    1.6530199   -115.76568    1501.3524     4.375864     4.375864     4.375864    1501.3524   -5221.2829   -9238.7571    18964.097    1551.8911    655.63264   -11470.798    83.789856 
    6600    1411.0255   -117.06941    1.2767255   -115.79268     39457.65    4.3656567    4.3656567    4.3656567     39457.65    19763.679    36030.653    62578.617   -8319.9852    11177.131   -1229.8603    83.204871 
    6700    1727.7225   -117.37995    1.5632796   -115.81667   -29389.098    4.4070505    4.4070505    4.4070505   -29389.098   -29526.945   -55829.082    -2811.267    8065.2695   -26187.982    19630.617    85.594148 
    6800    1520.5147   -117.16091    1.3757937   -115.78512   -14016.648    4.4129193    4.4129193    4.4129193   -14016.648    -58780.64   -44646.928    61377.624    5793.1983    -5287.506   -5879.0362    85.936558 
    6900    900.29456   -116.58658   0.81460544   -115.77197     22151.82    4.3919921    4.3919921    4.3919921     22151.82   -55468.947    62686.037    59238.369    3162.8019    11958.208   -25271.783    84.719749 
    7000    1507.2904   -117.14307     1.363828   -115.77924    -3943.231     4.387205     4.387205     4.387205    -3943.231   -49456.929    2009.5694    35617.666    12332.809   -7529.1387    14283.215    84.443026 
    7100    1332.3097    -117.0091    1.2055018    -115.8036   -25468.165    4.4066305    4.4066305    4.4066305   -25468.165   -67699.094   -39938.316    31232.916    1958.4897   -5285.3039    6644.8415    85.569681 
    7200    1189.3347   -116.87534    1.0761351    -115.7992   -14296.596    4.3935129    4.3935129    4.3935129   -14296.596   -23598.546   -22956.713    3665.4717    937.03039   -1291.8711   -33852.751    84.807783 
    7300    1269.3599   -116.94508    1.1485435   -115.79654    30356.829    4.3734726    4.3734726    4.3734726    30356.829    16833.922    12441.938    61794.628    13284.608   -9936.1307   -5678.6942    83.652556 
    7400    1913.4037   -117.54242    1.7312879   -115.81113   -24311.698    4.3956417    4.3956417    4.3956417   -24311.698   -55907.199   -25960.781    8932.8856   -2039.1113    4042.9729    2561.8392    84.931121 
    7500    899.99991   -116.61565   0.81433883   -115.80131    13287.257    4.4127486    4.4127486    4.4127486    13287.257   -21249.233   -14976.064    76087.069    1669.9604    7607.6645   -17932.536    85.926583 
    7600    1597.9657   -117.21409    1.4458729   -115.76822   -33088.225    4.4153749    4.4153749    4.4153749   -33088.225   -49364.407   -47028.982   -2871.2867    5091.1903   -9429.9434    -5973.962    86.080101 
    7700    1687.2466   -117.27707    1.5266562   -115.75041    20782.607    4.3872831    4.3872831    4.3872831    20782.607    1024.6235   -14922.355    76245.552   -1843.5381   -20400.244     4490.644    84.447537 
    7800    1218.2029   -116.87845    1.1022556    -115.7762    33844.685    4.3775496    4.3775496    4.3775496    33844.685    52408.079    55319.936   -6193.9594   -8554.7789    8971.3716   -15543.084    83.886722 
    7900     1594.231   -117.25571    1.4424937   -115.81322   -32109.506    4.4171024    4.4171024    4.4171024   -32109.506   -21950.454   -44665.054    -29713.01   -5642.8034   -3192.9006   -9472.7837    86.181176 
    8000    1499.8335   -117.11393    1.3570808   -115.75685   -22121.567    4.4312329    4.4312329    4.4312329   -22121.567   -52159.728   -22834.253    8629.2803   -10663.548   -7286.5423    25957.265    87.010916 
    8100    1387.8814   -116.98374    1.2557843   -115.72795    15079.832    4.3846557    4.3846557    4.3846557    15079.832    4289.4293    12486.784    28463.282   -11408.449    1349.1413   -9686.7613     84.29591 
    8200    1072.3623   -116.73059   0.97029593   -115.76029    38263.196    4.3730759    4.3730759    4.3730759    38263.196   -34057.799    41662.154    107185.23    3826.8669   -6998.9429   -26113.895    83.629796 
    8300    1446.5872   -117.10658    1.3089025   -115.79768   -32883.409    4.4197618    4.4197618    4.4197618   -32883.409   -54526.516   -33361.494   -10762.216   -3902.7847   -6775.1162    2496.4284    86.336926 
    8400    1111.8718   -116.76287     1.006045   -115.75682   -24179.208    4.4279994    4.4279994    4.4279994   -24179.208   -11665.108   -35700.214   -25172.303   -13227.764   -9699.2735    -14498.97    86.820573 
    8500    966.18033   -116.61039   0.87422026   -115.73617    23182.347    4.3973022    4.3973022    4.3973022    23182.347   -1687.9418    54314.192     16920.79   -17707.868   -14475.366    -22670.87    85.027409 
    8600    1753.7823   -117.32964    1.5868591   -115.74278    19701.391    4.3862528    4.3862528    4.3862528    19701.391   -28173.963    47112.306     40165.83   -7188.3395    10047.816   -12924.428    84.388057 
    8700    1591.5141   -117.21988    1.4400354   -115.77985   -62.569113    4.4052915    4.4052915    4.4052915   -62.569113     -35328.1   -12313.569    47453.961   -10098.442   -13440.708   -23911.719      85.4917 
    8800    1332.5088   -116.98243    1.2056819   -115.77675   -36971.354    4.4227931    4.4227931    4.4227931   -36971.354    -58611.41    -54634.73     2332.079   -26390.349    3430.7321   -15662.067    86.514694 
    8900    1453.1231   -117.07156    1.3148163   -115.75675    8966.8192    4.3879849    4.3879849    4.3879849    8966.8192   -39194.752     27104.07     38991.14    -1146.969    19824.934   -104.08856    84.488065 
    9000    1702.7092   -117.29514    1.5406471   -115.75449    31158.999    4.3692702    4.3692702    4.3692702    31158.999    12684.093    48716.025    32076.878   -2964.5144   -3761.7513   -2537.8718    83.411646 
    9100    1045.8582   -116.75304   0.94631444   -115.80673   -34858.676    4.4101492    4.4101492    4.4101492   -34858.676   -73046.479    14399.389   -45928.939   -18913.826    1434.8962   -9687.3069    85.774825 
    9200    1333.1139   -116.98525    1.2062294   -115.77902   -38665.693    4.4073241    4.4073241    4.4073241   -38665.693   -83155.599     18993.05   -51834.531   -594.99462    2067.8856   -480.20979    85.610092 
    9300     1353.793   -116.97295    1.2249403   -115.74801    30133.902    4.3746246    4.3746246    4.3746246    30133.902    18780.493    62912.912     8708.301   -165.42763    3783.9844    3616.5619    83.718679 
    9400    917.39957     -116.601   0.83008241   -115.77092    19849.136    4.3793194    4.3793194    4.3793194    19849.136    5196.9246    46370.178    7980.3044   -3814.2866   -6745.8891    -13008.32    83.988507 
    9500     1433.821   -117.08137    1.2973514   -115.78402   -38696.024    4.3979721    4.3979721    4.3979721   -38696.024   -64881.702    -17184.79    -34021.58   -14858.427   -964.33221   -15124.203    85.066275 
    9600    1403.1584   -117.04201    1.2696072   -115.77241   -4502.3526    4.4042759    4.4042759    4.4042759   -4502.3526   -51733.056    20835.588     17390.41   -4054.4647   -972.17124     16617.97    85.432583 
    9700    1698.1195   -117.30535    1.5364942   -115.76886   -23630.373    4.3973049    4.3973049    4.3973049   -23630.373   -21288.862   -35348.996   -14253.262    15725.571   -1367.5344   -27318.111    85.027564 
    9800    1398.8076   -117.04246    1.2656705   -115.77679    19589.606    4.3745648    4.3745648    4.3745648    19589.606   -24136.089    55154.249    27750.658   -8593.8888   -6024.2468   -17516.091    83.715249 
    9900     1247.839   -116.94099     1.129071   -115.81191     19423.55    4.3994775    4.3994775    4.3994775     19423.55   -9254.0525     55710.39    11814.311   -4431.5408   -11583.837   -2567.8806    85.153654 
   10000    1223.2018   -116.88439    1.1067787   -115.77761   -37319.575    4.4342402    4.4342402    4.4342402   -37319.575   -50863.801     -21049.5   -40045.424    250.84422     4140.499   -20003.879    87.188184 
   10100    890.33167   -116.55798   0.80559081   -115.75239    12868.481    4.3947361    4.3947361    4.3947361    12868.481   -42851.538    84820.878   -3363.8985   -18471.398   -5375.6141   -28636.998    84.878638 
   10200    1578.4274   -117.14649    1.4281943    -115.7183    40565.314      4.35505      4.35505      4.35505    40565.314    6514.7233    53385.796    61795.423   -10676.402   -17116.948    -105.5681    82.599885 
   10300    1242.5907   -116.91697    1.1243222   -115.79265    7604.0931    4.3948248    4.3948248    4.3948248    7604.0931    39366.963   -9621.3928    -6933.291    2250.6841    4239.3285   -14889.406    84.883777 
   10400    1273.0136   -116.91965    1.1518494    -115.7678   -35074.288    4.4193062    4.4193062    4.4193062   -35074.288   -50302.136    -38824.49   -16096.238   -19236.744    -19161.92   -9188.3112    86.310232 
   10500    1282.5477    -116.9101    1.1604761   -115.74963    33504.779    4.3893333    4.3893333    4.3893333    33504.779    37235.969    63436.969   -158.60095    315.83566   -31553.042    9518.1238    84.565981 
   10600    1777.1964   -117.36629    1.6080447   -115.75824    -12274.32    4.3862547    4.3862547    4.3862547    -12274.32   -13050.064    9004.0244   -32776.922    18294.741    8721.0647    786.35277    84.388162 
   10700    852.67589   -116.55559   0.77151906   -115.78407    26229.216    4.3811852    4.3811852    4.3811852    26229.216    14398.539    78962.463   -14673.354    19958.282   -5533.9333    165.47765    84.095902 
   10800    1595.9907   -117.23822    1.4440859   -115.79414      4071.15    4.3900854    4.3900854    4.3900854      4071.15   -3784.0226    32638.268   -16640.795    1159.1131   -10235.805   -4573.4469    84.609455 
   10900     1185.535   -116.86132     1.072697   -115.78862   -26720.946     4.412673     4.412673     4.412673   -26720.946   -35368.888   -1229.9433   -43564.007    7477.8472    21985.617     18761.98    85.922169 
   11000    1039.8591   -116.70978   0.94088638    -115.7689   -889.48236    4.3878093    4.3878093    4.3878093   -889.48236   -23736.838    51092.726   -30024.335    31136.011   -10304.941    5168.9746    84.477922 
   11100    1850.2358   -117.43007    1.6741322   -115.75594   -198.87909    4.3710329    4.3710329    4.3710329   -198.87909     8617.384    -566.3778   -8647.6435   -16605.827    1381.5164   -10095.274    83.512641 
   11200    759.99806    -116.4785   0.68766222   -115.79083   -1139.6893    4.4052316    4.4052316    4.4052316   -1139.6893   -14952.428    50640.598   -39107.238    8593.5301    30900.127    9800.6952    85.488212 
   11300    1180.9014   -116.83057    1.0685044   -115.76206   -35315.152    4.4074675    4.4074675    4.4074675   -35315.152   -42733.774   -17752.577   -45459.107    29902.463   -17913.817    11060.948    85.618451 
   11400    1802.0831   -117.37407    1.6305627   -115.74351    5288.2406    4.3607571    4.3607571    4.3607571    5288.2406    16608.754    2504.1144   -3248.1464    5095.7264   -5523.7047   -15394.353    82.925038 
   11500    1188.5336    -116.8669    1.0754101   -115.79149    22752.782    4.3803011    4.3803011    4.3803011    22752.782    26675.108    34369.074    7214.1625    5581.4974    10528.129    4660.8906    84.045005 
   11600    1420.0972   -117.04977    1.2849338   -115.76484   -32919.475    4.4161433    4.4161433    4.4161433   -32919.475   -23336.487   -35807.507   -39614.432    8944.6902   -6509.6393    2424.1332    86.125045 
   11700    1613.4137   -117.21456    1.4598506    -115.7547   -8043.2214    4.3803158    4.3803158    4.3803158   -8043.2214   -22059.401   -15528.988    13458.725     6803.788   -10086.234    4337.3913    84.045847 
   11800    1604.8066   -117.22099    1.4520627   -115.76893    18156.226    4.3621893    4.3621893    4.3621893    18156.226    39137.796    13018.531    2312.3511   -7566.8228    31856.136    9426.1741    83.006774 
   11900    1246.1525   -116.92876    1.1275449   -115.80121   -10918.061    4.3941066    4.3941066    4.3941066   -10918.061    -23565.28    29998.625   -39187.529    -106.4424   -23087.345   -7553.0846     84.84217 
   12000    1355.8679   -117.00975    1.2268177   -115.78293   -17563.267    4.3917571    4.3917571    4.3917571   -17563.267   -31979.012   -19434.739   -1276.0515    9233.2035   -44461.918   -11794.021    84.706146 
   12100    1721.6854   -117.32033    1.5578171   -115.76251      3138.53    4.3798212    4.3798212    4.3798212      3138.53     2165.395    28661.129   -21410.934    291.73328    28721.069   -829.68335     84.01738 
   12200    1034.4448   -116.70985    0.9359874   -115.77386    -18046.02    4.3997161    4.3997161    4.3997161    -18046.02   -21120.417    23711.208   -56728.851    2769.1684   -27126.904   -5358.8169     85.16751 
   12300    920.62138   -116.59861   0.83299757   -115.76562   -14140.403    4.3920426    4.3920426    4.3920426   -14140.403   -18903.883    1930.4852   -25447.812     3495.879    -49306.24    93.478787    84.722672 
   12400    1922.0245   -117.49697    1.7390882   -115.75788    -6951.311    4.3767304    4.3767304    4.3767304    -6951.311    7535.5226   -37270.318    8880.8625    5220.1079    21243.672   -2549.9044    83.839635 
   12500    1093.7982   -116.77254   0.98969164   -115.78284   -11500.772    4.3902848    4.3902848    4.3902848   -11500.772   -17690.307    -3344.051   -13467.957   -2224.8707   -28992.677   -17507.569    84.620983 
   12600    1052.6895   -116.73438   0.95249561   -115.78189   -14621.076    4.3846239    4.3846239    4.3846239   -14621.076   -71178.415    56882.665   -29567.477   -1500.0078   -30687.683   -2571.1895    84.294071 
   12700    1297.6939   -116.95892    1.1741808   -115.78474    14739.044    4.3847499    4.3847499    4.3847499    14739.044    9991.4328   -20897.275    55122.973    -1608.468    16988.994   -1914.6141    84.301341 
   12800    1877.6697   -117.48277     1.698955   -115.78381   -24181.453    4.3935301    4.3935301    4.3935301   -24181.453   -30953.161   -30258.861   -11332.337    12027.483   -783.86401    1363.7513     84.80878 
   12900    1041.3378   -116.73113   0.94222435    -115.7889     16001.09    4.3849658    4.3849658    4.3849658     16001.09   -6628.3849   -192.53154    54824.187   -3873.6517   -32435.255    9525.4753    84.313794 
   13000    1207.5037   -116.87885    1.0925747   -115.78628    15245.554    4.3815744    4.3815744    4.3815744    15245.554    11620.067    49112.064   -14995.469    -15563.27    6005.2996     5077.552    84.118314 
   13100    1542.5907   -117.18414    1.3957685   -115.78837    6427.4559    4.3877038    4.3877038    4.3877038    6427.4559    -24566.01   -7440.6798    51289.058    10881.714    6972.1534   -6910.8046    84.471828 
   13200    1513.4562   -117.15374    1.3694069   -115.78434   -4841.8218    4.3925181    4.3925181    4.3925181   -4841.8218   -5960.8477   -13490.767    4926.1491    6381.4838   -24990.866    4278.2759    84.750187 
   13300    1335.3858   -116.98886    1.2082851   -115.78057   -6755.7825    4.3872474    4.3872474    4.3872474   -6755.7825   -43584.237     19122.44    4194.4496     55.43386     18789.15   -6996.3149    84.445474 
   13400     1330.571   -116.98826    1.2039286   -115.78433    23037.462    4.3853841    4.3853841    4.3853841    23037.462   -11840.969    44833.829    36119.525    7058.3707    28050.797   -1318.2952    84.337927 
   13500    1810.1106    -117.4197    1.6378261   -115.78187   -9761.1443    4.4016539    4.4016539    4.4016539   -9761.1443   -18401.741   -33910.387    23028.695   -2165.8924   -13215.897     10012.25    85.280096 
   13600    1245.7659   -116.90685    1.1271952   -115.77965    19230.033    4.3859654    4.3859654    4.3859654    19230.033   -44593.319    1945.3468    100338.07   -11070.553    1526.1301   -5046.3118    84.371467 
   13700    957.34073   -116.66304   0.86622201   -115.79682    13579.455    4.3686182    4.3686182    4.3686182    13579.455   -58076.219    64817.335    33997.248    5084.3915      45525.2    3038.9212    83.374313 
   13800    1554.3145   -117.22037    1.4063764   -115.81399    410.04115    4.3816728    4.3816728    4.3816728    410.04115   -28793.616   -22998.341    53022.081    7159.3636   -1187.7254   -15136.951    84.123986 
   13900    1343.9581   -117.02907    1.2160415   -115.81303   -13701.037    4.4058111    4.4058111    4.4058111   -13701.037   -58221.709   -35452.534    52571.134    -6345.836   -8664.5533    1675.0096    85.521955 
   14000    801.40555   -116.52336   0.72512858   -115.79823    -3370.906     4.398517     4.398517     4.398517    -3370.906   -76446.939    52610.751    13723.469   -8919.9904    31310.646   -11232.308    85.097896 
   14100    1649.3741   -117.26853    1.4923883   -115.77615    28575.483    4.3770433    4.3770433    4.3770433    28575.483   -43051.067    38554.979    90222.536    4522.0561   -11221.264    575.26726    83.857621 
   14200    1791.6882   -117.41018    1.6211571   -115.78902    272.12829    4.3835817    4.3835817    4.3835817    272.12829   -39709.668    3652.0972    36873.955    9429.3409    5630.8574   -1061.1612    84.233977 
   14300    1523.3514   -117.17943    1.3783603   -115.80106   -2612.5418    4.3838181    4.3838181    4.3838181   -2612.5418   -49989.162    40099.622    2051.9139   -3988.6081    34124.695    9698.9122    84.247605 
   14400     1574.716   -117.22458    1.4248361   -115.79974    -21118.25    4.3967275    4.3967275    4.3967275    -21118.25    -35470.78   -9537.5483    -18346.42    3143.1155   -15971.485   -7903.6341    84.994077 
   14500    1453.4227   -117.10077    1.3150874   -115.78569    -12415.06    4.3891797    4.3891797    4.3891797    -12415.06   -22424.954   -5276.9496   -9543.2769    262.22133   -2019.0952   -3142.9325    84.557102 
   14600    1603.7155   -117.22758    1.4510755    -115.7765    10238.357    4.3713713    4.3713713    4.3713713    10238.357   -16997.239     38896.55    8815.7601    17847.707     48302.03    9908.6983    83.532043 
   14700    1384.4964   -117.04363    1.2527214    -115.7909    9702.7993    4.3911847    4.3911847    4.3911847    9702.7993    -37572.27   -6840.8982    73521.566   -4844.0505   -6635.4495   -10840.808    84.673032 
   14800     1129.435   -116.81001    1.0219365   -115.78807   -20855.679    4.4104602    4.4104602    4.4104602   -20855.679   -59174.968     17880.52    -21272.59   -207.51565   -577.94739    -6625.508    85.792974 
   14900    1205.7191    -116.8807    1.0909599   -115.78974   -468.43804     4.374753     4.374753     4.374753   -468.43804   -23761.144    22257.864    97.966762   -10905.482    38702.582    7940.6911    83.726051 
   15000    1633.9406   -117.25669    1.4784238   -115.77827    34743.506     4.352213     4.352213     4.352213    34743.506    13929.209    59004.577    31296.733    11614.248   -1315.5185   -4422.6299    82.438566 
   15100    1363.0302    -117.0434    1.2332984    -115.8101   -29158.615    4.4017407    4.4017407    4.4017407   -29158.615   -58972.822   -11236.011   -17267.013    2168.8934   -6753.9285    2479.2702    85.285137 
   15200    1224.8444   -116.87685    1.1082649   -115.76858   -31719.063    4.4073435    4.4073435    4.4073435   -31719.063   -58018.192    4018.6049   -41157.601   -2139.5506    20049.462   -3581.4167    85.611223 
   15300     1325.839    -116.9329     1.199647   -115.73325    33674.869    4.3770573    4.3770573    4.3770573    33674.869    31170.942    47262.948    22590.718    7704.4853   -4230.3536   -3932.7044    83.858423 
   15400    1572.9901   -117.18169    1.4232745   -115.75842   -9173.4199    4.3903693    4.3903693    4.3903693   -9173.4199   -14361.128   -9783.7168   -3375.4148    9355.6746   -6948.5905    8467.3014    84.625871 
   15500    1239.2604   -116.90057    1.1213089   -115.77926   -13721.521    4.4011795    4.4011795    4.4011795   -13721.521   -39410.527    397.78797   -2151.8256   -5147.8332     22959.44    2243.6107    85.252523 
   15600    1380.6464    -117.0295    1.2492379   -115.78027   -21181.228    4.3967594    4.3967594    4.3967594   -21181.228   -22954.704   -14847.648   -25741.332   -7329.2509   -294.10932     11001.41    84.995926 
   15700    1323.0395    -116.9611    1.1971139   -115.76399    25565.003    4.3763027    4.3763027    4.3763027    25565.003    14503.821   -1258.4373    63449.626   -300.58866    -21038.15   -5104.6516    83.815063 
   15800    1331.8578   -116.97368    1.2050929   -115.76859    25234.735    4.3756049    4.3756049    4.3756049    25234.735    22456.277    20613.545    32634.384   -6577.8413    19964.636    9419.6427    83.774972 
   15900    1424.5345   -117.07269    1.2889487   -115.78374   -8209.7921    4.4108164    4.4108164    4.4108164   -8209.7921   -38221.258    18382.987   -4791.1052   -789.04508   -8695.3106    9353.6981    85.813761 
   16000    1395.8719   -117.00955    1.2630142   -115.74654   -21894.113    4.4176598    4.4176598    4.4176598   -21894.113   -65512.417    6107.2352   -6277.1563    471.69469   -11223.842    8686.9374    86.213801 
   16100    1261.0702   -116.87096    1.1410428   -115.72992    29414.422    4.3766311    4.3766311    4.3766311    29414.422   -3066.8392    70921.106        20389   -13046.998    21533.286     9836.408    83.833929 
   16200    1007.9923   -116.66686   0.91205259    -115.7548    44949.939    4.3690611    4.3690611    4.3690611    44949.939    35745.674    59387.427    39716.716    9027.6685   -1413.5651   -2063.0917    83.399673 
   16300    1558.0111   -117.18141    1.4097212   -115.77169   -24813.105    4.3918957    4.3918957    4.3918957   -24813.105   -26211.818   -2289.6316   -45937.867    1017.6621   -1183.1203    13727.818    84.714169 
   16400    1125.5166   -116.79768    1.0183911   -115.77929   -1320.0034    4.3850421    4.3850421    4.3850421   -1320.0034   -38634.129    32652.357    2021.7617   -12095.963    18558.734    8506.8103    84.318193 
   16500    1379.1505     -117.025    1.2478843   -115.77712   -4527.7562     4.377756     4.377756     4.377756   -4527.7562    3237.1735   -15225.338    -1595.104   -6437.8989    6590.9445   -2045.1685     83.89859 
   16600    994.69843   -116.68332   0.90002404    -115.7833    16327.001    4.3791271    4.3791271    4.3791271    16327.001    21841.386   -13605.627    40745.245    11609.533   -19183.441    6388.9259    83.977442 
   16700    1595.1969   -117.22925    1.4433676   -115.78588    -7941.804    4.3740857    4.3740857    4.3740857    -7941.804   -2662.2286   -5850.8237    -15312.36   -3984.7672     14385.25   -17090.458    83.687742 
   16800    1351.9358    -117.0196      1.22326   -115.79634    9115.1064    4.3931337    4.3931337    4.3931337    9115.1064   -13197.466    6351.3301    34191.455   -13201.632    16070.333    9939.8905     84.78583 
   16900    1903.5265    -117.4949    1.7223508   -115.77255    -25479.19    4.3978439    4.3978439    4.3978439    -25479.19    -10736.35   -28541.218   -37160.003    9666.3035   -16250.201    -4179.613    85.058832 
   17000     1218.973   -116.86467    1.1029524   -115.76172     24324.53    4.3642904    4.3642904    4.3642904     24324.53    25453.378    46115.034    1405.1783   -4323.3946    30480.279   -6525.5123    83.126776 
   17100    1489.4933   -117.13098    1.3477248   -115.78325    8252.9317    4.3728634    4.3728634    4.3728634    8252.9317    3650.3234    33601.897   -12493.425   -10571.486    20027.909    10223.667    83.617604 
   17200     1946.254    -117.5347    1.7610115   -115.77369   -9849.3252    4.3936181    4.3936181    4.3936181   -9849.3252   -18103.996   -13799.523    2355.5431    2665.4574    -17544.72   -10406.654    84.813876 
   17300    1232.3267   -116.88932    1.1150351   -115.77429    5137.9043    4.3858289    4.3858289    4.3858289    5137.9043   -1759.2125    45660.634   -28487.708   -373.55356    31334.562    -7651.123    84.363589 
   17400    1135.7784   -116.81468    1.0276762     -115.787   -30857.941    4.3871758    4.3871758    4.3871758   -30857.941   -30568.722   -14703.669   -47301.433     9255.776    13385.568    5122.5768    84.441339 
   17500    1444.0752   -117.08671    1.3066296   -115.78008    8310.2334    4.3783861    4.3783861    4.3783861    8310.2334   -3488.0848    10720.151    17698.634   -1995.3574   -22575.087     23436.12    83.934821 
   17600    1554.6216   -117.19481    1.4066543   -115.78815     8051.155    4.3818746    4.3818746    4.3818746     8051.155   -11338.978     68804.05   -33311.607     15445.41    20909.175    209.90589    84.135608 
   17700    911.00769   -116.61657    0.8242989   -115.79227    4944.7567    4.3951626    4.3951626    4.3951626    4944.7567   -28778.635    51699.856   -8086.9509    18583.217    13075.603    11602.404    84.903351 
   17800    1594.7362   -117.20953    1.4429508   -115.76658   -10628.968    4.3892666    4.3892666    4.3892666   -10628.968   -47122.511    46478.013   -31242.405    4099.4716   -21240.559    2312.9909    84.562124 
   17900    1343.2651    -116.9832    1.2154145   -115.76778    15275.888    4.3818263    4.3818263    4.3818263    15275.888   -23657.969     49457.84    20027.793   -2913.6919    19518.394    3858.4013    84.132826 
   18000    1592.6474   -117.21056    1.4410608    -115.7695   -4638.7051    4.3812949    4.3812949    4.3812949   -4638.7051   -22464.538    -492.2164    9040.6388    9574.3018    5487.5198    -8681.081     84.10222 
   18100     1330.258   -116.98161    1.2036454   -115.77796    3574.1583     4.377091     4.377091     4.377091    3574.1583    -29981.01    11943.885      28759.6    3517.1617   -13766.264   -16396.063    83.860359 
   18200    1795.4039   -117.41294    1.6245192   -115.78843   -2720.5238    4.3776203    4.3776203    4.3776203   -2720.5238   -28750.077     6847.489    13741.017   -8711.1778    -6614.301    11989.897    83.890787 
   18300    1286.5497   -116.96448    1.1640972   -115.80038    12124.284     4.396694     4.396694     4.396694    12124.284   -13330.494    14628.701    35074.643    20703.172    18225.784    -1288.563    84.992132 
   18400     1375.651   -117.02223    1.2447179   -115.77751   -21993.377    4.4114427    4.4114427    4.4114427   -21993.377   -60621.143   -34968.967     29609.98   -5215.6139    -14090.98    -315.4788    85.850321 
   18500     1491.842   -117.10626      1.34985   -115.75641    1011.3432    4.3861444    4.3861444    4.3861444    1011.3432   -25595.908   -13673.439    42303.377   -13675.174   -218.14457    9413.9955    84.381799 
   18600     1523.388    -117.1315    1.3783935    -115.7531    14849.152    4.3626021    4.3626021    4.3626021    14849.152    9317.5209    32884.262    2345.6734    24432.271    19248.759    7449.3735    83.030339 
   18700      1271.17   -116.94163    1.1501814   -115.79145   -8486.4332    4.3931175    4.3931175    4.3931175   -8486.4332   -13222.566   -55087.375    42850.642   -10132.814   -7022.6316   -8303.1603    84.784891 
   18800    1716.0715   -117.31424    1.5527376   -115.76151   -20909.111    4.4171084    4.4171084    4.4171084   -20909.111   -59648.549    687.62946   -3766.4139   -10435.508    5683.0589    14636.927    86.181525 
   18900    1570.8722    -117.1697    1.4213582   -115.74834   -12919.781    4.3948524    4.3948524    4.3948524   -12919.781   -35537.964   -18617.261    15395.881    24338.679    1616.1176    5090.7028    84.885378 
   19000    1210.1256   -116.84551    1.0949471   -115.75056    30153.794    4.3744149    4.3744149    4.3744149    30153.794    47150.268   -24483.899    67795.014   -4056.6379    1932.0222   -17341.548    83.706639 
   19100    1710.0032   -117.32359    1.5472468   -115.77635    -8011.914    4.3982556    4.3982556    4.3982556    -8011.914   -27596.334    6627.3911   -3066.7988   -4236.0672   -7668.3598   -2894.9184    85.082727 
   19200    1418.8644   -117.06503    1.2838183   -115.78122   -29795.679     4.396645     4.396645     4.396645   -29795.679   -58764.716    -24009.43    -6612.891    43211.396    5303.2621    -4229.267    84.989292 
   19300     1428.329   -117.05685    1.2923821   -115.76447    18236.071     4.363984     4.363984     4.363984    18236.071    26171.302    33122.339   -4585.4288    24156.494    2685.7054    485.83839    83.109265 
   19400    1808.6558   -117.40849    1.6365098   -115.77198    10174.302    4.3762861    4.3762861    4.3762861    10174.302    14409.054    23197.791   -7083.9387   -6203.0845    5433.5663   -24012.182    83.814107 
   19500    1236.7454   -116.90016    1.1190332   -115.78112   -8234.9113    4.3966168    4.3966168    4.3966168   -8234.9113   -33908.725    34305.853   -25101.861    22522.004    6521.7158    1105.6197    84.987653 
   19600    971.57376   -116.65379   0.87910035   -115.77469    11175.381      4.39323      4.39323      4.39323    11175.381    24087.591    7823.7404    1614.8118     21474.26    12473.644   -5665.2667    84.791405 
   19700    1872.7897   -117.45043    1.6945395   -115.75589    6473.7848    4.3808061    4.3808061    4.3808061    6473.7848    3608.7773    30234.462   -14421.885   -19796.162    3451.7285   -16616.286    84.074076 
   19800    1431.9362   -117.06051     1.295646   -115.76486    17624.658    4.3665646    4.3665646    4.3665646    17624.658   -5029.8105    37445.864    20457.922    29634.313    3616.1024    13372.442    83.256791 
   19900    1092.6036   -116.77405   0.98861069   -115.78544    12924.989    4.3796727    4.3796727    4.3796727    12924.989    11640.186    42547.336   -15412.556    22171.899    9846.8247   -12376.772    84.008839 
   20000     1610.049   -117.23154    1.4568061   -115.77474   -26879.601    4.4121375    4.4121375    4.4121375   -26879.601   -51671.795   -9445.3473   -19521.661   -16904.937   -9779.3671   -9702.0167    85.890893 
   20100    1267.7015   -116.90908    1.1470429   -115.76204    -28112.47    4.4019034    4.4019034    4.4019034    -28112.47   -43096.079   -54020.527    12779.196    40209.969    23251.808    10594.236    85.294598 
   20200     1279.331    -116.9083    1.1575656   -115.75073    37141.854    4.3470741    4.3470741    4.3470741    37141.854    52982.415    33692.687     24750.46    29523.855    11903.983   -7949.6229    82.146889 
   20300    1748.6496   -117.35656    1.5822149   -115.77435    42602.875    4.3504661    4.3504661    4.3504661    42602.875    57185.083    21048.971    49574.571   -17991.562   -9176.0972   -10791.521    82.339335 
   20400    1380.0058   -117.04783    1.2486583   -115.79917     -29167.4    4.4057444    4.4057444    4.4057444     -29167.4   -29819.393   -44860.159   -12822.648    23028.236   -2133.2243    1423.8767    85.518072 
   20500    1319.4828   -116.97487    1.1938958   -115.78098   -25709.117    4.3962744    4.3962744    4.3962744   -25709.117   -20145.206   -43057.939   -13924.205    29890.588   -6270.2267   -1278.8808    84.967799 
   20600    1760.7785   -117.33971    1.5931894   -115.74652    50775.861    4.3509449    4.3509449    4.3509449    50775.861    76857.641    39612.576    35857.364   -4972.0014    493.79437   -7813.0911    82.366528 
   20700    1227.7514   -116.90524    1.1108953   -115.79434    15383.414    4.3688409    4.3688409    4.3688409    15383.414    21394.255   -26058.152    50814.139      14213.5    3281.1482   -1214.2106    83.387065 
   20800    882.00848   -116.59379   0.79805981   -115.79573   -20013.452    4.3989518    4.3989518    4.3989518   -20013.452   -38011.334   -30581.512    8552.4902    25299.687    16776.254    12567.679    85.123135 
   20900    1724.5037   -117.32097    1.5603671    -115.7606   -6730.8337    4.3945857    4.3945857    4.3945857   -6730.8337    25860.476    -23390.33   -22662.647   -19872.569    4376.4662    2022.5218    84.869924 
   21000    1094.2086   -116.75576   0.99006298    -115.7657    2651.6943    4.3783067    4.3783067    4.3783067    2651.6943    6087.8177   -34726.399    36593.665    49118.861   -2821.6056    893.01627    83.930253 
   21100    1116.6975   -116.78001    1.0104114    -115.7696    13546.647    4.3618751    4.3618751    4.3618751    13546.647   -12138.292   -36411.959    89190.193    21805.099   -6735.8319    4895.7839    82.988836 
   21200    1307.8212   -116.97619    1.1833441   -115.79284    516.02801    4.3886566    4.3886566    4.3886566    516.02801    11280.523   -10607.655    875.21614     -19880.8    6632.8902    4435.0479    84.526873 
   21300     1370.112   -117.01902    1.2397061   -115.77932    -47899.99    4.4047945    4.4047945    4.4047945    -47899.99   -45608.657   -71771.832    -26319.48    40424.135    -8590.081   -3517.8055    85.462771 
   21400    1116.6021   -116.78006     1.010325   -115.76974    9341.0803    4.3684647    4.3684647    4.3684647    9341.0803    17813.202   -16251.474    26461.513    25384.654   -2004.4077   -9453.6771    83.365527 
   21500    1309.4398   -116.94736    1.1848087   -115.76255    29079.451    4.3633438    4.3633438    4.3633438    29079.451    25815.586    30694.989    30727.779   -28150.542   -12766.147    16951.919    83.072694 
   21600    1484.2124   -117.12161    1.3429466   -115.77867   -13633.473     4.392963     4.392963     4.392963   -13633.473    2891.6348   -18764.316   -25027.738     16768.61   -7129.0961   -5548.3968    84.775947 
   21700    1546.7287   -117.17167    1.3995126   -115.77216   -11040.612    4.3963118    4.3963118    4.3963118   -11040.612    9551.6773   -10311.719   -32361.795    39459.778     8830.746   -1736.9839    84.969971 
   21800    1115.0902   -116.77547    1.0089571   -115.76651     15633.87    4.3790685    4.3790685    4.3790685     15633.87    43985.265    11557.401   -8641.0554   -23433.884   -3526.1326   -4727.3094    83.974072 
   21900    1552.9682   -117.17462    1.4051583   -115.76947   -1844.0502    4.3781037    4.3781037    4.3781037   -1844.0502    9678.9904   -28159.765    12948.624   -20392.994    1022.4513   -4148.0258    83.918582 
   22000    1727.5036   -117.33799    1.5630816    -115.7749   -3957.6464     4.392208     4.392208     4.392208   -3957.6464   -14161.276    1252.9708    1035.3664     17858.31    183.95876    1901.4387    84.732243 
   22100    1143.4689   -116.80982    1.0346347   -115.77519   -13966.057     4.403913     4.403913     4.403913   -13966.057   -9992.4109   -35512.019      3606.26   -27162.738    11735.987   -5409.5133     85.41147 
   22200    1580.3285   -117.17926    1.4299144   -115.74934   -16220.249    4.3940134    4.3940134    4.3940134   -16220.249   -33908.455    -15749.19    996.89847   -34759.596    773.08494   -5556.7228    84.836773 
   22300    1610.8081   -117.19328     1.457493   -115.73579     20246.34     4.382486     4.382486     4.382486     20246.34   -13073.079    33754.203    40057.896    13444.411    3722.0161   -10320.976    84.170829 
   22400    1237.7325   -116.88432    1.1199263   -115.76439   -21333.666    4.3885272    4.3885272    4.3885272   -21333.666   -55380.044   -37044.218    28423.264   -20580.501    10404.385   -6795.2941    84.519393 
   22500    1088.6711    -116.7553   0.98505247   -115.77025    -6773.543     4.387396     4.387396     4.387396    -6773.543   -22692.371   -24420.504    26792.246   -35319.667    6750.6292     10879.07    84.454058 
   22600    1976.7943   -117.55044     1.788645   -115.76179    19670.806     4.378839     4.378839     4.378839    19670.806     3830.414    1009.3227    54172.681   -178.31877    -3025.439    4282.8475    83.960869 
   22700     1433.852   -117.08233    1.2973794   -115.78495   -5545.2112    4.3802044    4.3802044    4.3802044   -5545.2112   -8233.4261   -7750.2715     -651.936   -19149.862    7748.1199    -4938.053    84.039436 
   22800    1214.6551   -116.88846    1.0990455   -115.78941   -7736.6914    4.3738436    4.3738436    4.3738436   -7736.6914   -7315.6996   -4632.5048    -11261.87   -22383.598   -2038.9788    8484.9408    83.673849 
   22900    1604.1021   -117.23797    1.4514253   -115.78655    21875.745     4.386948     4.386948     4.386948    21875.745    54589.887   -1058.9172    12096.265    3081.5806   -240.43351    3282.8807    84.428187 
   23000    1361.3898   -117.00122    1.2318141   -115.76941   -22298.359    4.4056727    4.4056727    4.4056727   -22298.359   -39125.231    -40984.34    13214.493   -29705.229    4768.7504     474.0542    85.513895 
   23100    1279.1091    -116.9083    1.1573648   -115.75094   -19732.107    4.3785928    4.3785928    4.3785928   -19732.107   -19015.986   -26354.661   -13825.674   -40123.307    666.22451     14562.03    83.946709 
   23200    1667.2801   -117.25842    1.5085901   -115.74983    24325.706    4.3570285    4.3570285    4.3570285    24325.706    68739.582    4592.9598   -355.42321    15175.738   -7106.0178    8638.1197    82.712508 
   23300    1336.7158   -117.00366    1.2094885   -115.79417    6115.9038    4.3813085    4.3813085    4.3813085    6115.9038   -32153.703    28926.552    21574.863     2989.417    15023.489   -396.08706    84.103003 
   23400    1143.8329   -116.82922     1.034964   -115.79426   -27323.257    4.4005568    4.4005568    4.4005568   -27323.257   -16019.286   -47683.118   -18267.368   -12462.414    10714.692    6494.7618     85.21634 
   23500    1170.4048    -116.8436    1.0590068    -115.7846    -4558.657    4.3835373    4.3835373    4.3835373    -4558.657    -3889.139    33153.065   -42939.897   -3271.8438   -16459.034    18670.318     84.23142 
   23600     1733.794    -117.3366    1.5687733   -115.76783    22621.851    4.3556078    4.3556078    4.3556078    22621.851   -14851.313    67703.421    15013.445    985.49114   -8958.1327     15009.86    82.631626 
   23700    1353.6133   -117.03794    1.2247778   -115.81316   -17775.504    4.3822528    4.3822528    4.3822528   -17775.504   -40980.466   -8975.5412   -3370.5053   -12074.537    9284.2995   -12683.939    84.157393 
   23800    1039.4245   -116.72904   0.94049311   -115.78855   -55173.815    4.4131067    4.4131067    4.4131067   -55173.815   -34152.593   -58163.054   -73205.797   -16857.946   -10707.028    12598.653    85.947507 
   23900    1810.1729   -117.39825    1.6378825   -115.76036   -15403.876    4.3783858    4.3783858    4.3783858   -15403.876   -24308.985    23374.398   -45277.039    5650.5708   -26015.305    14601.457    83.934803 
   24000    1832.3359   -117.40047     1.657936   -115.74253    18148.571    4.3512209    4.3512209    4.3512209    18148.571    2079.9185    15544.506    36821.289   -24718.789   -5896.8643    -5622.092    82.382204 
   24100    1138.7995   -116.82875    1.0304097   -115.79834    2652.7451    4.3876056    4.3876056    4.3876056    2652.7451    11779.709    8253.5097   -12074.984   -19831.023   -2549.1874    20202.828    84.466161 
   24200    1593.5657   -117.20297    1.4418917   -115.76108   -30157.502    4.4080464    4.4080464    4.4080464   -30157.502   -50192.377    10610.828   -50890.957     6409.838   -15379.274    3994.8035     85.65219 
   24300    1311.2712   -116.93781    1.1864658   -115.75135    17175.278    4.3628628    4.3628628    4.3628628    17175.278   -45373.921     42087.57    54812.186   -47671.727    1657.2253   -936.73869    83.045224 
   24400    1501.0284   -117.11318    1.3581621   -115.75502    37511.874    4.3586523    4.3586523    4.3586523    37511.874    35351.243    48084.601    29099.777   -15044.829   -694.41663   -285.39144    82.805023 
   24500    1934.0837    -117.5185    1.7499995    -115.7685   -12034.397    4.3822733    4.3822733    4.3822733   -12034.397   -28790.299   -7170.8741   -142.01878    17411.799   -9793.3546    6449.9725    84.158576 
   24600    873.11439   -116.57763   0.79001225   -115.78762    4160.3183    4.3791967    4.3791967    4.3791967    4160.3183   -32210.155   -21791.645    66482.755    -50843.48    -9724.999    5684.8551    83.981446 
   24700    1711.6784   -117.32767    1.5487626   -115.77891   -6983.4735     4.377451     4.377451     4.377451   -6983.4735    5679.5974   -30829.342    4199.3238    -12654.51    4259.1943   -24833.413    83.881057 
   24800    1765.7783   -117.36933    1.5977133   -115.77161    6353.3684    4.3747058    4.3747058    4.3747058    6353.3684   -42274.396    30236.469    31098.032    5591.5346    11986.107   -3476.6153     83.72334 
   24900    1053.8679   -116.73434   0.95356184   -115.78078    4451.4617    4.3732385    4.3732385    4.3732385    4451.4617   -33884.806    5412.9516    41826.239   -43890.964    114.17328    6270.3112    83.639125 
   25000    1438.6065    -117.0769    1.3016814   -115.77522    133.88967    4.3869606    4.3869606    4.3869606    133.88967    8729.7754    3429.3639    -11757.47    5721.1911    3891.4345   -1255.7737    84.428912 
   25100    1415.8575   -117.04644    1.2810976   -115.76534   -11440.413    4.3870222    4.3870222    4.3870222   -11440.413   -22145.503   -14269.837    2094.1022     8655.979   -4969.4837   -21161.805    84.432472 
   25200    1151.8079   -116.80566      1.04218   -115.76348    5709.4789    4.3775971    4.3775971    4.3775971    5709.4789   -2638.9323   -20757.512    40524.881   -34055.684    -12868.42    8016.1889    83.889451 
   25300    1936.8884   -117.51239    1.7525373   -115.75985    2707.3715    4.3785016    4.3785016    4.3785016    2707.3715    29823.785    3163.5285   -24865.199    10792.763    2086.9335    18923.217    83.941465 
   25400    1306.7148   -116.95702     1.182343   -115.77468    12983.095    4.3743045    4.3743045    4.3743045    12983.095    29431.013    -9752.311    19270.583   -9477.2523    14044.633   -8972.1122    83.700306 
   25500    1144.8091   -116.82195    1.0358474    -115.7861    8584.6468    4.3779621    4.3779621    4.3779621    8584.6468    20035.152   -33757.274    39476.062   -46203.236   -10824.562    164.44048    83.910437 
   25600    1847.0521   -117.44962    1.6712516   -115.77837    3218.5312    4.3931113    4.3931113    4.3931113    3218.5312   -6419.0399    53561.275   -37486.641    9633.7444    8632.1691    4044.8681    84.784528 
   25700    1546.6134     -117.183    1.3994083   -115.78359    11517.778     4.373465     4.373465     4.373465    11517.778   -4463.2149    14290.441    24726.107   -7207.1415    12240.825    4165.1063    83.652123 
   25800     929.7847   -116.62257   0.84128874   -115.78128    36314.753     4.354636     4.354636     4.354636    36314.753   -19154.562    51305.897    76792.925    -52768.97   -1601.9786   -6462.5594    82.576331 
   25900    1619.4562   -117.26412     1.465318    -115.7988   -17168.746    4.3879806    4.3879806    4.3879806   -17168.746   -3707.5198   -22037.741   -25760.977    3784.2677   -1164.2226   -10760.507    84.487817 
   26000    1547.3863   -117.17237    1.4001076   -115.77226   -12143.754    4.4019642    4.4019642    4.4019642   -12143.754   -40156.124   -27050.933    30775.795   -12731.518    4200.9407   -107.34139    85.298133 
   26100    1251.9876   -116.89654    1.1328247   -115.76372   -9095.6169    4.3910898    4.3910898    4.3910898   -9095.6169    21587.353    -56778.66    7904.4567   -36034.964   -54.431302   -10974.129    84.667543 
   26200    1708.9246   -117.30308    1.5462709   -115.75681   -4140.1401    4.3739332    4.3739332    4.3739332   -4140.1401    49900.209   -32561.056   -29759.573    3022.4637    8319.9134   -16510.332    83.678994 
   26300    1476.4929   -117.10919    1.3359618   -115.77323    23541.418    4.3737099    4.3737099    4.3737099    23541.418    45856.141   -4112.0237    28880.136    9606.3554   -467.04587   -3060.5041    83.666178 
   26400    1254.7743   -116.92243    1.1353461   -115.78708    -13513.95    4.3962787    4.3962787    4.3962787    -13513.95   -30084.316   -25458.985     15001.45   -24168.318    6180.4252   -2735.7049    84.968052 
   26500     1520.974   -117.14594    1.3762093   -115.76973   -9306.5889    4.3945904    4.3945904    4.3945904   -9306.5889    14434.708    -1066.396   -41288.079    1575.5695    6721.1836   -4955.3082    84.870198 
   26600    1712.3325   -117.30683    1.5493544   -115.75747    9480.4108    4.3734731    4.3734731    4.3734731    9480.4108    9552.7127    26521.299   -7632.7789    10169.067    -9722.767   -1215.1012    83.652589 
   26700    756.83468   -116.46339   0.68479992   -115.77859    17628.199    4.3674231    4.3674231    4.3674231    17628.199   -31034.213   -4183.1964    88102.008   -40769.826   -3101.6356    14348.832    83.305909 
   26800     1605.286   -117.23685    1.4524965   -115.78435    1940.1898    4.3791597    4.3791597    4.3791597    1940.1898    15218.061   -85.800817   -9311.6903   -9941.5187   -14203.973   -11564.145     83.97932 
   26900    1509.2497   -117.14079    1.3656009   -115.77519     505.3914    4.3936604    4.3936604    4.3936604     505.3914   -11088.278   -7800.4246    20404.877    5552.7597    7211.8358   -2721.9716    84.816327 
   27000    842.48829   -116.54164   0.76230111   -115.77934   -24172.905    4.3822063    4.3822063    4.3822063   -24172.905   -58571.667   -40550.168    26603.119   -41652.221    4093.0016    5559.4208    84.154718 
   27100    1285.1829   -116.93152    1.1628605   -115.76866    34220.311    4.3590042    4.3590042    4.3590042    34220.311    55753.467   -9372.3051    56279.771    10048.017   -15761.145    -6886.243    82.825078 
   27200    1803.4708   -117.40609    1.6318183   -115.77428    24368.359    4.3730994    4.3730994    4.3730994    24368.359    34711.423    6065.4075    32328.246   -3367.6619    18210.323    2378.7649    83.631143 
   27300    1053.0595   -116.73708   0.95283034   -115.78425   -20179.465     4.391417     4.391417     4.391417   -20179.465   -10424.846   -64721.407    14607.856   -35101.109   -14000.791    8084.8276    84.686469 
   27400    1049.3977   -116.72549   0.94951713   -115.77598   -5545.8433    4.3791942    4.3791942    4.3791942   -5545.8433    9517.8191   -58621.308    32465.959    28521.159    14084.474    2426.5854    83.981306 
   27500    2052.0019   -117.61716    1.8566945   -115.76046    23441.469      4.36224      4.36224      4.36224    23441.469    36006.339    58.971492    34259.098   -2769.6379   -3794.4084   -4792.2693    83.009667 
   27600    1322.6168    -116.9745    1.1967315   -115.77777     4137.297    4.3771957    4.3771957    4.3771957     4137.297    20046.038   -14991.026    7356.8789    -24277.48    3169.0803    14072.261    83.866379 
   27700    1148.4025   -116.81533    1.0390988   -115.77623   -29226.944    4.3890106    4.3890106    4.3890106   -29226.944   -38466.063   -68286.462    19071.694    23039.975    8348.2744   -542.86384    84.547327 
   27800    1834.1035   -117.42147    1.6595354   -115.76193     9609.301    4.3750427    4.3750427    4.3750427     9609.301    23350.708    364.20222    5112.9931    15450.094   -8663.1194   -5885.2956    83.742687 
   27900    1626.2018   -117.24278    1.4714216   -115.77136    9623.1637    4.3662444    4.3662444    4.3662444    9623.1637    16130.122   -8667.6152    21406.984   -6725.0422    19823.371   -4486.0761    83.238475 
   28000    1141.9821   -116.81728    1.0332894   -115.78399   -3199.9571    4.3710835    4.3710835    4.3710835   -3199.9571     11296.85   -53880.728    32984.007    14233.383   -7756.9975    6231.0259    83.515541 
   28100    1534.6091   -117.17086    1.3885466   -115.78231    -1608.705    4.3832239    4.3832239    4.3832239    -1608.705     10209.28   -1669.5653    -13365.83    2014.9751    7417.1604   -17834.411    84.213354 
   28200    1602.9264   -117.21809    1.4503615   -115.76773   -18641.044    4.3880554    4.3880554    4.3880554   -18641.044   -9704.0996   -16873.005   -29346.027    3607.5923    13156.731   -18642.068    84.492138 
   28300    1174.6119   -116.82691    1.0628135    -115.7641    8040.9208    4.3669028    4.3669028    4.3669028    8040.9208   -21944.556   -35066.895    81134.213    22894.194   -18924.208    17252.834    83.276135 
   28400    1446.8813   -117.07724    1.3091686   -115.76807     8515.314    4.3618924    4.3618924    4.3618924     8515.314    10096.498   -1350.3257    16799.769   -4099.1806    13771.479   -16790.193    82.989825 
   28500    1408.4889    -117.0612    1.2744303   -115.78677   -24403.747    4.3849254    4.3849254    4.3849254   -24403.747   -1754.9787   -39658.024   -31798.238    6275.2658   -11851.745    -27680.13    84.311465 
   28600    1181.0209   -116.84868    1.0686125   -115.78007   -13566.459     4.379088     4.379088     4.379088   -13566.459   -51770.425    5079.8463    5991.2029    31347.964    1614.4908    8703.4446    83.975194 
   28700     1585.433   -117.20228    1.4345331   -115.76774    19410.931    4.3528845    4.3528845    4.3528845    19410.931    10459.315   -5148.7561    52922.234    11938.731    -2364.123    -7102.905    82.476731 
   28800    1172.6319   -116.85714     1.061022   -115.79612    211.63141    4.3683038    4.3683038    4.3683038    211.63141    28319.615   -11432.114   -16252.607   -7510.4726    -7601.627   -33723.175    83.356315 
   28900     1329.334   -116.99535    1.2028094   -115.79254   -34404.337    4.3857027    4.3857027    4.3857027   -34404.337   -55814.577   -32885.811   -14512.623    34542.325     12075.12   -9549.5702    84.356309 
   29000    1406.6402   -117.04665    1.2727576   -115.77389    7437.7031    4.3797047    4.3797047    4.3797047    7437.7031   -13071.654   -10901.261    46286.025   -1460.2946   -5387.3342    9963.2485    84.010676 
   29100     1703.011   -117.30189    1.5409201   -115.76097   -16825.839    4.3779284    4.3779284    4.3779284   -16825.839    1880.9635   -28746.031   -23612.448    -11670.16    8588.9995   -31247.152    83.908501 
   29200    1104.9177   -116.77422   0.99975275   -115.77446   -15773.907    4.3719084    4.3719084    4.3719084   -15773.907    -33656.29   -20767.362      7101.93    50441.228    2314.1789   -21940.145    83.562832 
   29300     1899.971   -117.50609    1.7191337   -115.78696   -4308.0328     4.368524     4.368524     4.368524   -4308.0328   -26332.212    12363.368    1044.7456    15914.463    10377.408    2931.8498    83.368919 
   29400    1650.8213   -117.28373    1.4936978   -115.79003    33552.409    4.3754564    4.3754564    4.3754564    33552.409   -12119.057    46067.879    66708.405   -11902.399   -6940.1808   -573.90468    83.766443 
   29500    948.90819   -116.65793   0.85859207   -115.79934   -26449.726    4.3855826    4.3855826    4.3855826   -26449.726   -56787.543   -7727.0516   -14834.585    52617.948    2785.7946   -17180.509    84.349377 
   29600    1334.1949   -116.99194    1.2072076   -115.78473     8494.685    4.3784712    4.3784712    4.3784712     8494.685   -8343.8279    19752.096    14075.787    15129.981     738.6852   -5803.1092    83.939713 
   29700    1809.3783   -117.40904    1.6371635   -115.77187    30619.662    4.3668758    4.3668758    4.3668758    30619.662   -8108.6652    33263.075    66704.575   -2509.6822   -3476.6822    9409.1045    83.274594 
   29800     942.6677   -116.65706   0.85294555   -115.80411   -22771.904    4.3807271    4.3807271    4.3807271   -22771.904   -31422.483   -42765.106    5871.8778    49017.382   -3044.7643   -18469.436    84.069526 
   29900    1416.1066   -117.06503     1.281323    -115.7837   -10077.741    4.3860607    4.3860607    4.3860607   -10077.741   -9933.3163   -35573.097     15273.19    5369.0683     7870.764   -10131.063    84.376968 
   30000    1674.8781   -117.27477    1.5154649   -115.75931    20014.026    4.3769592    4.3769592    4.3769592    20014.026   -3760.0262    4484.4186    59317.685   -17634.674     130.1089    535.88735    83.852787 
   30100    1161.6721   -116.82144    1.0511054   -115.77034   -17167.142    4.3735047    4.3735047    4.3735047   -17167.142    -24850.27   -47999.657    21348.502    41319.028   -10220.646   -15630.717    83.654401 
   30200    1343.0383   -116.99737    1.2152093   -115.78216    2933.8316    4.3776647    4.3776647    4.3776647    2933.8316    38858.131   -52496.076     22439.44    10291.122    3950.0528    -12376.66    83.893341 
   30300    1949.3849   -117.53171    1.7638444   -115.76786    -16431.54    4.3838644    4.3838644    4.3838644    -16431.54   -10168.926   -44726.848    5601.1552   -1598.9865    1732.7489    11918.582    84.250275 
   30400    1097.1998   -116.76696   0.99276941   -115.77419   -7540.0966    4.3710015    4.3710015    4.3710015   -7540.0966    47805.508   -72427.154    2001.3561    29703.972   -9278.1978   -12847.201    83.510844 
   30500    1410.9575   -117.04946     1.276664    -115.7728    24532.733     4.369712     4.369712     4.369712    24532.733    58946.336   -1985.8942    16637.758    3478.5992     12656.08   -16585.969    83.436956 
   30600    2033.0548   -117.60689    1.8395507   -115.76734    4491.4397    4.3789824    4.3789824    4.3789824    4491.4397    25460.497   -19433.146    7446.9683    1487.5071   -694.41775    14827.361    83.969122 
   30700    1179.3164   -116.83896    1.0670703   -115.77189    10603.045    4.3803393    4.3803393    4.3803393    10603.045    74175.065   -36195.742   -6170.1887    24079.608   -13453.623   -14544.674      84.0472 
   30800    1563.3551   -117.18361    1.4145566   -115.76905   -3417.9444    4.3798733    4.3798733    4.3798733   -3417.9444    13485.291    -18685.95   -5053.1734    7052.1635    397.53284   -22615.136    84.020378 
   30900    1629.9936   -117.24377    1.4748525   -115.76892    17757.543    4.3673859    4.3673859    4.3673859    17757.543    42684.523    -20365.66    30953.766   -9476.8832    2615.5317    28389.931    83.303781 
   31000    1234.6522   -116.90098    1.1171393   -115.78385    13344.537    4.3672408    4.3672408    4.3672408    13344.537    58061.024    -31304.59    13277.178    21751.525    6650.0556    19485.351    83.295478 
   31100    1643.4546   -117.27246    1.4870323   -115.78543   -16051.494    4.3870787    4.3870787    4.3870787   -16051.494   -39122.054   -52704.031    43671.603    10313.247    1240.0736   -16911.794     84.43573 
   31200    1303.1308   -116.95376    1.1791002   -115.77466    13722.151    4.3805512    4.3805512    4.3805512    13722.151    27278.351   -4896.6218    18784.725   -12230.097    4132.6627    24873.984    84.059398 
   31300    994.04092   -116.67519   0.89942912   -115.77576    17877.881    4.3616789    4.3616789    4.3616789    17877.881    74995.093   -33867.127    12505.677    18555.059    6380.1423    31335.404     82.97764 
   31400    1426.7218   -117.07802    1.2909278   -115.78709   -5463.3422    4.3777854    4.3777854    4.3777854   -5463.3422   -30206.944   -46965.733     60782.65    14871.304    5150.7675    -10806.39    83.900279 
   31500    1468.1915   -117.09918    1.3284505   -115.77073   -25439.602    4.3900431    4.3900431    4.3900431   -25439.602    2513.8884   -71132.935   -7699.7587   -21179.642   -4544.5487    30755.607    84.607008 
   31600    923.56061   -116.60665   0.83565705   -115.77099    12282.295    4.3662052    4.3662052    4.3662052    12282.295    45933.551   -9552.4796    465.81324    26916.344    10925.786    27521.001    83.236232 
   31700    1392.7433   -117.03754    1.2601834   -115.77735    11974.258    4.3706607    4.3706607    4.3706607    11974.258   -10713.994    9007.5821    37629.186    17703.996    8862.6426   -1396.3084     83.49131 
   31800    1482.1386   -117.11139    1.3410701   -115.77032    1532.5916    4.3875883    4.3875883    4.3875883    1532.5916   -2879.4383   -27899.559    35376.772   -24351.357    1333.2755    17396.191    84.465158 
   31900    1363.0359   -117.00106    1.2333035   -115.76776    3153.9882    4.3718601    4.3718601    4.3718601    3153.9882    7210.4885   -12367.646    14619.122    7009.9661    -2651.349     28014.91    83.560063 
   32000    1018.6596   -116.70297   0.92170464   -115.78126    4448.1884    4.3724862    4.3724862    4.3724862    4448.1884   -15542.019    522.62173    28363.962    17065.299    18137.247   -6686.2641    83.595968 
   32100    1634.5111   -117.25405      1.47894   -115.77511   -3125.9104     4.376883     4.376883     4.376883   -3125.9104   -10620.497   -4067.5242    5310.2899    -16004.71    32511.844   -1662.6614    83.848409 
   32200    1744.5259   -117.35113    1.5784837   -115.77265     10414.69    4.3706463    4.3706463    4.3706463     10414.69   -6489.4837    5822.9279    31910.625    23911.231    -11986.35    7257.3934    83.490484 
   32300    825.64001   -116.53565   0.74705643    -115.7886   -20545.479    4.3877421    4.3877421    4.3877421   -20545.479   -33446.178   -17891.373   -10298.885    33857.308    11559.367    -4407.467    84.474045 
   32400    1486.7244   -117.11753    1.3452195   -115.77231   -3225.6998    4.3712832    4.3712832    4.3712832   -3225.6998   -14378.957    32621.407   -27919.549   -24080.104    17492.415   -1236.1101    83.526991 
   32500    1858.3324   -117.44784    1.6814582   -115.76638    10731.709    4.3589887    4.3589887    4.3589887    10731.709    6256.6887    8924.3088     17014.13    15460.621   -8688.3048    2232.0846    82.824194 
   32600    893.40614   -116.59571   0.80837265   -115.78733   -31969.424    4.3915212    4.3915212    4.3915212   -31969.424    -60090.07   -25986.841   -9831.3605    34430.315   -1651.1319    2555.9801    84.692498 
   32700    1506.8306   -117.12321     1.363412    -115.7598   -24535.883    4.3862159    4.3862159    4.3862159   -24535.883    -36870.71    6364.4767   -43101.417    -14052.47   -4059.7411   -7316.1768    84.385924 
   32800    1498.5659   -117.10961    1.3559339   -115.75368    3659.5704    4.3680117    4.3680117    4.3680117    3659.5704   -21741.559    2847.4336    29872.837    23106.657    4651.7766   -12852.249    83.339595 
   32900    1259.5832   -116.91773    1.1396973   -115.77803   -10421.381    4.3703332    4.3703332    4.3703332   -10421.381   -57145.703   -26138.923    52020.482    35495.554   -19628.155    1140.7409    83.472543 
   33000    1496.0574   -117.13194    1.3536642   -115.77828    -1249.645    4.3786263    4.3786263    4.3786263    -1249.645   -14306.669   -10296.989    20854.722   -6856.5825   -8144.1448   -8716.9817    83.948634 
   33100    879.96755   -116.57616   0.79621313   -115.77995   -6841.1689    4.3964789    4.3964789    4.3964789   -6841.1689   -19928.927   -52971.324    52376.744    46422.157     19883.76   -6070.1769    84.979657 
   33200    1393.2084   -117.01741    1.2606043   -115.75681   -7315.4185    4.3866771    4.3866771    4.3866771   -7315.4185   -16680.046   -53725.773    48459.564    40521.543    7033.0363    8561.6712    84.412548 
   33300     1635.641   -117.21853    1.4799624   -115.73857    24081.654    4.3694964    4.3694964    4.3694964    24081.654     43408.17   -4506.2198    33343.012   -19315.475    1963.8435   -14716.519    83.424607 
   33400     813.5323   -116.51081   0.73610112   -115.77471    16005.817    4.3791527    4.3791527    4.3791527    16005.817    33686.516   -29919.147    44250.082    40758.493    13740.845    3039.1672    83.978914 
   33500    1567.4613   -117.17718    1.4182719   -115.75891   -4299.0851    4.3985171    4.3985171    4.3985171   -4299.0851    12172.239   -36109.663    11040.168    13308.222    16095.602    11752.254    85.097901 
   33600    1674.0575   -117.25323    1.5147224    -115.7385   -27515.774    4.3893988    4.3893988    4.3893988   -27515.774   -15797.779   -26381.769   -40367.772   -2303.2887    -7559.461   -7010.8204    84.569763 
[...]
   91300    1695.2833   -117.32054     1.533928   -115.78661   -1872.0052    4.3511938    4.3511938    4.3511938   -1872.0052     -28153.6    21132.801    1404.7838   -3669.6143      28891.5     5943.683    82.380664 
   91400    1882.1707     -117.475    1.7030276   -115.77197     19486.52    4.3410711    4.3410711    4.3410711     19486.52    8651.8402    29426.595    20381.124    6320.6828    1418.8376    802.41611    81.807044 
   91500     1018.523   -116.70649   0.92158103   -115.78491   -24836.464    4.3641702    4.3641702    4.3641702   -24836.464   -61995.368    7667.4953   -20181.519   -11229.686   -74001.344   -5326.0517    83.119905 
   91600    1267.7405   -116.92292    1.1470782   -115.77584   -12373.816    4.3576028    4.3576028    4.3576028   -12373.816   -41050.247    6182.8935    -2254.095   -17221.194    28760.942   -247.55072    82.745219 
   91700    1439.8233   -117.07447    1.3027824   -115.77169    18783.508    4.3375399    4.3375399    4.3375399    18783.508     18235.59    32684.886    5430.0472     6136.472    22488.753    2668.8759     81.60757 
   91800    1191.8661   -116.86644    1.0784255   -115.78801    -9688.221    4.3477216    4.3477216    4.3477216    -9688.221   -26322.132    18323.112   -21065.644   -2050.7865   -58453.316   -1324.1521    82.183603 
   91900    1134.0995   -116.81879     1.026157   -115.79263     -8287.02    4.3531957    4.3531957    4.3531957     -8287.02   -19303.035    -19882.46    14324.435   -36843.985   -960.82694   -10214.755    82.494419 
   92000    1342.5577   -117.00684    1.2147744   -115.79206   -6151.0963    4.3544453    4.3544453    4.3544453   -6151.0963   -2745.7395   -8143.3913   -7564.1581    1764.8574    28665.642     5087.148    82.565482 
   92100    1380.5292   -117.03751    1.2491319   -115.78838   -8516.1857    4.3524817    4.3524817    4.3524817   -8516.1857   -5243.7038    13674.231   -33979.085    13184.839    -18200.76    19280.754    82.453837 
   92200    1227.0339   -116.89749    1.1102461   -115.78724    8656.0962    4.3435103    4.3435103    4.3435103    8656.0962    5807.9606   -2690.5727    22850.901   -45068.892   -22659.724   -16762.274     81.94502 
   92300    1428.7917   -117.08092    1.2928007   -115.78812   -8351.9847    4.3552572    4.3552572    4.3552572   -8351.9847   -2165.7652   -13413.867   -9476.3222   -19924.138    13973.724   -12730.754    82.611675 
   92400    1663.4999   -117.28424    1.5051697   -115.77907   -13498.648    4.3613148    4.3613148    4.3613148   -13498.648    6636.7184   -6942.0086   -40190.655    15305.419    2628.4224     25518.77     82.95686 
   92500    1282.5166   -116.94653     1.160448   -115.78608   -440.12158    4.3442101    4.3442101    4.3442101   -440.12158   -15257.348   -9482.4846    23419.468   -44856.883   -17058.885    5066.5806    81.984632 
   92600    1461.1776   -117.11171    1.3221042    -115.7896    2677.3477    4.3447551    4.3447551    4.3447551    2677.3477    7376.1036   -19035.408    19691.348   -31742.366   -1850.6228   -20172.409    82.015495 
   92700    1954.7805   -117.55297    1.7687265   -115.78425   -5190.4955    4.3529896    4.3529896    4.3529896   -5190.4955    36036.101   -19476.544   -32131.043     15424.15    2667.7006    16096.802    82.482703 
   92800    1126.8494    -116.8167     1.019597   -115.79711   -2229.3163    4.3497419    4.3497419    4.3497419   -2229.3163    1509.5992   -27558.179    19360.631    -53609.94   -1683.3742    22127.193    82.298226 
   92900    1419.6953    -117.0756    1.2845701   -115.79103    756.30941    4.3559135    4.3559135    4.3559135    756.30941   -9982.8061   -22720.646     34972.38   -25557.777   -11565.673   -14279.632    82.649026 
   93000    1686.2661   -117.30559     1.525769   -115.77982   -9661.7026    4.3551221    4.3551221    4.3551221   -9661.7026    13598.159   -29649.978   -12933.289    27621.276   -12838.427    10822.314    82.603989 
   93100    1053.9629   -116.73958   0.95364775   -115.78593    6712.7878    4.3420557    4.3420557    4.3420557    6712.7878    24176.048   -46051.602    42013.917   -42833.352    11014.638    35488.192    81.862722 
   93200    1481.4185   -117.12501    1.3404186    -115.7846    2896.5674     4.349028     4.349028     4.349028    2896.5674   -4779.1646   -29890.105    43358.972   -17541.412   -3605.1004   -7800.5301    82.257711 
   93300    1207.6614   -116.88121    1.0927174    -115.7885   -13253.348    4.3549524    4.3549524    4.3549524   -13253.348   -11584.761   -36981.635    8806.3508     44135.38   -14182.463   -2675.8125     82.59433 
   93400    1188.1026    -116.8628    1.0750202   -115.78778    7205.2179    4.3492871    4.3492871    4.3492871    7205.2179    29707.883   -43059.231    34967.001   -7086.2676   -4992.2803    30975.527    82.272413 
   93500    1906.6578   -117.50067     1.725184   -115.77548    3254.2951     4.352717     4.352717     4.352717    3254.2951    23006.492   -26686.808    13443.201   -10695.732    5888.5695    4996.2326    82.467209 
   93600    805.30416   -116.52745   0.72865613    -115.7988   -5637.7948    4.3481144    4.3481144    4.3481144   -5637.7948    3245.9706   -28234.706    8075.3511    31793.965   -6467.1043   -8830.5963     82.20588 
   93700    766.14505   -116.50005   0.69322414   -115.80683    2768.4646      4.34428      4.34428      4.34428    2768.4646    26088.716   -27180.864    9397.5419    16916.406   -19851.351    25097.953    81.988593 
   93800    1951.2273    -117.5524    1.7655114   -115.78689    446.55604    4.3547231    4.3547231    4.3547231    446.55604    18226.787   -26331.049      9443.93   -28310.669    12268.215    2823.9944    82.581287 
   93900    1249.2497   -116.92071    1.1303474   -115.79036   -12225.038    4.3569977    4.3569977    4.3569977   -12225.038    -16721.59   -29320.682    9367.1577       6197.4   -1075.6988   -9415.0728    82.710757 
   94000    1206.0006   -116.87731    1.0912147    -115.7861   -8830.4264    4.3487133    4.3487133    4.3487133   -8830.4264    -15594.55   -15348.965    4452.2356    41745.541   -12577.777    11178.824    82.239856 
   94100     1394.993   -117.04364     1.262219   -115.78142   -2380.5255    4.3480687    4.3480687    4.3480687   -2380.5255   -23437.188    -30887.84    47183.452   -60581.701    5034.4931    14982.891     82.20329 
   94200    1521.9281   -117.15916    1.3770725   -115.78209   -13356.693    4.3538948    4.3538948    4.3538948   -13356.693   -27862.498   -40147.064    27939.482   -44593.652   -6198.2044   -2159.1225    82.534168 
   94300    1892.9816   -117.48975    1.7128095   -115.77694   -1683.6619    4.3489532    4.3489532    4.3489532   -1683.6619    7668.0138    -12241.44   -477.55971    45056.567   -9950.3884   -8297.8187    82.253467 
   94400    731.98631   -116.46023   0.66231659   -115.79791   -13619.233    4.3484055    4.3484055    4.3484055   -13619.233   -17195.643   -70645.743    46983.685   -66946.514   -555.17593   -2107.7548    82.222393 
   94500    1400.1733   -117.06947    1.2669062   -115.80256   -1908.0368    4.3516938    4.3516938    4.3516938   -1908.0368    5419.8492    -50553.85    39409.891   -45769.578    2694.7031     1366.812    82.409065 
   94600    2416.8925   -117.96842    2.1868551   -115.78157    24609.314    4.3455469    4.3455469    4.3455469    24609.314    41895.488    18665.281    13267.171    14747.879    7957.2907    4327.0183     82.06034 
   94700    1176.9768    -116.8674    1.0649534   -115.80244   -13777.194    4.3557044    4.3557044    4.3557044   -13777.194   -29999.551   -52488.319    41156.288   -79356.514   -4819.4644     4162.278    82.637125 
   94800    1396.6555   -117.05027    1.2637233   -115.78655   -14218.105    4.3556788    4.3556788    4.3556788   -14218.105   -31656.076   -25922.762    14924.524   -7496.5236   -2958.2109    12042.349     82.63567 
   94900    1608.7126   -117.23197     1.455597   -115.77637    23461.407    4.3384701    4.3384701    4.3384701    23461.407    19266.689    25739.005    25378.528    27052.318    6972.7151   -1147.8222    81.660087 
   95000    1661.2974   -117.28481    1.5031768   -115.78164   -8350.9341    4.3543392    4.3543392    4.3543392   -8350.9341   -20767.911   -24348.726    20063.835   -53540.415     2183.548   -6892.6616    82.559447 
   95100    1587.0714    -117.2145    1.4360155   -115.77849   -10875.998    4.3580213    4.3580213    4.3580213   -10875.998    -11937.82   -10261.306   -10428.867   -12743.082   -14447.418    8103.1254    82.769067 
   95200    875.58886   -116.58308    0.7922512   -115.79082    11792.765    4.3450257    4.3450257    4.3450257    11792.765    28798.921    1873.4341    4705.9403    38784.809   -6507.5412    7257.8752    82.030817 
   95300    2066.1834   -117.65211    1.8695261   -115.78259   -973.58669    4.3523034    4.3523034    4.3523034   -973.58669    3381.5124   -20403.694    14101.422    12569.818    19305.212   -1283.7356    82.443703 
   95400     1819.465   -117.43275    1.6462901   -115.78646    10481.143    4.3511646    4.3511646    4.3511646    10481.143    26175.701    14611.496   -9343.7671   -9547.8469   -22786.485    9150.2595    82.379006 
   95500    743.09969   -116.47371   0.67237222   -115.80134   -3378.1065    4.3530669    4.3530669    4.3530669   -3378.1065    17350.527    -18469.01   -9015.8355    24025.927   -21505.584    1183.9391    82.487095 
   95600    1667.7773    -117.2917    1.5090399   -115.78266   -8298.2075    4.3584246    4.3584246    4.3584246   -8298.2075   -9949.2181   -48537.632    33592.228    18661.557    15444.574   -8463.8849    82.792043 
   95700    1631.3237    -117.2526     1.476056   -115.77655    4147.3421    4.3473896    4.3473896    4.3473896    4147.3421    2893.4928    -7802.971    17351.504   -35284.733   -16307.598    2200.6979    82.164776 
   95800    1055.0795   -116.74365   0.95465809   -115.78899   -8347.2727    4.3474703    4.3474703    4.3474703   -8347.2727    2889.5901   -3812.7665   -24118.642    10997.431   -29170.502    10439.311    82.169356 
   95900    1572.5926   -117.20244    1.4229148   -115.77953    -12946.01    4.3548452    4.3548452    4.3548452    -12946.01   -10664.139   -40218.992    12045.102    21403.566   -3265.1777    9481.4941    82.588232 
   96000    1252.8285   -116.91828    1.1335856    -115.7847   -2811.2685    4.3491301    4.3491301    4.3491301   -2811.2685     -7790.98   -32807.807    32164.982   -55993.367    5041.5066   -6367.6224    82.263501 
   96100    1075.4769   -116.76268   0.97311414   -115.78956   -15989.047    4.3510634    4.3510634    4.3510634   -15989.047     2484.211   -18934.716   -31516.637   -8340.7116   -25269.416    13003.856    82.373257 
   96200    1454.2951   -117.09967    1.3158768    -115.7838   -12572.996    4.3503668    4.3503668    4.3503668   -12572.996    12563.339   -29619.875   -20662.451    1066.6324   -20699.953    13325.226    82.333697 
   96300    1410.8756   -117.06355    1.2765899   -115.78696     9973.989    4.3435144    4.3435144    4.3435144     9973.989    16644.421   -32129.671    45407.216   -55000.517    13046.507   -4095.0471     81.94525 
   96400    1037.3693   -116.73028   0.93863357   -115.79164   -14682.865    4.3546377    4.3546377    4.3546377   -14682.865    813.02756   -26064.942   -18796.681   -2261.9593   -21969.264   -2136.4503    82.576429 
   96500    981.50303   -116.68064   0.88808457   -115.79256   -24250.259    4.3539885    4.3539885    4.3539885   -24250.259   -1451.1803    -28621.46   -42678.137    16921.679   -23825.092    17450.705    82.539497 
   96600    1664.5743   -117.28361    1.5061418   -115.77747    3854.8027    4.3465416    4.3465416    4.3465416    3854.8027    30009.038   -45123.151    26678.521     -19856.9     14962.99    7249.2243    82.116709 
   96700    1264.9449   -116.92732    1.1445487   -115.78277   -11685.397    4.3559217    4.3559217    4.3559217   -11685.397    19232.836   -27776.692   -26512.334   -14092.934   -19076.732   -24914.671    82.649491 
   96800    572.20291   -116.31249   0.51774122   -115.79475   -13723.758    4.3510468    4.3510468    4.3510468   -13723.758    4889.8667   -8476.5789   -37584.561    8574.7281   -32366.087    8366.0211    82.372313 
   96900    1669.6661   -117.29482     1.510749   -115.78407    4774.6622    4.3465069    4.3465069    4.3465069    4774.6622    24341.358   -32018.427    22001.055    25326.935    12663.177    12396.983    82.114737 
   97000    1552.3197   -117.18872    1.4045715   -115.78415   -15138.519    4.3549733    4.3549733    4.3549733   -15138.519    25071.514    -46656.89   -23830.182   -5513.6936   -6682.0866   -35969.735    82.595522 
   97100    822.96673   -116.54085   0.74463759   -115.79621   -11129.488    4.3481799    4.3481799    4.3481799   -11129.488    15893.974   -17147.753   -32134.684     6080.021   -36408.457   -7243.3891    82.209597 
   97200    1379.5878   -117.04135    1.2482801   -115.79307    1073.9249    4.3465776    4.3465776    4.3465776    1073.9249    4280.2216   -20570.588    19512.142    21595.132    1861.4265    21264.701    82.118748 
   97300    1642.2392   -117.27263    1.4859325   -115.78669   -13542.963    4.3533263    4.3533263    4.3533263   -13542.963    2626.5073   -54546.428    11291.032   -15226.732      8348.67   -26942.574    82.501842 
   97400    1013.9856    -116.7155   0.91747551   -115.79802   -12344.305    4.3458394    4.3458394    4.3458394   -12344.305     16109.71   -34861.529   -18281.097   -7925.3164    -30340.09   -13117.397    82.076916 
   97500    1332.5806   -117.00264    1.2057469    -115.7969   -2914.6336    4.3482261    4.3482261    4.3482261   -2914.6336    32921.159   -24298.901   -17366.159    14517.133   -23326.879    35581.274    82.212218 
   97600    1926.1176   -117.52589    1.7427917    -115.7831   -6322.1877    4.3557924    4.3557924    4.3557924   -6322.1877   -909.80094   -24805.817    6749.0546   -5665.8795    13320.532   -11116.705    82.642135 
   97700    1137.5648   -116.82098    1.0292925   -115.79169    3818.1738    4.3506825    4.3506825    4.3506825    3818.1738    32122.832   -6570.8169   -14097.494    -13796.21   -10698.553   -12840.131    82.351624 
   97800    1165.0968   -116.84695    1.0542041   -115.79275   -3755.4827    4.3535875    4.3535875    4.3535875   -3755.4827    32019.301   -5498.4728   -37787.277    3384.3028   -42795.017    33256.329    82.516694 
   97900    2029.8784   -117.61706    1.8366766   -115.78039    7581.8395    4.3486251    4.3486251    4.3486251    7581.8395    23838.166    1327.2441   -2419.8921    7361.8098    16289.121    6701.2031    82.234849 
   98000    1463.1852   -117.11579    1.3239207   -115.79187    12066.485    4.3429518    4.3429518    4.3429518    12066.485    16476.889    16429.112    3293.4528   -16613.045    7681.3542   -15758.073    81.913416 
   98100    1154.6681   -116.84283     1.044768   -115.79806   -11826.713    4.3566668    4.3566668    4.3566668   -11826.713   -19141.446    3254.3721   -19593.066   -9574.6906   -46170.104    12823.283    82.691911 
   98200    1862.9241   -117.46539    1.6856129   -115.77978     1712.574     4.355449     4.355449     4.355449     1712.574   -5752.8912    3506.8297    7383.7834    30710.945    4500.3402    11803.401    82.622591 
   98300    1565.5099   -117.19618    1.4165062   -115.77967    493.82425    4.3509088    4.3509088    4.3509088    493.82425   -10501.018    23798.011    -11815.52    7023.4053    29623.242   -11004.989    82.364474 
   98400    1531.7945   -117.16661    1.3859998   -115.78061   -4759.9393    4.3497821    4.3497821    4.3497821   -4759.9393    36.698873    12822.813    -27139.33   -27691.399   -28540.288    4767.3916    82.300505 
   98500     1342.391    -117.0019    1.2146236   -115.78727    9423.9121    4.3439393    4.3439393    4.3439393    9423.9121    17461.367   -11989.108    22799.478    42917.914   -16020.927     13303.61    81.969304 
   98600    1641.6606   -117.27503     1.485409   -115.78962    1224.6143     4.352384     4.352384     4.352384    1224.6143    7528.7556   -13472.673    9617.7605    37005.884     22418.65   -8247.3183    82.448285 
   98700    2043.8436   -117.63298    1.8493126   -115.78366    796.53823    4.3527058    4.3527058    4.3527058    796.53823    23533.463    4024.2745   -25168.123   -27396.441    -13387.88   -4940.1967    82.466572 
   98800    787.43913   -116.51586   0.71249148   -115.80336   -2480.9074    4.3444146    4.3444146    4.3444146   -2480.9074   -8303.8865   -33967.486     34828.65    53503.204   -20748.179    7602.2446     81.99621 
   98900    1394.4692   -117.06115     1.261745    -115.7994   -6918.8088    4.3514242    4.3514242    4.3514242   -6918.8088   -1189.8088   -50485.346    30918.728    38042.127    7810.0582   -1489.2456    82.393748 
   99000    2173.3667   -117.73775    1.9665078   -115.77125   -3413.0613    4.3625991    4.3625991    4.3625991   -3413.0613    24349.404   -16589.621   -17998.967   -17997.742    3890.4178    -1231.913    83.030167 
   99100    497.25086   -116.23173   0.44992303   -115.78181   -16043.201    4.3640216    4.3640216    4.3640216   -16043.201   -30252.851    -47584.52    29707.768    73613.209   -16383.719    8979.3501    83.111417 
   99200    1368.3642   -117.00302    1.2381246    -115.7649    7587.6566    4.3504791    4.3504791    4.3504791    7587.6566   -5675.8545   -10659.993    39098.818    9992.0597   -10284.598    3957.7285    82.340075 
   99300     1957.892   -117.52925    1.7715419   -115.75771    18319.943    4.3446058    4.3446058    4.3446058    18319.943    13649.606    2592.4522    38717.771   -12029.802    19422.516    -5756.722    82.007039 
   99400    518.63631   -116.26356   0.46927303   -115.79429   -33726.873    4.3560956    4.3560956    4.3560956   -33726.873    -75554.18   -56608.403    30981.963    83287.937    -10928.41    6905.2887    82.659393 
   99500     1246.678   -116.92274    1.1280204   -115.79472   -12726.724    4.3512768    4.3512768    4.3512768   -12726.724   -28733.635    -13326.92    3880.3825    13598.483   -36395.573    12054.669    82.385375 
   99600     2070.009   -117.65353    1.8729877   -115.78054    3463.1787    4.3472286    4.3472286    4.3472286    3463.1787   -2911.4905   -19518.597    32819.624   -583.20545    3133.5831    -1718.521    82.155651 
   99700     1080.866   -116.76863   0.97799025   -115.79064   -10536.603    4.3536853    4.3536853    4.3536853   -10536.603   -42487.797   -56252.365    67130.354     77645.53   -4076.0239    2766.9145    82.522255 
   99800    1515.4087   -117.15065    1.3711736   -115.77948    3739.6568    4.3544608    4.3544608    4.3544608    3739.6568    -5451.317    1638.3768    15031.911    1490.5989   -26922.205   -4167.9022    82.566364 
   99900    1817.1232   -117.41059    1.6441712   -115.76642   -2258.0688    4.3570399    4.3570399    4.3570399   -2258.0688     7831.595   -30205.728    15599.927    10878.235   -7061.4896     -3546.57    82.713161 
  100000    1117.1288   -116.79154    1.0108016   -115.78074   -10741.215    4.3500869    4.3500869    4.3500869   -10741.215   -12982.033   -74580.567    55338.957    76666.935    3260.4279   -9638.4224     82.31781 
Loop time of 21.717 on 1 procs for 100000 steps with 8 atoms

Pair  time (%) = 6.55584 (30.1876)
Kspce time (%) = 5.36786 (24.7173)
Neigh time (%) = 0.116273 (0.535399)
Comm  time (%) = 1.00406 (4.62338)
Outpt time (%) = 0.0258865 (0.119199)
Other time (%) = 8.6471 (39.8172)

Nlocal:    8 ave 8 max 8 min
Histogram: 1 0 0 0 0 0 0 0 0 0
Nghost:    2075 ave 2075 max 2075 min
Histogram: 1 0 0 0 0 0 0 0 0 0
Neighs:    2107 ave 2107 max 2107 min
Histogram: 1 0 0 0 0 0 0 0 0 0

Total # of neighbors = 2107
Ave neighs/atom = 263.375
Neighbor list builds = 1393
Dangerous builds = 0
unfix 20
unfix 21
print "seeds:6490225"
seeds:6490225
