# ['Ni']

10 atoms
1 atom types

    0.0000     3.5204 xlo xhi
    0.0000     2.5201 ylo yhi
    0.0000    25.2006 zlo zhi

    0.0000     0.0000     0.0000 xy xz yz

Atoms

1 1     0.0000     0.0000     0.0000
2 1     1.7602     1.2600     1.2600
3 1     0.0000     0.0000     2.5201
4 1     1.7602     1.2600     3.7801
5 1     0.0000     0.0000     5.0401
6 1     1.7602     1.2600     6.3002
7 1     0.0000     0.0000     7.5602
8 1     1.7602     1.2600     8.8202
9 1     0.0000     0.0000    10.0803
10 1     1.7602     1.2600    11.3403
