# ['Ni']

28 atoms
1 atom types

    0.0000     2.4810 xlo xhi
    0.0000     4.2972 ylo yhi
    0.0000    28.3604 zlo zhi

    0.0000     0.0000     0.0000 xy xz yz

Atoms

1 1     0.0000     0.0000     0.0000
2 1     1.2405     2.1486     0.0000
3 1     1.2405     0.7162     2.0258
4 1     0.0000     2.8648     2.0258
5 1     0.0000     1.4324     4.0515
6 1     1.2405     3.5810     4.0515
7 1     0.0000     0.0000     6.0772
8 1     1.2405     2.1486     6.0772
9 1     1.2405     0.7162     8.1030
10 1     0.0000     2.8648     8.1030
11 1     0.0000     1.4324    10.1287
12 1     1.2405     3.5810    10.1287
13 1     0.0000     0.0000    12.1544
14 1     1.2405     2.1486    12.1544
15 1     0.0000     1.4324    14.1802
16 1     1.2405     3.5810    14.1802
17 1     0.0000     0.0000    16.2059
18 1     1.2405     2.1486    16.2059
19 1     1.2405     0.7162    18.2317
20 1     0.0000     2.8648    18.2317
21 1     0.0000     1.4324    20.2574
22 1     1.2405     3.5810    20.2574
23 1     0.0000     0.0000    22.2832
24 1     1.2405     2.1486    22.2832
25 1     1.2405     0.7162    24.3089
26 1     0.0000     2.8648    24.3089
27 1     0.0000     1.4324    26.3346
28 1     1.2405     3.5810    26.3346
