   2   2   0   0
  0.9639684E+01  0.3009788E-09  0.3009788E-09  0.3009788E-09  0.5000000E-15
  1.000000000000000E-004
  CAR 
 automatically generated by pyflamestk   
     43.83046606    -16.35751382  301      3.55467619      1.00000000
    -16.358  0.0000E+00  0.0000E+00
    -16.157  0.0000E+00  0.0000E+00
    -15.956  0.0000E+00  0.0000E+00
    -15.756  0.0000E+00  0.0000E+00
    -15.555  0.0000E+00  0.0000E+00
    -15.354  0.0000E+00  0.0000E+00
    -15.154  0.0000E+00  0.0000E+00
    -14.953  0.0000E+00  0.0000E+00
    -14.753  0.0000E+00  0.0000E+00
    -14.552  0.0000E+00  0.0000E+00
    -14.351  0.0000E+00  0.0000E+00
    -14.151  0.0000E+00  0.0000E+00
    -13.950  0.0000E+00  0.0000E+00
    -13.749  0.4749E-04  0.9528E-05
    -13.549  0.3054E+00  0.6128E-01
    -13.348  0.1257E-01  0.6380E-01
    -13.147  0.9275E+00  0.2499E+00
    -12.947  0.7325E+00  0.3968E+00
    -12.746  0.8649E+00  0.5704E+00
    -12.546  0.2661E+01  0.1104E+01
    -12.345  0.3028E+01  0.1712E+01
    -12.144  0.1437E+01  0.2000E+01
    -11.944  0.8822E-07  0.2000E+01
    -11.743  0.0000E+00  0.2000E+01
    -11.542  0.0000E+00  0.2000E+01
    -11.342  0.0000E+00  0.2000E+01
    -11.141  0.0000E+00  0.2000E+01
    -10.941  0.0000E+00  0.2000E+01
    -10.740  0.0000E+00  0.2000E+01
    -10.539  0.0000E+00  0.2000E+01
    -10.339  0.0000E+00  0.2000E+01
    -10.138  0.0000E+00  0.2000E+01
     -9.937  0.0000E+00  0.2000E+01
     -9.737  0.0000E+00  0.2000E+01
     -9.536  0.0000E+00  0.2000E+01
     -9.336  0.0000E+00  0.2000E+01
     -9.135  0.0000E+00  0.2000E+01
     -8.934  0.0000E+00  0.2000E+01
     -8.734  0.0000E+00  0.2000E+01
     -8.533  0.0000E+00  0.2000E+01
     -8.332  0.0000E+00  0.2000E+01
     -8.132  0.0000E+00  0.2000E+01
     -7.931  0.0000E+00  0.2000E+01
     -7.731  0.0000E+00  0.2000E+01
     -7.530  0.0000E+00  0.2000E+01
     -7.329  0.0000E+00  0.2000E+01
     -7.129  0.0000E+00  0.2000E+01
     -6.928  0.0000E+00  0.2000E+01
     -6.727  0.0000E+00  0.2000E+01
     -6.527  0.0000E+00  0.2000E+01
     -6.326  0.0000E+00  0.2000E+01
     -6.126  0.0000E+00  0.2000E+01
     -5.925  0.0000E+00  0.2000E+01
     -5.724  0.0000E+00  0.2000E+01
     -5.524  0.0000E+00  0.2000E+01
     -5.323  0.0000E+00  0.2000E+01
     -5.122  0.0000E+00  0.2000E+01
     -4.922  0.0000E+00  0.2000E+01
     -4.721  0.0000E+00  0.2000E+01
     -4.521  0.0000E+00  0.2000E+01
     -4.320  0.0000E+00  0.2000E+01
     -4.119  0.0000E+00  0.2000E+01
     -3.919  0.0000E+00  0.2000E+01
     -3.718  0.0000E+00  0.2000E+01
     -3.517  0.0000E+00  0.2000E+01
     -3.317  0.0000E+00  0.2000E+01
     -3.116  0.0000E+00  0.2000E+01
     -2.916  0.0000E+00  0.2000E+01
     -2.715  0.0000E+00  0.2000E+01
     -2.514  0.0000E+00  0.2000E+01
     -2.314  0.0000E+00  0.2000E+01
     -2.113  0.0000E+00  0.2000E+01
     -1.912  0.0000E+00  0.2000E+01
     -1.712  0.0000E+00  0.2000E+01
     -1.511  0.0000E+00  0.2000E+01
     -1.311  0.0000E+00  0.2000E+01
     -1.110  0.1237E-11  0.2000E+01
     -0.909  0.8719E-01  0.2017E+01
     -0.709  0.8476E+00  0.2188E+01
     -0.508  0.3103E+00  0.2250E+01
     -0.307  0.1193E+01  0.2489E+01
     -0.107  0.2589E+01  0.3009E+01
      0.094  0.2503E+01  0.3511E+01
      0.294  0.1064E+01  0.3724E+01
      0.495  0.1288E+00  0.3750E+01
      0.696  0.1989E-12  0.3750E+01
      0.896  0.8947E-01  0.3768E+01
      1.097  0.2702E+01  0.4310E+01
      1.298  0.9464E+00  0.4500E+01
      1.498  0.1924E-05  0.4500E+01
      1.699  0.1617E+01  0.4824E+01
      1.900  0.1187E+01  0.5063E+01
      2.100  0.1923E+01  0.5448E+01
      2.301  0.2661E+01  0.5982E+01
      2.501  0.3200E+01  0.6624E+01
      2.702  0.2792E+01  0.7184E+01
      2.903  0.1763E+01  0.7538E+01
      3.103  0.1680E+01  0.7875E+01
      3.304  0.5636E+00  0.7988E+01
      3.505  0.5950E-01  0.8000E+01
      3.705  0.0000E+00  0.8000E+01
      3.906  0.0000E+00  0.8000E+01
      4.106  0.0000E+00  0.8000E+01
      4.307  0.0000E+00  0.8000E+01
      4.508  0.0000E+00  0.8000E+01
      4.708  0.0000E+00  0.8000E+01
      4.909  0.0000E+00  0.8000E+01
      5.110  0.0000E+00  0.8000E+01
      5.310  0.0000E+00  0.8000E+01
      5.511  0.0000E+00  0.8000E+01
      5.711  0.0000E+00  0.8000E+01
      5.912  0.0000E+00  0.8000E+01
      6.113  0.0000E+00  0.8000E+01
      6.313  0.0000E+00  0.8000E+01
      6.514  0.0000E+00  0.8000E+01
      6.715  0.0000E+00  0.8000E+01
      6.915  0.0000E+00  0.8000E+01
      7.116  0.0000E+00  0.8000E+01
      7.316  0.0000E+00  0.8000E+01
      7.517  0.0000E+00  0.8000E+01
      7.718  0.0000E+00  0.8000E+01
      7.918  0.0000E+00  0.8000E+01
      8.119  0.0000E+00  0.8000E+01
      8.320  0.0000E+00  0.8000E+01
      8.520  0.2747E-06  0.8000E+01
      8.721  0.2538E+00  0.8051E+01
      8.921  0.5769E-01  0.8062E+01
      9.122  0.0000E+00  0.8062E+01
      9.323  0.0000E+00  0.8062E+01
      9.523  0.0000E+00  0.8062E+01
      9.724  0.0000E+00  0.8062E+01
      9.925  0.0000E+00  0.8062E+01
     10.125  0.5862E-05  0.8063E+01
     10.326  0.8452E+00  0.8232E+01
     10.526  0.8940E-01  0.8250E+01
     10.727  0.4295E-08  0.8250E+01
     10.928  0.1704E+00  0.8284E+01
     11.128  0.7639E+00  0.8437E+01
     11.329  0.3117E+00  0.8500E+01
     11.530  0.4099E-07  0.8500E+01
     11.730  0.5860E+00  0.8618E+01
     11.931  0.3485E+00  0.8687E+01
     12.131  0.1107E-01  0.8690E+01
     12.332  0.9232E+00  0.8875E+01
     12.533  0.1539E+00  0.8906E+01
     12.733  0.1716E+01  0.9250E+01
     12.934  0.9237E+00  0.9435E+01
     13.135  0.9072E+00  0.9617E+01
     13.335  0.3793E-01  0.9625E+01
     13.536  0.8607E+00  0.9798E+01
     13.736  0.5515E+00  0.9908E+01
     13.937  0.2125E+01  0.1033E+02
     14.138  0.2015E+00  0.1037E+02
     14.338  0.0000E+00  0.1038E+02
     14.539  0.2593E-10  0.1038E+02
     14.740  0.3996E+00  0.1046E+02
     14.940  0.3339E+01  0.1112E+02
     15.141  0.3533E-02  0.1113E+02
     15.341  0.1866E+01  0.1150E+02
     15.542  0.2538E+01  0.1201E+02
     15.743  0.1511E+01  0.1231E+02
     15.943  0.1296E-01  0.1232E+02
     16.144  0.1591E+01  0.1263E+02
     16.345  0.2655E+00  0.1269E+02
     16.545  0.0000E+00  0.1269E+02
     16.746  0.1264E-06  0.1269E+02
     16.947  0.1227E+01  0.1293E+02
     17.147  0.9667E+00  0.1313E+02
     17.348  0.8776E+00  0.1330E+02
     17.548  0.4375E-01  0.1331E+02
     17.749  0.2418E-05  0.1331E+02
     17.950  0.8112E+00  0.1348E+02
     18.150  0.1234E+00  0.1350E+02
     18.351  0.2127E-13  0.1350E+02
     18.552  0.2875E-01  0.1351E+02
     18.752  0.9058E+00  0.1369E+02
     18.953  0.6629E-04  0.1369E+02
     19.153  0.1280E-05  0.1369E+02
     19.354  0.5674E+00  0.1380E+02
     19.555  0.2644E+01  0.1433E+02
     19.755  0.1618E+01  0.1466E+02
     19.956  0.1016E+01  0.1486E+02
     20.157  0.1680E+01  0.1520E+02
     20.357  0.1192E+01  0.1544E+02
     20.558  0.9406E+00  0.1562E+02
     20.758  0.2394E+00  0.1567E+02
     20.959  0.6961E+00  0.1581E+02
     21.160  0.9408E+00  0.1600E+02
     21.360  0.9279E+00  0.1619E+02
     21.561  0.1840E+01  0.1656E+02
     21.762  0.2888E-01  0.1656E+02
     21.962  0.8493E-05  0.1656E+02
     22.163  0.8574E+00  0.1673E+02
     22.363  0.7714E-01  0.1675E+02
     22.564  0.8890E+00  0.1693E+02
     22.765  0.1864E+01  0.1730E+02
     22.965  0.4583E+00  0.1739E+02
     23.166  0.1461E+01  0.1769E+02
     23.367  0.2291E-05  0.1769E+02
     23.567  0.5364E+00  0.1780E+02
     23.768  0.9994E+00  0.1800E+02
     23.968  0.2227E-01  0.1800E+02
     24.169  0.3101E+00  0.1806E+02
     24.370  0.8223E+00  0.1823E+02
     24.570  0.7361E+00  0.1837E+02
     24.771  0.1203E-02  0.1838E+02
     24.972  0.1206E+01  0.1862E+02
     25.172  0.3911E-01  0.1863E+02
     25.373  0.1301E+01  0.1889E+02
     25.573  0.1282E+01  0.1914E+02
     25.774  0.2205E+00  0.1919E+02
     25.975  0.7890E+00  0.1935E+02
     26.175  0.1080E+01  0.1956E+02
     26.376  0.2047E+00  0.1960E+02
     26.577  0.2599E+01  0.2012E+02
     26.777  0.3891E-02  0.2013E+02
     26.978  0.9310E+00  0.2031E+02
     27.178  0.9346E+00  0.2050E+02
     27.379  0.3113E+00  0.2056E+02
     27.580  0.1095E-03  0.2056E+02
     27.780  0.0000E+00  0.2056E+02
     27.981  0.0000E+00  0.2056E+02
     28.182  0.0000E+00  0.2056E+02
     28.382  0.0000E+00  0.2056E+02
     28.583  0.1519E-02  0.2056E+02
     28.783  0.6418E+00  0.2069E+02
     28.984  0.2772E+01  0.2125E+02
     29.185  0.9445E+00  0.2144E+02
     29.385  0.3974E+00  0.2152E+02
     29.586  0.5383E+00  0.2162E+02
     29.787  0.1457E-05  0.2163E+02
     29.987  0.2016E+01  0.2203E+02
     30.188  0.1633E+01  0.2236E+02
     30.388  0.1397E+01  0.2264E+02
     30.589  0.5610E+00  0.2275E+02
     30.790  0.4170E-07  0.2275E+02
     30.990  0.5364E+00  0.2286E+02
     31.191  0.1333E+01  0.2312E+02
     31.392  0.6734E+00  0.2326E+02
     31.592  0.1656E+01  0.2359E+02
     31.793  0.2344E+01  0.2406E+02
     31.993  0.1139E+01  0.2429E+02
     32.194  0.1273E+01  0.2455E+02
     32.395  0.4394E+01  0.2543E+02
     32.595  0.1103E+00  0.2545E+02
     32.796  0.2752E+01  0.2600E+02
     32.997  0.9229E+00  0.2619E+02
     33.197  0.6615E+00  0.2632E+02
     33.398  0.1831E+01  0.2669E+02
     33.599  0.3940E-05  0.2669E+02
     33.799  0.0000E+00  0.2669E+02
     34.000  0.0000E+00  0.2669E+02
     34.200  0.0000E+00  0.2669E+02
     34.401  0.0000E+00  0.2669E+02
     34.602  0.2517E-09  0.2669E+02
     34.802  0.3010E+00  0.2675E+02
     35.003  0.2502E+01  0.2725E+02
     35.204  0.5589E-03  0.2725E+02
     35.404  0.8009E+00  0.2741E+02
     35.605  0.2739E+01  0.2796E+02
     35.805  0.7642E+00  0.2811E+02
     36.006  0.3693E+00  0.2819E+02
     36.207  0.2617E-03  0.2819E+02
     36.407  0.1876E+01  0.2856E+02
     36.608  0.9274E+00  0.2875E+02
     36.809  0.1197E+00  0.2877E+02
     37.009  0.5034E+00  0.2888E+02
     37.210  0.9584E+00  0.2907E+02
     37.410  0.9151E+00  0.2925E+02
     37.611  0.9292E+00  0.2944E+02
     37.812  0.6877E+00  0.2958E+02
     38.012  0.1182E+01  0.2981E+02
     38.213  0.8395E+00  0.2998E+02
     38.414  0.9507E-01  0.3000E+02
     38.614  0.1166E-10  0.3000E+02
     38.815  0.2092E+00  0.3004E+02
     39.015  0.3796E+01  0.3080E+02
     39.216  0.4422E-01  0.3081E+02
     39.417  0.0000E+00  0.3081E+02
     39.617  0.0000E+00  0.3081E+02
     39.818  0.5188E-16  0.3081E+02
     40.019  0.4380E-02  0.3081E+02
     40.219  0.9292E+00  0.3100E+02
     40.420  0.9790E-03  0.3100E+02
     40.620  0.1080E-07  0.3100E+02
     40.821  0.1903E+00  0.3104E+02
     41.022  0.1431E+01  0.3133E+02
     41.222  0.3363E+01  0.3200E+02
     41.423  0.2541E-03  0.3200E+02
     41.624  0.0000E+00  0.3200E+02
     41.824  0.0000E+00  0.3200E+02
     42.025  0.0000E+00  0.3200E+02
     42.225  0.0000E+00  0.3200E+02
     42.426  0.0000E+00  0.3200E+02
     42.627  0.0000E+00  0.3200E+02
     42.827  0.0000E+00  0.3200E+02
     43.028  0.0000E+00  0.3200E+02
     43.229  0.0000E+00  0.3200E+02
     43.429  0.0000E+00  0.3200E+02
     43.630  0.0000E+00  0.3200E+02
     43.830  0.0000E+00  0.3200E+02
