   2   2   0   0
  0.9563318E+01  0.3001819E-09  0.3001820E-09  0.3001819E-09  0.5000000E-15
  1.000000000000000E-004
  CAR 
 automatically generated by pyflamestk   
     44.07384994    -16.31803854  301      3.63644794      1.00000000
    -16.318  0.0000E+00  0.0000E+00
    -16.117  0.0000E+00  0.0000E+00
    -15.915  0.0000E+00  0.0000E+00
    -15.714  0.0000E+00  0.0000E+00
    -15.513  0.0000E+00  0.0000E+00
    -15.312  0.0000E+00  0.0000E+00
    -15.110  0.0000E+00  0.0000E+00
    -14.909  0.0000E+00  0.0000E+00
    -14.708  0.0000E+00  0.0000E+00
    -14.506  0.0000E+00  0.0000E+00
    -14.305  0.0000E+00  0.0000E+00
    -14.104  0.0000E+00  0.0000E+00
    -13.902  0.0000E+00  0.0000E+00
    -13.701  0.4515E-04  0.9089E-05
    -13.500  0.3045E+00  0.6130E-01
    -13.298  0.1013E-01  0.6334E-01
    -13.097  0.9263E+00  0.2498E+00
    -12.896  0.6487E+00  0.3804E+00
    -12.695  0.7770E+00  0.5368E+00
    -12.493  0.2435E+01  0.1027E+01
    -12.292  0.2825E+01  0.1596E+01
    -12.091  0.2009E+01  0.2000E+01
    -11.889  0.1611E-05  0.2000E+01
    -11.688  0.0000E+00  0.2000E+01
    -11.487  0.0000E+00  0.2000E+01
    -11.285  0.0000E+00  0.2000E+01
    -11.084  0.0000E+00  0.2000E+01
    -10.883  0.0000E+00  0.2000E+01
    -10.681  0.0000E+00  0.2000E+01
    -10.480  0.0000E+00  0.2000E+01
    -10.279  0.0000E+00  0.2000E+01
    -10.078  0.0000E+00  0.2000E+01
     -9.876  0.0000E+00  0.2000E+01
     -9.675  0.0000E+00  0.2000E+01
     -9.474  0.0000E+00  0.2000E+01
     -9.272  0.0000E+00  0.2000E+01
     -9.071  0.0000E+00  0.2000E+01
     -8.870  0.0000E+00  0.2000E+01
     -8.668  0.0000E+00  0.2000E+01
     -8.467  0.0000E+00  0.2000E+01
     -8.266  0.0000E+00  0.2000E+01
     -8.064  0.0000E+00  0.2000E+01
     -7.863  0.0000E+00  0.2000E+01
     -7.662  0.0000E+00  0.2000E+01
     -7.461  0.0000E+00  0.2000E+01
     -7.259  0.0000E+00  0.2000E+01
     -7.058  0.0000E+00  0.2000E+01
     -6.857  0.0000E+00  0.2000E+01
     -6.655  0.0000E+00  0.2000E+01
     -6.454  0.0000E+00  0.2000E+01
     -6.253  0.0000E+00  0.2000E+01
     -6.051  0.0000E+00  0.2000E+01
     -5.850  0.0000E+00  0.2000E+01
     -5.649  0.0000E+00  0.2000E+01
     -5.447  0.0000E+00  0.2000E+01
     -5.246  0.0000E+00  0.2000E+01
     -5.045  0.0000E+00  0.2000E+01
     -4.844  0.0000E+00  0.2000E+01
     -4.642  0.0000E+00  0.2000E+01
     -4.441  0.0000E+00  0.2000E+01
     -4.240  0.0000E+00  0.2000E+01
     -4.038  0.0000E+00  0.2000E+01
     -3.837  0.0000E+00  0.2000E+01
     -3.636  0.0000E+00  0.2000E+01
     -3.434  0.0000E+00  0.2000E+01
     -3.233  0.0000E+00  0.2000E+01
     -3.032  0.0000E+00  0.2000E+01
     -2.831  0.0000E+00  0.2000E+01
     -2.629  0.0000E+00  0.2000E+01
     -2.428  0.0000E+00  0.2000E+01
     -2.227  0.0000E+00  0.2000E+01
     -2.025  0.0000E+00  0.2000E+01
     -1.824  0.0000E+00  0.2000E+01
     -1.623  0.0000E+00  0.2000E+01
     -1.421  0.0000E+00  0.2000E+01
     -1.220  0.0000E+00  0.2000E+01
     -1.019  0.1417E-06  0.2000E+01
     -0.817  0.6675E+00  0.2134E+01
     -0.616  0.2897E+00  0.2193E+01
     -0.415  0.3959E+00  0.2272E+01
     -0.214  0.2512E+01  0.2778E+01
     -0.012  0.1957E+01  0.3172E+01
      0.189  0.1929E+01  0.3560E+01
      0.390  0.9383E+00  0.3749E+01
      0.592  0.3587E-02  0.3750E+01
      0.793  0.1714E-07  0.3750E+01
      0.994  0.9831E+00  0.3948E+01
      1.196  0.2382E+01  0.4427E+01
      1.397  0.3606E+00  0.4500E+01
      1.598  0.1571E-03  0.4500E+01
      1.800  0.2700E+01  0.5044E+01
      2.001  0.1282E+00  0.5069E+01
      2.202  0.2475E+01  0.5568E+01
      2.403  0.2238E+01  0.6018E+01
      2.605  0.4472E+01  0.6918E+01
      2.806  0.1355E+01  0.7191E+01
      3.007  0.2752E+01  0.7745E+01
      3.209  0.6450E+00  0.7875E+01
      3.410  0.6179E+00  0.8000E+01
      3.611  0.2285E-02  0.8000E+01
      3.813  0.0000E+00  0.8000E+01
      4.014  0.0000E+00  0.8000E+01
      4.215  0.0000E+00  0.8000E+01
      4.417  0.0000E+00  0.8000E+01
      4.618  0.0000E+00  0.8000E+01
      4.819  0.0000E+00  0.8000E+01
      5.020  0.0000E+00  0.8000E+01
      5.222  0.0000E+00  0.8000E+01
      5.423  0.0000E+00  0.8000E+01
      5.624  0.0000E+00  0.8000E+01
      5.826  0.0000E+00  0.8000E+01
      6.027  0.0000E+00  0.8000E+01
      6.228  0.0000E+00  0.8000E+01
      6.430  0.0000E+00  0.8000E+01
      6.631  0.0000E+00  0.8000E+01
      6.832  0.0000E+00  0.8000E+01
      7.033  0.0000E+00  0.8000E+01
      7.235  0.0000E+00  0.8000E+01
      7.436  0.0000E+00  0.8000E+01
      7.637  0.0000E+00  0.8000E+01
      7.839  0.0000E+00  0.8000E+01
      8.040  0.0000E+00  0.8000E+01
      8.241  0.0000E+00  0.8000E+01
      8.443  0.0000E+00  0.8000E+01
      8.644  0.1232E-07  0.8000E+01
      8.845  0.1948E+00  0.8039E+01
      9.047  0.1157E+00  0.8062E+01
      9.248  0.0000E+00  0.8062E+01
      9.449  0.0000E+00  0.8062E+01
      9.650  0.0000E+00  0.8062E+01
      9.852  0.0000E+00  0.8062E+01
     10.053  0.0000E+00  0.8062E+01
     10.254  0.9329E-06  0.8063E+01
     10.456  0.7699E+00  0.8217E+01
     10.657  0.1615E+00  0.8250E+01
     10.858  0.1375E-07  0.8250E+01
     11.060  0.1971E+00  0.8290E+01
     11.261  0.6919E+00  0.8429E+01
     11.462  0.3528E+00  0.8500E+01
     11.664  0.4180E-06  0.8500E+01
     11.865  0.7289E+00  0.8647E+01
     12.066  0.2025E+00  0.8687E+01
     12.267  0.7221E-02  0.8689E+01
     12.469  0.9237E+00  0.8875E+01
     12.670  0.2302E+00  0.8921E+01
     12.871  0.1655E+01  0.9254E+01
     13.073  0.9097E+00  0.9438E+01
     13.274  0.9229E+00  0.9623E+01
     13.475  0.8176E-02  0.9625E+01
     13.677  0.8674E+00  0.9800E+01
     13.878  0.1218E+01  0.1004E+02
     14.079  0.1632E+01  0.1037E+02
     14.281  0.8021E-02  0.1038E+02
     14.482  0.0000E+00  0.1038E+02
     14.683  0.6122E-09  0.1038E+02
     14.884  0.1033E+01  0.1058E+02
     15.086  0.2693E+01  0.1112E+02
     15.287  0.4740E-01  0.1113E+02
     15.488  0.1839E+01  0.1150E+02
     15.690  0.2910E+01  0.1209E+02
     15.891  0.1102E+01  0.1231E+02
     16.092  0.5230E-01  0.1232E+02
     16.294  0.1575E+01  0.1264E+02
     16.495  0.2357E+00  0.1269E+02
     16.696  0.0000E+00  0.1269E+02
     16.898  0.2720E-06  0.1269E+02
     17.099  0.1330E+01  0.1296E+02
     17.300  0.9324E+00  0.1314E+02
     17.501  0.8403E+00  0.1331E+02
     17.703  0.1818E-02  0.1331E+02
     17.904  0.1312E-04  0.1331E+02
     18.105  0.8699E+00  0.1349E+02
     18.307  0.6149E-01  0.1350E+02
     18.508  0.2695E-12  0.1350E+02
     18.709  0.6084E-01  0.1351E+02
     18.911  0.8706E+00  0.1369E+02
     19.112  0.1344E-04  0.1369E+02
     19.313  0.3327E-03  0.1369E+02
     19.514  0.7236E+00  0.1383E+02
     19.716  0.2434E+01  0.1432E+02
     19.917  0.1732E+01  0.1467E+02
     20.118  0.9989E+00  0.1487E+02
     20.320  0.1689E+01  0.1521E+02
     20.521  0.1141E+01  0.1544E+02
     20.722  0.9055E+00  0.1562E+02
     20.924  0.3353E+00  0.1569E+02
     21.125  0.6022E+00  0.1581E+02
     21.326  0.9517E+00  0.1601E+02
     21.528  0.9055E+00  0.1619E+02
     21.729  0.1831E+01  0.1656E+02
     21.930  0.3113E-01  0.1656E+02
     22.131  0.3354E-03  0.1656E+02
     22.333  0.9214E+00  0.1675E+02
     22.534  0.9733E-02  0.1675E+02
     22.735  0.9038E+00  0.1693E+02
     22.937  0.1883E+01  0.1731E+02
     23.138  0.5633E+00  0.1742E+02
     23.339  0.1307E+01  0.1769E+02
     23.541  0.2776E-04  0.1769E+02
     23.742  0.5978E+00  0.1781E+02
     23.943  0.9469E+00  0.1800E+02
     24.145  0.7945E-02  0.1800E+02
     24.346  0.3088E+00  0.1806E+02
     24.547  0.9624E+00  0.1826E+02
     24.748  0.5913E+00  0.1837E+02
     24.950  0.9426E-02  0.1838E+02
     25.151  0.1228E+01  0.1862E+02
     25.352  0.4206E-02  0.1863E+02
     25.554  0.1570E+01  0.1894E+02
     25.755  0.1184E+01  0.1918E+02
     25.956  0.4014E-01  0.1919E+02
     26.158  0.9440E+00  0.1938E+02
     26.359  0.9188E+00  0.1956E+02
     26.560  0.2681E+00  0.1962E+02
     26.762  0.2526E+01  0.2012E+02
     26.963  0.3333E-02  0.2013E+02
     27.164  0.9424E+00  0.2032E+02
     27.365  0.9187E+00  0.2050E+02
     27.567  0.3087E+00  0.2056E+02
     27.768  0.2474E-03  0.2056E+02
     27.969  0.0000E+00  0.2056E+02
     28.171  0.0000E+00  0.2056E+02
     28.372  0.0000E+00  0.2056E+02
     28.573  0.0000E+00  0.2056E+02
     28.775  0.4951E-03  0.2056E+02
     28.976  0.6441E+00  0.2069E+02
     29.177  0.2701E+01  0.2124E+02
     29.378  0.9999E+00  0.2144E+02
     29.580  0.6767E+00  0.2157E+02
     29.781  0.2561E+00  0.2162E+02
     29.982  0.4895E-06  0.2163E+02
     30.184  0.1878E+01  0.2200E+02
     30.385  0.1780E+01  0.2236E+02
     30.586  0.1201E+01  0.2260E+02
     30.788  0.7292E+00  0.2275E+02
     30.989  0.4232E-06  0.2275E+02
     31.190  0.4468E+00  0.2284E+02
     31.392  0.1416E+01  0.2312E+02
     31.593  0.8726E+00  0.2330E+02
     31.794  0.1390E+01  0.2358E+02
     31.995  0.2394E+01  0.2406E+02
     32.197  0.1299E+01  0.2432E+02
     32.398  0.1272E+01  0.2458E+02
     32.599  0.4206E+01  0.2543E+02
     32.801  0.1766E+00  0.2546E+02
     33.002  0.2680E+01  0.2600E+02
     33.203  0.9217E+00  0.2619E+02
     33.405  0.7900E+00  0.2635E+02
     33.606  0.1694E+01  0.2669E+02
     33.807  0.4364E-06  0.2669E+02
     34.009  0.0000E+00  0.2669E+02
     34.210  0.0000E+00  0.2669E+02
     34.411  0.0000E+00  0.2669E+02
     34.612  0.0000E+00  0.2669E+02
     34.814  0.2892E-08  0.2669E+02
     35.015  0.4514E+00  0.2678E+02
     35.216  0.2342E+01  0.2725E+02
     35.418  0.3746E-03  0.2725E+02
     35.619  0.8251E+00  0.2742E+02
     35.820  0.2763E+01  0.2797E+02
     36.022  0.7144E+00  0.2812E+02
     36.223  0.3542E+00  0.2819E+02
     36.424  0.1207E-02  0.2819E+02
     36.626  0.1936E+01  0.2858E+02
     36.827  0.8570E+00  0.2875E+02
     37.028  0.2178E+00  0.2879E+02
     37.229  0.4032E+00  0.2888E+02
     37.431  0.7968E+00  0.2904E+02
     37.632  0.1071E+01  0.2925E+02
     37.833  0.9254E+00  0.2944E+02
     38.035  0.8055E+00  0.2960E+02
     38.236  0.1058E+01  0.2981E+02
     38.437  0.8608E+00  0.2999E+02
     38.639  0.7063E-01  0.3000E+02
     38.840  0.1573E-10  0.3000E+02
     39.041  0.2133E+00  0.3004E+02
     39.242  0.3789E+01  0.3081E+02
     39.444  0.3354E-01  0.3081E+02
     39.645  0.0000E+00  0.3081E+02
     39.846  0.0000E+00  0.3081E+02
     40.048  0.2068E-15  0.3081E+02
     40.249  0.6973E-02  0.3081E+02
     40.450  0.9239E+00  0.3100E+02
     40.652  0.5174E-03  0.3100E+02
     40.853  0.2412E-08  0.3100E+02
     41.054  0.1600E+00  0.3103E+02
     41.256  0.1551E+01  0.3134E+02
     41.457  0.3256E+01  0.3200E+02
     41.658  0.3088E-03  0.3200E+02
     41.859  0.0000E+00  0.3200E+02
     42.061  0.0000E+00  0.3200E+02
     42.262  0.0000E+00  0.3200E+02
     42.463  0.0000E+00  0.3200E+02
     42.665  0.0000E+00  0.3200E+02
     42.866  0.0000E+00  0.3200E+02
     43.067  0.0000E+00  0.3200E+02
     43.269  0.0000E+00  0.3200E+02
     43.470  0.0000E+00  0.3200E+02
     43.671  0.0000E+00  0.3200E+02
     43.873  0.0000E+00  0.3200E+02
     44.074  0.0000E+00  0.3200E+02
