    2    2    1    1
  0.9563318E+01  0.3001819E-09  0.3001820E-09  0.3001819E-09  0.5000000E-15
  1.000000000000000E-004
  CAR 
 automatically generated by pyflamestk   
      8     10     16
 
  0.1250000E+00  0.1250000E+00  0.1250000E+00  0.3125000E-01
    1      -13.572953   1.000000
    2        2.468612   1.000000
    3        3.315221   1.000000
    4        3.315222   1.000000
    5        8.833750   0.000000
    6       17.412300   0.000000
    7       19.428821   0.000000
    8       19.428824   0.000000
    9       23.679185   0.000000
   10       23.679188   0.000000
   11       25.017733   0.000000
   12       27.455115   0.000000
   13       28.886182   0.000000
   14       28.886185   0.000000
   15       39.150625   0.000000
   16       41.052903   0.000000
 
  0.3750000E+00  0.1250000E+00  0.1250000E+00  0.9375000E-01
    1      -12.913913   1.000000
    2        0.296167   1.000000
    3        2.453519   1.000000
    4        3.016895   1.000000
    5       11.250014   0.000000
    6       15.350595   0.000000
    7       18.762700   0.000000
    8       20.430441   0.000000
    9       22.251027   0.000000
   10       24.481828   0.000000
   11       26.600333   0.000000
   12       31.261401   0.000000
   13       32.535247   0.000000
   14       33.410391   0.000000
   15       35.780879   0.000000
   16       39.074267   0.000000
 
 -0.3750000E+00  0.1250000E+00  0.1250000E+00  0.9375000E-01
    1      -12.472845   1.000000
    2       -0.837713   1.000000
    3        2.302383   1.000000
    4        2.677217   1.000000
    5       11.837232   0.000000
    6       15.561497   0.000000
    7       18.052089   0.000000
    8       19.868293   0.000000
    9       23.858342   0.000000
   10       26.108045   0.000000
   11       26.204123   0.000000
   12       32.487829   0.000000
   13       33.083970   0.000000
   14       33.429358   0.000000
   15       36.010823   0.000000
   16       37.721678   0.000000
 
 -0.1250000E+00  0.1250000E+00  0.1250000E+00  0.9375000E-01
    1      -13.206024   1.000000
    2        1.185204   1.000000
    3        2.944507   1.000000
    4        2.948375   1.000000
    5       10.422440   0.000000
    6       15.591428   0.000000
    7       19.556786   0.000000
    8       20.037420   0.000000
    9       21.212816   0.000000
   10       25.058672   0.000000
   11       27.057971   0.000000
   12       30.155960   0.000000
   13       30.440751   0.000000
   14       31.194013   0.000000
   15       37.416022   0.000000
   16       39.178105   0.000000
 
  0.3750000E+00  0.3750000E+00  0.1250000E+00  0.9375000E-01
    1      -12.675909   1.000000
    2        0.109739   1.000000
    3        2.253050   1.000000
    4        2.486212   1.000000
    5       12.353028   0.000000
    6       13.994999   0.000000
    7       17.306447   0.000000
    8       20.936302   0.000000
    9       21.393320   0.000000
   10       27.239313   0.000000
   11       30.345165   0.000000
   12       30.613974   0.000000
   13       32.527415   0.000000
   14       35.019210   0.000000
   15       36.672256   0.000000
   16       38.088437   0.000000
 
 -0.3750000E+00  0.3750000E+00  0.1250000E+00  0.1875000E+00
    1      -12.259701   1.000000
    2       -0.008579   1.000000
    3        0.991918   1.000000
    4        2.074499   1.000000
    5       13.867169   0.000000
    6       14.905815   0.000000
    7       15.697732   0.000000
    8       19.711158   0.000000
    9       23.156725   0.000000
   10       26.609924   0.000000
   11       30.173271   0.000000
   12       31.595664   0.000000
   13       32.863747   0.000000
   14       36.537946   0.000000
   15       39.109361   0.000000
   16       41.328764   0.000000
 
 -0.1250000E+00  0.3750000E+00  0.1250000E+00  0.1875000E+00
    1      -12.518653   1.000000
    2       -0.211894   1.000000
    3        1.734843   1.000000
    4        2.575556   1.000000
    5       12.711027   0.000000
    6       14.904876   0.000000
    7       17.078821   0.000000
    8       20.274213   0.000000
    9       22.843631   0.000000
   10       25.518117   0.000000
   11       29.053025   0.000000
   12       31.844770   0.000000
   13       32.426503   0.000000
   14       35.091182   0.000000
   15       35.734152   0.000000
   16       41.235700   0.000000
 
 -0.3750000E+00 -0.3750000E+00  0.1250000E+00  0.9375000E-01
    1      -12.296424   1.000000
    2       -0.373191   1.000000
    3        1.734613   1.000000
    4        2.191574   1.000000
    5       12.941511   0.000000
    6       13.624085   0.000000
    7       16.148416   0.000000
    8       21.647275   0.000000
    9       21.658240   0.000000
   10       29.126977   0.000000
   11       29.558659   0.000000
   12       32.141487   0.000000
   13       32.856086   0.000000
   14       38.004920   0.000000
   15       38.386585   0.000000
   16       41.317557   0.000000
 
  0.3750000E+00  0.3750000E+00  0.3750000E+00  0.3125000E-01
    1      -12.712177   1.000000
    2       -0.567173   1.000000
    3        2.872548   1.000000
    4        2.872549   1.000000
    5       11.047416   0.000000
    6       15.566858   0.000000
    7       19.663893   0.000000
    8       19.663895   0.000000
    9       24.253311   0.000000
   10       24.593198   0.000000
   11       24.593201   0.000000
   12       32.107895   0.000000
   13       33.427804   0.000000
   14       33.427806   0.000000
   15       37.041679   0.000000
   16       37.041685   0.000000
 
 -0.3750000E+00  0.3750000E+00  0.3750000E+00  0.9375000E-01
    1      -12.344066   1.000000
    2       -0.250758   1.000000
    3        1.097927   1.000000
    4        2.545133   1.000000
    5       13.190004   0.000000
    6       15.364008   0.000000
    7       16.270068   0.000000
    8       20.586025   0.000000
    9       22.669806   0.000000
   10       25.694308   0.000000
   11       29.273236   0.000000
   12       31.815062   0.000000
   13       32.237825   0.000000
   14       35.576587   0.000000
   15       37.461255   0.000000
   16       40.335050   0.000000
