# ['Ni']

28 atoms
1 atom types

    0.0000     2.4862 xlo xhi
    0.0000     4.3063 ylo yhi
    0.0000    28.4199 zlo zhi

    0.0000     0.0000     0.0000 xy xz yz

Atoms

1 1     0.0000     0.0000     0.0000
2 1     1.2431     2.1531     0.0000
3 1     1.2431     0.7177     2.0300
4 1     0.0000     2.8708     2.0300
5 1     0.0000     1.4354     4.0600
6 1     1.2431     3.5886     4.0600
7 1     0.0000     0.0000     6.0900
8 1     1.2431     2.1531     6.0900
9 1     1.2431     0.7177     8.1200
10 1     0.0000     2.8708     8.1200
11 1     0.0000     1.4354    10.1500
12 1     1.2431     3.5886    10.1500
13 1     0.0000     0.0000    12.1800
14 1     1.2431     2.1531    12.1800
15 1     0.0000     1.4354    14.2100
16 1     1.2431     3.5886    14.2100
17 1     0.0000     0.0000    16.2400
18 1     1.2431     2.1531    16.2400
19 1     1.2431     0.7177    18.2700
20 1     0.0000     2.8708    18.2700
21 1     0.0000     1.4354    20.3000
22 1     1.2431     3.5886    20.3000
23 1     0.0000     0.0000    22.3299
24 1     1.2431     2.1531    22.3299
25 1     1.2431     0.7177    24.3599
26 1     0.0000     2.8708    24.3599
27 1     0.0000     1.4354    26.3899
28 1     1.2431     3.5886    26.3899
