# ['Ni']

18 atoms
1 atom types

    0.0000     2.2952 xlo xhi
    0.0000     3.9754 ylo yhi
    0.0000    33.7264 zlo zhi

    0.0000     0.0000    -0.0004 xy xz yz

Atoms

1 1     0.0000     0.0000     0.0000
2 1     1.1476     0.6626     1.8737
3 1     0.0000     1.3251     3.7474
4 1     1.1476     1.9877     0.0000
5 1     0.0000     2.6502     1.8737
6 1     1.1476     3.3128     3.7474
7 1     0.0000     0.0000     5.6211
8 1     1.1476     0.6626     7.4947
9 1     0.0000     1.3251     9.3684
10 1     1.1476     1.9877     5.6211
11 1     0.0000     2.6502     7.4947
12 1     1.1476     3.3128     9.3684
13 1     0.0000     0.0000    11.2421
14 1     1.1476     0.6626    13.1158
15 1     0.0000     1.3251    14.9895
16 1     1.1476     1.9877    11.2421
17 1     0.0000     2.6502    13.1158
18 1     1.1476     3.3128    14.9895
