   4   4   0   0
  0.1023915E+02  0.3447000E-09  0.3447000E-09  0.3447000E-09  0.5000000E-15
  1.000000000000000E-004
  CAR 
 automatically generated by pyflamestk   
     41.08316732    -45.80253998  301     11.92801511      1.00000000
    -45.803  0.0000E+00  0.0000E+00  0.0000E+00  0.0000E+00
    -45.513  0.0000E+00  0.0000E+00  0.0000E+00  0.0000E+00
    -45.223  0.0000E+00  0.0000E+00  0.0000E+00  0.0000E+00
    -44.934  0.0000E+00  0.0000E+00  0.0000E+00  0.0000E+00
    -44.644  0.0000E+00  0.0000E+00  0.0000E+00  0.0000E+00
    -44.354  0.0000E+00  0.0000E+00  0.0000E+00  0.0000E+00
    -44.065  0.0000E+00  0.0000E+00  0.0000E+00  0.0000E+00
    -43.775  0.0000E+00  0.0000E+00  0.0000E+00  0.0000E+00
    -43.486  0.0000E+00 -0.8957E-30  0.0000E+00 -0.2594E-30
    -43.196 -0.1711E-33 -0.1717E-20 -0.4954E-34 -0.4972E-21
    -42.906 -0.1452E-23 -0.4713E-13 -0.4206E-24 -0.1365E-13
    -42.617 -0.1773E-15 -0.1957E-07 -0.5135E-16 -0.5668E-08
    -42.327 -0.3254E-09 -0.1209E-03 -0.9424E-10 -0.3503E-04
    -42.037 -0.8874E-05 -0.7527E-02 -0.2570E-05 -0.2215E-02
    -41.748 -0.3300E-02  0.1470E+00 -0.9583E-03  0.4037E-01
    -41.458  0.4501E-01  0.3782E+00  0.1208E-01  0.1499E+00
    -41.169  0.3106E+00  0.5038E+00  0.1020E+00  0.2958E+00
    -40.879  0.5366E+00  0.1679E-01  0.2574E+00  0.3007E+00
    -40.589  0.1566E+00 -0.2374E-02  0.3028E+00  0.3000E+00
    -40.300 -0.9553E-02 -0.2323E-05  0.3000E+00  0.3000E+00
    -40.010 -0.5450E-04 -0.3378E-10  0.3000E+00  0.3000E+00
    -39.721 -0.3928E-08 -0.4792E-17  0.3000E+00  0.3000E+00
    -39.431 -0.4464E-14  0.0000E+00  0.3000E+00  0.3000E+00
    -39.141  0.0000E+00  0.0000E+00  0.3000E+00  0.3000E+00
    -38.852  0.0000E+00  0.0000E+00  0.3000E+00  0.3000E+00
    -38.562  0.0000E+00  0.0000E+00  0.3000E+00  0.3000E+00
    -38.272  0.0000E+00  0.0000E+00  0.3000E+00  0.3000E+00
    -37.983  0.0000E+00  0.0000E+00  0.3000E+00  0.3000E+00
    -37.693  0.0000E+00  0.0000E+00  0.3000E+00  0.3000E+00
    -37.404  0.0000E+00  0.0000E+00  0.3000E+00  0.3000E+00
    -37.114  0.0000E+00  0.0000E+00  0.3000E+00  0.3000E+00
    -36.824  0.0000E+00  0.0000E+00  0.3000E+00  0.3000E+00
    -36.535  0.0000E+00  0.0000E+00  0.3000E+00  0.3000E+00
    -36.245  0.0000E+00  0.0000E+00  0.3000E+00  0.3000E+00
    -35.955  0.0000E+00  0.0000E+00  0.3000E+00  0.3000E+00
    -35.666  0.0000E+00  0.0000E+00  0.3000E+00  0.3000E+00
    -35.376  0.0000E+00  0.0000E+00  0.3000E+00  0.3000E+00
    -35.087  0.0000E+00  0.0000E+00  0.3000E+00  0.3000E+00
    -34.797  0.0000E+00  0.0000E+00  0.3000E+00  0.3000E+00
    -34.507  0.0000E+00  0.0000E+00  0.3000E+00  0.3000E+00
    -34.218  0.0000E+00  0.0000E+00  0.3000E+00  0.3000E+00
    -33.928  0.0000E+00  0.0000E+00  0.3000E+00  0.3000E+00
    -33.639  0.0000E+00  0.0000E+00  0.3000E+00  0.3000E+00
    -33.349  0.0000E+00  0.0000E+00  0.3000E+00  0.3000E+00
    -33.059  0.0000E+00  0.0000E+00  0.3000E+00  0.3000E+00
    -32.770  0.0000E+00  0.0000E+00  0.3000E+00  0.3000E+00
    -32.480  0.0000E+00  0.0000E+00  0.3000E+00  0.3000E+00
    -32.190  0.0000E+00  0.0000E+00  0.3000E+00  0.3000E+00
    -31.901  0.0000E+00  0.0000E+00  0.3000E+00  0.3000E+00
    -31.611  0.0000E+00  0.0000E+00  0.3000E+00  0.3000E+00
    -31.322  0.0000E+00  0.0000E+00  0.3000E+00  0.3000E+00
    -31.032  0.0000E+00  0.0000E+00  0.3000E+00  0.3000E+00
    -30.742  0.0000E+00  0.0000E+00  0.3000E+00  0.3000E+00
    -30.453  0.0000E+00  0.0000E+00  0.3000E+00  0.3000E+00
    -30.163  0.0000E+00  0.0000E+00  0.3000E+00  0.3000E+00
    -29.873  0.0000E+00  0.0000E+00  0.3000E+00  0.3000E+00
    -29.584  0.0000E+00  0.0000E+00  0.3000E+00  0.3000E+00
    -29.294  0.0000E+00  0.0000E+00  0.3000E+00  0.3000E+00
    -29.005  0.0000E+00  0.0000E+00  0.3000E+00  0.3000E+00
    -28.715  0.0000E+00  0.0000E+00  0.3000E+00  0.3000E+00
    -28.425  0.0000E+00  0.0000E+00  0.3000E+00  0.3000E+00
    -28.136  0.0000E+00  0.0000E+00  0.3000E+00  0.3000E+00
    -27.846  0.0000E+00  0.0000E+00  0.3000E+00  0.3000E+00
    -27.557  0.0000E+00  0.0000E+00  0.3000E+00  0.3000E+00
    -27.267  0.0000E+00  0.0000E+00  0.3000E+00  0.3000E+00
    -26.977  0.0000E+00  0.0000E+00  0.3000E+00  0.3000E+00
    -26.688  0.0000E+00  0.0000E+00  0.3000E+00  0.3000E+00
    -26.398  0.0000E+00  0.0000E+00  0.3000E+00  0.3000E+00
    -26.108  0.0000E+00  0.0000E+00  0.3000E+00  0.3000E+00
    -25.819  0.0000E+00  0.0000E+00  0.3000E+00  0.3000E+00
    -25.529  0.0000E+00  0.0000E+00  0.3000E+00  0.3000E+00
    -25.240  0.0000E+00  0.0000E+00  0.3000E+00  0.3000E+00
    -24.950  0.0000E+00  0.0000E+00  0.3000E+00  0.3000E+00
    -24.660  0.0000E+00  0.0000E+00  0.3000E+00  0.3000E+00
    -24.371  0.0000E+00  0.0000E+00  0.3000E+00  0.3000E+00
    -24.081  0.0000E+00  0.0000E+00  0.3000E+00  0.3000E+00
    -23.791  0.0000E+00  0.0000E+00  0.3000E+00  0.3000E+00
    -23.502  0.0000E+00  0.0000E+00  0.3000E+00  0.3000E+00
    -23.212  0.0000E+00  0.0000E+00  0.3000E+00  0.3000E+00
    -22.923  0.0000E+00  0.0000E+00  0.3000E+00  0.3000E+00
    -22.633  0.0000E+00  0.0000E+00  0.3000E+00  0.3000E+00
    -22.343  0.0000E+00  0.0000E+00  0.3000E+00  0.3000E+00
    -22.054  0.0000E+00  0.0000E+00  0.3000E+00  0.3000E+00
    -21.764  0.0000E+00  0.0000E+00  0.3000E+00  0.3000E+00
    -21.475  0.0000E+00  0.0000E+00  0.3000E+00  0.3000E+00
    -21.185  0.0000E+00  0.0000E+00  0.3000E+00  0.3000E+00
    -20.895  0.0000E+00  0.0000E+00  0.3000E+00  0.3000E+00
    -20.606  0.0000E+00  0.0000E+00  0.3000E+00  0.3000E+00
    -20.316  0.0000E+00  0.0000E+00  0.3000E+00  0.3000E+00
    -20.026  0.0000E+00  0.0000E+00  0.3000E+00  0.3000E+00
    -19.737  0.0000E+00  0.0000E+00  0.3000E+00  0.3000E+00
    -19.447  0.0000E+00  0.0000E+00  0.3000E+00  0.3000E+00
    -19.158  0.0000E+00  0.0000E+00  0.3000E+00  0.3000E+00
    -18.868  0.0000E+00  0.0000E+00  0.3000E+00  0.3000E+00
    -18.578  0.0000E+00  0.0000E+00  0.3000E+00  0.3000E+00
    -18.289  0.0000E+00  0.0000E+00  0.3000E+00  0.3000E+00
    -17.999  0.0000E+00  0.0000E+00  0.3000E+00  0.3000E+00
    -17.709  0.0000E+00  0.0000E+00  0.3000E+00  0.3000E+00
    -17.420  0.0000E+00  0.0000E+00  0.3000E+00  0.3000E+00
    -17.130  0.0000E+00  0.0000E+00  0.3000E+00  0.3000E+00
    -16.841  0.0000E+00  0.0000E+00  0.3000E+00  0.3000E+00
    -16.551  0.0000E+00  0.0000E+00  0.3000E+00  0.3000E+00
    -16.261  0.0000E+00  0.0000E+00  0.3000E+00  0.3000E+00
    -15.972  0.0000E+00  0.0000E+00  0.3000E+00  0.3000E+00
    -15.682  0.0000E+00  0.0000E+00  0.3000E+00  0.3000E+00
    -15.393  0.0000E+00  0.0000E+00  0.3000E+00  0.3000E+00
    -15.103  0.0000E+00  0.0000E+00  0.3000E+00  0.3000E+00
    -14.813  0.0000E+00  0.0000E+00  0.3000E+00  0.3000E+00
    -14.524  0.0000E+00  0.0000E+00  0.3000E+00  0.3000E+00
    -14.234  0.0000E+00  0.0000E+00  0.3000E+00  0.3000E+00
    -13.944  0.0000E+00  0.0000E+00  0.3000E+00  0.3000E+00
    -13.655  0.0000E+00  0.0000E+00  0.3000E+00  0.3000E+00
    -13.365  0.0000E+00  0.0000E+00  0.3000E+00  0.3000E+00
    -13.076  0.0000E+00  0.0000E+00  0.3000E+00  0.3000E+00
    -12.786  0.0000E+00  0.0000E+00  0.3000E+00  0.3000E+00
    -12.496  0.0000E+00  0.0000E+00  0.3000E+00  0.3000E+00
    -12.207  0.0000E+00  0.0000E+00  0.3000E+00  0.3000E+00
    -11.917  0.0000E+00  0.0000E+00  0.3000E+00  0.3000E+00
    -11.627  0.0000E+00  0.0000E+00  0.3000E+00  0.3000E+00
    -11.338  0.0000E+00  0.0000E+00  0.3000E+00  0.3000E+00
    -11.048  0.0000E+00  0.0000E+00  0.3000E+00  0.3000E+00
    -10.759  0.0000E+00  0.0000E+00  0.3000E+00  0.3000E+00
    -10.469  0.0000E+00  0.0000E+00  0.3000E+00  0.3000E+00
    -10.179  0.0000E+00  0.0000E+00  0.3000E+00  0.3000E+00
     -9.890  0.0000E+00  0.0000E+00  0.3000E+00  0.3000E+00
     -9.600  0.0000E+00  0.0000E+00  0.3000E+00  0.3000E+00
     -9.311  0.0000E+00  0.0000E+00  0.3000E+00  0.3000E+00
     -9.021  0.0000E+00  0.0000E+00  0.3000E+00  0.3000E+00
     -8.731  0.0000E+00  0.0000E+00  0.3000E+00  0.3000E+00
     -8.442  0.0000E+00  0.0000E+00  0.3000E+00  0.3000E+00
     -8.152  0.0000E+00  0.0000E+00  0.3000E+00  0.3000E+00
     -7.862  0.0000E+00  0.0000E+00  0.3000E+00  0.3000E+00
     -7.573  0.0000E+00  0.0000E+00  0.3000E+00  0.3000E+00
     -7.283  0.0000E+00  0.0000E+00  0.3000E+00  0.3000E+00
     -6.994  0.0000E+00  0.0000E+00  0.3000E+00  0.3000E+00
     -6.704  0.0000E+00  0.0000E+00  0.3000E+00  0.3000E+00
     -6.414  0.0000E+00  0.0000E+00  0.3000E+00  0.3000E+00
     -6.125  0.0000E+00  0.0000E+00  0.3000E+00  0.3000E+00
     -5.835  0.0000E+00  0.0000E+00  0.3000E+00  0.3000E+00
     -5.545  0.0000E+00  0.0000E+00  0.3000E+00  0.3000E+00
     -5.256  0.0000E+00  0.0000E+00  0.3000E+00  0.3000E+00
     -4.966  0.0000E+00  0.0000E+00  0.3000E+00  0.3000E+00
     -4.677  0.0000E+00  0.0000E+00  0.3000E+00  0.3000E+00
     -4.387  0.0000E+00  0.0000E+00  0.3000E+00  0.3000E+00
     -4.097  0.0000E+00  0.0000E+00  0.3000E+00  0.3000E+00
     -3.808  0.0000E+00  0.0000E+00  0.3000E+00  0.3000E+00
     -3.518  0.0000E+00  0.0000E+00  0.3000E+00  0.3000E+00
     -3.229  0.0000E+00  0.0000E+00  0.3000E+00  0.3000E+00
     -2.939  0.0000E+00  0.0000E+00  0.3000E+00  0.3000E+00
     -2.649  0.0000E+00  0.0000E+00  0.3000E+00  0.3000E+00
     -2.360  0.0000E+00  0.0000E+00  0.3000E+00  0.3000E+00
     -2.070  0.0000E+00  0.0000E+00  0.3000E+00  0.3000E+00
     -1.780  0.0000E+00  0.0000E+00  0.3000E+00  0.3000E+00
     -1.491  0.0000E+00  0.0000E+00  0.3000E+00  0.3000E+00
     -1.201  0.0000E+00  0.0000E+00  0.3000E+00  0.3000E+00
     -0.912  0.0000E+00  0.0000E+00  0.3000E+00  0.3000E+00
     -0.622  0.0000E+00  0.0000E+00  0.3000E+00  0.3000E+00
     -0.332  0.0000E+00  0.0000E+00  0.3000E+00  0.3000E+00
     -0.043  0.0000E+00  0.0000E+00  0.3000E+00  0.3000E+00
      0.247  0.0000E+00  0.0000E+00  0.3000E+00  0.3000E+00
      0.537  0.0000E+00  0.0000E+00  0.3000E+00  0.3000E+00
      0.826  0.0000E+00  0.0000E+00  0.3000E+00  0.3000E+00
      1.116  0.0000E+00  0.0000E+00  0.3000E+00  0.3000E+00
      1.405  0.0000E+00  0.0000E+00  0.3000E+00  0.3000E+00
      1.695 -0.2259E-37 -0.7111E-35  0.3000E+00  0.3000E+00
      1.985 -0.6822E-27 -0.8365E-25  0.3000E+00  0.3000E+00
      2.274 -0.2998E-18 -0.1367E-16  0.3000E+00  0.3000E+00
      2.564 -0.1799E-11 -0.3280E-10  0.3000E+00  0.3000E+00
      2.853 -0.1474E-06 -0.1006E-05  0.3000E+00  0.3000E+00
      3.143 -0.1262E-03 -0.2717E-03  0.3000E+00  0.2999E+00
      3.433  0.1987E-02  0.4723E-02  0.3005E+00  0.3013E+00
      3.722  0.9223E-02  0.6702E-02  0.3032E+00  0.3032E+00
      4.012 -0.2787E-03 -0.3595E-03  0.3031E+00  0.3031E+00
      4.302 -0.1434E-04 -0.3093E-05  0.3031E+00  0.3031E+00
      4.591 -0.1409E-04 -0.7706E-04  0.3031E+00  0.3031E+00
      4.881 -0.1128E-02 -0.1932E-03  0.3028E+00  0.3030E+00
      5.170  0.2239E-01  0.2952E-01  0.3093E+00  0.3116E+00
      5.460  0.1182E-01  0.3365E-02  0.3127E+00  0.3126E+00
      5.750 -0.6922E-03 -0.2656E-03  0.3125E+00  0.3125E+00
      6.039 -0.6484E-03 -0.1145E-02  0.3123E+00  0.3122E+00
      6.329  0.1077E-01  0.2329E-01  0.3154E+00  0.3189E+00
      6.619  0.2684E-01  0.1795E-01  0.3232E+00  0.3241E+00
      6.908  0.6936E-02  0.5342E-01  0.3252E+00  0.3396E+00
      7.198  0.5764E-01  0.3934E-01  0.3419E+00  0.3510E+00
      7.487  0.3812E-01  0.8982E-02  0.3529E+00  0.3536E+00
      7.777  0.3095E-01  0.1463E+00  0.3619E+00  0.3959E+00
      8.067  0.1137E+00  0.3091E-01  0.3948E+00  0.4049E+00
      8.356  0.5184E-01  0.7859E-01  0.4099E+00  0.4277E+00
      8.646  0.8700E-01  0.6068E-01  0.4351E+00  0.4452E+00
      8.935  0.2750E-01  0.6190E-01  0.4430E+00  0.4632E+00
      9.225  0.7388E-01  0.3691E-01  0.4644E+00  0.4738E+00
      9.515  0.5156E-01  0.1035E+00  0.4794E+00  0.5038E+00
      9.804  0.7928E-01  0.8132E-01  0.5023E+00  0.5274E+00
     10.094  0.1206E+00  0.9715E-01  0.5372E+00  0.5555E+00
     10.384  0.4612E-01  0.9686E-01  0.5506E+00  0.5836E+00
     10.673  0.1092E+00  0.1239E+00  0.5822E+00  0.6195E+00
     10.963  0.1285E+00  0.5013E-01  0.6194E+00  0.6340E+00
     11.252  0.1908E-01  0.6702E-01  0.6249E+00  0.6534E+00
     11.542  0.8221E-01  0.1066E+00  0.6487E+00  0.6843E+00
     11.832  0.6530E-01  0.1104E+00  0.6677E+00  0.7162E+00
     12.121  0.1436E+00  0.2406E-01  0.7093E+00  0.7232E+00
     12.411  0.2507E-01  0.1009E+00  0.7165E+00  0.7524E+00
     12.701  0.8137E-01  0.8013E-01  0.7401E+00  0.7756E+00
     12.990  0.1002E+00  0.1513E+00  0.7691E+00  0.8195E+00
     13.280  0.1489E+00  0.5476E-01  0.8122E+00  0.8353E+00
     13.569  0.8057E-01 -0.3218E-02  0.8356E+00  0.8344E+00
     13.859 -0.4105E-02 -0.1700E-04  0.8344E+00  0.8344E+00
     14.149 -0.5185E-04 -0.5762E-04  0.8344E+00  0.8344E+00
     14.438 -0.1084E-03 -0.8207E-03  0.8343E+00  0.8341E+00
     14.728  0.2074E-03  0.3019E-01  0.8344E+00  0.8429E+00
     15.017  0.3167E-01  0.6510E-01  0.8436E+00  0.8617E+00
     15.307  0.6258E-01  0.3038E-02  0.8617E+00  0.8626E+00
     15.597  0.3085E-02 -0.4890E-03  0.8626E+00  0.8625E+00
     15.886 -0.1178E-02  0.1468E-02  0.8623E+00  0.8629E+00
     16.176  0.1482E-01  0.3028E-01  0.8665E+00  0.8716E+00
     16.466  0.1947E-01  0.9106E-03  0.8722E+00  0.8719E+00
     16.755 -0.1057E-02 -0.1326E-03  0.8719E+00  0.8719E+00
     17.045 -0.2209E-04 -0.7768E-03  0.8719E+00  0.8716E+00
     17.334 -0.1127E-02  0.1343E-01  0.8715E+00  0.8755E+00
     17.624  0.2232E-01  0.2082E-01  0.8780E+00  0.8816E+00
     17.914  0.1189E-01 -0.1099E-02  0.8815E+00  0.8813E+00
     18.203 -0.6947E-03 -0.4518E-04  0.8813E+00  0.8812E+00
     18.493 -0.3221E-03 -0.2260E-02  0.8812E+00  0.8806E+00
     18.783  0.3093E-02  0.4693E-01  0.8821E+00  0.8942E+00
     19.072  0.6053E-01  0.2136E-01  0.8996E+00  0.9004E+00
     19.362  0.1688E-02 -0.1259E-02  0.9001E+00  0.9000E+00
     19.651 -0.2536E-03 -0.2924E-05  0.9000E+00  0.9000E+00
     19.941 -0.9985E-07 -0.6481E-10  0.9000E+00  0.9000E+00
     20.231 -0.4570E-12 -0.3714E-10  0.9000E+00  0.9000E+00
     20.520 -0.2780E-08 -0.1599E-05  0.9000E+00  0.9000E+00
     20.810 -0.2435E-04 -0.6513E-03  0.9000E+00  0.8998E+00
     21.099 -0.1091E-02  0.1099E-01  0.8997E+00  0.9030E+00
     21.389  0.2450E-01  0.2337E-01  0.9068E+00  0.9098E+00
     21.679  0.2017E-01  0.2890E-01  0.9126E+00  0.9181E+00
     21.968  0.2224E-01  0.1034E-02  0.9191E+00  0.9184E+00
     22.258 -0.2633E-02  0.2173E-01  0.9183E+00  0.9247E+00
     22.548  0.5615E-01  0.4640E-01  0.9346E+00  0.9382E+00
     22.837  0.1087E-01 -0.2263E-02  0.9377E+00  0.9375E+00
     23.127 -0.7091E-03 -0.1681E-03  0.9375E+00  0.9375E+00
     23.416 -0.3774E-03  0.2160E-02  0.9374E+00  0.9381E+00
     23.706  0.7828E-02  0.9079E-02  0.9397E+00  0.9407E+00
     23.996  0.3506E-02 -0.1145E-02  0.9407E+00  0.9404E+00
     24.285 -0.2391E-02  0.1355E-01  0.9400E+00  0.9443E+00
     24.575  0.5025E-01  0.5397E-01  0.9545E+00  0.9599E+00
     24.865  0.1777E-01 -0.2621E-02  0.9597E+00  0.9592E+00
     25.154 -0.2197E-02  0.1264E-01  0.9590E+00  0.9628E+00
     25.444  0.2326E-01  0.2153E-01  0.9658E+00  0.9691E+00
     25.733  0.1089E-01 -0.1235E-02  0.9689E+00  0.9687E+00
     26.023 -0.1397E-02 -0.1262E-02  0.9685E+00  0.9684E+00
     26.313  0.1061E-01  0.5983E-01  0.9716E+00  0.9857E+00
     26.602  0.7616E-01  0.3895E-01  0.9937E+00  0.9970E+00
     26.892  0.1197E-01 -0.3015E-03  0.9971E+00  0.9969E+00
     27.181 -0.2042E-02 -0.1538E-02  0.9965E+00  0.9964E+00
     27.471  0.1967E-01  0.5641E-01  0.1002E+01  0.1013E+01
     27.761  0.4844E-01  0.1037E-01  0.1016E+01  0.1016E+01
     28.050 -0.3279E-02  0.1073E-02  0.1015E+01  0.1016E+01
     28.340  0.2005E-01  0.2817E-01  0.1021E+01  0.1024E+01
     28.630  0.2880E-01  0.5317E-01  0.1029E+01  0.1040E+01
     28.919  0.5146E-01  0.1511E-01  0.1044E+01  0.1044E+01
     29.209 -0.2093E-02 -0.1338E-02  0.1044E+01  0.1044E+01
     29.498 -0.3197E-02  0.3145E-02  0.1043E+01  0.1045E+01
     29.788  0.5937E-01  0.8928E-01  0.1060E+01  0.1070E+01
     30.078  0.4339E-01  0.5627E-02  0.1073E+01  0.1072E+01
     30.367 -0.2469E-02 -0.5309E-03  0.1072E+01  0.1072E+01
     30.657 -0.1126E-04 -0.5437E-05  0.1072E+01  0.1072E+01
     30.947 -0.2909E-03 -0.1497E-02  0.1072E+01  0.1071E+01
     31.236  0.2473E-02  0.2586E-01  0.1073E+01  0.1079E+01
     31.526  0.5965E-01  0.4259E-01  0.1090E+01  0.1091E+01
     31.815  0.3234E-02 -0.2246E-02  0.1091E+01  0.1091E+01
     32.105 -0.1774E-02 -0.2014E-02  0.1090E+01  0.1090E+01
     32.395  0.2354E-01  0.5254E-01  0.1097E+01  0.1105E+01
     32.684  0.7210E-01  0.4622E-01  0.1118E+01  0.1119E+01
     32.974  0.1176E-02  0.8973E-02  0.1118E+01  0.1121E+01
     33.263  0.5183E-01  0.5740E-01  0.1133E+01  0.1138E+01
     33.553  0.1561E-01 -0.1114E-02  0.1138E+01  0.1138E+01
     33.843 -0.1386E-02 -0.6261E-03  0.1137E+01  0.1137E+01
     34.132  0.7429E-02  0.9171E-02  0.1140E+01  0.1140E+01
     34.422  0.1487E-01  0.1240E-01  0.1144E+01  0.1144E+01
     34.712  0.5990E-02  0.2409E-01  0.1146E+01  0.1151E+01
     35.001  0.2886E-01  0.1424E-01  0.1154E+01  0.1155E+01
     35.291  0.2921E-01  0.2764E-01  0.1162E+01  0.1163E+01
     35.580 -0.2264E-03 -0.6611E-03  0.1162E+01  0.1163E+01
     35.870  0.1292E-01  0.1855E-01  0.1166E+01  0.1168E+01
     36.160  0.1608E-01  0.2286E-01  0.1171E+01  0.1175E+01
     36.449  0.6102E-01  0.6663E-01  0.1188E+01  0.1194E+01
     36.739  0.3009E-01  0.1115E-01  0.1197E+01  0.1197E+01
     37.029  0.5050E-03  0.4197E-02  0.1197E+01  0.1198E+01
     37.318  0.9647E-02  0.6411E-02  0.1200E+01  0.1200E+01
     37.608 -0.1394E-03 -0.3497E-03  0.1200E+01  0.1200E+01
     37.897 -0.2193E-04 -0.2619E-05  0.1200E+01  0.1200E+01
     38.187 -0.5076E-08 -0.1471E-09  0.1200E+01  0.1200E+01
     38.477 -0.1402E-13 -0.1054E-15  0.1200E+01  0.1200E+01
     38.766  0.0000E+00  0.0000E+00  0.1200E+01  0.1200E+01
     39.056  0.0000E+00  0.0000E+00  0.1200E+01  0.1200E+01
     39.345  0.0000E+00  0.0000E+00  0.1200E+01  0.1200E+01
     39.635  0.0000E+00  0.0000E+00  0.1200E+01  0.1200E+01
     39.925  0.0000E+00  0.0000E+00  0.1200E+01  0.1200E+01
     40.214  0.0000E+00  0.0000E+00  0.1200E+01  0.1200E+01
     40.504  0.0000E+00  0.0000E+00  0.1200E+01  0.1200E+01
     40.794  0.0000E+00  0.0000E+00  0.1200E+01  0.1200E+01
     41.083  0.0000E+00  0.0000E+00  0.1200E+01  0.1200E+01
