    4    4   40    2
  0.1023915E+02  0.3447000E-09  0.3447000E-09  0.3447000E-09  0.5000000E-15
  1.000000000000000E-004
  CAR 
 automatically generated by pyflamestk   
     56      4     48
 
  0.1250000E+00  0.1250000E+00  0.1250000E+00  0.1250000E+00
    1      -41.415213    -41.807555   1.000000   1.000000
    2      -41.415213    -41.807555   1.000000   1.000000
    3      -41.415213    -41.807555   1.000000   1.000000
    4      -41.083848    -41.481360   1.000000   1.000000
    5      -41.083848    -41.481360   1.000000   1.000000
    6      -41.083848    -41.481360   1.000000   1.000000
    7      -41.024076    -41.422299   1.000000   1.000000
    8      -41.024076    -41.422299   1.000000   1.000000
    9      -41.024076    -41.422299   1.000000   1.000000
   10      -40.902276    -41.301654   1.000000   1.000000
   11      -40.814665    -41.215622   1.000000   1.000000
   12      -40.814665    -41.215622   1.000000   1.000000
   13        3.518152      3.453510   1.000000   1.000000
   14        7.154960      6.825598   1.000000   1.000000
   15        7.154960      6.825598   1.000000   1.000000
   16        7.154960      6.825598   1.000000   1.000000
   17        7.833605      7.641063   1.000000   1.000000
   18        7.833605      7.641063   1.000000   1.000000
   19        7.833605      7.641063   1.000000   1.000000
   20       10.065411      9.834653   1.000000   1.000000
   21       10.493724     10.247219   1.000000   1.000000
   22       10.493724     10.247219   1.000000   1.000000
   23       11.912401     11.531363   0.565846   1.008436
   24       11.912401     11.531363   0.565846   1.008436
   25       11.912401     11.699466   0.565846   1.034302
   26       12.052896     11.699466   0.069335   1.034302
   27       12.052896     11.699466   0.069335   1.034302
   28       12.774423     12.290810  -0.000000  -0.013900
   29       12.774423     12.290810  -0.000000  -0.013900
   30       12.774423     12.290810  -0.000000  -0.013900
   31       13.359131     13.025034  -0.000000  -0.000000
   32       13.359131     13.025034  -0.000000  -0.000000
   33       13.359131     13.025034  -0.000000  -0.000000
   34       16.192164     16.026091  -0.000000  -0.000000
   35       16.192164     16.026091  -0.000000  -0.000000
   36       16.192164     16.026091  -0.000000  -0.000000
   37       25.399221     25.185305   0.000000   0.000000
   38       25.399221     25.185305   0.000000   0.000000
   39       25.399221     25.185305   0.000000   0.000000
   40       26.577473     26.441518   0.000000   0.000000
   41       26.577473     26.441518   0.000000   0.000000
   42       26.577473     26.441518   0.000000   0.000000
   43       29.797367     29.686663   0.000000   0.000000
   44       29.797367     29.686663   0.000000   0.000000
   45       29.797367     29.686663   0.000000   0.000000
   46       34.150661     34.108369   0.000000   0.000000
   47       35.847529     35.748905   0.000000   0.000000
   48       35.847529     35.748905   0.000000   0.000000
 
  0.3750000E+00  0.1250000E+00  0.1250000E+00  0.3750000E+00
    1      -41.342028    -41.735619   1.000000   1.000000
    2      -41.342028    -41.735619   1.000000   1.000000
    3      -41.288868    -41.682907   1.000000   1.000000
    4      -41.177069    -41.573096   1.000000   1.000000
    5      -41.177069    -41.573096   1.000000   1.000000
    6      -41.086415    -41.483287   1.000000   1.000000
    7      -41.015776    -41.414055   1.000000   1.000000
    8      -41.015776    -41.414055   1.000000   1.000000
    9      -40.984654    -41.383271   1.000000   1.000000
   10      -40.964188    -41.363199   1.000000   1.000000
   11      -40.877192    -41.277311   1.000000   1.000000
   12      -40.866270    -41.266436   1.000000   1.000000
   13        5.132750      5.057397   1.000000   1.000000
   14        7.039741      6.841088   1.000000   1.000000
   15        8.023160      7.680177   1.000000   1.000000
   16        8.023160      7.680177   1.000000   1.000000
   17        8.459727      8.255845   1.000000   1.000000
   18        8.543048      8.345706   1.000000   1.000000
   19        8.543048      8.345706   1.000000   1.000000
   20        9.399468      9.183423   1.000000   1.000000
   21       10.042764      9.840833   1.000000   1.000000
   22       10.042764      9.840833   1.000000   1.000000
   23       10.684240     10.385589   1.000000   1.000000
   24       10.737140     10.389937   1.000000   1.000000
   25       10.955631     10.671018   1.000000   1.000000
   26       11.767249     11.382040   0.991021   1.000390
   27       11.847562     11.495462   0.811806   1.004563
   28       12.076065     11.580889   0.026856   1.017023
   29       12.076065     11.580889   0.026856   1.017023
   30       12.507535     12.012326  -0.000164   0.175973
   31       13.083148     12.635478  -0.000000  -0.000003
   32       13.195538     12.906929  -0.000000  -0.000000
   33       13.195538     12.906929  -0.000000  -0.000000
   34       13.235477     12.958875  -0.000000  -0.000000
   35       18.920968     18.736385   0.000000   0.000000
   36       18.920968     18.736385   0.000000   0.000000
   37       22.457046     22.301943   0.000000   0.000000
   38       22.457046     22.301943   0.000000   0.000000
   39       26.399090     26.211692   0.000000   0.000000
   40       26.399090     26.211692   0.000000   0.000000
   41       28.312334     28.184384   0.000000   0.000000
   42       28.698627     28.558944   0.000000   0.000000
   43       28.698627     28.558944   0.000000   0.000000
   44       31.359710     31.250823   0.000000   0.000000
   45       31.408957     31.281187   0.000000   0.000000
   46       32.475091     32.353533   0.000000   0.000000
   47       35.133140     35.093631   0.000000   0.000000
   48       36.324936     36.235124   0.000000   0.000000
 
  0.3750000E+00  0.3750000E+00  0.1250000E+00  0.3750000E+00
    1      -41.364059    -41.757432   1.000000   1.000000
    2      -41.349698    -41.743154   1.000000   1.000000
    3      -41.349698    -41.743154   1.000000   1.000000
    4      -41.244460    -41.639282   1.000000   1.000000
    5      -41.145273    -41.541574   1.000000   1.000000
    6      -41.049843    -41.447492   1.000000   1.000000
    7      -41.049843    -41.447492   1.000000   1.000000
    8      -40.940808    -41.339950   1.000000   1.000000
    9      -40.940513    -41.339701   1.000000   1.000000
   10      -40.927585    -41.326899   1.000000   1.000000
   11      -40.927585    -41.326899   1.000000   1.000000
   12      -40.852015    -41.252310   1.000000   1.000000
   13        6.372675      6.281656   1.000000   1.000000
   14        7.808320      7.634638   1.000000   1.000000
   15        7.808320      7.634638   1.000000   1.000000
   16        8.234475      8.049618   1.000000   1.000000
   17        8.924046      8.572798   1.000000   1.000000
   18        9.093987      8.828284   1.000000   1.000000
   19        9.093987      8.828284   1.000000   1.000000
   20        9.477712      9.279970   1.000000   1.000000
   21        9.759547      9.486716   1.000000   1.000000
   22        9.759547      9.486716   1.000000   1.000000
   23        9.930010      9.735655   1.000000   1.000000
   24       10.385548     10.031779   1.000000   1.000000
   25       10.903087     10.521382   1.000000   1.000000
   26       11.437273     10.989840   1.001420   1.000000
   27       11.437273     11.020221   1.001420   1.000000
   28       11.447025     11.020221   1.001752   1.000000
   29       11.897553     11.521777   0.627253   1.007219
   30       12.676575     12.334293  -0.000001  -0.007214
   31       12.676575     12.334293  -0.000001  -0.007214
   32       12.778913     12.461978  -0.000000  -0.000525
   33       13.304948     12.912411  -0.000000  -0.000000
   34       15.170082     14.881063  -0.000000  -0.000000
   35       15.170082     14.881063  -0.000000  -0.000000
   36       17.586902     17.360420   0.000000  -0.000000
   37       21.720037     21.552287   0.000000   0.000000
   38       24.514847     24.363141   0.000000   0.000000
   39       24.514847     24.363141   0.000000   0.000000
   40       27.509750     27.375452   0.000000   0.000000
   41       27.538476     27.382333   0.000000   0.000000
   42       29.754957     29.632298   0.000000   0.000000
   43       29.754957     29.632298   0.000000   0.000000
   44       32.390554     32.301631   0.000000   0.000000
   45       33.194462     33.073701   0.000000   0.000000
   46       33.194462     33.073701   0.000000   0.000000
   47       34.788666     34.652458   0.000000   0.000000
   48       36.236471     36.174031   0.000000   0.000000
 
  0.3750000E+00  0.3750000E+00  0.3750000E+00  0.1250000E+00
    1      -41.461199    -41.853190   1.000000   1.000000
    2      -41.461199    -41.853190   1.000000   1.000000
    3      -41.461199    -41.853190   1.000000   1.000000
    4      -41.403901    -41.796649   1.000000   1.000000
    5      -40.953625    -41.352572   1.000000   1.000000
    6      -40.953625    -41.352572   1.000000   1.000000
    7      -40.953625    -41.352572   1.000000   1.000000
    8      -40.916504    -41.315941   1.000000   1.000000
    9      -40.916504    -41.315941   1.000000   1.000000
   10      -40.916504    -41.315941   1.000000   1.000000
   11      -40.876108    -41.276008   1.000000   1.000000
   12      -40.876108    -41.276008   1.000000   1.000000
   13        6.657915      6.527674   1.000000   1.000000
   14        7.294431      7.132993   1.000000   1.000000
   15        7.294431      7.132993   1.000000   1.000000
   16        7.294431      7.132993   1.000000   1.000000
   17        9.797102      9.414698   1.000000   1.000000
   18        9.797102      9.414698   1.000000   1.000000
   19        9.797102      9.414698   1.000000   1.000000
   20       10.421521     10.048045   1.000000   1.000000
   21       10.421521     10.048045   1.000000   1.000000
   22       10.649759     10.258559   1.000000   1.000000
   23       10.649759     10.258559   1.000000   1.000000
   24       10.649759     10.258559   1.000000   1.000000
   25       10.676258     10.544615   1.000000   1.000000
   26       10.718150     10.544615   1.000000   1.000000
   27       10.718150     10.544615   1.000000   1.000000
   28       10.718150     10.558550   1.000000   1.000000
   29       12.874746     12.481148  -0.000000  -0.000326
   30       12.874746     12.481148  -0.000000  -0.000326
   31       13.232642     12.848708  -0.000000  -0.000000
   32       13.232642     12.848708  -0.000000  -0.000000
   33       13.232642     12.848708  -0.000000  -0.000000
   34       14.887270     14.628908  -0.000000  -0.000000
   35       14.887270     14.628908  -0.000000  -0.000000
   36       14.887270     14.628908  -0.000000  -0.000000
   37       21.328675     21.142507   0.000000   0.000000
   38       21.328675     21.142507   0.000000   0.000000
   39       21.328675     21.142507   0.000000   0.000000
   40       23.659775     23.497032   0.000000   0.000000
   41       32.590167     32.534804   0.000000   0.000000
   42       32.590167     32.534804   0.000000   0.000000
   43       32.590167     32.534804   0.000000   0.000000
   44       34.201564     34.207881   0.000000   0.000000
   45       36.547355     36.423353   0.000000   0.000000
   46       36.547355     36.423353   0.000000   0.000000
   47       36.547355     36.423353   0.000000   0.000000
   48       37.133817     37.043138   0.000000   0.000000
