       N       E                     dE             d eps       ncg     rms          rms(c)
DAV:   1    -0.153649932171E+04   -0.15365E+04   -0.45274E+04   912   0.240E+03
DAV:   2    -0.187064772316E+04   -0.33415E+03   -0.32667E+03   880   0.425E+02
DAV:   3    -0.188116603239E+04   -0.10518E+02   -0.10433E+02   784   0.669E+01
DAV:   4    -0.188141782403E+04   -0.25179E+00   -0.25170E+00   960   0.113E+01
DAV:   5    -0.188143019605E+04   -0.12372E-01   -0.12372E-01   912   0.232E+00    0.196E+02
DAV:   6    -0.376161973934E+03    0.15053E+04   -0.55580E+02   880   0.159E+02    0.110E+02
DAV:   7    -0.392772654060E+03   -0.16611E+02   -0.35437E+03   864   0.333E+02    0.144E+02
DAV:   8    -0.604841721907E+02    0.33229E+03   -0.62625E+02   848   0.283E+02    0.413E+01
DAV:   9    -0.101887507531E+03   -0.41403E+02   -0.62864E+02   816   0.218E+02    0.620E+01
DAV:  10    -0.451737796428E+02    0.56714E+02   -0.29361E+02   816   0.133E+02    0.264E+01
DAV:  11    -0.336913565476E+02    0.11482E+02   -0.54189E+01   800   0.724E+01    0.954E+00
DAV:  12    -0.341892444379E+02   -0.49789E+00   -0.92587E-01   896   0.528E+00    0.104E+01
DAV:  13    -0.336497025787E+02    0.53954E+00   -0.84184E-02   864   0.283E+00    0.892E+00
DAV:  14    -0.321559455393E+02    0.14938E+01   -0.25146E+00   800   0.159E+01    0.195E+00
DAV:  15    -0.321698655132E+02   -0.13920E-01   -0.20046E-02   800   0.700E-01    0.167E+00
DAV:  16    -0.321836890527E+02   -0.13824E-01   -0.17992E-02   848   0.136E+00    0.833E-01
DAV:  17    -0.321965337706E+02   -0.12845E-01   -0.81276E-03   832   0.819E-01    0.795E-01
DAV:  18    -0.321890849247E+02    0.74488E-02   -0.81036E-03   848   0.818E-01    0.363E-01
DAV:  19    -0.321875029948E+02    0.15819E-02   -0.75932E-03   816   0.861E-01    0.133E-01
DAV:  20    -0.321874509620E+02    0.52033E-04   -0.34035E-04   816   0.167E-01    0.582E-02
DAV:  21    -0.321874535283E+02   -0.25663E-05   -0.10985E-04   848   0.928E-02    0.315E-02
DAV:  22    -0.321874745449E+02   -0.21017E-04   -0.38914E-05   848   0.273E-02    0.269E-02
DAV:  23    -0.321874848611E+02   -0.10316E-04   -0.10631E-05   880   0.142E-02    0.188E-02
DAV:  24    -0.321874869711E+02   -0.21101E-05   -0.14750E-05   800   0.362E-02    0.107E-02
DAV:  25    -0.321874880986E+02   -0.11274E-05   -0.92214E-07   448   0.673E-03    0.662E-03
DAV:  26    -0.321874884409E+02   -0.34230E-06   -0.58664E-07   384   0.466E-03
   1 F= -.32187488E+02 E0= -.32184005E+02  d E =-.321875E+02  mag=    -1.5974
       N       E                     dE             d eps       ncg     rms          rms(c)
DAV:   1    -0.952108359495E+02   -0.63023E+02   -0.47628E+02   800   0.223E+02    0.608E+01
DAV:   2    -0.329326778722E+02    0.62278E+02   -0.12700E+02   800   0.141E+02    0.113E+01
DAV:   3    -0.310942233727E+02    0.18385E+01   -0.41554E+00   832   0.168E+01    0.777E+00
DAV:   4    -0.303174890031E+02    0.77673E+00   -0.43607E-01   784   0.487E+00    0.217E+00
DAV:   5    -0.302924913765E+02    0.24998E-01   -0.93096E-02   800   0.287E+00    0.662E-01
DAV:   6    -0.302860783131E+02    0.64131E-02   -0.51761E-03   848   0.656E-01    0.213E-01
DAV:   7    -0.302854159475E+02    0.66237E-03   -0.38834E-04   768   0.113E-01    0.102E-01
DAV:   8    -0.302849581789E+02    0.45777E-03   -0.24151E-05   832   0.485E-02    0.136E-02
DAV:   9    -0.302849434482E+02    0.14731E-04   -0.11623E-05   816   0.237E-02    0.600E-03
DAV:  10    -0.302849431198E+02    0.32831E-06   -0.47103E-07   448   0.465E-03
   2 F= -.30284943E+02 E0= -.30285090E+02  d E =0.190255E+01  mag=    -1.2318
       N       E                     dE             d eps       ncg     rms          rms(c)
DAV:   1    -0.785377625354E+02   -0.48253E+02   -0.42387E+02   768   0.245E+02    0.539E+01
DAV:   2    -0.365397725933E+02    0.41998E+02   -0.11585E+02   832   0.977E+01    0.114E+01
DAV:   3    -0.328958095529E+02    0.36440E+01   -0.64817E+00   800   0.267E+01    0.509E+00
DAV:   4    -0.323240531382E+02    0.57176E+00   -0.42819E-01   864   0.473E+00    0.988E-01
DAV:   5    -0.323408498848E+02   -0.16797E-01   -0.24278E-02   816   0.884E-01    0.275E-01
DAV:   6    -0.323412600569E+02   -0.41017E-03   -0.94472E-04   864   0.174E-01    0.175E-01
DAV:   7    -0.323402861757E+02    0.97388E-03   -0.18454E-04   832   0.920E-02    0.636E-02
DAV:   8    -0.323401742802E+02    0.11190E-03   -0.36741E-05   768   0.433E-02    0.157E-02
DAV:   9    -0.323401817597E+02   -0.74795E-05   -0.68935E-06   768   0.139E-02    0.540E-03
DAV:  10    -0.323401818173E+02   -0.57529E-07   -0.55753E-07   416   0.340E-03
   3 F= -.32340182E+02 E0= -.32336258E+02  d E =-.152693E+00  mag=    -1.4320
       N       E                     dE             d eps       ncg     rms          rms(c)
DAV:   1    -0.323529667906E+02   -0.12785E-01   -0.89855E-02   768   0.332E+00    0.895E-01
DAV:   2    -0.323420064888E+02    0.10960E-01   -0.31827E-02   832   0.195E+00    0.232E-01
DAV:   3    -0.323408550045E+02    0.11515E-02   -0.23655E-03   816   0.508E-01    0.950E-02
DAV:   4    -0.323407055652E+02    0.14944E-03   -0.91744E-05   864   0.686E-02    0.207E-02
DAV:   5    -0.323407095082E+02   -0.39430E-05   -0.10691E-05   832   0.183E-02    0.737E-03
DAV:   6    -0.323407078711E+02    0.16371E-05   -0.41934E-07   416   0.387E-03    0.287E-03
DAV:   7    -0.323407062195E+02    0.16517E-05   -0.10351E-07   384   0.198E-03    0.106E-03
DAV:   8    -0.323407056473E+02    0.57211E-06   -0.18750E-08   384   0.801E-04
   4 F= -.32340706E+02 E0= -.32336850E+02  d E =-.153217E+00  mag=    -1.4248
