 vasp.5.4.4.18Apr17-6-g9f103f2a35 (build Feb 28 2019 12:03:04) complex          
  
 executed on             LinuxIFC date 2019.09.03  03:58:22
 running on   16 total cores
 distrk:  each k-point on   16 cores,    1 groups
 distr:  one band on NCORES_PER_BAND=   1 cores,   16 groups


--------------------------------------------------------------------------------------------------------


 INCAR:
 POTCAR:    PAW_PBE Fe_pv 02Aug2007               

 ----------------------------------------------------------------------------- 
|                                                                             |
|           W    W    AA    RRRRR   N    N  II  N    N   GGGG   !!!           |
|           W    W   A  A   R    R  NN   N  II  NN   N  G    G  !!!           |
|           W    W  A    A  R    R  N N  N  II  N N  N  G       !!!           |
|           W WW W  AAAAAA  RRRRR   N  N N  II  N  N N  G  GGG   !            |
|           WW  WW  A    A  R   R   N   NN  II  N   NN  G    G                |
|           W    W  A    A  R    R  N    N  II  N    N   GGGG   !!!           |
|                                                                             |
|      For optimal performance we recommend to set                            |
|        NCORE= 4 - approx SQRT( number of cores)                             |
|      NCORE specifies how many cores store one orbital (NPAR=cpu/NCORE).     |
|      This setting can  greatly improve the performance of VASP for DFT.     |
|      The default,   NCORE=1            might be grossly inefficient         |
|      on modern multi-core architectures or massively parallel machines.     |
|      Do your own testing !!!!                                               |
|      Unfortunately you need to use the default for GW and RPA calculations. |
|      (for HF NCORE is supported but not extensively tested yet)             |
|                                                                             |
 ----------------------------------------------------------------------------- 

 POTCAR:    PAW_PBE Fe_pv 02Aug2007               
   VRHFIN =Fe:  3pd7s1                                                          
   LEXCH  = PE                                                                  
   EATOM  =  2457.4247 eV,  180.6156 Ry                                         
                                                                                
   TITEL  = PAW_PBE Fe_pv 02Aug2007                                             
   LULTRA =        F    use ultrasoft PP ?                                      
   IUNSCR =        1    unscreen: 0-lin 1-nonlin 2-no                           
   RPACOR =    1.750    partial core radius                                     
   POMASS =   55.847; ZVAL   =   14.000    mass and valenz                      
   RCORE  =    2.200    outmost cutoff radius                                   
   RWIGS  =    2.200; RWIGS  =    1.164    wigner-seitz radius (au A)           
   ENMAX  =  293.238; ENMIN  =  219.928 eV                                      
   ICORE  =        3    local potential                                         
   LCOR   =        T    correct aug charges                                     
   LPAW   =        T    paw PP                                                  
   EAUG   =  578.342                                                            
   DEXC   =    0.000                                                            
   RMAX   =    2.693    core radius for proj-oper                               
   RAUG   =    1.300    factor for augmentation sphere                          
   RDEP   =    2.296    radius for radial grids                                 
   QCUT   =   -4.642; QGAM   =    9.285    optimization parameters              
                                                                                
   Description                                                                  
     l     E      TYP  RCUT    TYP  RCUT                                        
     1   -55.64     23  2.000                                                   
     1    -5.44     23  2.000                                                   
     2    -3.82     23  2.200                                                   
     2    -5.18     23  2.200                                                   
     0    -4.26     23  2.200                                                   
     0    27.21     23  2.200                                                   
     3    -1.36     23  2.200                                                   
  local pseudopotential read in
  partial core-charges read in
  atomic valenz-charges read in
  non local Contribution for L=           1  read in
    real space projection operators read in
  non local Contribution for L=           1  read in
    real space projection operators read in
  non local Contribution for L=           2  read in
    real space projection operators read in
  non local Contribution for L=           2  read in
    real space projection operators read in
  non local Contribution for L=           0  read in
    real space projection operators read in
  non local Contribution for L=           0  read in
    real space projection operators read in
    PAW grid and wavefunctions read in
 
   number of l-projection  operators is LMAX  =           6
   number of lm-projection operators is LMMAX =          18
 
  PAW_PBE Fe_pv 02Aug2007               :
 energy of atom  1       EATOM=-2457.4247
 kinetic energy error for atom=    0.1426 (will be added to EATOM!!)
 
 
 POSCAR: Automatically generated by pypospack    
  positions in direct lattice
  No initial velocities read in
 exchange correlation table for  LEXCH =        8
   RHO(1)=    0.500       N(1)  =     2000
   RHO(2)=  100.500       N(2)  =     4000
 


--------------------------------------------------------------------------------------------------------


 ion  position               nearest neighbor table
   1  0.000  0.000  0.000-   2 2.44   3 2.44   4 2.44   3 2.44   4 2.44   2 2.44   4 2.44   4 2.44
                             2 2.44   3 2.44   3 2.44   2 2.44
   2  0.500  0.500  0.000-   1 2.44   3 2.44   4 2.44   3 2.44   4 2.44   1 2.44   3 2.44   3 2.44
                             1 2.44   4 2.44   4 2.44   1 2.44
   3  0.500  0.000  0.500-   1 2.44   2 2.44   4 2.44   1 2.44   2 2.44   2 2.44   4 2.44   2 2.44
                             1 2.44   4 2.44   1 2.44   4 2.44
   4  0.000  0.500  0.500-   1 2.44   2 2.44   3 2.44   1 2.44   2 2.44   1 2.44   3 2.44   1 2.44
                             2 2.44   3 2.44   2 2.44   3 2.44
 
  LATTYP: Found a simple cubic cell.
 ALAT       =     3.4470000000
  
  Lattice vectors:
  
 A1 = (   3.4470000000,   0.0000000000,   0.0000000000)
 A2 = (   0.0000000000,   3.4470000000,   0.0000000000)
 A3 = (   0.0000000000,   0.0000000000,   3.4470000000)


Analysis of symmetry for initial positions (statically):
=====================================================================
 Subroutine PRICEL returns following result:
 
  LATTYP: Found a face centered cubic cell.
 ALAT       =     3.4470000000
  
  Lattice vectors:
  
 A1 = (   1.7235000000,   1.7235000000,  -0.0000000000)
 A2 = (   1.7235000000,   0.0000000000,  -1.7235000000)
 A3 = (   0.0000000000,   1.7235000000,  -1.7235000000)
 
   4 primitive cells build up your supercell.
 

 Routine SETGRP: Setting up the symmetry group for a 
 simple cubic supercell.


 Subroutine GETGRP returns: Found 48 space group operations
 (whereof 48 operations were pure point group operations)
 out of a pool of 48 trial point group operations.


The static configuration has the point symmetry O_h .


Analysis of symmetry for dynamics (positions and initial velocities):
=====================================================================
 Subroutine PRICEL returns following result:
 
  LATTYP: Found a face centered cubic cell.
 ALAT       =     3.4470000000
  
  Lattice vectors:
  
 A1 = (   1.7235000000,   1.7235000000,  -0.0000000000)
 A2 = (   1.7235000000,   0.0000000000,  -1.7235000000)
 A3 = (   0.0000000000,   1.7235000000,  -1.7235000000)
 
   4 primitive cells build up your supercell.
 

 Routine SETGRP: Setting up the symmetry group for a 
 simple cubic supercell.


 Subroutine GETGRP returns: Found 48 space group operations
 (whereof 48 operations were pure point group operations)
 out of a pool of 48 trial point group operations.


The dynamic configuration has the point symmetry O_h .


Analysis of structural, dynamic, and magnetic symmetry:
=====================================================================
 Subroutine PRICEL returns following result:
 
  LATTYP: Found a face centered cubic cell.
 ALAT       =     3.4470000000
  
  Lattice vectors:
  
 A1 = (   1.7235000000,   1.7235000000,  -0.0000000000)
 A2 = (   1.7235000000,   0.0000000000,  -1.7235000000)
 A3 = (   0.0000000000,   1.7235000000,  -1.7235000000)
 
   4 primitive cells build up your supercell.
 

 Routine SETGRP: Setting up the symmetry group for a 
 simple cubic supercell.


 Subroutine GETGRP returns: Found 48 space group operations
 (whereof 48 operations were pure point group operations)
 out of a pool of 48 trial point group operations.


The magnetic configuration has the point symmetry O_h .


 Subroutine INISYM returns: Found 48 space group operations
 (whereof 48 operations are pure point group operations),
 and found     4 'primitive' translations

 
 
 KPOINTS: Automatic Mesh                          

Automatic generation of k-mesh.
Space group operators:
 irot       det(A)        alpha          n_x          n_y          n_z        tau_x        tau_y        tau_z
    1     1.000000     0.000001     1.000000     0.000000     0.000000     0.000000     0.000000     0.000000
    2    -1.000000     0.000001     1.000000     0.000000     0.000000     0.000000     0.000000     0.000000
    3     1.000000   120.000000    -0.577350    -0.577350    -0.577350     0.000000     0.000000     0.000000
    4    -1.000000   120.000000    -0.577350    -0.577350    -0.577350     0.000000     0.000000     0.000000
    5     1.000000   120.000000     0.577350     0.577350     0.577350     0.000000     0.000000     0.000000
    6    -1.000000   120.000000     0.577350     0.577350     0.577350     0.000000     0.000000     0.000000
    7     1.000000    90.000000     0.000000     0.000000    -1.000000     0.000000     0.000000     0.000000
    8    -1.000000    90.000000     0.000000     0.000000    -1.000000     0.000000     0.000000     0.000000
    9     1.000000   180.000000     0.000000     0.707107     0.707107     0.000000     0.000000     0.000000
   10    -1.000000   180.000000     0.000000     0.707107     0.707107     0.000000     0.000000     0.000000
   11     1.000000    90.000000     0.000000     1.000000     0.000000     0.000000     0.000000     0.000000
   12    -1.000000    90.000000     0.000000     1.000000     0.000000     0.000000     0.000000     0.000000
   13     1.000000   180.000000     0.000000     0.000000     1.000000     0.000000     0.000000     0.000000
   14    -1.000000   180.000000     0.000000     0.000000     1.000000     0.000000     0.000000     0.000000
   15     1.000000   120.000000    -0.577350     0.577350     0.577350     0.000000     0.000000     0.000000
   16    -1.000000   120.000000    -0.577350     0.577350     0.577350     0.000000     0.000000     0.000000
   17     1.000000   120.000000    -0.577350     0.577350    -0.577350     0.000000     0.000000     0.000000
   18    -1.000000   120.000000    -0.577350     0.577350    -0.577350     0.000000     0.000000     0.000000
   19     1.000000    90.000000     0.000000     0.000000     1.000000     0.000000     0.000000     0.000000
   20    -1.000000    90.000000     0.000000     0.000000     1.000000     0.000000     0.000000     0.000000
   21     1.000000    90.000000    -1.000000     0.000000     0.000000     0.000000     0.000000     0.000000
   22    -1.000000    90.000000    -1.000000     0.000000     0.000000     0.000000     0.000000     0.000000
   23     1.000000   180.000000     0.707107     0.000000     0.707107     0.000000     0.000000     0.000000
   24    -1.000000   180.000000     0.707107     0.000000     0.707107     0.000000     0.000000     0.000000
   25     1.000000   120.000000     0.577350    -0.577350     0.577350     0.000000     0.000000     0.000000
   26    -1.000000   120.000000     0.577350    -0.577350     0.577350     0.000000     0.000000     0.000000
   27     1.000000   120.000000    -0.577350    -0.577350     0.577350     0.000000     0.000000     0.000000
   28    -1.000000   120.000000    -0.577350    -0.577350     0.577350     0.000000     0.000000     0.000000
   29     1.000000   180.000000     1.000000     0.000000     0.000000     0.000000     0.000000     0.000000
   30    -1.000000   180.000000     1.000000     0.000000     0.000000     0.000000     0.000000     0.000000
   31     1.000000    90.000000     0.000000    -1.000000     0.000000     0.000000     0.000000     0.000000
   32    -1.000000    90.000000     0.000000    -1.000000     0.000000     0.000000     0.000000     0.000000
   33     1.000000   180.000000     0.707107     0.707107     0.000000     0.000000     0.000000     0.000000
   34    -1.000000   180.000000     0.707107     0.707107     0.000000     0.000000     0.000000     0.000000
   35     1.000000    90.000000     1.000000     0.000000     0.000000     0.000000     0.000000     0.000000
   36    -1.000000    90.000000     1.000000     0.000000     0.000000     0.000000     0.000000     0.000000
   37     1.000000   120.000000     0.577350    -0.577350    -0.577350     0.000000     0.000000     0.000000
   38    -1.000000   120.000000     0.577350    -0.577350    -0.577350     0.000000     0.000000     0.000000
   39     1.000000   180.000000     0.000000     1.000000     0.000000     0.000000     0.000000     0.000000
   40    -1.000000   180.000000     0.000000     1.000000     0.000000     0.000000     0.000000     0.000000
   41     1.000000   120.000000     0.577350     0.577350    -0.577350     0.000000     0.000000     0.000000
   42    -1.000000   120.000000     0.577350     0.577350    -0.577350     0.000000     0.000000     0.000000
   43     1.000000   180.000000     0.000000    -0.707107     0.707107     0.000000     0.000000     0.000000
   44    -1.000000   180.000000     0.000000    -0.707107     0.707107     0.000000     0.000000     0.000000
   45     1.000000   180.000000     0.707107    -0.707107     0.000000     0.000000     0.000000     0.000000
   46    -1.000000   180.000000     0.707107    -0.707107     0.000000     0.000000     0.000000     0.000000
   47     1.000000   180.000000     0.707107     0.000000    -0.707107     0.000000     0.000000     0.000000
   48    -1.000000   180.000000     0.707107     0.000000    -0.707107     0.000000     0.000000     0.000000
 
 Subroutine IBZKPT returns following result:
 ===========================================
 
 Found      4 irreducible k-points:
 
 Following reciprocal coordinates:
            Coordinates               Weight
  0.125000  0.125000  0.125000      8.000000
  0.375000  0.125000  0.125000     24.000000
  0.375000  0.375000  0.125000     24.000000
  0.375000  0.375000  0.375000      8.000000
 
 Following cartesian coordinates:
            Coordinates               Weight
  0.125000  0.125000  0.125000      8.000000
  0.375000  0.125000  0.125000     24.000000
  0.375000  0.375000  0.125000     24.000000
  0.375000  0.375000  0.375000      8.000000
 


--------------------------------------------------------------------------------------------------------




 Dimension of arrays:
   k-points           NKPTS =      4   k-points in BZ     NKDIM =      4   number of bands    NBANDS=     48
   number of dos      NEDOS =    301   number of ions     NIONS =      4
   non local maximal  LDIM  =      6   non local SUM 2l+1 LMDIM =     18
   total plane-waves  NPLWV =   5832
   max r-space proj   IRMAX =      1   max aug-charges    IRDMAX=   4416
   dimension x,y,z NGX =    18 NGY =   18 NGZ =   18
   dimension x,y,z NGXF=    36 NGYF=   36 NGZF=   36
   support grid    NGXF=    36 NGYF=   36 NGZF=   36
   ions per type =               4
   NGX,Y,Z   is equivalent  to a cutoff of   8.68,  8.68,  8.68 a.u.
   NGXF,Y,Z  is equivalent  to a cutoff of  17.36, 17.36, 17.36 a.u.

 SYSTEM =  automatically generated by pyflamestk   
 POSCAR =  Automatically generated by pypospack    

 Startparameter for this run:
   NWRITE =      2    write-flag & timer
   PREC   = high      normal or accurate (medium, high low for compatibility)
   ISTART =      0    job   : 0-new  1-cont  2-samecut
   ICHARG =      0    charge: 1-file 2-atom 10-const
   ISPIN  =      2    spin polarized calculation?
   LNONCOLLINEAR =      F non collinear calculations
   LSORBIT =      F    spin-orbit coupling
   INIWAV =      1    electr: 0-lowe 1-rand  2-diag
   LASPH  =      F    aspherical Exc in radial PAW
   METAGGA=      F    non-selfconsistent MetaGGA calc.

 Electronic Relaxation 1
   ENCUT  =  269.5 eV  19.81 Ry    4.45 a.u.   4.61  4.61  4.61*2*pi/ulx,y,z
   ENINI  =  269.5     initial cutoff
   ENAUG  =  578.3 eV  augmentation charge cutoff
   NELM   =     40;   NELMIN=  2; NELMDL= -5     # of ELM steps 
   EDIFF  = 0.1E-05   stopping-criterion for ELM
   LREAL  =      F    real-space projection
   NLSPLINE    = F    spline interpolate recip. space projectors
   LCOMPAT=      F    compatible to vasp.4.4
   GGA_COMPAT  = T    GGA compatible to vasp.4.4-vasp.4.6
   LMAXPAW     = -100 max onsite density
   LMAXMIX     =    2 max onsite mixed and CHGCAR
   VOSKOWN=      0    Vosko Wilk Nusair interpolation
   ROPT   =    0.00000
 Ionic relaxation
   EDIFFG = -.1E-02   stopping-criterion for IOM
   NSW    =     40    number of steps for IOM
   NBLOCK =      1;   KBLOCK =     40    inner block; outer block 
   IBRION =      2    ionic relax: 0-MD 1-quasi-New 2-CG
   NFREE  =      1    steps in history (QN), initial steepest desc. (CG)
   ISIF   =      3    stress and relaxation
   IWAVPR =     11    prediction:  0-non 1-charg 2-wave 3-comb
   ISYM   =      2    0-nonsym 1-usesym 2-fastsym
   LCORR  =      T    Harris-Foulkes like correction to forces

   POTIM  = 0.5000    time-step for ionic-motion
   TEIN   =    0.0    initial temperature
   TEBEG  =    0.0;   TEEND  =   0.0 temperature during run
   SMASS  =  -3.00    Nose mass-parameter (am)
   estimated Nose-frequenzy (Omega)   =  0.10E-29 period in steps =****** mass=  -0.272E-27a.u.
   SCALEE = 1.0000    scale energy and forces
   NPACO  =    256;   APACO  = 16.0  distance and # of slots for P.C.
   PSTRESS=    0.0 pullay stress

  Mass of Ions in am
   POMASS =  55.85
  Ionic Valenz
   ZVAL   =  14.00
  Atomic Wigner-Seitz radii
   RWIGS  =  -1.00
  virtual crystal weights 
   VCA    =   1.00
   NELECT =      56.0000    total number of electrons
   NUPDOWN=      -1.0000    fix difference up-down

 DOS related values:
   EMIN   =  10.00;   EMAX   =-10.00  energy-range for DOS
   EFERMI =   0.00
   ISMEAR =     1;   SIGMA  =   0.20  broadening in eV -4-tet -1-fermi 0-gaus

 Electronic relaxation 2 (details)
   IALGO  =     38    algorithm
   LDIAG  =      T    sub-space diagonalisation (order eigenvalues)
   LSUBROT=      F    optimize rotation matrix (better conditioning)
   TURBO    =      0    0=normal 1=particle mesh
   IRESTART =      0    0=no restart 2=restart with 2 vectors
   NREBOOT  =      0    no. of reboots
   NMIN     =      0    reboot dimension
   EREF     =   0.00    reference energy to select bands
   IMIX   =      4    mixing-type and parameters
     AMIX     =   0.40;   BMIX     =  1.00
     AMIX_MAG =   1.60;   BMIX_MAG =  1.00
     AMIN     =   0.10
     WC   =   100.;   INIMIX=   1;  MIXPRE=   1;  MAXMIX= -45

 Intra band minimization:
   WEIMIN = 0.0010     energy-eigenvalue tresh-hold
   EBREAK =  0.52E-08  absolut break condition
   DEPER  =   0.30     relativ break condition  

   TIME   =   0.40     timestep for ELM

  volume/ion in A,a.u.               =      10.24        69.10
  Fermi-wavevector in a.u.,A,eV,Ry     =   1.817033  3.433695 44.921132  3.301610
  Thomas-Fermi vector in A             =   2.874321
 
 Write flags
   LWAVE        =      F    write WAVECAR
   LDOWNSAMPLE  =      F    k-point downsampling of WAVECAR
   LCHARG       =      F    write CHGCAR
   LVTOT        =      F    write LOCPOT, total local potential
   LVHAR        =      F    write LOCPOT, Hartree potential only
   LELF         =      F    write electronic localiz. function (ELF)
   LORBIT       =      0    0 simple, 1 ext, 2 COOP (PROOUT), +10 PAW based schemes


 Dipole corrections
   LMONO  =      F    monopole corrections only (constant potential shift)
   LDIPOL =      F    correct potential (dipole corrections)
   IDIPOL =      0    1-x, 2-y, 3-z, 4-all directions 
   EPSILON=  1.0000000 bulk dielectric constant

 Exchange correlation treatment:
   GGA     =    --    GGA type
   LEXCH   =     8    internal setting for exchange type
   VOSKOWN=      0    Vosko Wilk Nusair interpolation
   LHFCALC =     F    Hartree Fock is set to
   LHFONE  =     F    Hartree Fock one center treatment
   AEXX    =    0.0000 exact exchange contribution

 Linear response parameters
   LEPSILON=     F    determine dielectric tensor
   LRPA    =     F    only Hartree local field effects (RPA)
   LNABLA  =     F    use nabla operator in PAW spheres
   LVEL    =     F    velocity operator in full k-point grid
   LINTERFAST=   F  fast interpolation
   KINTER  =     0    interpolate to denser k-point grid
   CSHIFT  =0.1000    complex shift for real part using Kramers Kronig
   OMEGAMAX=  -1.0    maximum frequency
   DEG_THRESHOLD= 0.2000000E-02 threshold for treating states as degnerate
   RTIME   =   -0.100 relaxation time in fs
  (WPLASMAI=    0.000 imaginary part of plasma frequency in eV, 0.658/RTIME)
   DFIELD  = 0.0000000 0.0000000 0.0000000 field for delta impulse in time
 
 Orbital magnetization related:
   ORBITALMAG=     F  switch on orbital magnetization
   LCHIMAG   =     F  perturbation theory with respect to B field
   DQ        =  0.001000  dq finite difference perturbation B field
   LLRAUG    =     F  two centre corrections for induced B field



--------------------------------------------------------------------------------------------------------


 conjugate gradient relaxation of ions
 charge density and potential will be updated during run
 spin polarized calculation
 Variant of blocked Davidson
 Davidson routine will perform the subspace rotation
 perform sub-space diagonalisation
    after iterative eigenvector-optimisation
 modified Broyden-mixing scheme, WC =      100.0
 initial mixing is a Kerker type mixing with AMIX =  0.4000 and BMIX =      1.0000
 Hartree-type preconditioning will be used
 using additional bands           20
 reciprocal scheme for non local part
 use partial core corrections
 calculate Harris-corrections to forces 
   (improved forces if not selfconsistent)
 use gradient corrections 
 use of overlap-Matrix (Vanderbilt PP)
 Methfessel and Paxton  Order N= 1 SIGMA  =   0.20


--------------------------------------------------------------------------------------------------------


  energy-cutoff  :      269.53
  volume of cell :       40.96
      direct lattice vectors                 reciprocal lattice vectors
     3.447000000  0.000000000  0.000000000     0.290107340  0.000000000  0.000000000
     0.000000000  3.447000000  0.000000000     0.000000000  0.290107340  0.000000000
     0.000000000  0.000000000  3.447000000     0.000000000  0.000000000  0.290107340

  length of vectors
     3.447000000  3.447000000  3.447000000     0.290107340  0.290107340  0.290107340


 
 k-points in units of 2pi/SCALE and weight: Automatic Mesh                          
   0.12500000  0.12500000  0.12500000       0.125
   0.37500000  0.12500000  0.12500000       0.375
   0.37500000  0.37500000  0.12500000       0.375
   0.37500000  0.37500000  0.37500000       0.125
 
 k-points in reciprocal lattice and weights: Automatic Mesh                          
   0.12500000  0.12500000  0.12500000       0.125
   0.37500000  0.12500000  0.12500000       0.375
   0.37500000  0.37500000  0.12500000       0.375
   0.37500000  0.37500000  0.37500000       0.125
 
 position of ions in fractional coordinates (direct lattice) 
   0.00000000  0.00000000  0.00000000
   0.50000000  0.50000000  0.00000000
   0.50000000  0.00000000  0.50000000
   0.00000000  0.50000000  0.50000000
 
 position of ions in cartesian coordinates  (Angst):
   0.00000000  0.00000000  0.00000000
   1.72350000  1.72350000  0.00000000
   1.72350000  0.00000000  1.72350000
   0.00000000  1.72350000  1.72350000
 


--------------------------------------------------------------------------------------------------------


 k-point  1 :   0.1250 0.1250 0.1250  plane waves:     413
 k-point  2 :   0.3750 0.1250 0.1250  plane waves:     415
 k-point  3 :   0.3750 0.3750 0.1250  plane waves:     403
 k-point  4 :   0.3750 0.3750 0.3750  plane waves:     408

 maximum and minimum number of plane-waves per node :       415      403

 maximum number of plane-waves:       415
 maximum index in each direction: 
   IXMAX=    4   IYMAX=    4   IZMAX=    4
   IXMIN=   -4   IYMIN=   -4   IZMIN=   -4


 serial   3D FFT for wavefunctions
 parallel 3D FFT for charge:
    minimum data exchange during FFTs selected (reduces bandwidth)


 total amount of memory used by VASP MPI-rank0    31502. kBytes
=======================================================================

   base      :      30000. kBytes
   nonl-proj :        266. kBytes
   fftplans  :        154. kBytes
   grid      :        768. kBytes
   one-center:        124. kBytes
   wavefun   :        190. kBytes
 
     INWAV:  cpu time    0.0000: real time    0.0000
 Broyden mixing: mesh for mixing (old mesh)
   NGX =  9   NGY =  9   NGZ =  9
  (NGX  = 36   NGY  = 36   NGZ  = 36)
  gives a total of    729 points

 charge density for first step will be calculated from the start-wavefunctions


--------------------------------------------------------------------------------------------------------


 Maximum index for augmentation-charges          566 (set IRDMAX)


--------------------------------------------------------------------------------------------------------


 initial charge from wavefunction
 First call to EWALD:  gamma=   0.514
 Maximum number of real-space cells 3x 3x 3
 Maximum number of reciprocal cells 3x 3x 3

    FEWALD:  cpu time    0.0031: real time    0.0031


--------------------------------------- Iteration      1(   1)  ---------------------------------------


    POTLOK:  cpu time    0.0504: real time    0.0556
    SETDIJ:  cpu time    0.0131: real time    0.0131
     EDDAV:  cpu time    1.3669: real time    1.3672
       DOS:  cpu time    0.0117: real time    0.0117
    --------------------------------------------
      LOOP:  cpu time    1.4422: real time    1.4476

 eigenvalue-minimisations  :   912
 total energy-change (2. order) :-0.1536499E+04  (-0.4527407E+04)
 number of electron      55.9999948 magnetization      -0.0000005
 augmentation part        8.2781527 magnetization      -0.1201006

 Free energy of the ion-electron system (eV)
  ---------------------------------------------------
  alpha Z        PSCENC =       489.66041203
  Ewald energy   TEWEN  =     -7508.04966429
  -Hartree energ DENC   =      -192.34306512
  -exchange      EXHF   =         0.00000000
  -V(xc)+E(xc)   XCENC  =       198.82193752
  PAW double counting   =     76873.57679321   -76975.01864662
  entropy T*S    EENTRO =        -0.00981607
  eigenvalues    EBANDS =     -4252.26582395
  atomic energy  EATOM  =      9829.12855158
  Solvation  Ediel_sol  =         0.00000000
  ---------------------------------------------------
  free energy    TOTEN  =     -1536.49932171 eV

  energy without entropy =    -1536.48950564  energy(sigma->0) =    -1536.49604969


--------------------------------------------------------------------------------------------------------




--------------------------------------- Iteration      1(   2)  ---------------------------------------


     EDDAV:  cpu time    1.2814: real time    1.2820
       DOS:  cpu time    0.0107: real time    0.0107
    --------------------------------------------
      LOOP:  cpu time    1.2921: real time    1.2927

 eigenvalue-minimisations  :   880
 total energy-change (2. order) :-0.3341484E+03  (-0.3266701E+03)
 number of electron      55.9999948 magnetization      -0.0000005
 augmentation part        8.2781527 magnetization      -0.1201006

 Free energy of the ion-electron system (eV)
  ---------------------------------------------------
  alpha Z        PSCENC =       489.66041203
  Ewald energy   TEWEN  =     -7508.04966429
  -Hartree energ DENC   =      -192.34306512
  -exchange      EXHF   =         0.00000000
  -V(xc)+E(xc)   XCENC  =       198.82193752
  PAW double counting   =     76873.57679321   -76975.01864662
  entropy T*S    EENTRO =        -0.00725784
  eigenvalues    EBANDS =     -4586.41678363
  atomic energy  EATOM  =      9829.12855158
  Solvation  Ediel_sol  =         0.00000000
  ---------------------------------------------------
  free energy    TOTEN  =     -1870.64772316 eV

  energy without entropy =    -1870.64046532  energy(sigma->0) =    -1870.64530388


--------------------------------------------------------------------------------------------------------




--------------------------------------- Iteration      1(   3)  ---------------------------------------


     EDDAV:  cpu time    1.2372: real time    1.2376
       DOS:  cpu time    0.0092: real time    0.0092
    --------------------------------------------
      LOOP:  cpu time    1.2464: real time    1.2469

 eigenvalue-minimisations  :   784
 total energy-change (2. order) :-0.1051831E+02  (-0.1043340E+02)
 number of electron      55.9999948 magnetization      -0.0000005
 augmentation part        8.2781527 magnetization      -0.1201006

 Free energy of the ion-electron system (eV)
  ---------------------------------------------------
  alpha Z        PSCENC =       489.66041203
  Ewald energy   TEWEN  =     -7508.04966429
  -Hartree energ DENC   =      -192.34306512
  -exchange      EXHF   =         0.00000000
  -V(xc)+E(xc)   XCENC  =       198.82193752
  PAW double counting   =     76873.57679321   -76975.01864662
  entropy T*S    EENTRO =        -0.05837040
  eigenvalues    EBANDS =     -4596.88398029
  atomic energy  EATOM  =      9829.12855158
  Solvation  Ediel_sol  =         0.00000000
  ---------------------------------------------------
  free energy    TOTEN  =     -1881.16603239 eV

  energy without entropy =    -1881.10766198  energy(sigma->0) =    -1881.14657559


--------------------------------------------------------------------------------------------------------




--------------------------------------- Iteration      1(   4)  ---------------------------------------


     EDDAV:  cpu time    1.4467: real time    1.4471
       DOS:  cpu time    0.0098: real time    0.0098
    --------------------------------------------
      LOOP:  cpu time    1.4565: real time    1.4569

 eigenvalue-minimisations  :   960
 total energy-change (2. order) :-0.2517916E+00  (-0.2517034E+00)
 number of electron      55.9999948 magnetization      -0.0000005
 augmentation part        8.2781527 magnetization      -0.1201006

 Free energy of the ion-electron system (eV)
  ---------------------------------------------------
  alpha Z        PSCENC =       489.66041203
  Ewald energy   TEWEN  =     -7508.04966429
  -Hartree energ DENC   =      -192.34306512
  -exchange      EXHF   =         0.00000000
  -V(xc)+E(xc)   XCENC  =       198.82193752
  PAW double counting   =     76873.57679321   -76975.01864662
  entropy T*S    EENTRO =        -0.05820707
  eigenvalues    EBANDS =     -4597.13593527
  atomic energy  EATOM  =      9829.12855158
  Solvation  Ediel_sol  =         0.00000000
  ---------------------------------------------------
  free energy    TOTEN  =     -1881.41782403 eV

  energy without entropy =    -1881.35961696  energy(sigma->0) =    -1881.39842167


--------------------------------------------------------------------------------------------------------




--------------------------------------- Iteration      1(   5)  ---------------------------------------


     EDDAV:  cpu time    1.3765: real time    1.3769
       DOS:  cpu time    0.0117: real time    0.0117
    CHARGE:  cpu time    0.0305: real time    0.0305
    MIXING:  cpu time    0.0048: real time    0.0048
    --------------------------------------------
      LOOP:  cpu time    1.4236: real time    1.4239

 eigenvalue-minimisations  :   912
 total energy-change (2. order) :-0.1237202E-01  (-0.1237198E-01)
 number of electron      55.9999756 magnetization      -2.3623246
 augmentation part       48.6399387 magnetization      -2.1101199

 Broyden mixing:
  rms(total) = 0.19626E+02    rms(broyden)= 0.19609E+02
  rms(prec ) = 0.46307E+02
  weight for this iteration     100.00

 Free energy of the ion-electron system (eV)
  ---------------------------------------------------
  alpha Z        PSCENC =       489.66041203
  Ewald energy   TEWEN  =     -7508.04966429
  -Hartree energ DENC   =      -192.34306512
  -exchange      EXHF   =         0.00000000
  -V(xc)+E(xc)   XCENC  =       198.82193752
  PAW double counting   =     76873.57679321   -76975.01864662
  entropy T*S    EENTRO =        -0.05820897
  eigenvalues    EBANDS =     -4597.14830539
  atomic energy  EATOM  =      9829.12855158
  Solvation  Ediel_sol  =         0.00000000
  ---------------------------------------------------
  free energy    TOTEN  =     -1881.43019605 eV

  energy without entropy =    -1881.37198708  energy(sigma->0) =    -1881.41079306


--------------------------------------------------------------------------------------------------------




--------------------------------------- Iteration      1(   6)  ---------------------------------------


    POTLOK:  cpu time    0.0476: real time    0.0479
    SETDIJ:  cpu time    0.0141: real time    0.0141
     EDDAV:  cpu time    1.4037: real time    1.4040
       DOS:  cpu time    0.0100: real time    0.0100
    CHARGE:  cpu time    0.0264: real time    0.0264
    MIXING:  cpu time    0.0053: real time    0.0053
    --------------------------------------------
      LOOP:  cpu time    1.5071: real time    1.5077

 eigenvalue-minimisations  :   880
 total energy-change (2. order) : 0.1505268E+04  (-0.5557977E+02)
 number of electron      55.9999679 magnetization     -17.8114825
 augmentation part       45.2382698 magnetization     -16.4313720

 Broyden mixing:
  rms(total) = 0.10956E+02    rms(broyden)= 0.10953E+02
  rms(prec ) = 0.25927E+02
  weight for this iteration     100.00

 eigenvalues of (default mixing * dielectric matrix)
  average eigenvalue GAMMA=   1.9090
  1.9090

 Free energy of the ion-electron system (eV)
  ---------------------------------------------------
  alpha Z        PSCENC =       489.66041203
  Ewald energy   TEWEN  =     -7508.04966429
  -Hartree energ DENC   =     -1045.86933500
  -exchange      EXHF   =         0.00000000
  -V(xc)+E(xc)   XCENC  =       238.09930942
  PAW double counting   =     52916.00232538   -53271.87098274
  entropy T*S    EENTRO =         0.01661988
  eigenvalues    EBANDS =     -2023.27921019
  atomic energy  EATOM  =      9829.12855158
  Solvation  Ediel_sol  =         0.00000000
  ---------------------------------------------------
  free energy    TOTEN  =      -376.16197393 eV

  energy without entropy =     -376.17859382  energy(sigma->0) =     -376.16751389


--------------------------------------------------------------------------------------------------------




--------------------------------------- Iteration      1(   7)  ---------------------------------------


    POTLOK:  cpu time    0.0454: real time    0.0456
    SETDIJ:  cpu time    0.0112: real time    0.0112
     EDDAV:  cpu time    1.3211: real time    1.3214
       DOS:  cpu time    0.0091: real time    0.0091
    CHARGE:  cpu time    0.0348: real time    0.0348
    MIXING:  cpu time    0.0054: real time    0.0054
    --------------------------------------------
      LOOP:  cpu time    1.4270: real time    1.4273

 eigenvalue-minimisations  :   864
 total energy-change (2. order) :-0.1661068E+02  (-0.3543690E+03)
 number of electron      55.9999869 magnetization      -7.9928514
 augmentation part       19.4910423 magnetization      -7.7304166

 Broyden mixing:
  rms(total) = 0.14435E+02    rms(broyden)= 0.14433E+02
  rms(prec ) = 0.29229E+02
  weight for this iteration     100.00

 eigenvalues of (default mixing * dielectric matrix)
  average eigenvalue GAMMA=   1.0455
  1.7146  0.3765

 Free energy of the ion-electron system (eV)
  ---------------------------------------------------
  alpha Z        PSCENC =       489.66041203
  Ewald energy   TEWEN  =     -7508.04966429
  -Hartree energ DENC   =     -3063.87755165
  -exchange      EXHF   =         0.00000000
  -V(xc)+E(xc)   XCENC  =       340.58366903
  PAW double counting   =     17814.47004233   -18476.07462529
  entropy T*S    EENTRO =         0.00523056
  eigenvalues    EBANDS =       181.38128163
  atomic energy  EATOM  =      9829.12855158
  Solvation  Ediel_sol  =         0.00000000
  ---------------------------------------------------
  free energy    TOTEN  =      -392.77265406 eV

  energy without entropy =     -392.77788462  energy(sigma->0) =     -392.77439758


--------------------------------------------------------------------------------------------------------




--------------------------------------- Iteration      1(   8)  ---------------------------------------


    POTLOK:  cpu time    0.0481: real time    0.0482
    SETDIJ:  cpu time    0.0128: real time    0.0128
     EDDAV:  cpu time    1.3056: real time    1.3058
       DOS:  cpu time    0.0096: real time    0.0096
    CHARGE:  cpu time    0.0264: real time    0.0264
    MIXING:  cpu time    0.0061: real time    0.0061
    --------------------------------------------
      LOOP:  cpu time    1.4086: real time    1.4090

 eigenvalue-minimisations  :   848
 total energy-change (2. order) : 0.3322885E+03  (-0.6262511E+02)
 number of electron      55.9999809 magnetization      -1.6337628
 augmentation part       28.8457973 magnetization      -0.5816798

 Broyden mixing:
  rms(total) = 0.41261E+01    rms(broyden)= 0.41245E+01
  rms(prec ) = 0.84486E+01
  weight for this iteration     100.00

 eigenvalues of (default mixing * dielectric matrix)
  average eigenvalue GAMMA=   1.0026
  1.2181  1.2181  0.5717

 Free energy of the ion-electron system (eV)
  ---------------------------------------------------
  alpha Z        PSCENC =       489.66041203
  Ewald energy   TEWEN  =     -7508.04966429
  -Hartree energ DENC   =     -2207.64028280
  -exchange      EXHF   =         0.00000000
  -V(xc)+E(xc)   XCENC  =       291.42722780
  PAW double counting   =     21615.75975942   -22128.79064620
  entropy T*S    EENTRO =        -0.04035221
  eigenvalues    EBANDS =      -441.93917752
  atomic energy  EATOM  =      9829.12855158
  Solvation  Ediel_sol  =         0.00000000
  ---------------------------------------------------
  free energy    TOTEN  =       -60.48417219 eV

  energy without entropy =      -60.44381998  energy(sigma->0) =      -60.47072145


--------------------------------------------------------------------------------------------------------




--------------------------------------- Iteration      1(   9)  ---------------------------------------


    POTLOK:  cpu time    0.0505: real time    0.0506
    SETDIJ:  cpu time    0.0122: real time    0.0122
     EDDAV:  cpu time    1.2486: real time    1.2488
       DOS:  cpu time    0.0121: real time    0.0121
    CHARGE:  cpu time    0.0284: real time    0.0284
    MIXING:  cpu time    0.0065: real time    0.0065
    --------------------------------------------
      LOOP:  cpu time    1.3582: real time    1.3586

 eigenvalue-minimisations  :   816
 total energy-change (2. order) :-0.4140334E+02  (-0.6286385E+02)
 number of electron      55.9999756 magnetization      -2.0942291
 augmentation part       41.5070180 magnetization      -1.1461199

 Broyden mixing:
  rms(total) = 0.61960E+01    rms(broyden)= 0.61936E+01
  rms(prec ) = 0.14763E+02
  weight for this iteration     100.00

 eigenvalues of (default mixing * dielectric matrix)
  average eigenvalue GAMMA=   1.2850
  2.8051  0.9018  0.9018  0.5312

 Free energy of the ion-electron system (eV)
  ---------------------------------------------------
  alpha Z        PSCENC =       489.66041203
  Ewald energy   TEWEN  =     -7508.04966429
  -Hartree energ DENC   =     -1593.01345635
  -exchange      EXHF   =         0.00000000
  -V(xc)+E(xc)   XCENC  =       261.44529097
  PAW double counting   =     15489.88915011   -15840.56747788
  entropy T*S    EENTRO =        -0.01365874
  eigenvalues    EBANDS =     -1230.36665497
  atomic energy  EATOM  =      9829.12855158
  Solvation  Ediel_sol  =         0.00000000
  ---------------------------------------------------
  free energy    TOTEN  =      -101.88750753 eV

  energy without entropy =     -101.87384879  energy(sigma->0) =     -101.88295462


--------------------------------------------------------------------------------------------------------




--------------------------------------- Iteration      1(  10)  ---------------------------------------


    POTLOK:  cpu time    0.0479: real time    0.0480
    SETDIJ:  cpu time    0.0133: real time    0.0133
     EDDAV:  cpu time    1.2069: real time    1.2071
       DOS:  cpu time    0.0068: real time    0.0068
    CHARGE:  cpu time    0.0210: real time    0.0210
    MIXING:  cpu time    0.0038: real time    0.0038
    --------------------------------------------
      LOOP:  cpu time    1.2997: real time    1.3000

 eigenvalue-minimisations  :   816
 total energy-change (2. order) : 0.5671373E+02  (-0.2936119E+02)
 number of electron      55.9999800 magnetization      -1.4991154
 augmentation part       30.2532380 magnetization      -1.1096473

 Broyden mixing:
  rms(total) = 0.26387E+01    rms(broyden)= 0.26371E+01
  rms(prec ) = 0.62337E+01
  weight for this iteration     100.00

 eigenvalues of (default mixing * dielectric matrix)
  average eigenvalue GAMMA=   1.1261
  2.1764  1.5539  0.6745  0.6745  0.5513

 Free energy of the ion-electron system (eV)
  ---------------------------------------------------
  alpha Z        PSCENC =       489.66041203
  Ewald energy   TEWEN  =     -7508.04966429
  -Hartree energ DENC   =     -2218.03089587
  -exchange      EXHF   =         0.00000000
  -V(xc)+E(xc)   XCENC  =       289.28947275
  PAW double counting   =      7555.92876223    -7943.09044385
  entropy T*S    EENTRO =        -0.00359326
  eigenvalues    EBANDS =      -540.00638098
  atomic energy  EATOM  =      9829.12855158
  Solvation  Ediel_sol  =         0.00000000
  ---------------------------------------------------
  free energy    TOTEN  =       -45.17377964 eV

  energy without entropy =      -45.17018638  energy(sigma->0) =      -45.17258189


--------------------------------------------------------------------------------------------------------




--------------------------------------- Iteration      1(  11)  ---------------------------------------


    POTLOK:  cpu time    0.0443: real time    0.0444
    SETDIJ:  cpu time    0.0136: real time    0.0136
     EDDAV:  cpu time    1.2038: real time    1.2040
       DOS:  cpu time    0.0099: real time    0.0099
    CHARGE:  cpu time    0.0233: real time    0.0233
    MIXING:  cpu time    0.0047: real time    0.0047
    --------------------------------------------
      LOOP:  cpu time    1.2996: real time    1.2999

 eigenvalue-minimisations  :   800
 total energy-change (2. order) : 0.1148242E+02  (-0.5418898E+01)
 number of electron      55.9999783 magnetization      -1.0202667
 augmentation part       34.7836156 magnetization      -0.6268806

 Broyden mixing:
  rms(total) = 0.95397E+00    rms(broyden)= 0.95335E+00
  rms(prec ) = 0.23277E+01
  weight for this iteration     100.00

 eigenvalues of (default mixing * dielectric matrix)
  average eigenvalue GAMMA=   1.1965
  2.5851  1.8540  0.8441  0.8441  0.5402  0.5114

 Free energy of the ion-electron system (eV)
  ---------------------------------------------------
  alpha Z        PSCENC =       489.66041203
  Ewald energy   TEWEN  =     -7508.04966429
  -Hartree energ DENC   =     -1957.74283619
  -exchange      EXHF   =         0.00000000
  -V(xc)+E(xc)   XCENC  =       277.50091390
  PAW double counting   =      9141.78878772    -9504.85428116
  entropy T*S    EENTRO =        -0.00367253
  eigenvalues    EBANDS =      -801.11956761
  atomic energy  EATOM  =      9829.12855158
  Solvation  Ediel_sol  =         0.00000000
  ---------------------------------------------------
  free energy    TOTEN  =       -33.69135655 eV

  energy without entropy =      -33.68768402  energy(sigma->0) =      -33.69013237


--------------------------------------------------------------------------------------------------------




--------------------------------------- Iteration      1(  12)  ---------------------------------------


    POTLOK:  cpu time    0.0483: real time    0.0484
    SETDIJ:  cpu time    0.0136: real time    0.0137
     EDDAV:  cpu time    1.3681: real time    1.3684
       DOS:  cpu time    0.0104: real time    0.0104
    CHARGE:  cpu time    0.0308: real time    0.0308
    MIXING:  cpu time    0.0075: real time    0.0075
    --------------------------------------------
      LOOP:  cpu time    1.4788: real time    1.4792

 eigenvalue-minimisations  :   896
 total energy-change (2. order) :-0.4978879E+00  (-0.9258745E-01)
 number of electron      55.9999779 magnetization      -0.7980152
 augmentation part       34.8879085 magnetization      -0.5064708

 Broyden mixing:
  rms(total) = 0.10355E+01    rms(broyden)= 0.10353E+01
  rms(prec ) = 0.24930E+01
  weight for this iteration     100.00

 eigenvalues of (default mixing * dielectric matrix)
  average eigenvalue GAMMA=   1.2084
  2.8009  2.0744  0.9348  0.9348  0.5795  0.5673  0.5673

 Free energy of the ion-electron system (eV)
  ---------------------------------------------------
  alpha Z        PSCENC =       489.66041203
  Ewald energy   TEWEN  =     -7508.04966429
  -Hartree energ DENC   =     -1956.76902465
  -exchange      EXHF   =         0.00000000
  -V(xc)+E(xc)   XCENC  =       277.37660405
  PAW double counting   =      8538.37617373    -8895.18710332
  entropy T*S    EENTRO =        -0.01184654
  eigenvalues    EBANDS =      -808.71334703
  atomic energy  EATOM  =      9829.12855158
  Solvation  Ediel_sol  =         0.00000000
  ---------------------------------------------------
  free energy    TOTEN  =       -34.18924444 eV

  energy without entropy =      -34.17739790  energy(sigma->0) =      -34.18529559


--------------------------------------------------------------------------------------------------------




--------------------------------------- Iteration      1(  13)  ---------------------------------------


    POTLOK:  cpu time    0.0424: real time    0.0425
    SETDIJ:  cpu time    0.0127: real time    0.0127
     EDDAV:  cpu time    1.3209: real time    1.3211
       DOS:  cpu time    0.0117: real time    0.0117
    CHARGE:  cpu time    0.0267: real time    0.0267
    MIXING:  cpu time    0.0057: real time    0.0057
    --------------------------------------------
      LOOP:  cpu time    1.4201: real time    1.4204

 eigenvalue-minimisations  :   864
 total energy-change (2. order) : 0.5395419E+00  (-0.8418431E-02)
 number of electron      55.9999780 magnetization      -0.7228647
 augmentation part       34.6958753 magnetization      -0.4659773

 Broyden mixing:
  rms(total) = 0.89245E+00    rms(broyden)= 0.89237E+00
  rms(prec ) = 0.21297E+01
  weight for this iteration     100.00

 eigenvalues of (default mixing * dielectric matrix)
  average eigenvalue GAMMA=   1.3277
  3.2963  2.4035  1.3197  0.9958  0.7437  0.7437  0.5595  0.5595

 Free energy of the ion-electron system (eV)
  ---------------------------------------------------
  alpha Z        PSCENC =       489.66041203
  Ewald energy   TEWEN  =     -7508.04966429
  -Hartree energ DENC   =     -1968.28569557
  -exchange      EXHF   =         0.00000000
  -V(xc)+E(xc)   XCENC  =       277.85154253
  PAW double counting   =      8351.43432741    -8708.23100112
  entropy T*S    EENTRO =        -0.01211206
  eigenvalues    EBANDS =      -797.14606310
  atomic energy  EATOM  =      9829.12855158
  Solvation  Ediel_sol  =         0.00000000
  ---------------------------------------------------
  free energy    TOTEN  =       -33.64970258 eV

  energy without entropy =      -33.63759051  energy(sigma->0) =      -33.64566522


--------------------------------------------------------------------------------------------------------




--------------------------------------- Iteration      1(  14)  ---------------------------------------


    POTLOK:  cpu time    0.0411: real time    0.0413
    SETDIJ:  cpu time    0.0138: real time    0.0138
     EDDAV:  cpu time    1.2546: real time    1.2548
       DOS:  cpu time    0.0134: real time    0.0134
    CHARGE:  cpu time    0.0288: real time    0.0287
    MIXING:  cpu time    0.0048: real time    0.0048
    --------------------------------------------
      LOOP:  cpu time    1.3564: real time    1.3567

 eigenvalue-minimisations  :   800
 total energy-change (2. order) : 0.1493757E+01  (-0.2514564E+00)
 number of electron      55.9999791 magnetization      -0.8987092
 augmentation part       33.5661974 magnetization      -0.5562470

 Broyden mixing:
  rms(total) = 0.19537E+00    rms(broyden)= 0.19463E+00
  rms(prec ) = 0.21173E+00
  weight for this iteration     100.00

 eigenvalues of (default mixing * dielectric matrix)
  average eigenvalue GAMMA=   1.1683
  2.7675  2.5845  1.1888  1.1888  0.7196  0.7196  0.5317  0.5317  0.2830

 Free energy of the ion-electron system (eV)
  ---------------------------------------------------
  alpha Z        PSCENC =       489.66041203
  Ewald energy   TEWEN  =     -7508.04966429
  -Hartree energ DENC   =     -2024.19152766
  -exchange      EXHF   =         0.00000000
  -V(xc)+E(xc)   XCENC  =       280.32154184
  PAW double counting   =      8283.52977070    -8649.16627439
  entropy T*S    EENTRO =        -0.00835335
  eigenvalues    EBANDS =      -733.38040200
  atomic energy  EATOM  =      9829.12855158
  Solvation  Ediel_sol  =         0.00000000
  ---------------------------------------------------
  free energy    TOTEN  =       -32.15594554 eV

  energy without entropy =      -32.14759219  energy(sigma->0) =      -32.15316109


--------------------------------------------------------------------------------------------------------




--------------------------------------- Iteration      1(  15)  ---------------------------------------


    POTLOK:  cpu time    0.0407: real time    0.0408
    SETDIJ:  cpu time    0.0121: real time    0.0121
     EDDAV:  cpu time    1.2566: real time    1.2568
       DOS:  cpu time    0.0115: real time    0.0115
    CHARGE:  cpu time    0.0288: real time    0.0288
    MIXING:  cpu time    0.0099: real time    0.0099
    --------------------------------------------
      LOOP:  cpu time    1.3596: real time    1.3600

 eigenvalue-minimisations  :   800
 total energy-change (2. order) :-0.1391997E-01  (-0.2004582E-02)
 number of electron      55.9999791 magnetization      -1.2401182
 augmentation part       33.5629020 magnetization      -0.8777443

 Broyden mixing:
  rms(total) = 0.16653E+00    rms(broyden)= 0.16651E+00
  rms(prec ) = 0.18609E+00
  weight for this iteration     100.00

 eigenvalues of (default mixing * dielectric matrix)
  average eigenvalue GAMMA=   1.1754
  3.0357  2.5003  1.1665  1.1665  0.7030  0.7030  0.6903  0.6903  0.5494  0.5494

 Free energy of the ion-electron system (eV)
  ---------------------------------------------------
  alpha Z        PSCENC =       489.66041203
  Ewald energy   TEWEN  =     -7508.04966429
  -Hartree energ DENC   =     -2023.58189729
  -exchange      EXHF   =         0.00000000
  -V(xc)+E(xc)   XCENC  =       280.30581245
  PAW double counting   =      8332.80662838    -8698.83879647
  entropy T*S    EENTRO =        -0.00454170
  eigenvalues    EBANDS =      -733.59637021
  atomic energy  EATOM  =      9829.12855158
  Solvation  Ediel_sol  =         0.00000000
  ---------------------------------------------------
  free energy    TOTEN  =       -32.16986551 eV

  energy without entropy =      -32.16532381  energy(sigma->0) =      -32.16835161


--------------------------------------------------------------------------------------------------------




--------------------------------------- Iteration      1(  16)  ---------------------------------------


    POTLOK:  cpu time    0.0477: real time    0.0478
    SETDIJ:  cpu time    0.0128: real time    0.0128
     EDDAV:  cpu time    1.2971: real time    1.2973
       DOS:  cpu time    0.0101: real time    0.0101
    CHARGE:  cpu time    0.0290: real time    0.0290
    MIXING:  cpu time    0.0107: real time    0.0107
    --------------------------------------------
      LOOP:  cpu time    1.4074: real time    1.4077

 eigenvalue-minimisations  :   848
 total energy-change (2. order) :-0.1382354E-01  (-0.1799226E-02)
 number of electron      55.9999792 magnetization      -1.4585043
 augmentation part       33.4655281 magnetization      -1.0885478

 Broyden mixing:
  rms(total) = 0.83319E-01    rms(broyden)= 0.83187E-01
  rms(prec ) = 0.11719E+00
  weight for this iteration     100.00

 eigenvalues of (default mixing * dielectric matrix)
  average eigenvalue GAMMA=   1.2340
  3.0853  2.4991  1.2506  1.2506  1.3556  0.8934  0.8934  0.6110  0.6110  0.5556
  0.5682

 Free energy of the ion-electron system (eV)
  ---------------------------------------------------
  alpha Z        PSCENC =       489.66041203
  Ewald energy   TEWEN  =     -7508.04966429
  -Hartree energ DENC   =     -2028.30290244
  -exchange      EXHF   =         0.00000000
  -V(xc)+E(xc)   XCENC  =       280.53454291
  PAW double counting   =      8326.48719575    -8693.23328313
  entropy T*S    EENTRO =        -0.00566215
  eigenvalues    EBANDS =      -728.40287932
  atomic energy  EATOM  =      9829.12855158
  Solvation  Ediel_sol  =         0.00000000
  ---------------------------------------------------
  free energy    TOTEN  =       -32.18368905 eV

  energy without entropy =      -32.17802690  energy(sigma->0) =      -32.18180167


--------------------------------------------------------------------------------------------------------




--------------------------------------- Iteration      1(  17)  ---------------------------------------


    POTLOK:  cpu time    0.0406: real time    0.0407
    SETDIJ:  cpu time    0.0137: real time    0.0137
     EDDAV:  cpu time    1.2838: real time    1.2840
       DOS:  cpu time    0.0093: real time    0.0093
    CHARGE:  cpu time    0.0235: real time    0.0235
    MIXING:  cpu time    0.0071: real time    0.0071
    --------------------------------------------
      LOOP:  cpu time    1.3780: real time    1.3783

 eigenvalue-minimisations  :   832
 total energy-change (2. order) :-0.1284472E-01  (-0.8127593E-03)
 number of electron      55.9999792 magnetization      -1.5076669
 augmentation part       33.4111870 magnetization      -1.1457866

 Broyden mixing:
  rms(total) = 0.79494E-01    rms(broyden)= 0.79187E-01
  rms(prec ) = 0.18384E+00
  weight for this iteration     100.00

 eigenvalues of (default mixing * dielectric matrix)
  average eigenvalue GAMMA=   1.2490
  3.0436  2.4449  1.5112  1.5112  1.4737  0.9322  0.9322  0.6954  0.6954  0.5753
  0.5861  0.5861

 Free energy of the ion-electron system (eV)
  ---------------------------------------------------
  alpha Z        PSCENC =       489.66041203
  Ewald energy   TEWEN  =     -7508.04966429
  -Hartree energ DENC   =     -2030.58751932
  -exchange      EXHF   =         0.00000000
  -V(xc)+E(xc)   XCENC  =       280.65870625
  PAW double counting   =      8350.57974011    -8718.14342587
  entropy T*S    EENTRO =        -0.01048391
  eigenvalues    EBANDS =      -725.43285035
  atomic energy  EATOM  =      9829.12855158
  Solvation  Ediel_sol  =         0.00000000
  ---------------------------------------------------
  free energy    TOTEN  =       -32.19653377 eV

  energy without entropy =      -32.18604986  energy(sigma->0) =      -32.19303913


--------------------------------------------------------------------------------------------------------




--------------------------------------- Iteration      1(  18)  ---------------------------------------


    POTLOK:  cpu time    0.0486: real time    0.0488
    SETDIJ:  cpu time    0.0144: real time    0.0144
     EDDAV:  cpu time    1.3186: real time    1.3188
       DOS:  cpu time    0.0092: real time    0.0092
    CHARGE:  cpu time    0.0257: real time    0.0257
    MIXING:  cpu time    0.0088: real time    0.0088
    --------------------------------------------
      LOOP:  cpu time    1.4253: real time    1.4257

 eigenvalue-minimisations  :   848
 total energy-change (2. order) : 0.7448846E-02  (-0.8103570E-03)
 number of electron      55.9999792 magnetization      -1.5514289
 augmentation part       33.4660149 magnetization      -1.1851578

 Broyden mixing:
  rms(total) = 0.36333E-01    rms(broyden)= 0.35678E-01
  rms(prec ) = 0.83650E-01
  weight for this iteration     100.00

 eigenvalues of (default mixing * dielectric matrix)
  average eigenvalue GAMMA=   1.2638
  3.1815  2.2241  2.2241  1.4121  1.4121  1.0959  1.0959  0.7189  0.7189  0.6649
  0.5698  0.5698  0.5415

 Free energy of the ion-electron system (eV)
  ---------------------------------------------------
  alpha Z        PSCENC =       489.66041203
  Ewald energy   TEWEN  =     -7508.04966429
  -Hartree energ DENC   =     -2027.85485119
  -exchange      EXHF   =         0.00000000
  -V(xc)+E(xc)   XCENC  =       280.54193015
  PAW double counting   =      8343.90294118    -8711.16443877
  entropy T*S    EENTRO =        -0.01104248
  eigenvalues    EBANDS =      -728.34292315
  atomic energy  EATOM  =      9829.12855158
  Solvation  Ediel_sol  =         0.00000000
  ---------------------------------------------------
  free energy    TOTEN  =       -32.18908492 eV

  energy without entropy =      -32.17804245  energy(sigma->0) =      -32.18540410


--------------------------------------------------------------------------------------------------------




--------------------------------------- Iteration      1(  19)  ---------------------------------------


    POTLOK:  cpu time    0.0425: real time    0.0460
    SETDIJ:  cpu time    0.0129: real time    0.0129
     EDDAV:  cpu time    1.2139: real time    1.2141
       DOS:  cpu time    0.0134: real time    0.0134
    CHARGE:  cpu time    0.0310: real time    0.0310
    MIXING:  cpu time    0.0110: real time    0.0110
    --------------------------------------------
      LOOP:  cpu time    1.3247: real time    1.3284

 eigenvalue-minimisations  :   816
 total energy-change (2. order) : 0.1581930E-02  (-0.7593156E-03)
 number of electron      55.9999791 magnetization      -1.5795857
 augmentation part       33.5271820 magnetization      -1.2035576

 Broyden mixing:
  rms(total) = 0.13264E-01    rms(broyden)= 0.12524E-01
  rms(prec ) = 0.27972E-01
  weight for this iteration     100.00

 eigenvalues of (default mixing * dielectric matrix)
  average eigenvalue GAMMA=   1.2404
  2.6877  2.6877  1.6277  1.6277  1.3420  1.3420  1.0299  1.0299  0.7963  0.7963
  0.6373  0.6373  0.5618  0.5618

 Free energy of the ion-electron system (eV)
  ---------------------------------------------------
  alpha Z        PSCENC =       489.66041203
  Ewald energy   TEWEN  =     -7508.04966429
  -Hartree energ DENC   =     -2024.84130610
  -exchange      EXHF   =         0.00000000
  -V(xc)+E(xc)   XCENC  =       280.41079773
  PAW double counting   =      8342.24228050    -8709.09145337
  entropy T*S    EENTRO =        -0.01119909
  eigenvalues    EBANDS =      -731.63592199
  atomic energy  EATOM  =      9829.12855158
  Solvation  Ediel_sol  =         0.00000000
  ---------------------------------------------------
  free energy    TOTEN  =       -32.18750299 eV

  energy without entropy =      -32.17630391  energy(sigma->0) =      -32.18376997


--------------------------------------------------------------------------------------------------------




--------------------------------------- Iteration      1(  20)  ---------------------------------------


    POTLOK:  cpu time    0.0456: real time    0.0457
    SETDIJ:  cpu time    0.0120: real time    0.0120
     EDDAV:  cpu time    1.2155: real time    1.2157
       DOS:  cpu time    0.0112: real time    0.0112
    CHARGE:  cpu time    0.0300: real time    0.0300
    MIXING:  cpu time    0.0116: real time    0.0116
    --------------------------------------------
      LOOP:  cpu time    1.3259: real time    1.3262

 eigenvalue-minimisations  :   816
 total energy-change (2. order) : 0.5203281E-04  (-0.3403479E-04)
 number of electron      55.9999791 magnetization      -1.5825772
 augmentation part       33.5176236 magnetization      -1.2026846

 Broyden mixing:
  rms(total) = 0.58237E-02    rms(broyden)= 0.55475E-02
  rms(prec ) = 0.11012E-01
  weight for this iteration     100.00

 eigenvalues of (default mixing * dielectric matrix)
  average eigenvalue GAMMA=   1.2595
  3.3420  2.3739  2.0037  1.5014  1.5014  1.2852  1.0867  1.0867  0.7550  0.7550
  0.7561  0.5715  0.5715  0.6510  0.6510

 Free energy of the ion-electron system (eV)
  ---------------------------------------------------
  alpha Z        PSCENC =       489.66041203
  Ewald energy   TEWEN  =     -7508.04966429
  -Hartree energ DENC   =     -2025.32476084
  -exchange      EXHF   =         0.00000000
  -V(xc)+E(xc)   XCENC  =       280.43384753
  PAW double counting   =      8343.73146172    -8710.64118593
  entropy T*S    EENTRO =        -0.01106635
  eigenvalues    EBANDS =      -731.11504641
  atomic energy  EATOM  =      9829.12855158
  Solvation  Ediel_sol  =         0.00000000
  ---------------------------------------------------
  free energy    TOTEN  =       -32.18745096 eV

  energy without entropy =      -32.17638461  energy(sigma->0) =      -32.18376218


--------------------------------------------------------------------------------------------------------




--------------------------------------- Iteration      1(  21)  ---------------------------------------


    POTLOK:  cpu time    0.0504: real time    0.0505
    SETDIJ:  cpu time    0.0113: real time    0.0113
     EDDAV:  cpu time    1.2648: real time    1.2650
       DOS:  cpu time    0.0107: real time    0.0107
    CHARGE:  cpu time    0.0269: real time    0.0270
    MIXING:  cpu time    0.0095: real time    0.0095
    --------------------------------------------
      LOOP:  cpu time    1.3737: real time    1.3740

 eigenvalue-minimisations  :   848
 total energy-change (2. order) :-0.2566305E-05  (-0.1098502E-04)
 number of electron      55.9999792 magnetization      -1.5821256
 augmentation part       33.5111708 magnetization      -1.2020369

 Broyden mixing:
  rms(total) = 0.31483E-02    rms(broyden)= 0.29489E-02
  rms(prec ) = 0.34894E-02
  weight for this iteration     100.00

 eigenvalues of (default mixing * dielectric matrix)
  average eigenvalue GAMMA=   1.2720
  3.6934  2.3821  2.0732  1.5568  1.5568  1.3452  1.0542  1.0542  0.9497  0.9497
  0.6957  0.6957  0.6117  0.6117  0.5612  0.5612

 Free energy of the ion-electron system (eV)
  ---------------------------------------------------
  alpha Z        PSCENC =       489.66041203
  Ewald energy   TEWEN  =     -7508.04966429
  -Hartree energ DENC   =     -2025.67408242
  -exchange      EXHF   =         0.00000000
  -V(xc)+E(xc)   XCENC  =       280.44951578
  PAW double counting   =      8339.85770492    -8706.79142247
  entropy T*S    EENTRO =        -0.01083739
  eigenvalues    EBANDS =      -730.75763128
  atomic energy  EATOM  =      9829.12855158
  Solvation  Ediel_sol  =         0.00000000
  ---------------------------------------------------
  free energy    TOTEN  =       -32.18745353 eV

  energy without entropy =      -32.17661614  energy(sigma->0) =      -32.18384107


--------------------------------------------------------------------------------------------------------




--------------------------------------- Iteration      1(  22)  ---------------------------------------


    POTLOK:  cpu time    0.0377: real time    0.0378
    SETDIJ:  cpu time    0.0108: real time    0.0108
     EDDAV:  cpu time    1.2744: real time    1.2746
       DOS:  cpu time    0.0109: real time    0.0109
    CHARGE:  cpu time    0.0267: real time    0.0267
    MIXING:  cpu time    0.0104: real time    0.0104
    --------------------------------------------
      LOOP:  cpu time    1.3709: real time    1.3712

 eigenvalue-minimisations  :   848
 total energy-change (2. order) :-0.2101656E-04  (-0.3891422E-05)
 number of electron      55.9999792 magnetization      -1.5884444
 augmentation part       33.5105742 magnetization      -1.2086206

 Broyden mixing:
  rms(total) = 0.26927E-02    rms(broyden)= 0.25442E-02
  rms(prec ) = 0.37239E-02
  weight for this iteration     100.00

 eigenvalues of (default mixing * dielectric matrix)
  average eigenvalue GAMMA=   1.3191
  3.5314  2.5983  2.3745  2.3745  1.3556  1.3556  1.3319  0.9427  0.9427  0.8645
  0.8645  0.7224  0.7224  0.6495  0.6495  0.5725  0.5725

 Free energy of the ion-electron system (eV)
  ---------------------------------------------------
  alpha Z        PSCENC =       489.66041203
  Ewald energy   TEWEN  =     -7508.04966429
  -Hartree energ DENC   =     -2025.71458605
  -exchange      EXHF   =         0.00000000
  -V(xc)+E(xc)   XCENC  =       280.45151746
  PAW double counting   =      8336.30047621    -8703.23406232
  entropy T*S    EENTRO =        -0.01064949
  eigenvalues    EBANDS =      -730.71946969
  atomic energy  EATOM  =      9829.12855158
  Solvation  Ediel_sol  =         0.00000000
  ---------------------------------------------------
  free energy    TOTEN  =       -32.18747454 eV

  energy without entropy =      -32.17682506  energy(sigma->0) =      -32.18392472


--------------------------------------------------------------------------------------------------------




--------------------------------------- Iteration      1(  23)  ---------------------------------------


    POTLOK:  cpu time    0.0425: real time    0.0425
    SETDIJ:  cpu time    0.0130: real time    0.0130
     EDDAV:  cpu time    1.3424: real time    1.3426
       DOS:  cpu time    0.0119: real time    0.0119
    CHARGE:  cpu time    0.0253: real time    0.0253
    MIXING:  cpu time    0.0094: real time    0.0094
    --------------------------------------------
      LOOP:  cpu time    1.4445: real time    1.4448

 eigenvalue-minimisations  :   880
 total energy-change (2. order) :-0.1031619E-04  (-0.1063071E-05)
 number of electron      55.9999792 magnetization      -1.5922306
 augmentation part       33.5104041 magnetization      -1.2119996

 Broyden mixing:
  rms(total) = 0.18757E-02    rms(broyden)= 0.17572E-02
  rms(prec ) = 0.34649E-02
  weight for this iteration     100.00

 eigenvalues of (default mixing * dielectric matrix)
  average eigenvalue GAMMA=   1.2853
  3.1812  3.1812  2.4214  1.5151  1.5151  1.6928  1.0132  1.0132  1.0984  1.0984
  0.8586  0.8586  0.6828  0.6828  0.6006  0.6006  0.5612  0.5612

 Free energy of the ion-electron system (eV)
  ---------------------------------------------------
  alpha Z        PSCENC =       489.66041203
  Ewald energy   TEWEN  =     -7508.04966429
  -Hartree energ DENC   =     -2025.72581710
  -exchange      EXHF   =         0.00000000
  -V(xc)+E(xc)   XCENC  =       280.45281959
  PAW double counting   =      8334.64610659    -8701.58536116
  entropy T*S    EENTRO =        -0.01054595
  eigenvalues    EBANDS =      -730.70398615
  atomic energy  EATOM  =      9829.12855158
  Solvation  Ediel_sol  =         0.00000000
  ---------------------------------------------------
  free energy    TOTEN  =       -32.18748486 eV

  energy without entropy =      -32.17693892  energy(sigma->0) =      -32.18396955


--------------------------------------------------------------------------------------------------------




--------------------------------------- Iteration      1(  24)  ---------------------------------------


    POTLOK:  cpu time    0.0397: real time    0.0398
    SETDIJ:  cpu time    0.0121: real time    0.0121
     EDDAV:  cpu time    1.2557: real time    1.2559
       DOS:  cpu time    0.0110: real time    0.0110
    CHARGE:  cpu time    0.0302: real time    0.0302
    MIXING:  cpu time    0.0098: real time    0.0098
    --------------------------------------------
      LOOP:  cpu time    1.3586: real time    1.3589

 eigenvalue-minimisations  :   800
 total energy-change (2. order) :-0.2110053E-05  (-0.1474955E-05)
 number of electron      55.9999792 magnetization      -1.5942155
 augmentation part       33.5129479 magnetization      -1.2134193

 Broyden mixing:
  rms(total) = 0.10744E-02    rms(broyden)= 0.10047E-02
  rms(prec ) = 0.15704E-02
  weight for this iteration     100.00

 eigenvalues of (default mixing * dielectric matrix)
  average eigenvalue GAMMA=   1.2749
  3.5703  2.7610  2.1726  2.1726  1.4437  1.4437  0.9787  0.9787  1.0986  1.0986
  0.9382  0.9382  0.7871  0.7871  0.6541  0.6541  0.5772  0.5772  0.5909

 Free energy of the ion-electron system (eV)
  ---------------------------------------------------
  alpha Z        PSCENC =       489.66041203
  Ewald energy   TEWEN  =     -7508.04966429
  -Hartree energ DENC   =     -2025.59913595
  -exchange      EXHF   =         0.00000000
  -V(xc)+E(xc)   XCENC  =       280.44764424
  PAW double counting   =      8334.50813278    -8701.43274842
  entropy T*S    EENTRO =        -0.01050336
  eigenvalues    EBANDS =      -730.84017558
  atomic energy  EATOM  =      9829.12855158
  Solvation  Ediel_sol  =         0.00000000
  ---------------------------------------------------
  free energy    TOTEN  =       -32.18748697 eV

  energy without entropy =      -32.17698361  energy(sigma->0) =      -32.18398585


--------------------------------------------------------------------------------------------------------




--------------------------------------- Iteration      1(  25)  ---------------------------------------


    POTLOK:  cpu time    0.0416: real time    0.0417
    SETDIJ:  cpu time    0.0113: real time    0.0113
     EDDAV:  cpu time    0.8594: real time    0.8595
       DOS:  cpu time    0.0095: real time    0.0095
    CHARGE:  cpu time    0.0292: real time    0.0292
    MIXING:  cpu time    0.0103: real time    0.0103
    --------------------------------------------
      LOOP:  cpu time    0.9613: real time    0.9616

 eigenvalue-minimisations  :   448
 total energy-change (2. order) :-0.1127437E-05  (-0.9221394E-07)
 number of electron      55.9999792 magnetization      -1.5961190
 augmentation part       33.5126088 magnetization      -1.2151475

 Broyden mixing:
  rms(total) = 0.66232E-03    rms(broyden)= 0.63357E-03
  rms(prec ) = 0.90873E-03
  weight for this iteration     100.00

 eigenvalues of (default mixing * dielectric matrix)
  average eigenvalue GAMMA=   1.3093
  3.6079  2.5909  2.5909  2.1360  1.5617  1.5617  1.3723  1.3723  1.0673  1.0673
  0.9358  0.9358  0.8426  0.8426  0.6701  0.6701  0.5659  0.5659  0.6144  0.6144

 Free energy of the ion-electron system (eV)
  ---------------------------------------------------
  alpha Z        PSCENC =       489.66041203
  Ewald energy   TEWEN  =     -7508.04966429
  -Hartree energ DENC   =     -2025.61650118
  -exchange      EXHF   =         0.00000000
  -V(xc)+E(xc)   XCENC  =       280.44863711
  PAW double counting   =      8334.43772725    -8701.36521279
  entropy T*S    EENTRO =        -0.01047684
  eigenvalues    EBANDS =      -730.82096096
  atomic energy  EATOM  =      9829.12855158
  Solvation  Ediel_sol  =         0.00000000
  ---------------------------------------------------
  free energy    TOTEN  =       -32.18748810 eV

  energy without entropy =      -32.17701126  energy(sigma->0) =      -32.18399582


--------------------------------------------------------------------------------------------------------




--------------------------------------- Iteration      1(  26)  ---------------------------------------


    POTLOK:  cpu time    0.0451: real time    0.0452
    SETDIJ:  cpu time    0.0130: real time    0.0130
     EDDAV:  cpu time    0.7550: real time    0.7552
       DOS:  cpu time    0.0105: real time    0.0105
    --------------------------------------------
      LOOP:  cpu time    0.8236: real time    0.8238

 eigenvalue-minimisations  :   384
 total energy-change (2. order) :-0.3423047E-06  (-0.5866379E-07)
 number of electron      55.9999792 magnetization      -1.5961190
 augmentation part       33.5126088 magnetization      -1.2151475

 Free energy of the ion-electron system (eV)
  ---------------------------------------------------
  alpha Z        PSCENC =       489.66041203
  Ewald energy   TEWEN  =     -7508.04966429
  -Hartree energ DENC   =     -2025.63102475
  -exchange      EXHF   =         0.00000000
  -V(xc)+E(xc)   XCENC  =       280.44949868
  PAW double counting   =      8334.25039231    -8701.18011028
  entropy T*S    EENTRO =        -0.01045131
  eigenvalues    EBANDS =      -730.80509242
  atomic energy  EATOM  =      9829.12855158
  Solvation  Ediel_sol  =         0.00000000
  ---------------------------------------------------
  free energy    TOTEN  =       -32.18748844 eV

  energy without entropy =      -32.17703713  energy(sigma->0) =      -32.18400467


--------------------------------------------------------------------------------------------------------




 average (electrostatic) potential at core
  the test charge radii are     0.9500
  (the norm of the test charge is              1.0000)
       1 -72.5627       2 -72.5627       3 -72.5627       4 -72.5627
 
 
 
 E-fermi :  11.1538     XC(G=0): -14.3552     alpha+bet :-19.4825


 spin component 1

 k-point     1 :       0.1250    0.1250    0.1250
  band No.  band energies     occupation 
      1     -42.0932      1.00000
      2     -42.0932      1.00000
      3     -42.0932      1.00000
      4     -41.8112      1.00000
      5     -41.8112      1.00000
      6     -41.8112      1.00000
      7     -41.7569      1.00000
      8     -41.7569      1.00000
      9     -41.7569      1.00000
     10     -41.6525      1.00000
     11     -41.5826      1.00000
     12     -41.5826      1.00000
     13       2.9849      1.00000
     14       6.7070      1.00000
     15       6.7070      1.00000
     16       6.7070      1.00000
     17       7.3362      1.00000
     18       7.3362      1.00000
     19       7.3362      1.00000
     20       9.4210      1.00000
     21       9.8175      1.00000
     22       9.8175      1.00000
     23      11.1221      0.63255
     24      11.1221      0.63255
     25      11.1221      0.63255
     26      11.3028      0.02544
     27      11.3028      0.02544
     28      11.9643     -0.00000
     29      11.9643     -0.00000
     30      11.9643     -0.00000
     31      12.4902     -0.00000
     32      12.4902     -0.00000
     33      12.4902     -0.00000
     34      15.1798     -0.00000
     35      15.1798     -0.00000
     36      15.1798     -0.00000
     37      24.0969      0.00000
     38      24.0969      0.00000
     39      24.0969      0.00000
     40      25.2043      0.00000
     41      25.2043      0.00000
     42      25.2043      0.00000
     43      28.4165      0.00000
     44      28.4165      0.00000
     45      28.4165      0.00000
     46      32.8387      0.00000
     47      34.2739      0.00000
     48      34.2739      0.00000

 k-point     2 :       0.3750    0.1250    0.1250
  band No.  band energies     occupation 
      1     -42.0313      1.00000
      2     -42.0313      1.00000
      3     -41.9821      1.00000
      4     -41.8909      1.00000
      5     -41.8909      1.00000
      6     -41.8087      1.00000
      7     -41.7523      1.00000
      8     -41.7523      1.00000
      9     -41.7246      1.00000
     10     -41.7080      1.00000
     11     -41.6354      1.00000
     12     -41.6255      1.00000
     13       4.5503      1.00000
     14       6.4879      1.00000
     15       7.5267      1.00000
     16       7.5267      1.00000
     17       7.9228      1.00000
     18       7.9819      1.00000
     19       7.9819      1.00000
     20       8.8006      1.00000
     21       9.3767      1.00000
     22       9.3767      1.00000
     23       9.9920      1.00000
     24      10.0608      1.00000
     25      10.2506      1.00000
     26      11.0235      0.94195
     27      11.0914      0.75059
     28      11.3228     -0.00060
     29      11.3228     -0.00060
     30      11.7220     -0.00022
     31      12.2479     -0.00000
     32      12.3271     -0.00000
     33      12.3271     -0.00000
     34      12.3679     -0.00000
     35      17.7959      0.00000
     36      17.7959      0.00000
     37      21.2115      0.00000
     38      21.2115      0.00000
     39      25.0542      0.00000
     40      25.0542      0.00000
     41      26.9396      0.00000
     42      27.2592      0.00000
     43      27.2592      0.00000
     44      29.9373      0.00000
     45      30.0115      0.00000
     46      30.9846      0.00000
     47      33.8344      0.00000
     48      34.7725      0.00000

 k-point     3 :       0.3750    0.3750    0.1250
  band No.  band energies     occupation 
      1     -42.0486      1.00000
      2     -42.0349      1.00000
      3     -42.0349      1.00000
      4     -41.9433      1.00000
      5     -41.8621      1.00000
      6     -41.7796      1.00000
      7     -41.7796      1.00000
      8     -41.6880      1.00000
      9     -41.6868      1.00000
     10     -41.6763      1.00000
     11     -41.6763      1.00000
     12     -41.6116      1.00000
     13       5.7738      1.00000
     14       7.2329      1.00000
     15       7.2329      1.00000
     16       7.6722      1.00000
     17       8.3694      1.00000
     18       8.5069      1.00000
     19       8.5069      1.00000
     20       8.8599      1.00000
     21       9.1421      1.00000
     22       9.1421      1.00000
     23       9.2718      1.00000
     24       9.7377      1.00000
     25      10.2194      1.00000
     26      10.7209      1.00453
     27      10.7209      1.00453
     28      10.7388      1.00622
     29      11.1503      0.51511
     30      11.8612     -0.00000
     31      11.8612     -0.00000
     32      11.9525     -0.00000
     33      12.4457     -0.00000
     34      14.1894     -0.00000
     35      14.1894     -0.00000
     36      16.5182     -0.00000
     37      20.4507      0.00000
     38      23.1898      0.00000
     39      23.1898      0.00000
     40      26.1273      0.00000
     41      26.1713      0.00000
     42      28.3799      0.00000
     43      28.3799      0.00000
     44      31.0053      0.00000
     45      31.6828      0.00000
     46      31.6828      0.00000
     47      33.2087      0.00000
     48      34.7516      0.00000

[...]
     20       9.8347      1.00000
     21      10.2472      1.00000
     22      10.2472      1.00000
     23      11.5314      1.00844
     24      11.5314      1.00844
     25      11.6995      1.03430
     26      11.6995      1.03430
     27      11.6995      1.03430
     28      12.2908     -0.01390
     29      12.2908     -0.01390
     30      12.2908     -0.01390
     31      13.0250     -0.00000
     32      13.0250     -0.00000
     33      13.0250     -0.00000
     34      16.0261     -0.00000
     35      16.0261     -0.00000
     36      16.0261     -0.00000
     37      25.1853      0.00000
     38      25.1853      0.00000
     39      25.1853      0.00000
     40      26.4415      0.00000
     41      26.4415      0.00000
     42      26.4415      0.00000
     43      29.6867      0.00000
     44      29.6867      0.00000
     45      29.6867      0.00000
     46      34.1084      0.00000
     47      35.7489      0.00000
     48      35.7489      0.00000

 k-point     2 :       0.3750    0.1250    0.1250
  band No.  band energies     occupation 
      1     -41.7356      1.00000
      2     -41.7356      1.00000
      3     -41.6829      1.00000
      4     -41.5731      1.00000
      5     -41.5731      1.00000
      6     -41.4833      1.00000
      7     -41.4141      1.00000
      8     -41.4141      1.00000
      9     -41.3833      1.00000
     10     -41.3632      1.00000
     11     -41.2773      1.00000
     12     -41.2664      1.00000
     13       5.0574      1.00000
     14       6.8411      1.00000
     15       7.6802      1.00000
     16       7.6802      1.00000
     17       8.2558      1.00000
     18       8.3457      1.00000
     19       8.3457      1.00000
     20       9.1834      1.00000
     21       9.8408      1.00000
     22       9.8408      1.00000
     23      10.3856      1.00000
     24      10.3899      1.00000
     25      10.6710      1.00000
     26      11.3820      1.00039
     27      11.4955      1.00456
     28      11.5809      1.01702
     29      11.5809      1.01702
     30      12.0123      0.17597
     31      12.6355     -0.00000
     32      12.9069     -0.00000
     33      12.9069     -0.00000
     34      12.9589     -0.00000
     35      18.7364      0.00000
     36      18.7364      0.00000
     37      22.3019      0.00000
     38      22.3019      0.00000
     39      26.2117      0.00000
     40      26.2117      0.00000
     41      28.1844      0.00000
     42      28.5589      0.00000
     43      28.5589      0.00000
     44      31.2508      0.00000
     45      31.2812      0.00000
     46      32.3535      0.00000
     47      35.0936      0.00000
     48      36.2351      0.00000

 k-point     3 :       0.3750    0.3750    0.1250
  band No.  band energies     occupation 
      1     -41.7574      1.00000
      2     -41.7432      1.00000
      3     -41.7432      1.00000
      4     -41.6393      1.00000
      5     -41.5416      1.00000
      6     -41.4475      1.00000
      7     -41.4475      1.00000
      8     -41.3400      1.00000
      9     -41.3397      1.00000
     10     -41.3269      1.00000
     11     -41.3269      1.00000
     12     -41.2523      1.00000
     13       6.2817      1.00000
     14       7.6346      1.00000
     15       7.6346      1.00000
     16       8.0496      1.00000
     17       8.5728      1.00000
     18       8.8283      1.00000
     19       8.8283      1.00000
     20       9.2800      1.00000
     21       9.4867      1.00000
     22       9.4867      1.00000
     23       9.7357      1.00000
     24      10.0318      1.00000
     25      10.5214      1.00000
     26      10.9898      1.00000
     27      11.0202      1.00000
     28      11.0202      1.00000
     29      11.5218      1.00722
     30      12.3343     -0.00721
     31      12.3343     -0.00721
     32      12.4620     -0.00052
     33      12.9124     -0.00000
     34      14.8811     -0.00000
     35      14.8811     -0.00000
     36      17.3604     -0.00000
     37      21.5523      0.00000
     38      24.3631      0.00000
     39      24.3631      0.00000
     40      27.3755      0.00000
     41      27.3823      0.00000
     42      29.6323      0.00000
     43      29.6323      0.00000
     44      32.3016      0.00000
     45      33.0737      0.00000
     46      33.0737      0.00000
     47      34.6525      0.00000
     48      36.1740      0.00000

 k-point     4 :       0.3750    0.3750    0.3750
  band No.  band energies     occupation 
      1     -41.8532      1.00000
      2     -41.8532      1.00000
      3     -41.8532      1.00000
      4     -41.7966      1.00000
      5     -41.3526      1.00000
      6     -41.3526      1.00000
      7     -41.3526      1.00000
      8     -41.3159      1.00000
      9     -41.3159      1.00000
     10     -41.3159      1.00000
     11     -41.2760      1.00000
     12     -41.2760      1.00000
     13       6.5277      1.00000
     14       7.1330      1.00000
     15       7.1330      1.00000
     16       7.1330      1.00000
     17       9.4147      1.00000
     18       9.4147      1.00000
     19       9.4147      1.00000
     20      10.0480      1.00000
     21      10.0480      1.00000
     22      10.2586      1.00000
     23      10.2586      1.00000
     24      10.2586      1.00000
     25      10.5446      1.00000
     26      10.5446      1.00000
     27      10.5446      1.00000
     28      10.5585      1.00000
     29      12.4811     -0.00033
     30      12.4811     -0.00033
     31      12.8487     -0.00000
     32      12.8487     -0.00000
     33      12.8487     -0.00000
     34      14.6289     -0.00000
     35      14.6289     -0.00000
     36      14.6289     -0.00000
     37      21.1425      0.00000
     38      21.1425      0.00000
     39      21.1425      0.00000
     40      23.4970      0.00000
     41      32.5348      0.00000
     42      32.5348      0.00000
     43      32.5348      0.00000
     44      34.2079      0.00000
     45      36.4234      0.00000
     46      36.4234      0.00000
     47      36.4234      0.00000
     48      37.0431      0.00000


--------------------------------------------------------------------------------------------------------


 soft charge-density along one line, spin component           1
         0         1         2         3         4         5         6         7         8         9
 total charge-density along one line
 
 soft charge-density along one line, spin component           2
         0         1         2         3         4         5         6         7         8         9
 total charge-density along one line
 
 pseudopotential strength for first ion, spin component:           1
-42.375  -0.000   0.000  24.019   0.000  -0.000  -0.000   0.000
 -0.000 -42.375  -0.000   0.000  24.019   0.000  -0.000   0.000
  0.000  -0.000 -42.375  -0.000   0.000  24.019  -0.000  -0.000
 24.019   0.000  -0.000  -8.331  -0.000   0.000   0.000  -0.000
  0.000  24.019   0.000  -0.000  -8.331  -0.000   0.000  -0.000
 -0.000   0.000  24.019   0.000  -0.000  -8.331   0.000   0.000
 -0.000  -0.000  -0.000   0.000   0.000   0.000  -0.014  -0.000
  0.000   0.000  -0.000  -0.000  -0.000   0.000  -0.000  -0.014
 -0.000   0.000   0.000   0.000  -0.000  -0.000  -0.000  -0.000
 -0.000  -0.000   0.000   0.000   0.000  -0.000  -0.000   0.000
 -0.000   0.000  -0.000   0.000  -0.000   0.000   0.000   0.000
  0.000   0.000   0.000  -0.000  -0.000  -0.000  -1.682   0.000
 -0.000  -0.000   0.000   0.000   0.000  -0.000   0.000  -1.682
  0.000  -0.000  -0.000  -0.000   0.000   0.000   0.000   0.000
  0.000   0.000  -0.000  -0.000  -0.000   0.000   0.000  -0.000
  0.000  -0.000   0.000  -0.000   0.000  -0.000  -0.000  -0.000
 -0.000  -0.000   0.000   0.000   0.000  -0.000  -0.000   0.000
  0.000   0.000  -0.000  -0.000  -0.000   0.000   0.000  -0.000
 pseudopotential strength for first ion, spin component:           2
-42.677  -0.000   0.000  24.262   0.000  -0.000  -0.000   0.000
 -0.000 -42.677  -0.000   0.000  24.262   0.000  -0.000   0.000
  0.000  -0.000 -42.677  -0.000   0.000  24.262  -0.000  -0.000
 24.262   0.000  -0.000  -8.510  -0.000   0.000   0.000  -0.000
  0.000  24.262   0.000  -0.000  -8.510  -0.000   0.000  -0.000
 -0.000   0.000  24.262   0.000  -0.000  -8.510   0.000   0.000
 -0.000  -0.000  -0.000   0.000   0.000   0.000  -0.198  -0.000
  0.000   0.000  -0.000  -0.000  -0.000   0.000  -0.000  -0.198
 -0.000   0.000   0.000   0.000  -0.000  -0.000  -0.000  -0.000
 -0.000  -0.000   0.000   0.000   0.000  -0.000  -0.000   0.000
 -0.000   0.000  -0.000   0.000  -0.000   0.000  -0.000   0.000
  0.000   0.000   0.000  -0.000  -0.000  -0.000  -1.632   0.000
 -0.000  -0.000   0.000   0.000   0.000  -0.000   0.000  -1.632
  0.000  -0.000  -0.000  -0.000   0.000   0.000   0.000   0.000
  0.000   0.000  -0.000  -0.000  -0.000   0.000   0.000  -0.000
  0.000  -0.000   0.000  -0.000   0.000  -0.000   0.000  -0.000
 -0.000  -0.000   0.000   0.000   0.000  -0.000  -0.000   0.000
  0.000   0.000  -0.000  -0.000  -0.000   0.000   0.000  -0.000
 total augmentation occupancy for first ion, spin component:           1
  2.032  -0.000   0.000   0.119   0.000   0.000   0.000   0.000   0.000  -0.000   0.000  -0.000   0.000   0.000   0.000   0.000
 -0.000   2.032  -0.000   0.000   0.119   0.000   0.000   0.000  -0.000   0.000  -0.000   0.000  -0.000  -0.000   0.000   0.000
  0.000  -0.000   2.032   0.000  -0.000   0.119  -0.000   0.000   0.000   0.000  -0.000  -0.000   0.000  -0.000   0.000   0.000
  0.119   0.000   0.000   0.337  -0.000  -0.000   0.000   0.000  -0.000  -0.000  -0.000  -0.000   0.000   0.000  -0.000  -0.000
  0.000   0.119  -0.000  -0.000   0.337  -0.000  -0.000   0.000   0.000  -0.000  -0.000   0.000   0.000   0.000   0.000  -0.000
  0.000  -0.000   0.119   0.000   0.000   0.337   0.000   0.000   0.000   0.000   0.000  -0.000   0.000   0.000   0.000  -0.000
  0.000   0.000  -0.000   0.000  -0.000   0.000   1.473   0.000   0.000  -0.000  -0.000   0.341   0.000  -0.000   0.000  -0.000
  0.000   0.000   0.000   0.000   0.000   0.000   0.000   1.473  -0.000   0.000   0.000   0.000   0.341   0.000   0.000  -0.000
  0.000  -0.000  -0.000  -0.000  -0.000  -0.000   0.000   0.000   1.424  -0.000  -0.000  -0.000  -0.000   0.230  -0.000   0.000
 -0.000   0.000   0.000  -0.000  -0.000   0.000   0.000   0.000  -0.000   1.473  -0.000  -0.000   0.000   0.000   0.341   0.000
  0.000  -0.000  -0.000   0.000  -0.000   0.000  -0.000   0.000   0.000  -0.000   1.424  -0.000  -0.000   0.000   0.000   0.230
 -0.000   0.000  -0.000  -0.000   0.000  -0.000   0.341  -0.000   0.000  -0.000  -0.000   0.200  -0.000  -0.000   0.000  -0.000
  0.000  -0.000   0.000   0.000   0.000   0.000   0.000   0.341  -0.000   0.000  -0.000   0.000   0.200  -0.000   0.000   0.000
 -0.000  -0.000   0.000  -0.000  -0.000  -0.000  -0.000  -0.000   0.230   0.000   0.000  -0.000  -0.000   0.209  -0.000   0.000
  0.000   0.000   0.000  -0.000   0.000   0.000  -0.000   0.000   0.000   0.341   0.000   0.000   0.000   0.000   0.200   0.000
 -0.000   0.000   0.000  -0.000  -0.000  -0.000   0.000  -0.000   0.000  -0.000   0.230  -0.000   0.000   0.000   0.000   0.209
  0.000  -0.000   0.000   0.000   0.000   0.000   0.000   0.000  -0.000  -0.000  -0.000  -0.000  -0.000   0.000   0.000   0.000
  0.000   0.000   0.000   0.000   0.000   0.000   0.000   0.000   0.000   0.000   0.000  -0.000   0.000   0.000   0.000  -0.000
 total augmentation occupancy for first ion, spin component:           2
  0.001  -0.000   0.000   0.001   0.000   0.000   0.000   0.000  -0.000  -0.000   0.000  -0.000  -0.000   0.000   0.000   0.000
 -0.000   0.001  -0.000   0.000   0.001  -0.000   0.000  -0.000   0.000   0.000  -0.000   0.000   0.000   0.000  -0.000  -0.000
  0.000  -0.000   0.001  -0.000   0.000   0.001   0.000   0.000   0.000  -0.000  -0.000   0.000   0.000  -0.000  -0.000   0.000
  0.001   0.000  -0.000  -0.001   0.000  -0.000  -0.000  -0.000   0.000   0.000  -0.000   0.000  -0.000   0.000  -0.000   0.000
 -0.000   0.001  -0.000  -0.000  -0.001   0.000  -0.000   0.000  -0.000   0.000  -0.000  -0.000  -0.000   0.000  -0.000  -0.000
  0.000   0.000   0.001  -0.000   0.000  -0.001   0.000  -0.000   0.000  -0.000   0.000  -0.000   0.000  -0.000   0.000  -0.000
  0.000   0.000   0.000  -0.000  -0.000   0.000  -0.009   0.000  -0.000  -0.000   0.000   0.016   0.000   0.000  -0.000   0.000
  0.000  -0.000   0.000  -0.000   0.000  -0.000  -0.000  -0.009   0.000  -0.000   0.000  -0.000   0.016   0.000   0.000  -0.000
  0.000   0.000  -0.000   0.000  -0.000   0.000   0.000  -0.000  -0.159   0.000  -0.000  -0.000  -0.000   0.069   0.000   0.000
 -0.000   0.000  -0.000   0.000   0.000  -0.000  -0.000  -0.000   0.000  -0.009  -0.000  -0.000  -0.000   0.000   0.016   0.000
  0.000  -0.000  -0.000   0.000   0.000   0.000   0.000   0.000  -0.000  -0.000  -0.159  -0.000  -0.000   0.000   0.000   0.069
 -0.000   0.000   0.000   0.000  -0.000  -0.000   0.016  -0.000  -0.000   0.000   0.000   0.005  -0.000   0.000   0.000   0.000
 -0.000   0.000   0.000  -0.000  -0.000   0.000   0.000   0.016   0.000   0.000  -0.000  -0.000   0.005  -0.000   0.000  -0.000
 -0.000   0.000  -0.000   0.000   0.000   0.000   0.000  -0.000   0.069  -0.000   0.000   0.000  -0.000  -0.005  -0.000   0.000
  0.000  -0.000  -0.000  -0.000  -0.000   0.000  -0.000   0.000  -0.000   0.016   0.000  -0.000   0.000   0.000   0.005  -0.000
 -0.000   0.000   0.000  -0.000  -0.000   0.000  -0.000  -0.000   0.000   0.000   0.069   0.000  -0.000   0.000   0.000  -0.005
  0.000   0.000   0.000   0.000   0.000   0.000   0.000  -0.000   0.000  -0.000  -0.000  -0.000  -0.000  -0.000  -0.000   0.000
  0.000   0.000   0.000   0.000  -0.000   0.000   0.000   0.000  -0.000  -0.000  -0.000  -0.000  -0.000   0.000  -0.000  -0.000


------------------------ aborting loop because EDIFF is reached ----------------------------------------


    CHARGE:  cpu time    0.0322: real time    0.0322
    FORLOC:  cpu time    0.0003: real time    0.0003
    FORNL :  cpu time    0.0288: real time    0.0288
    STRESS:  cpu time    0.0824: real time    0.0824
    FORCOR:  cpu time    0.0342: real time    0.0342
    FORHAR:  cpu time    0.0050: real time    0.0050
    MIXING:  cpu time    0.0062: real time    0.0062
    OFIELD:  cpu time    0.0000: real time    0.0000

  FORCE on cell =-STRESS in cart. coord.  units (eV):
  Direction    XX          YY          ZZ          XY          YZ          ZX
  --------------------------------------------------------------------------------------
  Alpha Z   514.62798   514.62798   514.62798
  Ewald   -2544.51807 -2544.51807 -2544.51807     0.00000    -0.00000    -0.00000
  Hartree   654.27995   654.27995   654.27995    -0.00000    -0.00000    -0.00000
  E(xc)    -358.86011  -358.86011  -358.86011     0.00000    -0.00000    -0.00000
  Local     695.76920   695.76920   695.76920     0.00000    -0.00000     0.00000
  n-local  -109.57360  -110.47009  -105.09658     6.03378     3.09054     5.04562
  augment   569.42924   569.42924   569.42924    -0.00000    -0.00000     0.00000
  Kinetic   591.96710   573.64952   567.34572     4.49855     9.60963    10.41128
  Fock        0.00000     0.00000     0.00000     0.00000     0.00000     0.00000
  -------------------------------------------------------------------------------------
  Total       0.00220     0.00220     0.00220     0.00000     0.00000    -0.00000
  in kB       0.09056     0.09056     0.09056     0.00000     0.00000    -0.00000
  external pressure =        0.09 kB  Pullay stress =        0.00 kB


 VOLUME and BASIS-vectors are now :
 -----------------------------------------------------------------------------
  energy-cutoff  :      269.53
  volume of cell :       38.97
      direct lattice vectors                 reciprocal lattice vectors
     3.390328789  0.000000000  0.000000000     0.294956644 -0.000000000  0.000000000
     0.000000000  3.390328789 -0.000000000    -0.000000000  0.294956644  0.000000000
    -0.000000000 -0.000000000  3.390328789    -0.000000000  0.000000000  0.294956644

  length of vectors
     3.390328789  3.390328789  3.390328789     0.294956644  0.294956644  0.294956644


 FORCES acting on ions
    electron-ion (+dipol)            ewald-force                    non-local-force                 convergence-correction
 -----------------------------------------------------------------------------------------------
   -.993E-13 -.994E-13 -.181E-12   0.489E-14 0.199E-13 0.129E-13   -.961E-25 0.171E-24 -.456E-24   0.199E-13 0.124E-12 -.469E-13
   0.109E-11 0.106E-11 0.134E-11   -.165E-13 0.270E-13 0.127E-13   0.243E-24 0.210E-25 -.336E-25   0.381E-13 0.122E-12 -.810E-13
   0.108E-11 -.102E-12 -.139E-11   0.363E-13 -.267E-13 -.998E-14   0.108E-24 -.153E-24 0.247E-24   0.559E-13 0.867E-13 -.146E-13
   -.958E-13 0.107E-11 0.988E-12   -.266E-13 -.197E-13 -.101E-13   0.401E-24 -.218E-24 -.156E-24   0.382E-13 0.132E-12 0.397E-13
 -----------------------------------------------------------------------------------------------
   0.198E-11 0.192E-11 0.763E-12   -.189E-14 0.524E-15 0.540E-14   0.655E-24 -.179E-24 -.398E-24   0.152E-12 0.465E-12 -.103E-12
 
 
 POSITION                                       TOTAL-FORCE (eV/Angst)
 -----------------------------------------------------------------------------------
      0.00000     -0.00000      0.00000         0.000000     -0.000000      0.000000
      1.69516      1.69516     -0.00000         0.000000     -0.000000      0.000000
      1.69516     -0.00000      1.69516         0.000000      0.000000     -0.000000
     -0.00000      1.69516      1.69516        -0.000000      0.000000     -0.000000
 -----------------------------------------------------------------------------------
    total drift:                                0.000000      0.000000      0.000000


--------------------------------------------------------------------------------------------------------



  FREE ENERGIE OF THE ION-ELECTRON SYSTEM (eV)
  ---------------------------------------------------
  free  energy   TOTEN  =       -32.34070565 eV

  energy  without entropy=      -32.32913800  energy(sigma->0) =      -32.33684977
 
 d Force = 0.0000000E+00[ 0.000E+00, 0.000E+00]  d Energy = 0.5238301E-03-0.524E-03
 d Force = 0.0000000E+00[ 0.000E+00, 0.000E+00]  d Ewald  = 0.7495108E+01-0.750E+01


--------------------------------------------------------------------------------------------------------


    POTLOK:  cpu time    0.0540: real time    0.0540


--------------------------------------------------------------------------------------------------------




--------------------------------------------------------------------------------------------------------


  
 reached required accuracy - stopping structural energy minimisation
     LOOP+:  cpu time    9.7133: real time    9.7388
    4ORBIT:  cpu time    0.0000: real time    0.0000

 total amount of memory used by VASP MPI-rank0    31502. kBytes
=======================================================================

   base      :      30000. kBytes
   nonl-proj :        266. kBytes
   fftplans  :        154. kBytes
   grid      :        768. kBytes
   one-center:        124. kBytes
   wavefun   :        190. kBytes
 
  
  
 General timing and accounting informations for this job:
 ========================================================
  
                  Total CPU time used (sec):       73.860
                            User time (sec):       28.481
                          System time (sec):       45.379
                         Elapsed time (sec):       74.422
  
                   Maximum memory used (kb):       36568.
                   Average memory used (kb):           0.
  
                          Minor page faults:        20952
                          Major page faults:            0
                 Voluntary context switches:         4591
