automatically generated by pyflamestk   
           1
     3.447000    0.000000    0.000000
     0.000000    3.447000    0.000000
     0.000000    0.000000    3.447000
   Fe
   4
Direct configuration=     1
   0.00000000  0.00000000  0.00000000
   0.50000000  0.50000000  0.00000000
   0.50000000  0.00000000  0.50000000
   0.00000000  0.50000000  0.50000000
automatically generated by pyflamestk   
           1
     3.190185    0.000000    0.000000
     0.000000    3.190185   -0.000000
    -0.000000   -0.000000    3.190185
   Fe
   4
Direct configuration=     2
   0.00000000 -0.00000000  0.00000000
   0.50000000  0.50000000  0.00000000
   0.50000000  0.00000000  0.50000000
  -0.00000000  0.50000000  0.50000000
automatically generated by pyflamestk   
           1
     3.393661    0.000000    0.000000
     0.000000    3.393661   -0.000000
    -0.000000   -0.000000    3.393661
   Fe
   4
Direct configuration=     3
   0.00000000 -0.00000000  0.00000000
   0.50000000  0.50000000  0.00000000
   0.50000000  0.00000000  0.50000000
  -0.00000000  0.50000000  0.50000000
automatically generated by pyflamestk   
           1
     3.390329    0.000000    0.000000
     0.000000    3.390329   -0.000000
    -0.000000   -0.000000    3.390329
   Fe
   4
Direct configuration=     4
   0.00000000 -0.00000000  0.00000000
   0.50000000  0.50000000  0.00000000
   0.50000000  0.00000000  0.50000000
  -0.00000000  0.50000000  0.50000000
