    2    2    1    1
  0.9563318E+01  0.3001819E-09  0.3001820E-09  0.3001819E-09  0.5000000E-15
  1.000000000000000E-004
  CAR 
 automatically generated by pyflamestk   
      8     10     16
 
  0.1250000E+00  0.1250000E+00  0.1250000E+00  0.3125000E-01
    1      -13.573072   1.000000
    2        2.468720   1.000000
    3        3.315065   1.000000
    4        3.315066   1.000000
    5        8.833836   0.000000
    6       17.412643   0.000000
    7       19.429200   0.000000
    8       19.429203   0.000000
    9       23.679324   0.000000
   10       23.679328   0.000000
   11       25.017954   0.000000
   12       27.455323   0.000000
   13       28.886324   0.000000
   14       28.886328   0.000000
   15       39.150949   0.000000
   16       41.053149   0.000000
 
  0.3750000E+00  0.1250000E+00  0.1250000E+00  0.9375000E-01
    1      -12.914067   1.000000
    2        0.296222   1.000000
    3        2.453592   1.000000
    4        3.016950   1.000000
    5       11.250145   0.000000
    6       15.350962   0.000000
    7       18.762983   0.000000
    8       20.430695   0.000000
    9       22.251363   0.000000
   10       24.482213   0.000000
   11       26.600526   0.000000
   12       31.261608   0.000000
   13       32.535534   0.000000
   14       33.410562   0.000000
   15       35.780958   0.000000
   16       39.074396   0.000000
 
 -0.3750000E+00  0.1250000E+00  0.1250000E+00  0.9375000E-01
    1      -12.473021   1.000000
    2       -0.837707   1.000000
    3        2.302454   1.000000
    4        2.677312   1.000000
    5       11.837412   0.000000
    6       15.561753   0.000000
    7       18.052317   0.000000
    8       19.868536   0.000000
    9       23.858710   0.000000
   10       26.108623   0.000000
   11       26.204353   0.000000
   12       32.487827   0.000000
   13       33.084217   0.000000
   14       33.429480   0.000000
   15       36.011055   0.000000
   16       37.721825   0.000000
 
 -0.1250000E+00  0.1250000E+00  0.1250000E+00  0.9375000E-01
    1      -13.206165   1.000000
    2        1.185309   1.000000
    3        2.944621   1.000000
    4        2.948415   1.000000
    5       10.422573   0.000000
    6       15.591758   0.000000
    7       19.557077   0.000000
    8       20.037797   0.000000
    9       21.213107   0.000000
   10       25.058858   0.000000
   11       27.058187   0.000000
   12       30.156174   0.000000
   13       30.441037   0.000000
   14       31.194290   0.000000
   15       37.416100   0.000000
   16       39.178466   0.000000
 
  0.3750000E+00  0.3750000E+00  0.1250000E+00  0.9375000E-01
    1      -12.676076   1.000000
    2        0.109842   1.000000
    3        2.253185   1.000000
    4        2.486277   1.000000
    5       12.353239   0.000000
    6       13.995323   0.000000
    7       17.306693   0.000000
    8       20.936727   0.000000
    9       21.393799   0.000000
   10       27.239538   0.000000
   11       30.345436   0.000000
   12       30.614073   0.000000
   13       32.527685   0.000000
   14       35.019472   0.000000
   15       36.672400   0.000000
   16       38.088537   0.000000
 
 -0.3750000E+00  0.3750000E+00  0.1250000E+00  0.1875000E+00
    1      -12.259888   1.000000
    2       -0.008561   1.000000
    3        0.991963   1.000000
    4        2.074497   1.000000
    5       13.867438   0.000000
    6       14.906146   0.000000
    7       15.697989   0.000000
    8       19.711385   0.000000
    9       23.157069   0.000000
   10       26.610239   0.000000
   11       30.173231   0.000000
   12       31.595875   0.000000
   13       32.864092   0.000000
   14       36.538056   0.000000
   15       39.109601   0.000000
   16       41.329006   0.000000
 
 -0.1250000E+00  0.3750000E+00  0.1250000E+00  0.1875000E+00
    1      -12.518826   1.000000
    2       -0.211818   1.000000
    3        1.734905   1.000000
    4        2.575606   1.000000
    5       12.711233   0.000000
    6       14.905247   0.000000
    7       17.079053   0.000000
    8       20.274500   0.000000
    9       22.844015   0.000000
   10       25.518457   0.000000
   11       29.053263   0.000000
   12       31.845012   0.000000
   13       32.426637   0.000000
   14       35.091348   0.000000
   15       35.734387   0.000000
   16       41.235906   0.000000
 
 -0.3750000E+00 -0.3750000E+00  0.1250000E+00  0.9375000E-01
    1      -12.296612   1.000000
    2       -0.373155   1.000000
    3        1.734668   1.000000
    4        2.191713   1.000000
    5       12.941789   0.000000
    6       13.624281   0.000000
    7       16.148824   0.000000
    8       21.647640   0.000000
    9       21.658707   0.000000
   10       29.126828   0.000000
   11       29.558786   0.000000
   12       32.141760   0.000000
   13       32.856404   0.000000
   14       38.005050   0.000000
   15       38.386873   0.000000
   16       41.317875   0.000000
 
  0.3750000E+00  0.3750000E+00  0.3750000E+00  0.3125000E-01
    1      -12.712339   1.000000
    2       -0.567019   1.000000
    3        2.872603   1.000000
    4        2.872604   1.000000
    5       11.047565   0.000000
    6       15.567385   0.000000
    7       19.664133   0.000000
    8       19.664135   0.000000
    9       24.253515   0.000000
   10       24.593664   0.000000
   11       24.593667   0.000000
   12       32.107935   0.000000
   13       33.428071   0.000000
   14       33.428073   0.000000
   15       37.041832   0.000000
   16       37.041838   0.000000
 
 -0.3750000E+00  0.3750000E+00  0.3750000E+00  0.9375000E-01
    1      -12.344250   1.000000
    2       -0.250727   1.000000
    3        1.097980   1.000000
    4        2.545219   1.000000
    5       13.190220   0.000000
    6       15.364385   0.000000
    7       16.270313   0.000000
    8       20.586304   0.000000
    9       22.670035   0.000000
   10       25.694753   0.000000
   11       29.273430   0.000000
   12       31.815197   0.000000
   13       32.238110   0.000000
   14       35.576791   0.000000
   15       37.461400   0.000000
   16       40.335263   0.000000
