# ['Ni']

10 atoms
1 atom types

    0.0000     3.6699 xlo xhi
    0.0000     2.6271 ylo yhi
    0.0000    26.2707 zlo zhi

    0.0000     0.0000     0.0000 xy xz yz

Atoms

1 1     0.0000     0.0000     0.0000
2 1     1.8349     1.3135     1.3135
3 1     0.0000     0.0000     2.6271
4 1     1.8349     1.3135     3.9406
5 1     0.0000     0.0000     5.2541
6 1     1.8349     1.3135     6.5677
7 1     0.0000     0.0000     7.8812
8 1     1.8349     1.3135     9.1947
9 1     0.0000     0.0000    10.5083
10 1     1.8349     1.3135    11.8218
