LAMMPS (11 Aug 2017)
Reading data file ...
  triclinic box = (0 0 0) to (2.322 2.322 2.322) with tilt (-0 -0 0)
  1 by 1 by 1 MPI processor grid
  reading atoms ...
  1 atoms
1 atoms in group Ni
Neighbor list info ...
  update every 1 steps, delay 0 steps, check yes
  max neighbors/atom: 2000, page size: 100000
  master list distance cutoff = 5.64464
  ghost atom cutoff = 5.64464
  binsize = 2.82232, bins = 1 1 1
  1 neighbor lists, perpetual/occasional/extra = 1 0 0
  (1) pair eam/alloy, perpetual
      attributes: half, newton on
      pair build: half/bin/newton/tri
      stencil: half/bin/3d/newton/tri
      bin: standard
Setting up cg style minimization ...
  Unit style    : metal
  Current step  : 0
WARNING: Energy due to 3 extra global DOFs will be included in minimizer energies
Per MPI rank memory allocation (min/avg/max) = 4.239 | 4.239 | 4.239 Mbytes
Step PotEng Xhi Xlo Yhi Ylo Zhi Xy Xz Yz Press Pxx Pyy Pzz Pxy Pxz Pyz c_eatoms 
       0   0.11677215        2.322            0        2.322            0        2.322           -0           -0            0    256225.25    256225.25    256225.25    256225.25            0            0            0   0.11677215 
      10  0.060280678      2.33361     -0.01161      2.33361     -0.01161      2.33361           -0           -0            0    221820.18    221820.18    221820.18    221820.18 4.3094301e-13 4.3094301e-13 8.6188602e-13  0.060280678 
      20  0.010443157      2.34522     -0.02322      2.34522     -0.02322      2.34522           -0           -0            0    191658.94    191658.94    191658.94    191658.94 -4.1839207e-13 -6.2758811e-13 -6.2758811e-13  0.010443157 
      30 -0.033423354      2.35683     -0.03483      2.35683     -0.03483      2.35683           -0           -0            0    165225.59    165225.59    165225.59    165225.59            0            0 4.0632383e-13 -0.033423354 
      40 -0.071933591      2.36844     -0.04644      2.36844     -0.04644      2.36844           -0           -0            0    142067.88    142067.88    142067.88    142067.88            0 3.9471529e-13 7.8943057e-13 -0.071933591 
      50  -0.10564097      2.38005     -0.05805      2.38005     -0.05805      2.38005           -0           -0            0    121789.04    121789.04    121789.04    121789.04 -3.8354477e-13 -1.9177239e-13 -1.9177239e-13  -0.10564097 
      60  -0.13504376      2.39166     -0.06966      2.39166     -0.06966      2.39166           -0           -0            0    104040.81    104040.81    104040.81    104040.81            0 -3.7279181e-13            0  -0.13504376 
      70  -0.16059066      2.40327     -0.08127      2.40327     -0.08127      2.40327           -0           -0            0    88517.442    88517.442    88517.442    88517.442 3.6243709e-13 1.2685298e-12 1.4497483e-12  -0.16059066 
      80  -0.18268575      2.41488     -0.09288      2.41488     -0.09288      2.41488           -0           -0            0    74950.405    74950.405    74950.405    74950.405            0 1.7623116e-13 -3.5246232e-13  -0.18268575 
      90  -0.20169299      2.42649     -0.10449      2.42649     -0.10449      2.42649           -0           -0            0    63103.793    63103.793    63103.793    63103.793 -6.857005e-13 -2.9999397e-13 -9.4283818e-13  -0.20169299 
     100  -0.21794026       2.4381      -0.1161       2.4381      -0.1161       2.4381           -0           -0            0    52770.298    52770.298    52770.298    52770.298 -1.0007536e-12 -1.0424517e-12 -1.0841497e-12  -0.21794026 
     110  -0.23172298      2.44971     -0.12771      2.44971     -0.12771      2.44971           -0           -0            0    43767.696    43767.696    43767.696    43767.696 3.2464972e-13 -1.6232486e-13 1.6232486e-13  -0.23172298 
     120  -0.24330735      2.46132     -0.13932      2.46132     -0.13932      2.46132           -0           -0            0     35935.77     35935.77     35935.77     35935.77            0 -1.5801558e-13 -3.1603115e-13  -0.24330735 
     130  -0.25293328      2.47293     -0.15093      2.47293     -0.15093      2.47293           -0           -0            0    29133.623    29133.623    29133.623    29133.623            0 -1.5385749e-13 -1.5385749e-13  -0.25293328 
     140  -0.26081705      2.48454     -0.16254      2.48454     -0.16254      2.48454           -0           -0            0    23237.318    23237.318    23237.318    23237.318 -9.3652512e-15 -3.4651429e-13 -1.1238301e-13  -0.26081705 
     150  -0.26715365      2.49615     -0.17415      2.49615     -0.17415      2.49615           -0           -0            0    18137.815    18137.815    18137.815    18137.815 2.8737635e-13 6.6142175e-13 6.386141e-14  -0.26715365 
     160  -0.27210994      2.50776     -0.18576      2.50776     -0.18576      2.50776           -0           -0            0    13633.719    13633.719    13633.719    13633.719 -2.8445266e-13 -2.1333949e-13            0  -0.27210994 
     170  -0.27579823      2.51937     -0.19737      2.51937     -0.19737      2.51937           -0           -0            0    9659.1217    9659.1217    9659.1217    9659.1217 5.5444232e-13 1.7326323e-13            0  -0.27579823 
     180    -0.278354      2.53098     -0.20898      2.53098     -0.20898      2.53098           -0           -0            0    6229.0734    6229.0734    6229.0734    6229.0734 -2.7023273e-13  -3.7157e-13 -2.7023273e-13    -0.278354 
     190   -0.2799051      2.54259     -0.22059      2.54259     -0.22059      2.54259           -0           -0            0    3277.9101    3277.9101    3277.9101    3277.9101            0 -6.5869306e-14            0   -0.2799051 
     200  -0.28056674       2.5542      -0.2322       2.5542      -0.2322       2.5542           -0           -0            0    747.80272    747.80272    747.80272    747.80272            0 6.4236258e-14            0  -0.28056674 
     207   -0.2806079    2.5580125  -0.23601249    2.5580125  -0.23601249    2.5580125           -0           -0            0 6.6260255e-12 5.8614841e-12 7.3905669e-12 6.6260255e-12 -2.5484713e-13 6.3711784e-14 -2.5484713e-13   -0.2806079 
Loop time of 0.001827 on 1 procs for 207 steps with 1 atoms

99.9% CPU use with 1 MPI tasks x no OpenMP threads

Minimization stats:
  Stopping criterion = quadratic factors are zero
  Energy initial, next-to-last, final = 
        0.116772147789    -0.280607901407    -0.280607901407
  Force two-norm initial, final = 3.46784 1.30559e-16
  Force max component initial, final = 2.00216 8.36162e-17
  Final line search alpha, max atom move = 1 8.36162e-17
  Iterations, force evaluations = 207 211

MPI task timing breakdown:
Section |  min time  |  avg time  |  max time  |%varavg| %total
---------------------------------------------------------------
Pair    | 0.00060058 | 0.00060058 | 0.00060058 |   0.0 | 32.87
Neigh   | 6.9141e-06 | 6.9141e-06 | 6.9141e-06 |   0.0 |  0.38
Comm    | 0.00027537 | 0.00027537 | 0.00027537 |   0.0 | 15.07
Output  | 0.00018263 | 0.00018263 | 0.00018263 |   0.0 | 10.00
Modify  | 0          | 0          | 0          |   0.0 |  0.00
Other   |            | 0.0007615  |            |       | 41.68

Nlocal:    1 ave 1 max 1 min
Histogram: 1 0 0 0 0 0 0 0 0 0
Nghost:    215 ave 215 max 215 min
Histogram: 1 0 0 0 0 0 0 0 0 0
Neighs:    16 ave 16 max 16 min
Histogram: 1 0 0 0 0 0 0 0 0 0

Total # of neighbors = 16
Ave neighs/atom = 16
Neighbor list builds = 1
Dangerous builds = 0
pypospack:output_section:begin
tot_energy = -0.280607901407403
num_atoms = 1
a11 = 2.79402498024743
a22 = 2.79402498024743
a33 = 2.79402498024743
a12 = -0
a13 = -0
a23 = 0
tot_press = 6.62602550026087e-12
pxx = 5.86148409638461e-12
pyy = 7.39056690413712e-12
pzz = 6.62602550026087e-12
pxy = -2.54847134625418e-13
pxz = 6.37117836563545e-14
pyz = -2.54847134625418e-13
pypospack:output_section:done
pypospack:lammps_sim:done
Total wall time: 0:00:00
