# ['Ni']

10 atoms
1 atom types

    0.0000     3.5610 xlo xhi
    0.0000     2.5491 ylo yhi
    0.0000    25.4915 zlo zhi

    0.0000     0.0000     0.0000 xy xz yz

Atoms

1 1     0.0000     0.0000     0.0000
2 1     1.7805     1.2746     1.2746
3 1     0.0000     0.0000     2.5491
4 1     1.7805     1.2746     3.8237
5 1     0.0000     0.0000     5.0983
6 1     1.7805     1.2746     6.3729
7 1     0.0000     0.0000     7.6474
8 1     1.7805     1.2746     8.9220
9 1     0.0000     0.0000    10.1966
10 1     1.7805     1.2746    11.4712
