# ['Ni']

20 atoms
1 atom types

    0.0000     3.2199 xlo xhi
    0.0000     3.2199 ylo yhi
    0.0000    32.1989 zlo zhi

    0.0000    -0.0000     0.0000 xy xz yz

Atoms

1 1     0.0000     0.0000     0.0000
2 1     1.6099     1.6099     0.0000
3 1     1.6099     0.0000     1.6099
4 1     0.0000     1.6099     1.6099
5 1     0.0000     0.0000     3.2199
6 1     1.6099     1.6099     3.2199
7 1     1.6099     0.0000     4.8298
8 1     0.0000     1.6099     4.8298
9 1     0.0000     0.0000     6.4398
10 1     1.6099     1.6099     6.4398
11 1     1.6099     0.0000     8.0497
12 1     0.0000     1.6099     8.0497
13 1     0.0000     0.0000     9.6597
14 1     1.6099     1.6099     9.6597
15 1     1.6099     0.0000    11.2696
16 1     0.0000     1.6099    11.2696
17 1     0.0000     0.0000    12.8796
18 1     1.6099     1.6099    12.8796
19 1     1.6099     0.0000    14.4895
20 1     0.0000     1.6099    14.4895
