LAMMPS (11 Aug 2017)
# ---- initialize simulations
clear
units metal
dimension 3
boundary p p p
atom_style atomic
atom_modify map array
# ---- create atoms
read_data /home/eragasa/repos/pypospack/examples/Ni__eam__born_exp_rose/preconditioning_3.5NN/rank_88/Ni_fcc.lmps_min_all/lammps.structure
  triclinic box = (0 0 0) to (3.5167 3.5167 3.5167) with tilt (0 -0 0)
  1 by 1 by 1 MPI processor grid
  reading atoms ...
  4 atoms
# ---- define interatomic potential
include potential.mod
mass 1 58.6934

group Ni type 1
4 atoms in group Ni

pair_style eam/alloy
pair_coeff * * /home/eragasa/repos/pypospack/examples/Ni__eam__born_exp_rose/preconditioning_3.5NN/rank_88/Ni_fcc.lmps_min_all/Ni.eam.alloy Ni

neighbor 1.0 bin
neigh_modify every 1 delay 0 check yes
# ---- define settings
compute eng all pe/atom
compute eatoms all reduce sum c_eng
# ---- run minimization
reset_timestep 0
fix 1 all box/relax aniso 0.0 vmax 0.001
thermo 10
thermo_style custom step pe xhi xlo yhi ylo zhi xy xz yz press pxx pyy pzz pxy pxz pyz c_eatoms
min_style cg
minimize 1e-25 1e-25 5000 10000
Neighbor list info ...
  update every 1 steps, delay 0 steps, check yes
  max neighbors/atom: 2000, page size: 100000
  master list distance cutoff = 5.64464
  ghost atom cutoff = 5.64464
  binsize = 2.82232, bins = 2 2 2
  1 neighbor lists, perpetual/occasional/extra = 1 0 0
  (1) pair eam/alloy, perpetual
      attributes: half, newton on
      pair build: half/bin/newton/tri
      stencil: half/bin/3d/newton/tri
      bin: standard
Per MPI rank memory allocation (min/avg/max) = 4.211 | 4.211 | 4.211 Mbytes
Step PotEng Xhi Xlo Yhi Ylo Zhi Xy Xz Yz Press Pxx Pyy Pzz Pxy Pxz Pyz c_eatoms 
       0   -18.367619       3.5167            0       3.5167            0       3.5167            0           -0            0    64472.686    64472.686    64472.686    64472.686 -8.0136835e-11 -7.7325016e-11 -7.7197206e-11   -18.367619 
      10   -18.397408    3.5342835   -0.0175835    3.5342835   -0.0175835    3.5342835            0           -0            0    9879.2724    9879.2724    9879.2724    9879.2724 8.7604867e-10 -8.1377504e-11 -1.7218289e-10   -18.397408 
      20   -20.411035    3.5307668   -0.0140668    3.5307668   -0.0140668    3.5307668            0           -0            0   -151881.24   -151881.24   -151881.24   -151881.24 -7.0379593e-09 -6.0915448e-09 1.5712177e-08   -20.411035 
      30   -24.350682    3.5131833    0.0035167    3.5131833    0.0035167    3.5131833            0           -0            0   -455405.86   -455405.86   -455405.86   -455405.86 -1.4010064e-08 -2.3298417e-08 3.6947172e-08   -24.350682 
      40     -29.1735    3.4955998    0.0211002    3.4955998    0.0211002    3.4955998            0           -0            0   -850295.32   -850295.32   -850295.32   -850295.32 -2.9356402e-08 -3.332496e-08 5.383434e-08     -29.1735 
      50   -35.020087    3.4780163    0.0386837    3.4780163    0.0386837    3.4780163            0           -0            0   -1357409.3   -1357409.3   -1357409.3   -1357409.3 -4.7821268e-08 -4.8083052e-08 9.6294264e-08   -35.020087 
      60   -42.068992    3.4604328    0.0562672    3.4604328    0.0562672    3.4604328            0           -0            0   -2005203.2   -2005203.2   -2005203.2   -2005203.2 -7.1229473e-08 -5.3175092e-08 1.2602164e-07   -42.068992 
      70   -50.538885    3.4428493    0.0738507    3.4428493    0.0738507    3.4428493            0           -0            0   -2823399.3   -2823399.3   -2823399.3   -2823399.3 -1.4260694e-07 -8.9525611e-08 2.3867061e-07   -50.538885 
      80     -60.6574    3.4252658    0.0914342    3.4252658    0.0914342    3.4252658            0           -0            0   -3831968.8   -3831968.8   -3831968.8   -3831968.8 -2.047068e-07 -1.1945891e-07 3.3266625e-07     -60.6574 
      90    -72.70266    3.4076823    0.1090177    3.4076823    0.1090177    3.4076823            0           -0            0   -5112492.1   -5112492.1   -5112492.1   -5112492.1 -3.0555561e-07 -1.4157232e-07 4.6293169e-07    -72.70266 
     100   -87.026412    3.3900988    0.1266012    3.3900988    0.1266012    3.3900988            0           -0            0   -6613793.4   -6613793.4   -6613793.4   -6613793.4 -3.9267739e-07 -1.756621e-07 5.851804e-07   -87.026412 
     110   -104.01128    3.3725153    0.1441847    3.3725153    0.1441847    3.3725153            0           -0            0   -8512728.4   -8512728.4   -8512728.4   -8512728.4 -4.1223886e-07 -2.5095415e-07 6.9443622e-07   -104.01128 
     120   -124.10035    3.3549318    0.1617682    3.3549318    0.1617682    3.3549318            0           -0            0    -10895846    -10895846    -10895846    -10895846 -4.7398583e-07 -3.6660417e-07 8.6678118e-07   -124.10035 
     130   -147.80474    3.3373483    0.1793517    3.3373483    0.1793517    3.3373483            0           -0            0    -13716725    -13716725    -13716725    -13716725 -5.5483029e-07 -4.448995e-07 9.7264232e-07   -147.80474 
     140   -175.72472    3.3197648    0.1969352    3.3197648    0.1969352    3.3197648            0           -0            0    -17017341    -17017341    -17017341    -17017341 -8.1054507e-07 -6.2565763e-07 1.4169857e-06   -175.72472 
     150   -208.55373    3.3021813    0.2145187    3.3021813    0.2145187    3.3021813            0           -0            0    -21127235    -21127235    -21127235    -21127235 -9.2482797e-07 -6.7955479e-07 1.5720892e-06   -208.55373 
     160    -247.1109    3.2845978    0.2321022    3.2845978    0.2321022    3.2845978            0           -0            0    -25936417    -25936417    -25936417    -25936417 -4.3811483e-07 -3.9141159e-07 7.574605e-07    -247.1109 
     170   -292.29157    3.2670143    0.2496857    3.2670143    0.2496857    3.2670143            0           -0            0    -31979787    -31979787    -31979787    -31979787 -1.322175e-06 -1.1539098e-06 2.6099065e-06   -292.29157 
     180   -345.18019    3.2494308    0.2672692    3.2494308    0.2672692    3.2494308            0           -0            0    -39053090    -39053090    -39053090    -39053090 -1.7444338e-06 -1.3154848e-06 3.2097665e-06   -345.18019 
     190   -407.03198    3.2318473    0.2848527    3.2318473    0.2848527    3.2318473            0           -0            0    -47848331    -47848331    -47848331    -47848331 -3.1515725e-06 -2.5228185e-06 5.5163388e-06   -407.03198 
     200   -479.36358    3.2142638    0.3024362    3.2142638    0.3024362    3.2142638            0           -0            0    -60470412    -60470412    -60470412    -60470412 -2.8308004e-06 -2.1394494e-06 5.4117138e-06   -479.36358 
     210   -573.48864    3.1966803    0.3200197    3.1966803    0.3200197    3.1966803            0           -0            0    -96463549    -96463549    -96463549    -96463549 -4.1643919e-06 -3.5969697e-06 7.5770455e-06   -573.48864 
     220   -701.24337    3.1790968    0.3376032    3.1790968    0.3376032    3.1790968            0           -0            0 -1.4290048e+08 -1.4290048e+08 -1.4290048e+08 -1.4290048e+08 -5.4593085e-06 -5.0504156e-06 9.948064e-06   -701.24337 
     230   -871.71864    3.1615133    0.3551867    3.1615133    0.3551867    3.1615133            0           -0            0 -2.027745e+08 -2.027745e+08 -2.027745e+08 -2.027745e+08 -7.1322858e-06 -6.3077559e-06 1.4082126e-05   -871.71864 
     240   -1095.8595    3.1439298    0.3727702    3.1439298    0.3727702    3.1439298            0           -0            0 -2.797041e+08 -2.797041e+08 -2.797041e+08 -2.797041e+08 -9.1776171e-06 -7.8307902e-06 1.7758625e-05   -1095.8595 
     250   -1386.9903    3.1263463    0.3903537    3.1263463    0.3903537    3.1263463            0           -0            0 -3.7814659e+08 -3.7814659e+08 -3.7814659e+08 -3.7814659e+08 -1.2233776e-05 -1.0032813e-05 2.306327e-05   -1386.9903 
     260   -1761.3674    3.1087628    0.4079372    3.1087628    0.4079372    3.1087628            0           -0            0 -5.0362208e+08 -5.0362208e+08 -5.0362208e+08 -5.0362208e+08 -1.6246887e-05 -1.364537e-05 3.0498503e-05   -1761.3674 
     270   -2238.8254    3.0911793    0.4255207    3.0911793    0.4255207    3.0911793            0           -0            0 -6.6297201e+08 -6.6297201e+08 -6.6297201e+08 -6.6297201e+08 -2.1615939e-05 -1.7226031e-05 3.8948369e-05   -2238.8254 
     280   -2843.5379    3.0735958    0.4431042    3.0735958    0.4431042    3.0735958            0           -0            0 -8.6467849e+08 -8.6467849e+08 -8.6467849e+08 -8.6467849e+08 -2.8353747e-05 -2.3754584e-05 4.7594005e-05   -2843.5379 
     290   -3604.9356    3.0560123    0.4606877    3.0560123    0.4606877    3.0560123            0           -0            0 -1.1192516e+09 -1.1192516e+09 -1.1192516e+09 -1.1192516e+09 -3.8432982e-05 -3.190904e-05 5.9185426e-05   -3604.9356 
     300   -4558.8116    3.0384288    0.4782712    3.0384288    0.4782712    3.0384288            0           -0            0 -1.4397009e+09 -1.4397009e+09 -1.4397009e+09 -1.4397009e+09 -4.6887842e-05 -4.1350419e-05 7.2426367e-05   -4558.8116 
     310   -5748.6478    3.0208453    0.4958547    3.0208453    0.4958547    3.0208453            0           -0            0 -1.8421188e+09 -1.8421188e+09 -1.8421188e+09 -1.8421188e+09 -6.2629408e-05 -4.6645587e-05 9.6986193e-05   -5748.6478 
     320   -7227.2169    3.0032618    0.5134382    3.0032618    0.5134382    3.0032618            0           -0            0 -2.3463989e+09 -2.3463989e+09 -2.3463989e+09 -2.3463989e+09 -7.3954643e-05 -6.3536776e-05 0.00011546125   -7227.2169 
     330   -9058.5094    2.9856783    0.5310217    2.9856783    0.5310217    2.9856783            0           -0            0 -2.9771097e+09 -2.9771097e+09 -2.9771097e+09 -2.9771097e+09 -9.5725782e-05 -7.4020691e-05 0.00015024375   -9058.5094 
     340   -11320.054    2.9680948    0.5486052    2.9680948    0.5486052    2.9680948            0           -0            0 -3.7645735e+09 -3.7645735e+09 -3.7645735e+09 -3.7645735e+09 -0.00012244327 -0.00010023565 0.00017820183   -11320.054 
     350   -14105.721    2.9505113    0.5661887    2.9505113    0.5661887    2.9505113            0           -0            0 -4.7461907e+09 -4.7461907e+09 -4.7461907e+09 -4.7461907e+09 -0.00015094365 -0.00011609847 0.00024009918   -14105.721 
     360   -17529.084    2.9329278    0.5837722    2.9329278    0.5837722    2.9329278            0           -0            0 -5.9680577e+09 -5.9680577e+09 -5.9680577e+09 -5.9680577e+09 -0.00018807667 -0.00015750804 0.00030456105   -17529.084 
     370    -21727.49    2.9153443    0.6013557    2.9153443    0.6013557    2.9153443            0           -0            0 -7.4869508e+09 -7.4869508e+09 -7.4869508e+09 -7.4869508e+09 -0.00023332644 -0.00022367222 0.00036715683    -21727.49 
     380   -26866.972    2.8977608    0.6189392    2.8977608    0.6189392    2.8977608            0           -0            0 -9.3727705e+09 -9.3727705e+09 -9.3727705e+09 -9.3727705e+09 -0.00028548344 -0.00024972515 0.00046645865   -26866.972 
     390   -33148.149    2.8801773    0.6365227    2.8801773    0.6365227    2.8801773            0           -0            0 -1.171151e+10 -1.171151e+10 -1.171151e+10 -1.171151e+10 -0.00035761129 -0.0003257611 0.00054420008   -33148.149 
     400   -40813.382    2.8625938    0.6541062    2.8625938    0.6541062    2.8625938            0           -0            0 -1.4608902e+10 -1.4608902e+10 -1.4608902e+10 -1.4608902e+10 -0.0004414452 -0.00037698439 0.00071719545   -40813.382 
     410   -50155.452    2.8450103    0.6716897    2.8450103    0.6716897    2.8450103            0           -0            0 -1.8194891e+10 -1.8194891e+10 -1.8194891e+10 -1.8194891e+10 -0.00056221801 -0.00051902655 0.00084597058   -50155.452 
     420   -61527.999    2.8274268    0.6892732    2.8274268    0.6892732    2.8274268            0           -0            0 -2.2629064e+10 -2.2629064e+10 -2.2629064e+10 -2.2629064e+10 -0.00065846563 -0.00067350805 0.0010459203   -61527.999 
     430   -75358.249    2.8098433    0.7068567    2.8098433    0.7068567    2.8098433            0           -0            0 -2.8107336e+10 -2.8107336e+10 -2.8107336e+10 -2.8107336e+10 -0.0008049522 -0.00081747261 0.0013653246   -75358.249 
     440   -92162.538    2.7922598    0.7244402    2.7922598    0.7244402    2.7922598            0           -0            0 -3.4870073e+10 -3.4870073e+10 -3.4870073e+10 -3.4870073e+10 -0.00096996982 -0.0010185268 0.0016529195   -92162.538 
     450   -112565.07    2.7746763    0.7420237    2.7746763    0.7420237    2.7746763            0           -0            0 -4.3211993e+10 -4.3211993e+10 -4.3211993e+10 -4.3211993e+10 -0.0011383884 -0.0011849757 0.0020059567   -112565.07 
     460   -137321.01    2.7570928    0.7596072    2.7570928    0.7596072    2.7570928            0           -0            0 -5.3494288e+10 -5.3494288e+10 -5.3494288e+10 -5.3494288e+10 -0.0013348865 -0.0012409614 0.0027046444   -137321.01 
     470   -167344.88    2.7395093    0.7771907    2.7395093    0.7771907    2.7395093            0           -0            0 -6.6159364e+10 -6.6159364e+10 -6.6159364e+10 -6.6159364e+10 -0.0017664713 -0.0024139289 0.0023514893   -167344.88 
     480   -203745.24    2.7219258    0.7947742    2.7219258    0.7947742    2.7219258            0           -0            0 -8.1748686e+10 -8.1748686e+10 -8.1748686e+10 -8.1748686e+10 -0.0019139875  -0.00167883 0.0039800295   -203745.24 
     490    -247867.9    2.7043423    0.8123577    2.7043423    0.8123577    2.7043423            0           -0            0 -1.0092456e+11 -1.0092456e+11 -1.0092456e+11 -1.0092456e+11 -0.0024932245 -0.002661469 0.0040673641    -247867.9 
     500   -301350.03    2.6867588    0.8299412    2.6867588    0.8299412    2.6867588            0           -0            0 -1.2449657e+11 -1.2449657e+11 -1.2449657e+11 -1.2449657e+11 -0.0028002225 -0.0030142703 0.0049351405   -301350.03 
     510   -366187.14    2.6691753    0.8475247    2.6691753    0.8475247    2.6691753            0           -0            0 -1.5345333e+11 -1.5345333e+11 -1.5345333e+11 -1.5345333e+11 -0.0028688718 -0.0029318515  0.005912853   -366187.14 
     520   -444818.52    2.6515918    0.8651082    2.6515918    0.8651082    2.6515918            0           -0            0 -1.8900092e+11 -1.8900092e+11 -1.8900092e+11 -1.8900092e+11 -0.0040443304 -0.0035524737 0.0067845335   -444818.52 
     530   -540236.83    2.6340083    0.8826917    2.6340083    0.8826917    2.6340083            0           -0            0 -2.3260924e+11 -2.3260924e+11 -2.3260924e+11 -2.3260924e+11 -0.0040463079 -0.004293417 0.0077980686   -540236.83 
     540   -656127.72    2.6164248    0.9002752    2.6164248    0.9002752    2.6164248            0           -0            0 -2.8606664e+11 -2.8606664e+11 -2.8606664e+11 -2.8606664e+11 -0.0041437281 -0.0034575466    0.0099088   -656127.72 
     550    -797053.9    2.5988413    0.9178587    2.5988413    0.9178587    2.5988413            0           -0            0 -3.5154517e+11 -3.5154517e+11 -3.5154517e+11 -3.5154517e+11 -0.0050073785 -0.0033635319  0.011173997    -797053.9 
     560   -968701.06    2.5812578    0.9354422    2.5812578    0.9354422    2.5812578            0           -0            0 -4.3167698e+11 -4.3167698e+11 -4.3167698e+11 -4.3167698e+11 -0.0060742186 -0.0043407291  0.010158196   -968701.06 
     570   -1178205.7    2.5636743    0.9530257    2.5636743    0.9530257    2.5636743            0           -0            0 -5.2964075e+11 -5.2964075e+11 -5.2964075e+11 -5.2964075e+11 -0.0057991821 -0.0080747772 0.0058108463   -1178205.7 
     580   -1434611.9    2.5460908    0.9706092    2.5460908    0.9706092    2.5460908            0           -0            0 -6.4925817e+11 -6.4925817e+11 -6.4925817e+11 -6.4925817e+11 -0.0038123947 -0.0080855827 0.0016544601   -1434611.9 
     590   -1749520.7    2.5285073    0.9881927    2.5285073    0.9881927    2.5285073            0           -0            0 -7.9509575e+11 -7.9509575e+11 -7.9509575e+11 -7.9509575e+11 -0.0040215849 -0.0095355288 -0.005530379   -1749520.7 
     600   -2138026.5    2.5109238    1.0057762    2.5109238    1.0057762    2.5109238            0           -0            0 -9.7255463e+11 -9.7255463e+11 -9.7255463e+11 -9.7255463e+11  0.001251489 0.0047706631 -0.0045922893   -2138026.5 
     610   -2620137.6    2.4933403    1.0233597    2.4933403    1.0233597    2.4933403            0           -0            0 -1.1879253e+12 -1.1879253e+12 -1.1879253e+12 -1.1879253e+12  0.013673791  0.014733651 -0.017308432   -2620137.6 
     620   -3223027.2    2.4757568    1.0409432    2.4757568    1.0409432    2.4757568            0           -0            0 -1.448345e+12 -1.448345e+12 -1.448345e+12 -1.448345e+12  0.027250697  0.016751334 -0.049373269   -3223027.2 
     630   -3984722.9    2.4581733    1.0585267    2.4581733    1.0585267    2.4581733            0           -0            0 -1.7615075e+12 -1.7615075e+12 -1.7615075e+12 -1.7615075e+12  0.049605913  0.049880295 -0.076066949   -3984722.9 
     640   -4960651.3    2.4405898    1.0761102    2.4405898    1.0761102    2.4405898            0           -0            0 -2.1348154e+12 -2.1348154e+12 -2.1348154e+12 -2.1348154e+12  0.083133971  0.080866868  -0.13952171   -4960651.3 
     650   -6236235.2    2.4230063    1.0936937    2.4230063    1.0936937    2.4230063            0           -0            0 -2.5731662e+12 -2.5731662e+12 -2.5731662e+12 -2.5731662e+12   0.13447382  0.082562164  -0.28332129   -6236235.2 
     660   -7953686.2    2.4054228    1.1112772    2.4054228    1.1112772    2.4054228            0           -0            0 -3.0730536e+12 -3.0730536e+12 -3.0730536e+12 -3.0730536e+12   0.24824394   0.21710741  -0.41195846   -7953686.2 
     670    -10379214    2.3878393    1.1288607    2.3878393    1.1288607    2.3878393            0           -0            0 -3.6053836e+12 -3.6053836e+12 -3.6053836e+12 -3.6053836e+12   0.34303343   0.32529539  -0.74323886    -10379214 
     680    -14120601    2.3702558    1.1464442    2.3702558    1.1464442    2.3702558            0           -0            0 -4.0531467e+12 -4.0531467e+12 -4.0531467e+12 -4.0531467e+12   0.67446967   0.66958316   -1.2167751    -14120601 
     690    -21310251    2.3526723    1.1640277    2.3526723    1.1640277    2.3526723            0           -0            0 -3.8350766e+12 -3.8350766e+12 -3.8350766e+12 -3.8350766e+12     1.359584    1.3138151   -2.1298031    -21310251 
     700    -35675624    2.3419602    1.1747398    2.3419602    1.1747398    2.3419602            0           -0            0 -2.6234516e+11 -2.6234516e+11 -2.6234516e+11 -2.6234516e+11  0.063090778  0.023268559  -0.09088577    -35675624 
     710    -35679280    2.3392789    1.1774211    2.3392789    1.1774211    2.3392789            0           -0            0 -2.749073e+11 -2.749073e+11 -2.749073e+11 -2.749073e+11 -0.011399252  0.010522426 -0.0021293045    -35679280 
     720    -35683119    2.3366001    1.1800999    2.3366001    1.1800999    2.3366001            0           -0            0 -2.9058291e+11 -2.9058291e+11 -2.9058291e+11 -2.9058291e+11  -0.19520504  -0.19484492 0.00056888656    -35683119 
     730    -35692443    2.3304392    1.1862608    2.3304392    1.1862608    2.3304392            0           -0            0 -3.2287534e+11 -3.2287535e+11 -3.228754e+11 -3.2287528e+11    63.973842    67.231873 0.0025262027    -35692443 
     740    -35698480    2.3268344    1.1898656    2.3268344    1.1898656    2.3268344            0           -0            0 -3.5049169e+11 -3.5049161e+11 -3.50491e+11 -3.5049245e+11   -11.750208   -12.408314 0.0003768071    -35698480 
     750    -35708107    2.3212878    1.1954122    2.3212877    1.1954123    2.3212878            0           -0            0 -3.8303015e+11 -3.8295148e+11 -3.8249038e+11 -3.836486e+11   -532.81106   -528.03223   0.86945321    -35708107 
     760    -35712551    2.3186228    1.1980772    2.3186221    1.1980779    2.3186224            0           -0            0 -3.9735768e+11 -3.9633071e+11 -3.9639023e+11 -3.993521e+11    4812.1051    26933.041   -28.562298    -35712551 
     770    -35726769     2.311877     1.204823    2.3118723    1.2048277    2.3118733            0           -0            0 -4.6085302e+11 -4.6236793e+11 -4.5768365e+11 -4.6250748e+11    19852.101    29791.852   -30.066141    -35726769 
     780    -35734551    2.3084138    1.2082862    2.3084082    1.2082918    2.3084099            0           -0            0 -4.9536293e+11 -4.9435088e+11 -4.972333e+11 -4.9450461e+11    157084.67    38090.389   -244.21867    -35734551 
     790    -35742816    2.3047131    1.2119869    2.3047071    1.2119929    2.3047089            0           -0            0 -5.2475401e+11 -5.2356314e+11 -5.270616e+11 -5.236373e+11   -127462.39   -221937.85    225.67062    -35742816 
     800    -35743930     2.304302     1.212398    2.3042962    1.2124038    2.3042979            0           -0            0 -5.3471881e+11 -5.3216555e+11 -5.3960956e+11 -5.3238133e+11   -742290.46   -860492.87    1319.4847    -35743930 
     810    -35754846    2.2998751    1.2168249    2.2998673    1.2168327    2.2998711            0           -0            0 -5.8045182e+11 -5.7708289e+11 -5.85553e+11 -5.7871957e+11    35457.653   -132487.64   -70.406158    -35754846 
     820    -35756100    2.2994945    1.2172055    2.2994859    1.2172141    2.2994902            0           -0            0 -5.8712485e+11 -5.8720015e+11 -5.8703604e+11 -5.8713835e+11   -112.73231    78.860965  0.094229794    -35756100 
     830    -35768874    2.2943452    1.2223548     2.294335     1.222365      2.29434            0           -0            0 -6.424782e+11 -6.5294624e+11 -6.3611034e+11 -6.3837803e+11   -5135.1211    372.31062   -2.2609977    -35768874 
     840    -35775864     2.292021     1.224679    2.2920118    1.2246882    2.2920171            0           -0            0 -6.9048667e+11 -6.8895057e+11 -6.8678554e+11 -6.9572389e+11   -1692.6601   -137.38509    5.0952214    -35775864 
     850    -35800903    2.2839099    1.2327901    2.2839005    1.2327995    2.2839059            0           -0            0 -7.8192884e+11 -7.8562794e+11 -7.7785957e+11 -7.8229903e+11   -3637.4478   -343.49613     3.585843    -35800903 
     860    -35802396      2.28346      1.23324    2.2834517    1.2332483    2.2834566            0           -0            0 -8.1207246e+11 -8.0928317e+11 -8.1375741e+11 -8.1317679e+11   -491.68645   -213.51681    6.2028208    -35802396 
     870    -35817472    2.2791827    1.2375173    2.2791735    1.2375265    2.2791789            0           -0            0 -8.6626075e+11 -8.7082964e+11 -8.6296993e+11 -8.6498268e+11   -2863.0786   -77.568889  -0.81055377    -35817472 
     880    -35819408    2.2783537    1.2383463    2.2783435    1.2383565    2.2783494            0           -0            0 -8.9280409e+11 -9.0625024e+11 -8.8408108e+11 -8.8808095e+11   -9781.8754   -435.45648   -28.204103    -35819408 
     890    -35822598    2.2777258    1.2389742    2.2777171    1.2389829    2.2777227            0           -0            0 -8.8368936e+11 -8.8378807e+11 -8.8366468e+11 -8.8361533e+11   -3480.9093   -379.36463    -48.04292    -35822598 
     900    -35852751    2.2698817    1.2468183    2.2698726    1.2468274    2.2698788            0           -0            0 -1.0410749e+12 -1.0391488e+12 -1.0420654e+12 -1.0420105e+12   -80263.466   -8910.0539   -1077.0573    -35852751 
     910    -35870220    2.2656619    1.2510381     2.265653     1.251047    2.2656596            0           -0            0 -1.1136866e+12 -1.1122335e+12 -1.1143752e+12 -1.1144511e+12    4392.4005    419.01167   -352.32286    -35870220 
     920    -35889086    2.2605341    1.2561659    2.2605253    1.2561747    2.2605324            0           -0            0 -1.2822484e+12 -1.2842159e+12 -1.2812855e+12 -1.2812439e+12   -1456.1694   -74.721813   -163.41273    -35889086 
     930    -35927111    2.2536741    1.2630259    2.2536637    1.2630363    2.2536714            0           -0            0 -1.4097822e+12 -1.4182462e+12 -1.4056694e+12 -1.4054311e+12   -10401.619   -773.61869    1918.2943    -35927111 
     940    -35950076    2.2494512    1.2672488    2.2494423    1.2672577      2.24945            0           -0            0 -1.5404042e+12 -1.5468742e+12 -1.5384436e+12 -1.5358947e+12    22687.883    2207.2073   -1101.8847    -35950076 
     950    -35971884    2.2454023    1.2712977    2.2453942    1.2713058    2.2454027            0           -0            0 -1.6376596e+12 -1.6403135e+12 -1.6346319e+12 -1.6380335e+12    113257.94    25299.592   -1658.1617    -35971884 
     960    -35998908    2.2412285    1.2754715    2.2412212    1.2754788    2.2412295            0           -0            0 -1.8023602e+12 -1.8010256e+12 -1.8041346e+12 -1.8019206e+12   -1179392.5   -232399.52    15418.617    -35998908 
     970    -36024728    2.2367107    1.2799893    2.2367022    1.2799978    2.2367112            0           -0            0 -2.0003266e+12 -2.0351598e+12 -1.9832356e+12 -1.9825844e+12    -59546603   -9087489.1    617190.85    -36024728 
     980    -36082191    2.2291016    1.2875984    2.2290977    1.2876023     2.229107            0           -0            0 -2.2756062e+12 -2.267688e+12 -2.2822155e+12 -2.2769152e+12     76452056    9237729.8    115471.22    -36082191 
