   2   2   0   0
  0.9563318E+01  0.3001819E-09  0.3001820E-09  0.3001819E-09  0.5000000E-15
  1.000000000000000E-004
  CAR 
 automatically generated by pyflamestk   
     44.07490438    -16.32516805  301      3.63202255      1.00000000
    -16.325  0.0000E+00  0.0000E+00
    -16.124  0.0000E+00  0.0000E+00
    -15.923  0.0000E+00  0.0000E+00
    -15.721  0.0000E+00  0.0000E+00
    -15.520  0.0000E+00  0.0000E+00
    -15.319  0.0000E+00  0.0000E+00
    -15.117  0.0000E+00  0.0000E+00
    -14.916  0.0000E+00  0.0000E+00
    -14.714  0.0000E+00  0.0000E+00
    -14.513  0.0000E+00  0.0000E+00
    -14.312  0.0000E+00  0.0000E+00
    -14.110  0.0000E+00  0.0000E+00
    -13.909  0.0000E+00  0.0000E+00
    -13.708  0.4506E-04  0.9071E-05
    -13.506  0.3044E+00  0.6130E-01
    -13.305  0.1025E-01  0.6336E-01
    -13.104  0.9261E+00  0.2498E+00
    -12.902  0.6548E+00  0.3816E+00
    -12.701  0.7820E+00  0.5391E+00
    -12.500  0.2452E+01  0.1033E+01
    -12.298  0.2836E+01  0.1604E+01
    -12.097  0.1969E+01  0.2000E+01
    -11.896  0.1308E-05  0.2000E+01
    -11.694  0.0000E+00  0.2000E+01
    -11.493  0.0000E+00  0.2000E+01
    -11.292  0.0000E+00  0.2000E+01
    -11.090  0.0000E+00  0.2000E+01
    -10.889  0.0000E+00  0.2000E+01
    -10.688  0.0000E+00  0.2000E+01
    -10.486  0.0000E+00  0.2000E+01
    -10.285  0.0000E+00  0.2000E+01
    -10.084  0.0000E+00  0.2000E+01
     -9.882  0.0000E+00  0.2000E+01
     -9.681  0.0000E+00  0.2000E+01
     -9.480  0.0000E+00  0.2000E+01
     -9.278  0.0000E+00  0.2000E+01
     -9.077  0.0000E+00  0.2000E+01
     -8.876  0.0000E+00  0.2000E+01
     -8.674  0.0000E+00  0.2000E+01
     -8.473  0.0000E+00  0.2000E+01
     -8.272  0.0000E+00  0.2000E+01
     -8.070  0.0000E+00  0.2000E+01
     -7.869  0.0000E+00  0.2000E+01
     -7.668  0.0000E+00  0.2000E+01
     -7.466  0.0000E+00  0.2000E+01
     -7.265  0.0000E+00  0.2000E+01
     -7.064  0.0000E+00  0.2000E+01
     -6.862  0.0000E+00  0.2000E+01
     -6.661  0.0000E+00  0.2000E+01
     -6.460  0.0000E+00  0.2000E+01
     -6.258  0.0000E+00  0.2000E+01
     -6.057  0.0000E+00  0.2000E+01
     -5.856  0.0000E+00  0.2000E+01
     -5.654  0.0000E+00  0.2000E+01
     -5.453  0.0000E+00  0.2000E+01
     -5.252  0.0000E+00  0.2000E+01
     -5.050  0.0000E+00  0.2000E+01
     -4.849  0.0000E+00  0.2000E+01
     -4.648  0.0000E+00  0.2000E+01
     -4.446  0.0000E+00  0.2000E+01
     -4.245  0.0000E+00  0.2000E+01
     -4.044  0.0000E+00  0.2000E+01
     -3.842  0.0000E+00  0.2000E+01
     -3.641  0.0000E+00  0.2000E+01
     -3.440  0.0000E+00  0.2000E+01
     -3.238  0.0000E+00  0.2000E+01
     -3.037  0.0000E+00  0.2000E+01
     -2.836  0.0000E+00  0.2000E+01
     -2.634  0.0000E+00  0.2000E+01
     -2.433  0.0000E+00  0.2000E+01
     -2.232  0.0000E+00  0.2000E+01
     -2.030  0.0000E+00  0.2000E+01
     -1.829  0.0000E+00  0.2000E+01
     -1.628  0.0000E+00  0.2000E+01
     -1.426  0.0000E+00  0.2000E+01
     -1.225  0.0000E+00  0.2000E+01
     -1.024  0.5941E-07  0.2000E+01
     -0.822  0.6146E+00  0.2124E+01
     -0.621  0.3359E+00  0.2191E+01
     -0.420  0.3768E+00  0.2267E+01
     -0.218  0.2381E+01  0.2747E+01
     -0.017  0.2009E+01  0.3151E+01
      0.184  0.2028E+01  0.3559E+01
      0.386  0.9423E+00  0.3749E+01
      0.587  0.5455E-02  0.3750E+01
      0.788  0.6146E-08  0.3750E+01
      0.990  0.8535E+00  0.3922E+01
      1.191  0.2466E+01  0.4418E+01
      1.392  0.4058E+00  0.4500E+01
      1.594  0.8356E-04  0.4500E+01
      1.795  0.2664E+01  0.5036E+01
      1.996  0.1513E+00  0.5067E+01
      2.198  0.2418E+01  0.5554E+01
      2.399  0.2283E+01  0.6013E+01
      2.600  0.4375E+01  0.6894E+01
      2.802  0.1470E+01  0.7190E+01
      3.003  0.2674E+01  0.7729E+01
      3.204  0.7281E+00  0.7875E+01
      3.406  0.6169E+00  0.7999E+01
      3.607  0.3422E-02  0.8000E+01
      3.808  0.0000E+00  0.8000E+01
      4.010  0.0000E+00  0.8000E+01
      4.211  0.0000E+00  0.8000E+01
      4.412  0.0000E+00  0.8000E+01
      4.614  0.0000E+00  0.8000E+01
      4.815  0.0000E+00  0.8000E+01
      5.016  0.0000E+00  0.8000E+01
      5.218  0.0000E+00  0.8000E+01
      5.419  0.0000E+00  0.8000E+01
      5.620  0.0000E+00  0.8000E+01
      5.822  0.0000E+00  0.8000E+01
      6.023  0.0000E+00  0.8000E+01
      6.224  0.0000E+00  0.8000E+01
      6.426  0.0000E+00  0.8000E+01
      6.627  0.0000E+00  0.8000E+01
      6.828  0.0000E+00  0.8000E+01
      7.030  0.0000E+00  0.8000E+01
      7.231  0.0000E+00  0.8000E+01
      7.432  0.0000E+00  0.8000E+01
      7.634  0.0000E+00  0.8000E+01
      7.835  0.0000E+00  0.8000E+01
      8.036  0.0000E+00  0.8000E+01
      8.238  0.0000E+00  0.8000E+01
      8.439  0.0000E+00  0.8000E+01
      8.640  0.1016E-07  0.8000E+01
      8.842  0.1908E+00  0.8038E+01
      9.043  0.1196E+00  0.8062E+01
      9.244  0.0000E+00  0.8062E+01
      9.446  0.0000E+00  0.8062E+01
      9.647  0.0000E+00  0.8062E+01
      9.848  0.0000E+00  0.8062E+01
     10.050  0.0000E+00  0.8062E+01
     10.251  0.7352E-06  0.8063E+01
     10.452  0.7583E+00  0.8215E+01
     10.654  0.1730E+00  0.8250E+01
     10.855  0.9444E-08  0.8250E+01
     11.056  0.1892E+00  0.8288E+01
     11.258  0.6755E+00  0.8424E+01
     11.459  0.3770E+00  0.8500E+01
     11.660  0.2686E-06  0.8500E+01
     11.862  0.7047E+00  0.8642E+01
     12.063  0.2266E+00  0.8687E+01
     12.264  0.5536E-02  0.8689E+01
     12.466  0.9251E+00  0.8875E+01
     12.667  0.1956E+00  0.8914E+01
     12.868  0.1684E+01  0.9253E+01
     13.070  0.9150E+00  0.9438E+01
     13.271  0.9204E+00  0.9623E+01
     13.472  0.1073E-01  0.9625E+01
     13.674  0.8561E+00  0.9797E+01
     13.875  0.1135E+01  0.1003E+02
     14.076  0.1723E+01  0.1037E+02
     14.278  0.1138E-01  0.1038E+02
     14.479  0.0000E+00  0.1038E+02
     14.680  0.2311E-09  0.1038E+02
     14.882  0.8558E+00  0.1055E+02
     15.083  0.2869E+01  0.1112E+02
     15.284  0.3386E-01  0.1113E+02
     15.486  0.1843E+01  0.1150E+02
     15.687  0.2820E+01  0.1207E+02
     15.888  0.1201E+01  0.1231E+02
     16.090  0.3709E-01  0.1232E+02
     16.291  0.1558E+01  0.1263E+02
     16.492  0.2670E+00  0.1269E+02
     16.694  0.0000E+00  0.1269E+02
     16.895  0.1643E-06  0.1269E+02
     17.096  0.1269E+01  0.1294E+02
     17.298  0.9542E+00  0.1314E+02
     17.499  0.8783E+00  0.1331E+02
     17.700  0.2442E-02  0.1331E+02
     17.902  0.9027E-05  0.1331E+02
     18.103  0.8592E+00  0.1349E+02
     18.304  0.7209E-01  0.1350E+02
     18.506  0.1435E-12  0.1350E+02
     18.707  0.5142E-01  0.1351E+02
     18.908  0.8798E+00  0.1369E+02
     19.110  0.1938E-04  0.1369E+02
     19.311  0.2549E-03  0.1369E+02
     19.512  0.7095E+00  0.1383E+02
     19.714  0.2400E+01  0.1431E+02
     19.915  0.1767E+01  0.1467E+02
     20.116  0.1008E+01  0.1487E+02
     20.318  0.1661E+01  0.1521E+02
     20.519  0.1165E+01  0.1544E+02
     20.720  0.9116E+00  0.1562E+02
     20.922  0.3042E+00  0.1569E+02
     21.123  0.6321E+00  0.1581E+02
     21.324  0.9472E+00  0.1600E+02
     21.526  0.9107E+00  0.1619E+02
     21.727  0.1823E+01  0.1655E+02
     21.928  0.3912E-01  0.1656E+02
     22.130  0.2650E-03  0.1656E+02
     22.331  0.9196E+00  0.1675E+02
     22.532  0.1148E-01  0.1675E+02
     22.734  0.9015E+00  0.1693E+02
     22.935  0.1883E+01  0.1731E+02
     23.136  0.5139E+00  0.1741E+02
     23.338  0.1358E+01  0.1769E+02
     23.539  0.2365E-04  0.1769E+02
     23.740  0.5955E+00  0.1781E+02
     23.942  0.9474E+00  0.1800E+02
     24.143  0.9501E-02  0.1800E+02
     24.344  0.3085E+00  0.1806E+02
     24.546  0.9508E+00  0.1825E+02
     24.747  0.6030E+00  0.1837E+02
     24.948  0.7410E-02  0.1838E+02
     25.150  0.1230E+01  0.1862E+02
     25.351  0.4674E-02  0.1863E+02
     25.552  0.1544E+01  0.1894E+02
     25.754  0.1204E+01  0.1918E+02
     25.955  0.4538E-01  0.1919E+02
     26.156  0.9199E+00  0.1937E+02
     26.358  0.9426E+00  0.1956E+02
     26.559  0.2398E+00  0.1961E+02
     26.760  0.2554E+01  0.2012E+02
     26.962  0.2693E-02  0.2013E+02
     27.163  0.9415E+00  0.2032E+02
     27.364  0.9197E+00  0.2050E+02
     27.566  0.3089E+00  0.2056E+02
     27.767  0.3053E-03  0.2056E+02
     27.968  0.0000E+00  0.2056E+02
     28.170  0.0000E+00  0.2056E+02
     28.371  0.0000E+00  0.2056E+02
     28.572  0.0000E+00  0.2056E+02
     28.774  0.4260E-03  0.2056E+02
     28.975  0.6399E+00  0.2069E+02
     29.176  0.2712E+01  0.2124E+02
     29.378  0.9920E+00  0.2144E+02
     29.579  0.6700E+00  0.2157E+02
     29.780  0.2629E+00  0.2162E+02
     29.982  0.4112E-06  0.2163E+02
     30.183  0.1874E+01  0.2200E+02
     30.384  0.1769E+01  0.2236E+02
     30.586  0.1212E+01  0.2260E+02
     30.787  0.7327E+00  0.2275E+02
     30.988  0.4504E-06  0.2275E+02
     31.190  0.4316E+00  0.2284E+02
     31.391  0.1431E+01  0.2312E+02
     31.592  0.8253E+00  0.2329E+02
     31.794  0.1416E+01  0.2358E+02
     31.995  0.2416E+01  0.2406E+02
     32.196  0.1286E+01  0.2432E+02
     32.398  0.1267E+01  0.2458E+02
     32.599  0.4217E+01  0.2543E+02
     32.800  0.1691E+00  0.2546E+02
     33.002  0.2691E+01  0.2600E+02
     33.203  0.9232E+00  0.2619E+02
     33.404  0.7627E+00  0.2634E+02
     33.606  0.1721E+01  0.2669E+02
     33.807  0.5006E-06  0.2669E+02
     34.008  0.0000E+00  0.2669E+02
     34.210  0.0000E+00  0.2669E+02
     34.411  0.0000E+00  0.2669E+02
     34.612  0.0000E+00  0.2669E+02
     34.814  0.2023E-08  0.2669E+02
     35.015  0.4291E+00  0.2677E+02
     35.216  0.2364E+01  0.2725E+02
     35.418  0.3870E-03  0.2725E+02
     35.619  0.8198E+00  0.2742E+02
     35.820  0.2766E+01  0.2797E+02
     36.022  0.7068E+00  0.2811E+02
     36.223  0.3637E+00  0.2819E+02
     36.424  0.1131E-02  0.2819E+02
     36.626  0.1934E+01  0.2858E+02
     36.827  0.8592E+00  0.2875E+02
     37.028  0.2183E+00  0.2879E+02
     37.230  0.4026E+00  0.2888E+02
     37.431  0.7935E+00  0.2903E+02
     37.632  0.1074E+01  0.2925E+02
     37.834  0.9253E+00  0.2944E+02
     38.035  0.8020E+00  0.2960E+02
     38.236  0.1061E+01  0.2981E+02
     38.438  0.8613E+00  0.2999E+02
     38.639  0.6995E-01  0.3000E+02
     38.840  0.1196E-10  0.3000E+02
     39.042  0.2042E+00  0.3004E+02
     39.243  0.3792E+01  0.3080E+02
     39.444  0.3944E-01  0.3081E+02
     39.646  0.0000E+00  0.3081E+02
     39.847  0.0000E+00  0.3081E+02
     40.048  0.2068E-15  0.3081E+02
     40.250  0.7082E-02  0.3081E+02
     40.451  0.9237E+00  0.3100E+02
     40.652  0.5058E-03  0.3100E+02
     40.854  0.1189E-08  0.3100E+02
     41.055  0.1452E+00  0.3103E+02
     41.256  0.1564E+01  0.3134E+02
     41.458  0.3257E+01  0.3200E+02
     41.659  0.3042E-03  0.3200E+02
     41.860  0.0000E+00  0.3200E+02
     42.062  0.0000E+00  0.3200E+02
     42.263  0.0000E+00  0.3200E+02
     42.464  0.0000E+00  0.3200E+02
     42.666  0.0000E+00  0.3200E+02
     42.867  0.0000E+00  0.3200E+02
     43.068  0.0000E+00  0.3200E+02
     43.270  0.0000E+00  0.3200E+02
     43.471  0.0000E+00  0.3200E+02
     43.672  0.0000E+00  0.3200E+02
     43.874  0.0000E+00  0.3200E+02
     44.075  0.0000E+00  0.3200E+02
