 vasp.5.4.1 24Jun15 (build Jun 05 2017 10:38:15) complex                        
  
 executed on           IFC91_ompi date 2017.08.29  20:18:28
 running on   16 total cores
 distrk:  each k-point on   16 cores,    1 groups
 distr:  one band on NCORES_PER_BAND=   1 cores,   16 groups


--------------------------------------------------------------------------------------------------------


 INCAR:
 POTCAR:    PAW_PBE O_h 06Feb2004                 
 POTCAR:    PAW_PBE Mg 13Apr2007                  

 ----------------------------------------------------------------------------- 
|                                                                             |
|           W    W    AA    RRRRR   N    N  II  N    N   GGGG   !!!           |
|           W    W   A  A   R    R  NN   N  II  NN   N  G    G  !!!           |
|           W    W  A    A  R    R  N N  N  II  N N  N  G       !!!           |
|           W WW W  AAAAAA  RRRRR   N  N N  II  N  N N  G  GGG   !            |
|           WW  WW  A    A  R   R   N   NN  II  N   NN  G    G                |
|           W    W  A    A  R    R  N    N  II  N    N   GGGG   !!!           |
|                                                                             |
|      For optimal performance we recommend to set                            |
|        NCORE= 4 - approx SQRT( number of cores)                             |
|      NCORE specifies how many cores store one orbital (NPAR=cpu/NCORE).     |
|      This setting can  greatly improve the performance of VASP for DFT.     |
|      The default, NPAR=number of cores might be grossly inefficient         |
|      on modern multi-core architectures or massively parallel machines.     |
|      Do your own testing !!!!                                               |
|      Unfortunately you need to use the default for GW and RPA calculations. |
|      (for HF NCORE is supported but not extensively tested yet)             |
|                                                                             |
 ----------------------------------------------------------------------------- 

 POTCAR:    PAW_PBE O_h 06Feb2004                 
   VRHFIN =O: s2p4                                                              
   LEXCH  = PE                                                                  
   EATOM  =   432.3788 eV,   31.7789 Ry                                         
                                                                                
   TITEL  = PAW_PBE O_h 06Feb2004                                               
   LULTRA =        F    use ultrasoft PP ?                                      
   IUNSCR =        1    unscreen: 0-lin 1-nonlin 2-no                           
   RPACOR =     .800    partial core radius                                     
   POMASS =   16.000; ZVAL   =    6.000    mass and valenz                      
   RCORE  =    1.100    outmost cutoff radius                                   
   RWIGS  =    1.400; RWIGS  =     .741    wigner-seitz radius (au A)           
   ENMAX  =  700.000; ENMIN  =  500.000 eV                                      
   ICORE  =        2    local potential                                         
   LCOR   =        T    correct aug charges                                     
   LPAW   =        T    paw PP                                                  
   EAUG   =  888.804                                                            
   DEXC   =     .000                                                            
   RMAX   =    1.666    core radius for proj-oper                               
   RAUG   =    1.300    factor for augmentation sphere                          
   RDEP   =    1.125    radius for radial grids                                 
   QCUT   =   -7.501; QGAM   =   15.002    optimization parameters              
                                                                                
   Description                                                                  
     l     E      TYP  RCUT    TYP  RCUT                                        
     0   .000     23  1.100                                                     
     0   .000     23  1.100                                                     
     1   .000     23  1.100                                                     
     1   .000     23  1.100                                                     
     2   .000      7  1.100                                                     
  local pseudopotential read in
  partial core-charges read in
  atomic valenz-charges read in
  non local Contribution for L=           0  read in
    real space projection operators read in
  non local Contribution for L=           0  read in
    real space projection operators read in
  non local Contribution for L=           1  read in
    real space projection operators read in
  non local Contribution for L=           1  read in
    real space projection operators read in
    PAW grid and wavefunctions read in
 
   number of l-projection  operators is LMAX  =           4
   number of lm-projection operators is LMMAX =           8
 
 POTCAR:    PAW_PBE Mg 13Apr2007                  
   VRHFIN =Mg: s2p0                                                             
   LEXCH  = PE                                                                  
   EATOM  =    23.0369 eV,    1.6932 Ry                                         
                                                                                
   TITEL  = PAW_PBE Mg 13Apr2007                                                
   LULTRA =        F    use ultrasoft PP ?                                      
   IUNSCR =        1    unscreen: 0-lin 1-nonlin 2-no                           
   RPACOR =    1.500    partial core radius                                     
   POMASS =   24.305; ZVAL   =    2.000    mass and valenz                      
   RCORE  =    2.000    outmost cutoff radius                                   
   RWIGS  =    2.880; RWIGS  =    1.524    wigner-seitz radius (au A)           
   ENMAX  =  126.143; ENMIN  =   94.607 eV                                      
   RCLOC  =    1.506    cutoff for local pot                                    
   LCOR   =        T    correct aug charges                                     
   LPAW   =        T    paw PP                                                  
   EAUG   =  454.734                                                            
   DEXC   =     .000                                                            
   RMAX   =    4.105    core radius for proj-oper                               
   RAUG   =    1.300    factor for augmentation sphere                          
   RDEP   =    2.025    radius for radial grids                                 
   QCUT   =   -3.045; QGAM   =    6.090    optimization parameters              
                                                                                
   Description                                                                  
     l     E      TYP  RCUT    TYP  RCUT                                        
     0   .000     23  2.000                                                     
     0  2.000     23  2.000                                                     
     1   .100     23  2.000                                                     
     1  2.000     23  2.000                                                     
     2   .000     23  2.000                                                     
  local pseudopotential read in
  partial core-charges read in
  atomic valenz-charges read in
  non local Contribution for L=           0  read in
    real space projection operators read in
  non local Contribution for L=           0  read in
    real space projection operators read in
  non local Contribution for L=           1  read in
    real space projection operators read in
  non local Contribution for L=           1  read in
    real space projection operators read in
  non local Contribution for L=           2  read in
    real space projection operators read in
    PAW grid and wavefunctions read in
 
   number of l-projection  operators is LMAX  =           5
   number of lm-projection operators is LMMAX =          13
 
  PAW_PBE O_h 06Feb2004                 :
 energy of atom  1       EATOM= -432.3788
 kinetic energy error for atom=    0.0685 (will be added to EATOM!!)
  PAW_PBE Mg 13Apr2007                  :
 energy of atom  2       EATOM=  -23.0369
 kinetic energy error for atom=    0.0000 (will be added to EATOM!!)
 
 
 POSCAR: Mg1 O1                                  
  positions in direct lattice
  No initial velocities read in
 exchange correlation table for  LEXCH =        8
   RHO(1)=    0.500       N(1)  =     2000
   RHO(2)=  100.500       N(2)  =     4000
 


--------------------------------------------------------------------------------------------------------


 ion  position               nearest neighbor table
   1  0.500  0.500  0.500-   2 2.12   2 2.12   2 2.12   2 2.12   2 2.12   2 2.12
   2  0.000  0.000  0.000-   1 2.12   1 2.12   1 2.12   1 2.12   1 2.12   1 2.12
 
  LATTYP: Found a face centered cubic cell.
 ALAT       =     4.2452137554
  
  Lattice vectors:
  
 A1 = (   3.0018190000,   0.0000000000,   0.0000000000)
 A2 = (   1.5009100000,   2.5996520000,   0.0000000000)
 A3 = (   1.5009100000,   0.8665510000,   2.4509750000)


Analysis of symmetry for initial positions (statically):
=====================================================================
 Subroutine PRICEL returns:
 Original cell was already a primitive cell.
 

 Routine SETGRP: Setting up the symmetry group for a 
 face centered cubic supercell.


 Subroutine GETGRP returns: Found 48 space group operations
 (whereof 48 operations were pure point group operations)
 out of a pool of 48 trial point group operations.


The static configuration has the point symmetry O_h .


Analysis of symmetry for dynamics (positions and initial velocities):
=====================================================================
 Subroutine PRICEL returns:
 Original cell was already a primitive cell.
 

 Routine SETGRP: Setting up the symmetry group for a 
 face centered cubic supercell.


 Subroutine GETGRP returns: Found 48 space group operations
 (whereof 48 operations were pure point group operations)
 out of a pool of 48 trial point group operations.


The dynamic configuration has the point symmetry O_h .


 Subroutine INISYM returns: Found 48 space group operations
 (whereof 48 operations are pure point group operations),
 and found     1 'primitive' translations

 
 
 KPOINTS: Automatic Mesh                          

Automatic generation of k-mesh.
Space group operators:
 irot       det(A)        alpha          n_x          n_y          n_z        tau_x        tau_y        tau_z
    1     1.000000     0.000000     1.000000     0.000000     0.000000     0.000000     0.000000     0.000000
    2    -1.000000     0.000000     1.000000     0.000000     0.000000     0.000000     0.000000     0.000000
    3     1.000000   120.000000    -0.816497    -0.471404    -0.333333     0.000000     0.000000     0.000000
    4    -1.000000   120.000000    -0.816497    -0.471404    -0.333333     0.000000     0.000000     0.000000
    5     1.000000   120.000000     0.816497     0.471405     0.333333     0.000000     0.000000     0.000000
    6    -1.000000   120.000000     0.816497     0.471405     0.333333     0.000000     0.000000     0.000000
    7     1.000000    90.000000    -0.707107    -0.408248     0.577350     0.000000     0.000000     0.000000
    8    -1.000000    90.000000    -0.707107    -0.408248     0.577350     0.000000     0.000000     0.000000
    9     1.000000   180.000000     1.000000    -0.000000    -0.000000     0.000000     0.000000     0.000000
   10    -1.000000   180.000000     1.000000    -0.000000    -0.000000     0.000000     0.000000     0.000000
   11     1.000000    90.000000     0.707107    -0.408248     0.577350     0.000000     0.000000     0.000000
   12    -1.000000    90.000000     0.707107    -0.408248     0.577350     0.000000     0.000000     0.000000
   13     1.000000   180.000000    -0.707107    -0.408248     0.577350     0.000000     0.000000     0.000000
   14    -1.000000   180.000000    -0.707107    -0.408248     0.577350     0.000000     0.000000     0.000000
   15     1.000000   120.000000     0.816497    -0.471405    -0.333333     0.000000     0.000000     0.000000
   16    -1.000000   120.000000     0.816497    -0.471405    -0.333333     0.000000     0.000000     0.000000
   17     1.000000   120.000000    -0.000000    -0.942809     0.333334     0.000000     0.000000     0.000000
   18    -1.000000   120.000000    -0.000000    -0.942809     0.333334     0.000000     0.000000     0.000000
   19     1.000000    90.000000     0.707107     0.408248    -0.577350     0.000000     0.000000     0.000000
   20    -1.000000    90.000000     0.707107     0.408248    -0.577350     0.000000     0.000000     0.000000
   21     1.000000    90.000000    -0.000000    -0.816497    -0.577350     0.000000     0.000000     0.000000
   22    -1.000000    90.000000    -0.000000    -0.816497    -0.577350     0.000000     0.000000     0.000000
   23     1.000000   180.000000     0.500000     0.866025    -0.000000     0.000000     0.000000     0.000000
   24    -1.000000   180.000000     0.500000     0.866025    -0.000000     0.000000     0.000000     0.000000
   25     1.000000   120.000000    -0.000000     0.942809    -0.333333     0.000000     0.000000     0.000000
   26    -1.000000   120.000000    -0.000000     0.942809    -0.333333     0.000000     0.000000     0.000000
   27     1.000000   120.000000     0.000000    -0.000000    -1.000000     0.000000     0.000000     0.000000
   28    -1.000000   120.000000     0.000000    -0.000000    -1.000000     0.000000     0.000000     0.000000
   29     1.000000   180.000000     0.000000    -0.816497    -0.577350     0.000000     0.000000     0.000000
   30    -1.000000   180.000000     0.000000    -0.816497    -0.577350     0.000000     0.000000     0.000000
   31     1.000000    90.000000    -0.707107     0.408248    -0.577350     0.000000     0.000000     0.000000
   32    -1.000000    90.000000    -0.707107     0.408248    -0.577350     0.000000     0.000000     0.000000
   33     1.000000   180.000000    -0.500000    -0.288675    -0.816497     0.000000     0.000000     0.000000
   34    -1.000000   180.000000    -0.500000    -0.288675    -0.816497     0.000000     0.000000     0.000000
   35     1.000000    90.000000     0.000000     0.816497     0.577350     0.000000     0.000000     0.000000
   36    -1.000000    90.000000     0.000000     0.816497     0.577350     0.000000     0.000000     0.000000
   37     1.000000   120.000000    -0.816496     0.471405     0.333333     0.000000     0.000000     0.000000
   38    -1.000000   120.000000    -0.816496     0.471405     0.333333     0.000000     0.000000     0.000000
   39     1.000000   180.000000    -0.707107     0.408248    -0.577350     0.000000     0.000000     0.000000
   40    -1.000000   180.000000    -0.707107     0.408248    -0.577350     0.000000     0.000000     0.000000
   41     1.000000   120.000000     0.000000    -0.000000     1.000000     0.000000     0.000000     0.000000
   42    -1.000000   120.000000     0.000000    -0.000000     1.000000     0.000000     0.000000     0.000000
   43     1.000000   180.000000     0.000000    -0.577350     0.816497     0.000000     0.000000     0.000000
   44    -1.000000   180.000000     0.000000    -0.577350     0.816497     0.000000     0.000000     0.000000
   45     1.000000   180.000000    -0.500000     0.866025    -0.000000     0.000000     0.000000     0.000000
   46    -1.000000   180.000000    -0.500000     0.866025    -0.000000     0.000000     0.000000     0.000000
   47     1.000000   180.000000    -0.500000     0.288675     0.816497     0.000000     0.000000     0.000000
   48    -1.000000   180.000000    -0.500000     0.288675     0.816497     0.000000     0.000000     0.000000
 
 Subroutine IBZKPT returns following result:
 ===========================================
 
 Found     10 irreducible k-points:
 
 Following reciprocal coordinates:
            Coordinates               Weight
  0.125000  0.125000  0.125000     96.000000
  0.375000  0.125000  0.125000    288.000000
 -0.375000  0.125000  0.125000    288.000000
 -0.125000  0.125000  0.125000    288.000000
  0.375000  0.375000  0.125000    288.000000
 -0.375000  0.375000  0.125000    576.000000
 -0.125000  0.375000  0.125000    576.000000
 -0.375000 -0.375000  0.125000    288.000000
  0.375000  0.375000  0.375000     96.000000
 -0.375000  0.375000  0.375000    288.000000
 
 Following cartesian coordinates:
            Coordinates               Weight
  0.041641  0.024042  0.017000     96.000000
  0.124924 -0.024042 -0.017000    288.000000
 -0.124924  0.120208  0.085000    288.000000
 -0.041641  0.072125  0.051000    288.000000
  0.124924  0.072125 -0.051000    288.000000
 -0.124924  0.216375  0.051000    576.000000
 -0.041641  0.168292  0.017000    576.000000
 -0.124924 -0.072125  0.153000    288.000000
  0.124924  0.072125  0.051000     96.000000
 -0.124924  0.216375  0.153000    288.000000
 


--------------------------------------------------------------------------------------------------------




 Dimension of arrays:
   k-points           NKPTS =     10   k-points in BZ     NKDIM =     10   number of bands    NBANDS=     16
   number of dos      NEDOS =    301   number of ions     NIONS =      2
   non local maximal  LDIM  =      5   non local SUM 2l+1 LMDIM =     13
   total plane-waves  NPLWV =  21952
   max r-space proj   IRMAX =      1   max aug-charges    IRDMAX=  17965
   dimension x,y,z NGX =    28 NGY =   28 NGZ =   28
   dimension x,y,z NGXF=    40 NGYF=   40 NGZF=   40
   support grid    NGXF=    40 NGYF=   40 NGZF=   40
   ions per type =               1   1
 NGX,Y,Z   is equivalent  to a cutoff of  15.51, 15.51, 15.51 a.u.
 NGXF,Y,Z  is equivalent  to a cutoff of  22.15, 22.15, 22.15 a.u.


 I would recommend the setting:
   dimension x,y,z NGX =    27 NGY =   27 NGZ =   27
 SYSTEM =  automatically generated by pyflamestk   
 POSCAR =  Mg1 O1                                  

 Startparameter for this run:
   NWRITE =      2    write-flag & timer
   PREC   = high      normal or accurate (medium, high low for compatibility)
   ISTART =      0    job   : 0-new  1-cont  2-samecut
   ICHARG =      0    charge: 1-file 2-atom 10-const
   ISPIN  =      1    spin polarized calculation?
   LNONCOLLINEAR =      F non collinear calculations
   LSORBIT =      F    spin-orbit coupling
   INIWAV =      1    electr: 0-lowe 1-rand  2-diag
   LASPH  =      F    aspherical Exc in radial PAW
   METAGGA=      F    non-selfconsistent MetaGGA calc.

 Electronic Relaxation 1
   ENCUT  =  775.0 eV  56.96 Ry    7.55 a.u.   6.81  6.81  6.81*2*pi/ulx,y,z
   ENINI  =  775.0     initial cutoff
   ENAUG  =  888.8 eV  augmentation charge cutoff
   NELM   =     40;   NELMIN=  2; NELMDL= -5     # of ELM steps 
   EDIFF  = 0.1E-05   stopping-criterion for ELM
   LREAL  =      F    real-space projection
   NLSPLINE    = F    spline interpolate recip. space projectors
   LCOMPAT=      F    compatible to vasp.4.4
   GGA_COMPAT  = T    GGA compatible to vasp.4.4-vasp.4.6
   LMAXPAW     = -100 max onsite density
   LMAXMIX     =    2 max onsite mixed and CHGCAR
   VOSKOWN=      0    Vosko Wilk Nusair interpolation
   ROPT   =    0.00000   0.00000
 Ionic relaxation
   EDIFFG = 0.1E-04   stopping-criterion for IOM
   NSW    =      0    number of steps for IOM
   NBLOCK =      1;   KBLOCK =      1    inner block; outer block 
   IBRION =     -1    ionic relax: 0-MD 1-quasi-New 2-CG
   NFREE  =      0    steps in history (QN), initial steepest desc. (CG)
   ISIF   =      2    stress and relaxation
   IWAVPR =     10    prediction:  0-non 1-charg 2-wave 3-comb
   ISYM   =      2    0-nonsym 1-usesym 2-fastsym
   LCORR  =      T    Harris-Foulkes like correction to forces

   POTIM  = 0.5000    time-step for ionic-motion
   TEIN   =    0.0    initial temperature
   TEBEG  =    0.0;   TEEND  =   0.0 temperature during run
   SMASS  =  -3.00    Nose mass-parameter (am)
   estimated Nose-frequenzy (Omega)   =  0.10E-29 period in steps =****** mass=  -0.206E-27a.u.
   SCALEE = 1.0000    scale energy and forces
   NPACO  =    256;   APACO  = 16.0  distance and # of slots for P.C.
   PSTRESS=    0.0 pullay stress

  Mass of Ions in am
   POMASS =  16.00 24.30
  Ionic Valenz
   ZVAL   =   6.00  2.00
  Atomic Wigner-Seitz radii
   RWIGS  =  -1.00 -1.00
  virtual crystal weights 
   VCA    =   1.00  1.00
   NELECT =       8.0000    total number of electrons
   NUPDOWN=      -1.0000    fix difference up-down

 DOS related values:
   EMIN   =  10.00;   EMAX   =-10.00  energy-range for DOS
   EFERMI =   0.00
   ISMEAR =     0;   SIGMA  =   0.05  broadening in eV -4-tet -1-fermi 0-gaus

 Electronic relaxation 2 (details)
   IALGO  =     38    algorithm
   LDIAG  =      T    sub-space diagonalisation (order eigenvalues)
   LSUBROT=      F    optimize rotation matrix (better conditioning)
   TURBO    =      0    0=normal 1=particle mesh
   IRESTART =      0    0=no restart 2=restart with 2 vectors
   NREBOOT  =      0    no. of reboots
   NMIN     =      0    reboot dimension
   EREF     =   0.00    reference energy to select bands
   IMIX   =      4    mixing-type and parameters
     AMIX     =   0.40;   BMIX     =  1.00
     AMIX_MAG =   1.60;   BMIX_MAG =  1.00
     AMIN     =   0.10
     WC   =   100.;   INIMIX=   1;  MIXPRE=   1;  MAXMIX= -45

 Intra band minimization:
   WEIMIN = 0.0000     energy-eigenvalue tresh-hold
   EBREAK =  0.16E-07  absolut break condition
   DEPER  =   0.30     relativ break condition  

   TIME   =   0.40     timestep for ELM

  volume/ion in A,a.u.               =       9.56        64.54
  Fermi-wavevector in a.u.,A,eV,Ry     =   1.224312  2.313613 20.394301  1.498939
  Thomas-Fermi vector in A             =   2.359391
 
 Write flags
   LWAVE  =      F    write WAVECAR
   LCHARG =      F    write CHGCAR
   LVTOT  =      F    write LOCPOT, total local potential
   LVHAR  =      F    write LOCPOT, Hartree potential only
   LELF   =      F    write electronic localiz. function (ELF)
   LORBIT =      0    0 simple, 1 ext, 2 COOP (PROOUT)


 Dipole corrections
   LMONO  =      F    monopole corrections only (constant potential shift)
   LDIPOL =      F    correct potential (dipole corrections)
   IDIPOL =      0    1-x, 2-y, 3-z, 4-all directions 
   EPSILON=  1.0000000 bulk dielectric constant

 Exchange correlation treatment:
   GGA     =    --    GGA type
   LEXCH   =     8    internal setting for exchange type
   VOSKOWN=      0    Vosko Wilk Nusair interpolation
   LHFCALC =     F    Hartree Fock is set to
   LHFONE  =     F    Hartree Fock one center treatment
   AEXX    =    0.0000 exact exchange contribution

 Linear response parameters
   LEPSILON=     F    determine dielectric tensor
   LRPA    =     F    only Hartree local field effects (RPA)
   LNABLA  =     F    use nabla operator in PAW spheres
   LVEL    =     F    velocity operator in full k-point grid
   LINTERFAST=   F  fast interpolation
   KINTER  =     0    interpolate to denser k-point grid
   CSHIFT  =0.1000    complex shift for real part using Kramers Kronig
   OMEGAMAX=  -1.0    maximum frequency
   DEG_THRESHOLD= 0.2000000E-02 threshold for treating states as degnerate
   RTIME   =    0.100 relaxation time in fs

 Orbital magnetization related:
   ORBITALMAG=     F  switch on orbital magnetization
   LCHIMAG   =     F  perturbation theory with respect to B field
   DQ        =  0.001000  dq finite difference perturbation B field



--------------------------------------------------------------------------------------------------------


 Static calculation
 charge density and potential will be updated during run
 non-spin polarized calculation
 Variant of blocked Davidson
 Davidson routine will perform the subspace rotation
 perform sub-space diagonalisation
    after iterative eigenvector-optimisation
 modified Broyden-mixing scheme, WC =      100.0
 initial mixing is a Kerker type mixing with AMIX =  0.4000 and BMIX =      1.0000
 Hartree-type preconditioning will be used
 using additional bands           12
 reciprocal scheme for non local part
 use partial core corrections
 calculate Harris-corrections to forces 
   (improved forces if not selfconsistent)
 use gradient corrections 
 use of overlap-Matrix (Vanderbilt PP)
 Gauss-broadening in eV      SIGMA  =   0.05


--------------------------------------------------------------------------------------------------------


  energy-cutoff  :      775.00
  volume of cell :       19.13
      direct lattice vectors                 reciprocal lattice vectors
     3.001819000  0.000000000  0.000000000     0.333131345 -0.192333499 -0.136000318
     1.500910000  2.599652000  0.000000000     0.000000000  0.384666871 -0.136000352
     1.500910000  0.866551000  2.450975000     0.000000000  0.000000000  0.408000898

  length of vectors
     3.001819000  3.001819673  3.001819434     0.408000925  0.408000854  0.408000898


 
 k-points in units of 2pi/SCALE and weight: Automatic Mesh                          
   0.04164142  0.02404167  0.01700003       0.031
   0.12492425 -0.02404170 -0.01700005       0.094
  -0.12492425  0.12020842  0.08500019       0.094
  -0.04164142  0.07212505  0.05100011       0.094
   0.12492425  0.07212501 -0.05100014       0.094
  -0.12492425  0.21637514  0.05100010       0.188
  -0.04164142  0.16829176  0.01700002       0.188
  -0.12492425 -0.07212501  0.15300036       0.094
   0.12492425  0.07212501  0.05100009       0.031
  -0.12492425  0.21637514  0.15300032       0.094
 
 k-points in reciprocal lattice and weights: Automatic Mesh                          
   0.12500000  0.12500000  0.12500000       0.031
   0.37500000  0.12500000  0.12500000       0.094
  -0.37500000  0.12500000  0.12500000       0.094
  -0.12500000  0.12500000  0.12500000       0.094
   0.37500000  0.37500000  0.12500000       0.094
  -0.37500000  0.37500000  0.12500000       0.188
  -0.12500000  0.37500000  0.12500000       0.188
  -0.37500000 -0.37500000  0.12500000       0.094
   0.37500000  0.37500000  0.37500000       0.031
  -0.37500000  0.37500000  0.37500000       0.094
 
 position of ions in fractional coordinates (direct lattice) 
   0.50000000  0.50000000  0.50000000
   0.00000000  0.00000000  0.00000000
 
 position of ions in cartesian coordinates  (Angst):
   3.00181950  1.73310150  1.22548750
   0.00000000  0.00000000  0.00000000
 


--------------------------------------------------------------------------------------------------------


 k-point  1 :   0.1250 0.1250 0.1250  plane waves:     932
 k-point  2 :   0.3750 0.1250 0.1250  plane waves:     939
 k-point  3 :  -0.3750 0.1250 0.1250  plane waves:     934
 k-point  4 :  -0.1250 0.1250 0.1250  plane waves:     939
 k-point  5 :   0.3750 0.3750 0.1250  plane waves:     940
 k-point  6 :  -0.3750 0.3750 0.1250  plane waves:     937
 k-point  7 :  -0.1250 0.3750 0.1250  plane waves:     936
 k-point  8 :  -0.3750-0.3750 0.1250  plane waves:     945
 k-point  9 :   0.3750 0.3750 0.3750  plane waves:     938
 k-point 10 :  -0.3750 0.3750 0.3750  plane waves:     943

 maximum and minimum number of plane-waves per node :       945      932

 maximum number of plane-waves:       945
 maximum index in each direction: 
   IXMAX=    7   IYMAX=    7   IZMAX=    6
   IXMIN=   -7   IYMIN=   -7   IZMIN=   -7

 WARNING: aliasing errors must be expected set NGX to  30 to avoid them
 WARNING: aliasing errors must be expected set NGY to  30 to avoid them
 NGZ is ok and might be reduce to  28
 aliasing errors are usually negligible using standard VASP settings
 and one can safely disregard these warnings

 serial   3D FFT for wavefunctions
 parallel 3D FFT for charge:
    minimum data exchange during FFTs selected (reduces bandwidth)


 total amount of memory used by VASP on root node    33637. kBytes
========================================================================

   base      :      30000. kBytes
   nonl-proj :       2027. kBytes
   fftplans  :        267. kBytes
   grid      :       1169. kBytes
   one-center:         16. kBytes
   wavefun   :        158. kBytes
 
     INWAV:  cpu time    0.0010: real time    0.0001
 Broyden mixing: mesh for mixing (old mesh)
   NGX = 13   NGY = 13   NGZ = 13
  (NGX  = 40   NGY  = 40   NGZ  = 40)
  gives a total of   2197 points

 charge density for first step will be calculated from the start-wavefunctions


--------------------------------------------------------------------------------------------------------


 Maximum index for augmentation-charges         1453 (set IRDMAX)


--------------------------------------------------------------------------------------------------------


 initial charge from wavefunction
 First call to EWALD:  gamma=   0.663
 Maximum number of real-space cells 3x 3x 3
 Maximum number of reciprocal cells 3x 3x 3

 FEWALD executed in parallel
    FEWALD:  cpu time    0.0020: real time    0.0015


----------------------------------------- Iteration    1(   1)  ---------------------------------------


    POTLOK:  cpu time    0.0050: real time    0.0054
    SETDIJ:  cpu time    0.0030: real time    0.0029
     EDDAV:  cpu time    0.0570: real time    0.0571
       DOS:  cpu time    0.0000: real time    0.0002
    --------------------------------------------
      LOOP:  cpu time    0.0690: real time    0.0708

 eigenvalue-minimisations  :   368
 total energy-change (2. order) :-0.2518648E+03  (-0.1029067E+04)
 number of electron       8.0000000 magnetization 
 augmentation part       -1.0279088 magnetization 

 Free energy of the ion-electron system (eV)
  ---------------------------------------------------
  alpha Z        PSCENC =        15.91937336
  Ewald energy   TEWEN  =      -355.39410472
  -Hartree energ DENC   =       -34.37303791
  -exchange      EXHF   =         0.00000000
  -V(xc)+E(xc)   XCENC  =       -29.71126777
  PAW double counting   =    182356.93381472  -182302.88585223
  entropy T*S    EENTRO =        -0.00000000
  eigenvalues    EBANDS =      -357.70087201
  atomic energy  EATOM  =       455.34716455
  Solvation  Ediel_sol  =         0.00000000
  ---------------------------------------------------
  free energy    TOTEN  =      -251.86478201 eV

  energy without entropy =     -251.86478201  energy(sigma->0) =     -251.86478201


--------------------------------------------------------------------------------------------------------




----------------------------------------- Iteration    1(   2)  ---------------------------------------


     EDDAV:  cpu time    0.0630: real time    0.0632
       DOS:  cpu time    0.0000: real time    0.0001
    --------------------------------------------
      LOOP:  cpu time    0.0640: real time    0.0656

 eigenvalue-minimisations  :   432
 total energy-change (2. order) :-0.5968223E+02  (-0.5968223E+02)
 number of electron       8.0000000 magnetization 
 augmentation part       -1.0279088 magnetization 

 Free energy of the ion-electron system (eV)
  ---------------------------------------------------
  alpha Z        PSCENC =        15.91937336
  Ewald energy   TEWEN  =      -355.39410472
  -Hartree energ DENC   =       -34.37303791
  -exchange      EXHF   =         0.00000000
  -V(xc)+E(xc)   XCENC  =       -29.71126777
  PAW double counting   =    182356.93381472  -182302.88585223
  entropy T*S    EENTRO =        -0.00000000
  eigenvalues    EBANDS =      -417.38310178
  atomic energy  EATOM  =       455.34716455
  Solvation  Ediel_sol  =         0.00000000
  ---------------------------------------------------
  free energy    TOTEN  =      -311.54701178 eV

  energy without entropy =     -311.54701178  energy(sigma->0) =     -311.54701178


--------------------------------------------------------------------------------------------------------




----------------------------------------- Iteration    1(   3)  ---------------------------------------


     EDDAV:  cpu time    0.0620: real time    0.0623
       DOS:  cpu time    0.0010: real time    0.0001
    --------------------------------------------
      LOOP:  cpu time    0.0630: real time    0.0649

 eigenvalue-minimisations  :   416
 total energy-change (2. order) :-0.3069633E+00  (-0.3069633E+00)
 number of electron       8.0000000 magnetization 
 augmentation part       -1.0279088 magnetization 

 Free energy of the ion-electron system (eV)
  ---------------------------------------------------
  alpha Z        PSCENC =        15.91937336
  Ewald energy   TEWEN  =      -355.39410472
  -Hartree energ DENC   =       -34.37303791
  -exchange      EXHF   =         0.00000000
  -V(xc)+E(xc)   XCENC  =       -29.71126777
  PAW double counting   =    182356.93381472  -182302.88585223
  entropy T*S    EENTRO =        -0.00000000
  eigenvalues    EBANDS =      -417.69006506
  atomic energy  EATOM  =       455.34716455
  Solvation  Ediel_sol  =         0.00000000
  ---------------------------------------------------
  free energy    TOTEN  =      -311.85397506 eV

  energy without entropy =     -311.85397506  energy(sigma->0) =     -311.85397506


--------------------------------------------------------------------------------------------------------




----------------------------------------- Iteration    1(   4)  ---------------------------------------


     EDDAV:  cpu time    0.0810: real time    0.0814
       DOS:  cpu time    0.0010: real time    0.0001
    --------------------------------------------
      LOOP:  cpu time    0.0820: real time    0.0839

 eigenvalue-minimisations  :   528
 total energy-change (2. order) :-0.5511086E-03  (-0.5511086E-03)
 number of electron       8.0000000 magnetization 
 augmentation part       -1.0279088 magnetization 

 Free energy of the ion-electron system (eV)
  ---------------------------------------------------
  alpha Z        PSCENC =        15.91937336
  Ewald energy   TEWEN  =      -355.39410472
  -Hartree energ DENC   =       -34.37303791
  -exchange      EXHF   =         0.00000000
  -V(xc)+E(xc)   XCENC  =       -29.71126777
  PAW double counting   =    182356.93381472  -182302.88585223
  entropy T*S    EENTRO =        -0.00000000
  eigenvalues    EBANDS =      -417.69061617
  atomic energy  EATOM  =       455.34716455
  Solvation  Ediel_sol  =         0.00000000
  ---------------------------------------------------
  free energy    TOTEN  =      -311.85452617 eV

  energy without entropy =     -311.85452617  energy(sigma->0) =     -311.85452617


--------------------------------------------------------------------------------------------------------




----------------------------------------- Iteration    1(   5)  ---------------------------------------


     EDDAV:  cpu time    0.0610: real time    0.0610
       DOS:  cpu time    0.0000: real time    0.0001
    CHARGE:  cpu time    0.0080: real time    0.0081
    MIXING:  cpu time    0.0000: real time    0.0004
    --------------------------------------------
      LOOP:  cpu time    0.0690: real time    0.0731

 eigenvalue-minimisations  :   416
 total energy-change (2. order) :-0.1563519E-06  (-0.1563524E-06)
 number of electron       7.9999985 magnetization 
 augmentation part        0.5749250 magnetization 

 Broyden mixing:
  rms(total) = 0.94368E+01    rms(broyden)= 0.94114E+01
  rms(prec ) = 0.29155E+02
  weight for this iteration     100.00

 Free energy of the ion-electron system (eV)
  ---------------------------------------------------
  alpha Z        PSCENC =        15.91937336
  Ewald energy   TEWEN  =      -355.39410472
  -Hartree energ DENC   =       -34.37303791
  -exchange      EXHF   =         0.00000000
  -V(xc)+E(xc)   XCENC  =       -29.71126777
  PAW double counting   =    182356.93381472  -182302.88585223
  entropy T*S    EENTRO =        -0.00000000
  eigenvalues    EBANDS =      -417.69061632
  atomic energy  EATOM  =       455.34716455
  Solvation  Ediel_sol  =         0.00000000
  ---------------------------------------------------
  free energy    TOTEN  =      -311.85452632 eV

  energy without entropy =     -311.85452632  energy(sigma->0) =     -311.85452632


--------------------------------------------------------------------------------------------------------




----------------------------------------- Iteration    1(   6)  ---------------------------------------


    POTLOK:  cpu time    0.0040: real time    0.0043
    SETDIJ:  cpu time    0.0030: real time    0.0027
     EDDAV:  cpu time    0.0450: real time    0.0453
       DOS:  cpu time    0.0000: real time    0.0001
    CHARGE:  cpu time    0.0080: real time    0.0081
    MIXING:  cpu time    0.0010: real time    0.0003
    --------------------------------------------
      LOOP:  cpu time    0.0620: real time    0.0642

 eigenvalue-minimisations  :   320
 total energy-change (2. order) : 0.2426185E+03  (-0.2756586E+02)
 number of electron       7.9999993 magnetization 
 augmentation part        0.2526136 magnetization 

 Broyden mixing:
  rms(total) = 0.40693E+01    rms(broyden)= 0.40660E+01
  rms(prec ) = 0.13622E+02
  weight for this iteration     100.00

 eigenvalues of (default mixing * dielectric matrix)
  average eigenvalue GAMMA=   1.4890
  1.4890

 Free energy of the ion-electron system (eV)
  ---------------------------------------------------
  alpha Z        PSCENC =        15.91937336
  Ewald energy   TEWEN  =      -355.39410472
  -Hartree energ DENC   =       -67.61241525
  -exchange      EXHF   =         0.00000000
  -V(xc)+E(xc)   XCENC  =       -26.06718718
  PAW double counting   =    404302.58185745  -404252.62616831
  entropy T*S    EENTRO =        -0.00000000
  eigenvalues    EBANDS =      -141.38457308
  atomic energy  EATOM  =       455.34716455
  Solvation  Ediel_sol  =         0.00000000
  ---------------------------------------------------
  free energy    TOTEN  =       -69.23605318 eV

  energy without entropy =      -69.23605318  energy(sigma->0) =      -69.23605318


--------------------------------------------------------------------------------------------------------




----------------------------------------- Iteration    1(   7)  ---------------------------------------


    POTLOK:  cpu time    0.0040: real time    0.0038
    SETDIJ:  cpu time    0.0020: real time    0.0027
     EDDAV:  cpu time    0.0720: real time    0.0714
       DOS:  cpu time    0.0000: real time    0.0001
    CHARGE:  cpu time    0.0080: real time    0.0081
    MIXING:  cpu time    0.0000: real time    0.0002
    --------------------------------------------
      LOOP:  cpu time    0.0860: real time    0.0887

 eigenvalue-minimisations  :   480
 total energy-change (2. order) : 0.4591731E+02  (-0.3997359E+02)
 number of electron       8.0000001 magnetization 
 augmentation part       -0.0164152 magnetization 

 Broyden mixing:
  rms(total) = 0.26581E+01    rms(broyden)= 0.26525E+01
  rms(prec ) = 0.71458E+01
  weight for this iteration     100.00

 eigenvalues of (default mixing * dielectric matrix)
  average eigenvalue GAMMA=   1.3300
  1.3300  1.3300

 Free energy of the ion-electron system (eV)
  ---------------------------------------------------
  alpha Z        PSCENC =        15.91937336
  Ewald energy   TEWEN  =      -355.39410472
  -Hartree energ DENC   =      -180.02231576
  -exchange      EXHF   =         0.00000000
  -V(xc)+E(xc)   XCENC  =       -18.66227110
  PAW double counting   =     56716.14666741   -56667.89166960
  entropy T*S    EENTRO =        -0.00000000
  eigenvalues    EBANDS =        11.23841019
  atomic energy  EATOM  =       455.34716455
  Solvation  Ediel_sol  =         0.00000000
  ---------------------------------------------------
  free energy    TOTEN  =       -23.31874567 eV

  energy without entropy =      -23.31874567  energy(sigma->0) =      -23.31874567


--------------------------------------------------------------------------------------------------------




----------------------------------------- Iteration    1(   8)  ---------------------------------------


    POTLOK:  cpu time    0.0040: real time    0.0038
    SETDIJ:  cpu time    0.0030: real time    0.0027
     EDDAV:  cpu time    0.0440: real time    0.0446
       DOS:  cpu time    0.0010: real time    0.0001
    CHARGE:  cpu time    0.0080: real time    0.0080
    MIXING:  cpu time    0.0000: real time    0.0002
    --------------------------------------------
      LOOP:  cpu time    0.0600: real time    0.0631

 eigenvalue-minimisations  :   320
 total energy-change (2. order) : 0.1879254E+01  (-0.1870584E+02)
 number of electron       7.9999996 magnetization 
 augmentation part        0.1487845 magnetization 

 Broyden mixing:
  rms(total) = 0.17013E+01    rms(broyden)= 0.17004E+01
  rms(prec ) = 0.60875E+01
  weight for this iteration     100.00

 eigenvalues of (default mixing * dielectric matrix)
  average eigenvalue GAMMA=   1.5676
  2.6011  1.3390  0.7627

 Free energy of the ion-electron system (eV)
  ---------------------------------------------------
  alpha Z        PSCENC =        15.91937336
  Ewald energy   TEWEN  =      -355.39410472
  -Hartree energ DENC   =      -100.30010095
  -exchange      EXHF   =         0.00000000
  -V(xc)+E(xc)   XCENC  =       -24.02160719
  PAW double counting   =     69433.67933709   -69383.60210293
  entropy T*S    EENTRO =        -0.00000000
  eigenvalues    EBANDS =       -63.06745125
  atomic energy  EATOM  =       455.34716455
  Solvation  Ediel_sol  =         0.00000000
  ---------------------------------------------------
  free energy    TOTEN  =       -21.43949205 eV

  energy without entropy =      -21.43949205  energy(sigma->0) =      -21.43949205


--------------------------------------------------------------------------------------------------------




----------------------------------------- Iteration    1(   9)  ---------------------------------------


    POTLOK:  cpu time    0.0040: real time    0.0038
    SETDIJ:  cpu time    0.0030: real time    0.0027
     EDDAV:  cpu time    0.0440: real time    0.0446
       DOS:  cpu time    0.0000: real time    0.0001
    CHARGE:  cpu time    0.0090: real time    0.0082
    MIXING:  cpu time    0.0000: real time    0.0003
    --------------------------------------------
      LOOP:  cpu time    0.0600: real time    0.0623

 eigenvalue-minimisations  :   320
 total energy-change (2. order) : 0.9480482E+01  (-0.3215826E+01)
 number of electron       7.9999998 magnetization 
 augmentation part        0.0779453 magnetization 

 Broyden mixing:
  rms(total) = 0.24596E+00    rms(broyden)= 0.24482E+00
  rms(prec ) = 0.68703E+00
  weight for this iteration     100.00

 eigenvalues of (default mixing * dielectric matrix)
  average eigenvalue GAMMA=   1.5190
  2.5805  1.3707  1.3707  0.7542

 Free energy of the ion-electron system (eV)
  ---------------------------------------------------
  alpha Z        PSCENC =        15.91937336
  Ewald energy   TEWEN  =      -355.39410472
  -Hartree energ DENC   =      -137.62491316
  -exchange      EXHF   =         0.00000000
  -V(xc)+E(xc)   XCENC  =       -20.92251929
  PAW double counting   =      1193.74967682    -1143.23964438
  entropy T*S    EENTRO =        -0.00000000
  eigenvalues    EBANDS =       -19.79404304
  atomic energy  EATOM  =       455.34716455
  Solvation  Ediel_sol  =         0.00000000
  ---------------------------------------------------
  free energy    TOTEN  =       -11.95900986 eV

  energy without entropy =      -11.95900986  energy(sigma->0) =      -11.95900986


--------------------------------------------------------------------------------------------------------




----------------------------------------- Iteration    1(  10)  ---------------------------------------


    POTLOK:  cpu time    0.0040: real time    0.0038
    SETDIJ:  cpu time    0.0030: real time    0.0027
     EDDAV:  cpu time    0.0600: real time    0.0607
       DOS:  cpu time    0.0010: real time    0.0001
    CHARGE:  cpu time    0.0080: real time    0.0081
    MIXING:  cpu time    0.0000: real time    0.0002
    --------------------------------------------
      LOOP:  cpu time    0.0760: real time    0.0782

 eigenvalue-minimisations  :   416
 total energy-change (2. order) :-0.1676435E-01  (-0.2170230E+00)
 number of electron       7.9999999 magnetization 
 augmentation part        0.0584871 magnetization 

 Broyden mixing:
  rms(total) = 0.19012E+00    rms(broyden)= 0.18947E+00
  rms(prec ) = 0.59277E+00
  weight for this iteration     100.00

 eigenvalues of (default mixing * dielectric matrix)
  average eigenvalue GAMMA=   1.6439
  2.7160  2.5521  1.2224  0.9083  0.8208

 Free energy of the ion-electron system (eV)
  ---------------------------------------------------
  alpha Z        PSCENC =        15.91937336
  Ewald energy   TEWEN  =      -355.39410472
  -Hartree energ DENC   =      -144.81508256
  -exchange      EXHF   =         0.00000000
  -V(xc)+E(xc)   XCENC  =       -20.45512392
  PAW double counting   =       930.49116189     -880.15564990
  entropy T*S    EENTRO =        -0.00000000
  eigenvalues    EBANDS =       -12.91351291
  atomic energy  EATOM  =       455.34716455
  Solvation  Ediel_sol  =         0.00000000
  ---------------------------------------------------
  free energy    TOTEN  =       -11.97577421 eV

  energy without entropy =      -11.97577421  energy(sigma->0) =      -11.97577421


--------------------------------------------------------------------------------------------------------




----------------------------------------- Iteration    1(  11)  ---------------------------------------


    POTLOK:  cpu time    0.0040: real time    0.0038
    SETDIJ:  cpu time    0.0030: real time    0.0027
     EDDAV:  cpu time    0.0500: real time    0.0502
       DOS:  cpu time    0.0000: real time    0.0001
    CHARGE:  cpu time    0.0080: real time    0.0081
    MIXING:  cpu time    0.0010: real time    0.0003
    --------------------------------------------
      LOOP:  cpu time    0.0660: real time    0.0686

 eigenvalue-minimisations  :   352
 total energy-change (2. order) : 0.5597256E-01  (-0.6866031E-01)
 number of electron       7.9999999 magnetization 
 augmentation part        0.0693610 magnetization 

 Broyden mixing:
  rms(total) = 0.42922E-01    rms(broyden)= 0.42820E-01
  rms(prec ) = 0.15523E+00
  weight for this iteration     100.00

 eigenvalues of (default mixing * dielectric matrix)
  average eigenvalue GAMMA=   1.5783
  2.8837  2.5369  1.3217  0.8296  0.9488  0.9488

 Free energy of the ion-electron system (eV)
  ---------------------------------------------------
  alpha Z        PSCENC =        15.91937336
  Ewald energy   TEWEN  =      -355.39410472
  -Hartree energ DENC   =      -140.23641950
  -exchange      EXHF   =         0.00000000
  -V(xc)+E(xc)   XCENC  =       -20.73071526
  PAW double counting   =       760.93896139     -710.52512382
  entropy T*S    EENTRO =        -0.00000000
  eigenvalues    EBANDS =       -17.23893765
  atomic energy  EATOM  =       455.34716455
  Solvation  Ediel_sol  =         0.00000000
  ---------------------------------------------------
  free energy    TOTEN  =       -11.91980165 eV

  energy without entropy =      -11.91980165  energy(sigma->0) =      -11.91980165


--------------------------------------------------------------------------------------------------------




----------------------------------------- Iteration    1(  12)  ---------------------------------------


    POTLOK:  cpu time    0.0040: real time    0.0038
    SETDIJ:  cpu time    0.0030: real time    0.0027
     EDDAV:  cpu time    0.0630: real time    0.0639
       DOS:  cpu time    0.0010: real time    0.0001
    CHARGE:  cpu time    0.0080: real time    0.0081
    MIXING:  cpu time    0.0000: real time    0.0003
    --------------------------------------------
      LOOP:  cpu time    0.0790: real time    0.0829

 eigenvalue-minimisations  :   432
 total energy-change (2. order) : 0.4168407E-02  (-0.3156791E-02)
 number of electron       7.9999999 magnetization 
 augmentation part        0.0672393 magnetization 

 Broyden mixing:
  rms(total) = 0.35646E-02    rms(broyden)= 0.35322E-02
  rms(prec ) = 0.12688E-01
  weight for this iteration     100.00

 eigenvalues of (default mixing * dielectric matrix)
  average eigenvalue GAMMA=   1.5113
  2.8682  2.5373  1.4092  1.0753  1.0753  0.8067  0.8067

 Free energy of the ion-electron system (eV)
  ---------------------------------------------------
  alpha Z        PSCENC =        15.91937336
  Ewald energy   TEWEN  =      -355.39410472
  -Hartree energ DENC   =      -141.24371984
  -exchange      EXHF   =         0.00000000
  -V(xc)+E(xc)   XCENC  =       -20.65457873
  PAW double counting   =       687.87571441     -637.47630961
  entropy T*S    EENTRO =        -0.00000000
  eigenvalues    EBANDS =       -16.28917267
  atomic energy  EATOM  =       455.34716455
  Solvation  Ediel_sol  =         0.00000000
  ---------------------------------------------------
  free energy    TOTEN  =       -11.91563325 eV

  energy without entropy =      -11.91563325  energy(sigma->0) =      -11.91563325


--------------------------------------------------------------------------------------------------------




----------------------------------------- Iteration    1(  13)  ---------------------------------------


    POTLOK:  cpu time    0.0040: real time    0.0038
    SETDIJ:  cpu time    0.0030: real time    0.0027
     EDDAV:  cpu time    0.0460: real time    0.0467
       DOS:  cpu time    0.0010: real time    0.0001
    CHARGE:  cpu time    0.0080: real time    0.0081
    MIXING:  cpu time    0.0000: real time    0.0003
    --------------------------------------------
      LOOP:  cpu time    0.0620: real time    0.0655

 eigenvalue-minimisations  :   336
 total energy-change (2. order) :-0.5164543E-04  (-0.1162866E-03)
 number of electron       7.9999999 magnetization 
 augmentation part        0.0667957 magnetization 

 Broyden mixing:
  rms(total) = 0.52280E-02    rms(broyden)= 0.52170E-02
  rms(prec ) = 0.14920E-01
  weight for this iteration     100.00

 eigenvalues of (default mixing * dielectric matrix)
  average eigenvalue GAMMA=   1.6684
  3.1743  2.6751  2.5284  1.2878  1.0153  0.8739  0.8961  0.8961

 Free energy of the ion-electron system (eV)
  ---------------------------------------------------
  alpha Z        PSCENC =        15.91937336
  Ewald energy   TEWEN  =      -355.39410472
  -Hartree energ DENC   =      -141.39992948
  -exchange      EXHF   =         0.00000000
  -V(xc)+E(xc)   XCENC  =       -20.64526839
  PAW double counting   =       704.97716961     -654.58103262
  entropy T*S    EENTRO =        -0.00000000
  eigenvalues    EBANDS =       -16.13905720
  atomic energy  EATOM  =       455.34716455
  Solvation  Ediel_sol  =         0.00000000
  ---------------------------------------------------
  free energy    TOTEN  =       -11.91568489 eV

  energy without entropy =      -11.91568489  energy(sigma->0) =      -11.91568489


--------------------------------------------------------------------------------------------------------




----------------------------------------- Iteration    1(  14)  ---------------------------------------


    POTLOK:  cpu time    0.0030: real time    0.0038
    SETDIJ:  cpu time    0.0030: real time    0.0027
     EDDAV:  cpu time    0.0580: real time    0.0586
       DOS:  cpu time    0.0010: real time    0.0001
    CHARGE:  cpu time    0.0080: real time    0.0079
    MIXING:  cpu time    0.0000: real time    0.0003
    --------------------------------------------
      LOOP:  cpu time    0.0740: real time    0.0771

 eigenvalue-minimisations  :   400
 total energy-change (2. order) : 0.3781260E-04  (-0.3544048E-04)
 number of electron       7.9999999 magnetization 
 augmentation part        0.0670634 magnetization 

 Broyden mixing:
  rms(total) = 0.91606E-03    rms(broyden)= 0.91263E-03
  rms(prec ) = 0.24200E-02
  weight for this iteration     100.00

 eigenvalues of (default mixing * dielectric matrix)
  average eigenvalue GAMMA=   1.5860
  2.9647  2.6930  2.5206  1.2311  1.2311  0.8873  0.8873  0.8935  0.9653

 Free energy of the ion-electron system (eV)
  ---------------------------------------------------
  alpha Z        PSCENC =        15.91937336
  Ewald energy   TEWEN  =      -355.39410472
  -Hartree energ DENC   =      -141.31648584
  -exchange      EXHF   =         0.00000000
  -V(xc)+E(xc)   XCENC  =       -20.65051762
  PAW double counting   =       721.02775151     -670.62924189
  entropy T*S    EENTRO =        -0.00000000
  eigenvalues    EBANDS =       -16.21958643
  atomic energy  EATOM  =       455.34716455
  Solvation  Ediel_sol  =         0.00000000
  ---------------------------------------------------
  free energy    TOTEN  =       -11.91564708 eV

  energy without entropy =      -11.91564708  energy(sigma->0) =      -11.91564708


--------------------------------------------------------------------------------------------------------




----------------------------------------- Iteration    1(  15)  ---------------------------------------


    POTLOK:  cpu time    0.0040: real time    0.0037
    SETDIJ:  cpu time    0.0030: real time    0.0027
     EDDAV:  cpu time    0.0460: real time    0.0466
       DOS:  cpu time    0.0010: real time    0.0001
    CHARGE:  cpu time    0.0070: real time    0.0079
    MIXING:  cpu time    0.0010: real time    0.0004
    --------------------------------------------
      LOOP:  cpu time    0.0620: real time    0.0651

 eigenvalue-minimisations  :   336
 total energy-change (2. order) : 0.5504468E-06  (-0.1429722E-05)
 number of electron       7.9999999 magnetization 
 augmentation part        0.0670165 magnetization 

 Broyden mixing:
  rms(total) = 0.27642E-03    rms(broyden)= 0.27628E-03
  rms(prec ) = 0.10316E-02
  weight for this iteration     100.00

 eigenvalues of (default mixing * dielectric matrix)
  average eigenvalue GAMMA=   1.7157
  3.3815  2.8289  2.5175  2.5175  1.2837  1.0122  0.8961  0.8961  0.8657  0.9575

 Free energy of the ion-electron system (eV)
  ---------------------------------------------------
  alpha Z        PSCENC =        15.91937336
  Ewald energy   TEWEN  =      -355.39410472
  -Hartree energ DENC   =      -141.33432116
  -exchange      EXHF   =         0.00000000
  -V(xc)+E(xc)   XCENC  =       -20.64956674
  PAW double counting   =       719.21906923     -668.82100966
  entropy T*S    EENTRO =        -0.00000000
  eigenvalues    EBANDS =       -16.20225139
  atomic energy  EATOM  =       455.34716455
  Solvation  Ediel_sol  =         0.00000000
  ---------------------------------------------------
  free energy    TOTEN  =       -11.91564653 eV

  energy without entropy =      -11.91564653  energy(sigma->0) =      -11.91564653


--------------------------------------------------------------------------------------------------------




----------------------------------------- Iteration    1(  16)  ---------------------------------------


    POTLOK:  cpu time    0.0040: real time    0.0037
    SETDIJ:  cpu time    0.0030: real time    0.0027
     EDDAV:  cpu time    0.0250: real time    0.0259
       DOS:  cpu time    0.0010: real time    0.0001
    --------------------------------------------
      LOOP:  cpu time    0.0330: real time    0.0359

 eigenvalue-minimisations  :   160
 total energy-change (2. order) :-0.1963554E-07  (-0.4078940E-07)
 number of electron       7.9999999 magnetization 
 augmentation part        0.0670165 magnetization 

 Free energy of the ion-electron system (eV)
  ---------------------------------------------------
  alpha Z        PSCENC =        15.91937336
  Ewald energy   TEWEN  =      -355.39410472
  -Hartree energ DENC   =      -141.33050574
  -exchange      EXHF   =         0.00000000
  -V(xc)+E(xc)   XCENC  =       -20.64991463
  PAW double counting   =       716.99347012     -666.59539143
  entropy T*S    EENTRO =        -0.00000000
  eigenvalues    EBANDS =       -16.20573806
  atomic energy  EATOM  =       455.34716455
  Solvation  Ediel_sol  =         0.00000000
  ---------------------------------------------------
  free energy    TOTEN  =       -11.91564655 eV

  energy without entropy =      -11.91564655  energy(sigma->0) =      -11.91564655


--------------------------------------------------------------------------------------------------------




 average (electrostatic) potential at core
  the test charge radii are     0.5955  1.0714
  (the norm of the test charge is              1.0000)
       1-108.4937       2 -34.8721
 
 
 
 E-fermi :   3.6320     XC(G=0): -10.9722     alpha+bet :-13.2242


 k-point     1 :       0.1250    0.1250    0.1250
  band No.  band energies     occupation 
      1     -13.5797      2.00000
      2       2.4693      2.00000
      3       3.3157      2.00000
      4       3.3157      2.00000
      5       8.8312      0.00000
      6      17.4135      0.00000
      7      19.4292      0.00000
      8      19.4292      0.00000
      9      23.6789      0.00000
     10      23.6789      0.00000
     11      25.0200      0.00000
     12      27.4561      0.00000
     13      28.8867      0.00000
     14      28.8867      0.00000
     15      39.1543      0.00000
     16      41.0578      0.00000

 k-point     2 :       0.3750    0.1250    0.1250
  band No.  band energies     occupation 
      1     -12.9212      2.00000
      2       0.2964      2.00000
      3       2.4538      2.00000
      4       3.0180      2.00000
      5      11.2490      0.00000
      6      15.3526      0.00000
      7      18.7633      0.00000
      8      20.4306      0.00000
      9      22.2514      0.00000
     10      24.4826      0.00000
     11      26.6015      0.00000
     12      31.2620      0.00000
     13      32.5369      0.00000
     14      33.4113      0.00000
     15      35.7809      0.00000
     16      39.0760      0.00000

 k-point     3 :      -0.3750    0.1250    0.1250
  band No.  band energies     occupation 
      1     -12.4806      2.00000
      2      -0.8371      2.00000
      3       2.3041      2.00000
      4       2.6791      2.00000
      5      11.8369      0.00000
      6      15.5650      0.00000
      7      18.0526      0.00000
      8      19.8688      0.00000
      9      23.8592      0.00000
     10      26.1099      0.00000
     11      26.2052      0.00000
     12      32.4867      0.00000
     13      33.0861      0.00000
     14      33.4295      0.00000
     15      36.0117      0.00000
     16      37.7219      0.00000

 k-point     4 :      -0.1250    0.1250    0.1250
  band No.  band energies     occupation 
      1     -13.2131      2.00000
      2       1.1847      2.00000
      3       2.9454      2.00000
      4       2.9490      2.00000
      5      10.4206      0.00000
      6      15.5929      0.00000
      7      19.5572      0.00000
      8      20.0380      0.00000
      9      21.2132      0.00000
     10      25.0584      0.00000
     11      27.0592      0.00000
     12      30.1566      0.00000
     13      30.4422      0.00000
     14      31.1946      0.00000
     15      37.4168      0.00000
     16      39.1811      0.00000

 k-point     5 :       0.3750    0.3750    0.1250
  band No.  band energies     occupation 
      1     -12.6835      2.00000
      2       0.1104      2.00000
      3       2.2541      2.00000
      4       2.4867      2.00000
      5      12.3531      0.00000
      6      13.9967      0.00000
      7      17.3076      0.00000
      8      20.9374      0.00000
      9      21.3946      0.00000
     10      27.2392      0.00000
     11      30.3459      0.00000
     12      30.6137      0.00000
     13      32.5282      0.00000
     14      35.0211      0.00000
     15      36.6727      0.00000
     16      38.0892      0.00000

 k-point     6 :      -0.3750    0.3750    0.1250
  band No.  band energies     occupation 
      1     -12.2677      2.00000
      2      -0.0084      2.00000
      3       0.9933      2.00000
      4       2.0764      2.00000
      5      13.8687      0.00000
      6      14.9076      0.00000
      7      15.6998      0.00000
      8      19.7109      0.00000
      9      23.1578      0.00000
     10      26.6106      0.00000
     11      30.1721      0.00000
     12      31.5973      0.00000
     13      32.8652      0.00000
     14      36.5386      0.00000
     15      39.1096      0.00000
     16      41.3294      0.00000

 k-point     7 :      -0.1250    0.3750    0.1250
  band No.  band energies     occupation 
      1     -12.5264      2.00000
      2      -0.2110      2.00000
      3       1.7355      2.00000
      4       2.5772      2.00000
      5      12.7113      0.00000
      6      14.9078      0.00000
      7      17.0795      0.00000
      8      20.2751      0.00000
      9      22.8444      0.00000
     10      25.5186      0.00000
     11      29.0541      0.00000
     12      31.8456      0.00000
     13      32.4272      0.00000
     14      35.0914      0.00000
     15      35.7356      0.00000
     16      41.2366      0.00000

 k-point     8 :      -0.3750   -0.3750    0.1250
  band No.  band energies     occupation 
      1     -12.3044      2.00000
      2      -0.3728      2.00000
      3       1.7353      2.00000
      4       2.1918      2.00000
      5      12.9426      0.00000
      6      13.6240      0.00000
      7      16.1515      0.00000
      8      21.6483      0.00000
      9      21.6598      0.00000
     10      29.1238      0.00000
     11      29.5585      0.00000
     12      32.1421      0.00000
     13      32.8576      0.00000
     14      38.0054      0.00000
     15      38.3867      0.00000
     16      41.3173      0.00000

 k-point     9 :       0.3750    0.3750    0.3750
  band No.  band energies     occupation 
      1     -12.7197      2.00000
      2      -0.5667      2.00000
      3       2.8734      2.00000
      4       2.8734      2.00000
      5      11.0464      0.00000
      6      15.5703      0.00000
      7      19.6641      0.00000
      8      19.6641      0.00000
      9      24.2546      0.00000
     10      24.5941      0.00000
     11      24.5941      0.00000
     12      32.1079      0.00000
     13      33.4291      0.00000
     14      33.4291      0.00000
     15      37.0417      0.00000
     16      37.0417      0.00000

 k-point    10 :      -0.3750    0.3750    0.3750
  band No.  band energies     occupation 
      1     -12.3520      2.00000
      2      -0.2504      2.00000
      3       1.0985      2.00000
      4       2.5459      2.00000
      5      13.1905      0.00000
      6      15.3667      0.00000
      7      16.2710      0.00000
      8      20.5868      0.00000
      9      22.6689      0.00000
     10      25.6950      0.00000
     11      29.2743      0.00000
     12      31.8158      0.00000
     13      32.2391      0.00000
     14      35.5775      0.00000
     15      37.4610      0.00000
     16      40.3354      0.00000


--------------------------------------------------------------------------------------------------------


 soft charge-density along one line, spin component           1
         0         1         2         3         4         5         6         7         8         9
 total charge-density along one line
 
 pseudopotential strength for first ion, spin component:           1
 25.182  -0.005  -0.000  -0.000  -0.000   0.000   0.000   0.000
 -0.005   0.001  -0.000  -0.000  -0.000  -0.000  -0.000  -0.000
 -0.000  -0.000  -8.633   0.000   0.000   0.013   0.000   0.000
 -0.000  -0.000   0.000  -8.633   0.000   0.000   0.013   0.000
 -0.000  -0.000   0.000   0.000  -8.633   0.000   0.000   0.013
  0.000  -0.000   0.013   0.000   0.000   0.018   0.000   0.000
  0.000  -0.000   0.000   0.013   0.000   0.000   0.018   0.000
  0.000  -0.000   0.000   0.000   0.013   0.000   0.000   0.018
 total augmentation occupancy for first ion, spin component:           1
  1.788   2.157   0.000   0.000   0.000   0.000   0.000   0.000
  2.157   4.143   0.000   0.000   0.000   0.000   0.000   0.000
  0.000   0.000   1.497   0.000   0.000  -1.194  -0.000  -0.000
  0.000   0.000   0.000   1.497   0.000  -0.000  -1.194  -0.000
  0.000   0.000   0.000   0.000   1.497  -0.000  -0.000  -1.194
  0.000   0.000  -1.194  -0.000  -0.000   1.014   0.000   0.000
  0.000   0.000  -0.000  -1.194  -0.000   0.000   1.014   0.000
  0.000   0.000  -0.000  -0.000  -1.194   0.000   0.000   1.014


------------------------ aborting loop because EDIFF is reached ----------------------------------------


    CHARGE:  cpu time    0.0080: real time    0.0080
    FORLOC:  cpu time    0.0010: real time    0.0002
    FORNL :  cpu time    0.0060: real time    0.0062
    STRESS:  cpu time    0.0460: real time    0.0461
    FORCOR:  cpu time    0.0040: real time    0.0033
    FORHAR:  cpu time    0.0000: real time    0.0008
    MIXING:  cpu time    0.0010: real time    0.0005
    OFIELD:  cpu time    0.0000: real time    0.0001

  FORCE on cell =-STRESS in cart. coord.  units (eV):
  Direction    XX          YY          ZZ          XY          YZ          ZX
  --------------------------------------------------------------------------------------
  Alpha Z    15.91937    15.91937    15.91937
  Ewald    -118.46471  -118.46474  -118.46473     0.00000    -0.00002     0.00000
  Hartree    47.10659    47.10660    47.10659     0.00000     0.00001     0.00000
  E(xc)     -36.97786   -36.97786   -36.97786     0.00000     0.00000     0.00000
  Local     -89.05144   -89.05147   -89.05144    -0.00002    -0.00001    -0.00001
  n-local    -9.40660    -9.62460   -10.77327     0.23160     0.48377    -1.17216
  augment     0.79729     0.79730     0.79730    -0.00000    -0.00000    -0.00000
  Kinetic   186.15742   189.18474   195.03874     0.68189    -1.77013     4.01285
  Fock        0.00000     0.00000     0.00000     0.00000     0.00000     0.00000
  -------------------------------------------------------------------------------------
  Total      -0.47864    -0.47864    -0.47864    -0.00000    -0.00000    -0.00000
  in kB     -40.09436   -40.09437   -40.09436    -0.00001    -0.00001    -0.00001
  external pressure =      -40.09 kB  Pullay stress =        0.00 kB


 VOLUME and BASIS-vectors are now :
 -----------------------------------------------------------------------------
  energy-cutoff  :      775.00
  volume of cell :       19.13
      direct lattice vectors                 reciprocal lattice vectors
     3.001819000  0.000000000  0.000000000     0.333131345 -0.192333499 -0.136000318
     1.500910000  2.599652000  0.000000000     0.000000000  0.384666871 -0.136000352
     1.500910000  0.866551000  2.450975000     0.000000000  0.000000000  0.408000898

  length of vectors
     3.001819000  3.001819673  3.001819434     0.408000925  0.408000854  0.408000898


 FORCES acting on ions
    electron-ion (+dipol)            ewald-force                    non-local-force                 convergence-correction
 -----------------------------------------------------------------------------------------------
   0.752E-12 0.785E-12 0.377E-12   -.125E-14 0.936E-15 0.445E-15   -.102E-24 -.430E-24 -.259E-24   0.459E-15 0.789E-14 -.500E-14
   -.246E-14 -.934E-15 -.122E-14   0.194E-15 -.884E-15 -.477E-15   0.181E-24 0.608E-26 0.686E-25   -.373E-16 -.251E-16 0.533E-16
 -----------------------------------------------------------------------------------------------
   0.749E-12 0.784E-12 0.376E-12   -.105E-14 0.525E-16 -.315E-16   0.789E-25 -.424E-24 -.190E-24   0.422E-15 0.786E-14 -.494E-14
 
 
 POSITION                                       TOTAL-FORCE (eV/Angst)
 -----------------------------------------------------------------------------------
      3.00182      1.73310      1.22549         0.000000      0.000000     -0.000000
      0.00000      0.00000      0.00000        -0.000000     -0.000000      0.000000
 -----------------------------------------------------------------------------------
    total drift:                                0.000000      0.000000      0.000000


--------------------------------------------------------------------------------------------------------



  FREE ENERGIE OF THE ION-ELECTRON SYSTEM (eV)
  ---------------------------------------------------
  free  energy   TOTEN  =       -11.91564655 eV

  energy  without entropy=      -11.91564655  energy(sigma->0) =      -11.91564655
 


--------------------------------------------------------------------------------------------------------


    POTLOK:  cpu time    0.0060: real time    0.0064


--------------------------------------------------------------------------------------------------------


     LOOP+:  cpu time    1.1458: real time    1.2045
    4ORBIT:  cpu time    0.0010: real time    0.0000

 total amount of memory used by VASP on root node    33637. kBytes
========================================================================

   base      :      30000. kBytes
   nonl-proj :       2027. kBytes
   fftplans  :        267. kBytes
   grid      :       1169. kBytes
   one-center:         16. kBytes
   wavefun   :        158. kBytes
 
  
  
 General timing and accounting informations for this job:
 ========================================================
  
                  Total CPU time used (sec):        2.080
                            User time (sec):        1.685
                          System time (sec):        0.395
                         Elapsed time (sec):        2.444
  
                   Maximum memory used (kb):       40060.
                   Average memory used (kb):           0.
  
                          Minor page faults:        34980
                          Major page faults:            5
                 Voluntary context switches:          742
