LAMMPS (10 Feb 2015)
Reading data file ...
  triclinic box = (0 0 0) to (4.2565 4.2565 4.2565) with tilt (0 0 0)
  1 by 1 by 1 MPI processor grid
  reading atoms ...
  8 atoms
4 atoms in group Mg
4 atoms in group O
Setting atom values ...
  4 settings made for charge
Setting atom values ...
  4 settings made for charge
PPPM initialization ...
  G vector (1/distance) = 0.353152
  grid = 8 8 8
  stencil order = 5
  estimated absolute RMS force accuracy = 4.10333e-05
  estimated relative force accuracy = 2.84961e-06
  using double precision FFTs
  3d grid and FFT values/proc = 3375 512
Neighbor list info ...
  1 neighbor list requests
  update every 1 steps, delay 0 steps, check yes
  master list distance cutoff = 11
Setting up minimization ...
Memory usage per processor = 4.06549 Mbytes
Step PotEng Lx Ly Lz Xy Xz Yz Press Pxx Pyy Pzz Pxy Pxz Pyz eatoms 
       0   -119.82944       4.2565       4.2565       4.2565            0            0            0   -43102.631   -43102.631   -43102.631   -43102.631 -1.1410716e-10 2.0651384e-11 1.0044018e-10   -119.82944 
       9    -119.8549     4.222448     4.222448     4.222448            0            0            0   -490.28356   -490.28356   -490.28356   -490.28356 -3.7927136e-11 -7.2182599e-11 3.2130495e-11    -119.8549 
Loop time of 0.204274 on 1 procs for 9 steps with 8 atoms

Minimization stats:
  Stopping criterion = linesearch alpha is zero
  Energy initial, next-to-last, final = 
        -119.829437963     -119.854898204     -119.854898204
  Force two-norm initial, final = 6.22404 0.0696885
  Force max component initial, final = 6.22404 0.069669
  Final line search alpha, max atom move = 1.75215e-06 1.2207e-07
  Iterations, force evaluations = 9 35

Pair  time (%) = 0.0490198 (23.9971)
Kspce time (%) = 0.00633001 (3.09879)
Neigh time (%) = 0 (0)
Comm  time (%) = 0.000784397 (0.383993)
Outpt time (%) = 0 (0)
Other time (%) = 0.14814 (72.5201)

Nlocal:    8 ave 8 max 8 min
Histogram: 1 0 0 0 0 0 0 0 0 0
Nghost:    2189 ave 2189 max 2189 min
Histogram: 1 0 0 0 0 0 0 0 0 0
Neighs:    2344 ave 2344 max 2344 min
Histogram: 1 0 0 0 0 0 0 0 0 0

Total # of neighbors = 2344
Ave neighs/atom = 293
Neighbor list builds = 0
Dangerous builds = 0
pypospack:output_section:begin
tot_energy = -119.854898204259
num_atoms = 8
xx = 4.222448
yy = 4.222448
zz = 4.222448
xy = 0
xz = 0
yz = 0
tot_press = -490.283556338482
pxx = -490.283556338668
pyy = -490.283556338614
pzz = -490.283556338163
pxy = -3.79271362347293e-11
pxz = -7.2182599384956e-11
pyz = 3.21304951944417e-11
pypospack:output_section:done
pypospack:lammps_sim:done
PPPM initialization ...
  G vector (1/distance) = 0.353501
  grid = 8 8 8
  stencil order = 5
  estimated absolute RMS force accuracy = 4.03791e-05
  estimated relative force accuracy = 2.80417e-06
  using double precision FFTs
  3d grid and FFT values/proc = 3375 512
Setting up run ...
Memory usage per processor = 3.06549 Mbytes
Step Temp PotEng KinEng TotEng Press Lx Ly Lz Press Pxx Pyy Pzz Pxy Pxz Pyz Volume 
       0         1700    -119.8549    1.5381957    -118.3167    21334.312     4.222448     4.222448     4.222448    21334.312    31522.634    12993.571    19486.731    6593.6688    13289.429   -6057.1451    75.282309 
     100    613.46287    -118.6737    0.5550741   -118.11863     40196.31    4.2540552    4.2540552    4.2540552     40196.31    66864.762     5236.003    48488.166   -3463.2716    11384.498   -6038.5994    76.985575 
     200    815.30932   -118.44161   0.73770901    -117.7039   -43188.692    4.3024414    4.3024414    4.3024414   -43188.692   -76064.855   -46914.311   -6586.9106    8864.0535    750.06077   -7686.3517    79.642502 
     300    1310.0413   -118.51565    1.1853529   -117.33029   -36867.408    4.3027126    4.3027126    4.3027126   -36867.408   -51026.284   -38007.643   -21568.296    4787.9479    1914.8217    2081.7195    79.657564 
     400    2231.2645   -119.03405     2.018895   -117.01515     5582.664    4.2796986    4.2796986    4.2796986     5582.664    3997.9936   -12060.456    24810.454   -6086.8928   -7267.0873    1695.7446    78.386191 
     500    1960.0315   -118.62842    1.7734777   -116.85494    -8997.947    4.2794544    4.2794544    4.2794544    -8997.947   -16759.263   -3422.0901   -6812.4884    26490.041   -3474.7572    1469.2696    78.372774 
     600    1145.8922   -117.81266    1.0368274   -116.77584    8753.8028    4.2945119    4.2945119    4.2945119    8753.8028   -17868.643    45643.519   -1513.4675    845.67505    1807.2863   -13691.666    79.202961 
     700    1413.4306   -118.00517    1.2789017   -116.72627   -13489.065    4.3123132    4.3123132    4.3123132   -13489.065     16109.61   -33420.917   -23155.889    23470.474   -13630.386   -8447.2023    80.191972 
     800    1555.4243   -118.12516    1.4073806   -116.71778    10515.825    4.3045237    4.3045237    4.3045237    10515.825   -34228.493    30463.075    35312.895   -5394.1256   -9264.6869   -9080.4214    79.758195 
     900    2336.5075   -118.83433    2.1141211   -116.72021    9255.6714    4.2784457    4.2784457    4.2784457    9255.6714    11264.545     40449.13   -23946.661   -4884.6275   -14292.295    22211.496    78.317367 
    1000    1779.9517   -118.38405    1.6105377   -116.77351    32155.566    4.2804887    4.2804887    4.2804887    32155.566    22981.454    42383.277    31101.965    5923.7542   -1864.4401    30667.939    78.429611 
    1100    1418.7694   -118.08687    1.2837324   -116.80314   -2893.8579    4.3102707    4.3102707    4.3102707   -2893.8579   -50608.898    62786.654    -20859.33   -10323.683   -18267.583   -10420.175     80.07808 
    1200    1895.1359   -118.46837    1.7147588   -116.75361   -28263.471    4.3078331    4.3078331    4.3078331   -28263.471    -50103.89    5345.1142   -40031.638    8260.4084   -7928.3267   -6331.3781    79.942296 
    1300    2030.9437   -118.55087    1.8376405   -116.71323    20345.592    4.2777402    4.2777402    4.2777402    20345.592    41716.486    53234.386   -33914.097   -4790.5902     20697.95   -3069.6863    78.278632 
    1400    966.08435   -117.64491   0.87413342   -116.77078    5472.9095    4.2837703    4.2837703    4.2837703    5472.9095    13437.813    13754.712   -10773.796   -8437.6392   -16455.762   -4950.2761    78.610131 
    1500    1933.9052   -118.52081    1.7498381   -116.77097   -17383.992    4.3067746    4.3067746    4.3067746   -17383.992   -55484.971    14891.901   -11558.905    5027.6889    8787.8506   -7052.7312    79.883381 
    1600    2389.2598   -118.90636    2.1618525   -116.74451   -10021.132    4.3089552    4.3089552    4.3089552   -10021.132   -29256.726   -5268.6944    4462.0249   -4155.0563    7947.7215   -13844.568     80.00478 
    1700    1915.4036   -118.47205    1.7330974   -116.73895    14032.457    4.3046353    4.3046353    4.3046353    14032.457   -18459.162    54422.786    6133.7472   -10199.304    7801.9106    6208.7613    79.764396 
    1800    1463.7222   -118.06732    1.3244066   -116.74292   -13346.088    4.3093476    4.3093476    4.3093476   -13346.088   -52741.384    10465.407    2237.7113   -11667.102    31613.991    20673.471    80.026638 
    1900    1303.6597    -117.9023    1.1795787   -116.72272   -34830.696    4.3090157    4.3090157    4.3090157   -34830.696   -14865.157   -35813.046   -53813.884   -11116.177    9554.1752     6382.576    80.008152 
    2000      1838.11   -118.37402    1.6631605   -116.71086   -269.47872    4.3007606    4.3007606    4.3007606   -269.47872    8658.0047   -41202.032    31735.591    -8765.856   -9605.8379    5598.5536    79.549196 
    2100    1856.6546   -118.41475    1.6799401   -116.73481    3628.9997    4.3067417    4.3067417    4.3067417    3628.9997   -24582.158    10027.232    25441.925    9648.4459   -23330.411   -10087.475    79.881551 
    2200    1864.7022   -118.41115    1.6872217   -116.72393    -27561.24    4.3121894    4.3121894    4.3121894    -27561.24    3752.5607   -34124.686   -52311.596    9468.1186   -2828.6646    -4283.762    80.185064 
    2300     972.0214   -117.59874   0.87950539   -116.71923    58368.622    4.2954437    4.2954437    4.2954437    58368.622    43071.832    103683.76    28350.278   -12446.285   -16258.826    4464.9488    79.254528 
    2400    1924.5355   -118.48381    1.7413602   -116.74245    86.984409    4.2932705    4.2932705    4.2932705    86.984409    2552.3162   -10165.534    7874.1708   -14818.298   -12298.616   -1148.8387    79.134299 
    2500    1637.8027   -118.24012    1.4819183    -116.7582    18099.996    4.3029928    4.3029928    4.3029928    18099.996    11461.839     26251.25      16586.9   -19875.865   -6380.4166   -3376.3171    79.673127 
    2600    1828.8277   -118.39672    1.6547618   -116.74196   -32672.357    4.2990349    4.2990349    4.2990349   -32672.357   -61249.663   -2223.1369   -34544.271    18159.867   -4322.0132    10726.755    79.453479 
    2700    1644.1014   -118.24187    1.4876175   -116.75425   -22073.445    4.2930001    4.2930001    4.2930001   -22073.445   -20683.567   -5210.5218   -40326.246    4753.4757   -1862.6895   -13036.256    79.119347 
    2800    1220.7259    -117.8811    1.1045385   -116.77657    38034.431    4.3019037    4.3019037    4.3019037    38034.431    15732.414    112115.91   -13745.032    2627.2582   -7349.6028     6986.722    79.612646 
    2900    2242.2732   -118.76481    2.0288559   -116.73595   -37760.874    4.3116774    4.3116774    4.3116774   -37760.874   -24878.029   -39073.055   -49331.537   -18704.846    765.04224   -12646.813    80.156506 
    3000    1518.0736   -118.08277    1.3735849   -116.70918    12139.651    4.2976622    4.2976622    4.2976622    12139.651    6748.9436    56504.249   -26834.241   -2983.3457    4934.4531    14525.591    79.377393 
    3100    1044.7879   -117.66472   0.94534609   -116.71938    36367.496    4.2890428    4.2890428    4.2890428    36367.496    60412.239    23510.917    25179.332     2602.413   -15985.794    7823.4418    78.900751 
    3200    1343.1705   -117.95951    1.2153289   -116.74418   -16761.349    4.3016993    4.3016993    4.3016993   -16761.349     45321.36   -45355.998   -50249.408    11126.025    1240.3318   -1184.1364      79.6013 
    3300     1949.959   -118.54224    1.7643639   -116.77788   -10380.287    4.3163209    4.3163209    4.3163209   -10380.287   -12014.671    33908.197   -53034.389   -229.62176    2160.4182   -1792.8282    80.415759 
    3400    2098.2742   -118.65488    1.8985626   -116.75632   -43263.679    4.3097351    4.3097351    4.3097351   -43263.679   -37207.494   -35429.915   -57153.627    8817.2633    22761.488   -3543.1388    80.048227 
    3500    1284.9195    -117.9002    1.1626222   -116.73758    85522.216    4.2736736    4.2736736    4.2736736    85522.216    154213.86    90282.878    12069.914   -7001.5034   -2541.1853    3603.3852    78.055598 
    3600    1715.9079   -118.33023    1.5525896   -116.77764   -16330.427    4.2843891    4.2843891    4.2843891   -16330.427   -42667.038   -5318.2588   -1005.9835     504.4543   -1620.1942   -16549.007    78.644202 
    3700    1636.5941   -118.28062    1.4808247    -116.7998   -46042.067    4.3262763    4.3262763    4.3262763   -46042.067   -57476.054   -662.22744   -79987.918   -3967.5133    17826.612    632.85613    80.973472 
    3800    2198.8487   -118.74386    1.9895645    -116.7543   -42620.039    4.3262285    4.3262285    4.3262285   -42620.039   -9153.1251    -74017.41   -44689.581    7722.2221    21342.382   -1864.9197    80.970787 
    3900    1846.1739   -118.38374    1.6704569   -116.71329    22904.539    4.2854625    4.2854625    4.2854625    22904.539    91433.226    16857.894   -39577.503    25435.608   -6217.3334   -13900.733     78.70333 
    4000    1624.0931   -118.21264    1.4695136   -116.74313   -3890.7535    4.2843754    4.2843754    4.2843754   -3890.7535   -8038.7081    3908.4496    -7542.002    2875.2368   -4744.3996    8614.1609    78.643447 
    4100    1883.7053   -118.49848    1.7044161   -116.79406   -45952.374    4.3284527    4.3284527    4.3284527   -45952.374   -58040.485   -46512.355   -33304.282    2224.3606   -5962.0226   -9138.8229    81.095737 
    4200     2007.473   -118.54413    1.8164037   -116.72773   -28350.172    4.3340551    4.3340551    4.3340551   -28350.172    24000.962   -42148.759   -66902.717     3685.698    24977.227   -3201.1424    81.411036 
    4300    2095.0784   -118.57666    1.8956709   -116.68099   -13005.677     4.305113     4.305113     4.305113   -13005.677    37260.981   -54417.493   -21860.521    11520.179   -2718.9647   -1289.5736    79.790954 
    4400    1296.8933   -117.88468    1.1734563   -116.71122    32970.724    4.2949047    4.2949047    4.2949047    32970.724    75567.995    7260.6201    16083.558    7852.7937    16992.596   -26024.658    79.224701 
    4500    1441.3538   -118.06832    1.3041672   -116.76416   -7295.6032     4.311649     4.311649     4.311649   -7295.6032   -16441.309   -26085.592    20640.091   -7704.8601   -7666.6032    -7790.978    80.154919 
    4600    2406.8234   -118.92508    2.1777444   -116.74734    -48825.29    4.3238969    4.3238969    4.3238969    -48825.29    -5388.356   -63398.864   -77688.649     2054.501   -24591.779   -12772.247    80.839941 
    4700    1614.5553    -118.1894    1.4608835   -116.72852    3306.8404    4.3048549    4.3048549    4.3048549    3306.8404    56898.903   -12338.251   -34640.131   -13524.847   -3727.5133   -25983.794    79.776608 
    4800    1667.0236   -118.21678     1.508358   -116.70842    50539.398    4.2614845    4.2614845    4.2614845    50539.398    121307.15    42187.398   -11876.348     9683.526   -27115.295   -9369.5076    77.389626 
    4900    1998.7673   -118.57938    1.8085266   -116.77085    6586.9242    4.2778893    4.2778893    4.2778893    6586.9242    10442.152    28355.371    -19036.75   -21633.409    10023.127   -10658.874    78.286815 
    5000    1701.7583   -118.32153    1.5397867   -116.78174   -77828.929    4.3345628    4.3345628    4.3345628   -77828.929   -91396.278   -34964.665   -107125.84   -13965.073   -26187.873   -3923.0646    81.439648 
    5100    2032.9382   -118.55416    1.8394452   -116.71471   -41184.869    4.3200917    4.3200917    4.3200917   -41184.869   -41455.659   -24357.516   -57741.431    11493.074   -7665.1091    4418.4669    80.626702 
    5200    1573.1467   -118.09735    1.4234162   -116.67394    32487.173    4.2787732    4.2787732    4.2787732    32487.173    120498.41    4070.2981   -27107.185    574.52798    7877.8823   -107.24944     78.33535 
    5300    1710.3558   -118.27744    1.5475659   -116.72987    21994.407    4.2866571    4.2866571    4.2866571    21994.407    75842.405     19402.83   -29262.015   -27804.767    2061.0299    16548.454    78.769163 
    5400    1805.3599   -118.41286    1.6335276   -116.77933   -24116.647    4.3235292    4.3235292    4.3235292   -24116.647    20148.527   -31091.106   -61407.361   -11945.597   -2320.9971   -7796.1763    80.819319 
    5500    1807.0399   -118.37087    1.6350477   -116.73582   -57002.638    4.3325686    4.3325686    4.3325686   -57002.638   -19196.049   -52124.525    -99687.34   -28897.254   -6715.6479   -2449.0055    81.327295 
    5600    2193.1135   -118.68456    1.9843752   -116.70019    5331.4408    4.2773994    4.2773994    4.2773994    5331.4408    19316.208    10802.442   -14124.327   -1670.1689    25584.977    26626.642    78.259924 
    5700    1133.7302    -117.7321    1.0258229   -116.70628    64555.618    4.2597236    4.2597236    4.2597236    64555.618    75869.818    62117.779    55679.256    -5527.475   -13196.767   -5795.3075     77.29373 
    5800     1493.728   -118.13759    1.3515565   -116.78603   -31642.716    4.3207626    4.3207626    4.3207626   -31642.716   -56236.628    14023.256   -52714.777   -9608.6973   -9702.5033    4418.2944    80.664274 
    5900    1918.4635   -118.43505    1.7358661   -116.69918   -54380.923    4.3396295    4.3396295    4.3396295   -54380.923   -78395.663    29979.595    -114726.7   -1203.2214     5527.912   -3773.7628     81.72557 
    6000    1735.6795   -118.23608    1.5704793    -116.6656    30657.995     4.296989     4.296989     4.296989    30657.995    9502.8004    61998.188    20472.995   -11029.455    7563.2366    290.08494    79.340094 
    6100    1857.6346    -118.3737    1.6808269   -116.69287    7132.9706    4.2789843    4.2789843    4.2789843    7132.9706    22258.236   -20957.871    20098.546   -9486.2073    -22972.99    40828.194    78.346948 
    6200    1202.4378   -117.82973     1.087991   -116.74174    16002.317    4.2956528    4.2956528    4.2956528    16002.317    55321.631    2198.5479   -9513.2278    -25368.23   -7583.9445    23857.476    79.266107 
    6300    1916.2145   -118.47541    1.7338312   -116.74158   -55580.427    4.3237894    4.3237894    4.3237894   -55580.427   -15045.171   -75682.563   -76013.547    6656.7433    11927.807   -10094.269    80.833914 
    6400    1603.3451    -118.1708    1.4507403   -116.72006   -41094.917    4.3226165    4.3226165    4.3226165   -41094.917    -17998.59   -43012.021   -62274.141    15200.351   -4829.7236    23517.243    80.768149 
    6500    1652.6602   -118.18308    1.4953617   -116.68772    22337.711    4.2884823    4.2884823    4.2884823    22337.711    50871.973   -2471.9423    18613.101   -16936.698   -9044.0593    20687.416    78.869825 
    6600    2211.4331   -118.70529    2.0009512   -116.70434    2223.7978    4.2862936    4.2862936    4.2862936    2223.7978   -5505.5331   -15518.476    27695.402    -1848.073    7477.2107   -21954.939    78.749128 
    6700    1168.3105   -117.79684    1.0571119   -116.73973   -49200.827    4.3346003    4.3346003    4.3346003   -49200.827    8939.4584   -91679.482   -64862.456   -27513.249    5557.2008    11569.429    81.441764 
    6800    1154.6605   -117.74398    1.0447611   -116.69922   -34441.456    4.3190123    4.3190123    4.3190123   -34441.456    17733.369   -102404.34     -18653.4   -21328.667    133.55622    34457.108    80.566284 
    6900     1800.249   -118.27661    1.6289031   -116.64771    60464.974    4.2648323    4.2648323    4.2648323    60464.974    94638.079    68936.105    17820.738    2470.5955    -14360.08   -15584.419    77.572159 
    7000    2394.2487   -118.87946    2.1663665   -116.71309     528.4344    4.2747311    4.2747311    4.2747311     528.4344    16209.909    9469.1136    -24093.72    17121.362    10237.396   -2358.3582    78.113556 
    7100    1357.6645   -117.98843    1.2284433   -116.75999    1694.0694    4.3061514    4.3061514    4.3061514    1694.0694    56720.394   -32619.636    -19018.55    7181.8324   -11555.632    3606.6598    79.848705 
    7200    2024.1214   -118.56126    1.8314676   -116.72979    -35313.24      4.31636      4.31636      4.31636    -35313.24   -352.15764   -67168.321   -38419.242   -17930.136    7304.7279    13371.441    80.417946 
    7300     1188.004   -117.78404     1.074931   -116.70911    36886.709    4.2894022    4.2894022    4.2894022    36886.709    65984.329    26478.099    18197.699   -28044.262    21563.191    -2697.949    78.920588 
    7400    2115.2934   -118.62975    1.9139619   -116.71578   -2757.9145    4.2791919    4.2791919    4.2791919   -2757.9145   -25934.294    10586.451       7074.1    9599.9852   -11375.094    9166.3511     78.35835 
    7500    1490.9459   -118.10424    1.3490392   -116.75521    4373.8802     4.311325     4.311325     4.311325    4373.8802   -12541.631    28108.391   -2445.1191   -27691.507   -6047.1984    15543.463    80.136853 
    7600     1933.225   -118.46822    1.7492226     -116.719   -11672.292    4.3260138    4.3260138    4.3260138   -11672.292   -7206.2047   -41442.066    13631.396   -4775.9717   -2050.5617    6715.1337    80.958734 
    7700    1895.1022   -118.40813    1.7147283    -116.6934    7824.1199    4.3138621    4.3138621    4.3138621    7824.1199    61170.663   -34961.548   -2736.7552    185.77345    15245.986   -20585.368    80.278411 
    7800     1614.325   -118.14963    1.4606752   -116.68895    33522.792    4.2953422    4.2953422    4.2953422    33522.792    9535.4724    12153.604    78879.301   -7915.8664   -29679.631   -22046.953    79.248911 
    7900    1799.2735   -118.33559    1.6280205   -116.70757    18783.949    4.2873111    4.2873111    4.2873111    18783.949     53924.47   -8022.0672    10449.445    -1481.178    1860.4486    11121.009    78.805222 
    8000    1412.5848   -118.04505    1.2781364   -116.76691   -7393.9622    4.3140813    4.3140813    4.3140813   -7393.9622   -59421.024    -33987.39    71226.528    17233.041    7695.2878    14316.529     80.29065 
    8100    1785.9088   -118.34166    1.6159278   -116.72573   -73425.474    4.3314479    4.3314479    4.3314479   -73425.474   -123258.08    -76357.73    -20660.61   -12032.311    2595.1597    13349.053    81.264206 
    8200     1869.224   -118.38309    1.6913132   -116.69177    -10754.37    4.2923469    4.2923469    4.2923469    -10754.37   -24212.919   -29985.093    21934.902    9202.6425    10866.758    22266.125     79.08324 
    8300      1839.45   -118.37106     1.664373   -116.70669    35619.916     4.269741     4.269741     4.269741    35619.916     46864.24   -7168.9534    67164.462    25425.492   -7817.9727   -248.95507    77.840315 
    8400    2402.4441   -118.94106    2.1737819   -116.76728   -27195.225    4.3052766    4.3052766    4.3052766   -27195.225   -14025.345   -61090.112    -6470.219   -25433.013    3038.4609    6426.5448    79.800054 
    8500    1722.9523    -118.2886    1.5589634   -116.72963   -9409.8388    4.3340026    4.3340026    4.3340026   -9409.8388   -10523.163   -44929.953      27223.6    4018.2362   -14098.501   -15561.135    81.408078 
    8600    1515.8699   -118.05451    1.3715909   -116.68292   -13083.375    4.3191697    4.3191697    4.3191697   -13083.375   -43632.469   -49424.038     53806.38    53.378228   -1279.8829   -6477.6759    80.575091 
    8700    1568.2145   -118.08979    1.4189535   -116.67084   -20016.876    4.2847152    4.2847152    4.2847152   -20016.876   -73387.617   -37388.672    50725.661   -27446.313    -2037.026   -12565.319    78.662163 
    8800    1910.2109   -118.41005     1.728399   -116.68165    22306.571    4.2610197    4.2610197    4.2610197    22306.571    -34419.71    10020.678    91318.743    12901.937    3127.0451    12608.479    77.364306 
    8900    2065.0541   -118.63749    1.8685044   -116.76898   -1527.2243    4.2935512    4.2935512    4.2935512   -1527.2243   -31476.721    8537.6232    18357.425   -2655.7663   -19200.171   -7412.6734    79.149823 
    9000     2090.569   -118.63917    1.8915908   -116.74758   -34824.257     4.309974     4.309974     4.309974   -34824.257   -30216.686   -69130.209   -5125.8765   -10459.074    5933.9895    -22246.12     80.06154 
    9100    1446.3078   -118.02935    1.3086497    -116.7207   -2231.7363    4.2947621    4.2947621    4.2947621   -2231.7363   -24395.489    21555.821   -3855.5412    7995.7392    1732.3244    4142.9436    79.216808 
    9200    1001.5454   -117.64368   0.90621931   -116.73746    35815.242    4.2951386    4.2951386    4.2951386    35815.242    73027.404    4374.7053    30043.619    23751.465   -7798.0971    249.57255    79.237644 
    9300    1651.1695   -118.22561    1.4940128   -116.73159    13171.895     4.302098     4.302098     4.302098    13171.895    7761.7607   -9261.9001    41015.824   -5385.9681    2635.2979   -4494.1704    79.623435 
    9400    2341.6278     -118.843     2.118754   -116.72425   -28833.473    4.3176224    4.3176224    4.3176224   -28833.473   -13913.609   -33423.313   -39163.497   -33063.255   -28953.736    15818.273    80.488528 
    9500    2067.9701   -118.56971    1.8711428   -116.69857   -12107.248    4.3129983    4.3129983    4.3129983   -12107.248    2201.4226   -7466.3331   -31056.833    -10200.15   -8149.4962    -11360.08    80.230199 
    9600    1554.0566   -118.08951    1.4061431   -116.68337    20948.088     4.284627     4.284627     4.284627    20948.088   -16995.903    64944.767      14895.4    4228.3435    9094.9917   -8224.5169    78.657305 
    9700    1323.9733   -117.92298    1.1979589   -116.72502    12933.096    4.2840672    4.2840672    4.2840672    12933.096    53861.924   -4350.1418   -10712.493   -6427.9616    9632.9397   -3723.3525    78.626479 
    9800    1709.9904    -118.3053    1.5472353   -116.75806   -58460.594    4.3100128    4.3100128    4.3100128   -58460.594   -9095.2547   -95084.817   -71201.711   -11173.267    10257.119   -24594.175    80.063705 
    9900    1854.0317   -118.41002    1.6775669   -116.73245     15439.56    4.3107629    4.3107629    4.3107629     15439.56    74899.278   -2198.2644   -26382.335    17275.362    13160.759   -7568.2839    80.105515 
   10000    1566.8486   -118.13845    1.4177176   -116.72073   -14486.833    4.3211397    4.3211397    4.3211397   -14486.833     18779.99    -47909.73   -14330.757   -6540.2852   -15492.156    11528.471    80.685395 
   10100    1251.0334   -117.82186    1.1319613   -116.68989   -23093.821    4.3183722    4.3183722    4.3183722   -23093.821   -23175.954   -58757.419    12651.911    14407.421    3465.4206    6120.4903    80.530465 
   10200     1755.151   -118.25284    1.5880975   -116.66474     11630.35    4.2939746    4.2939746    4.2939746     11630.35   -20595.902    57922.228   -2435.2772    12906.431     10715.27   -8679.7068    79.173242 
   10300    2072.7893   -118.57966    1.8755033   -116.70416    3756.2148    4.2980461    4.2980461    4.2980461    3756.2148   -5065.6523     38354.94   -22020.644   -10068.538    1713.1337   -12493.691    79.398669 
   10400    1764.3246   -118.32463     1.596398   -116.72823    9386.3502    4.3087385    4.3087385    4.3087385    9386.3502   -33634.545    48866.444    12927.152   -2253.7663   -15829.361   -4541.9667    79.992709 
   10500    1796.1324   -118.34934    1.6251784   -116.72416    25601.348    4.3022182    4.3022182    4.3022182    25601.348    74812.714    52007.137   -50015.808   -15796.324   -11321.012    9203.1438    79.630107 
   10600    1742.8093   -118.30669    1.5769305   -116.72976   -6303.4948    4.3018903    4.3018903    4.3018903   -6303.4948   -20306.691    37590.676   -36194.469    4247.2261    14882.826    14075.462    79.611899 
   10700    1153.1216   -117.76509    1.0433686   -116.72172    22191.474    4.3013079    4.3013079    4.3013079    22191.474    24995.201    63654.891   -22075.669    14488.671    25479.988    5001.6974     79.57957 
   10800    1553.3035   -118.14315    1.4054616   -116.73769   -19819.761    4.3093244    4.3093244    4.3093244   -19819.761    -57522.46    24651.524   -26588.348    26934.203   -17194.656     7676.631    80.025349 
   10900     1502.218    -118.0988    1.3592384   -116.73956   -48252.468    4.3174899    4.3174899    4.3174899   -48252.468   -57632.652   -15439.705   -71685.048   -9164.6473    5069.5597    189.21033    80.481118 
   11000    1842.5247   -118.37935    1.6671551    -116.7122   -16753.056    4.2968579    4.2968579    4.2968579   -16753.056    21480.275    -14829.98   -56909.463   -13102.701    39854.679    6595.1975    79.332834 
   11100    2119.1358    -118.6405    1.9174386   -116.72306    10541.294    4.2819115    4.2819115    4.2819115    10541.294    43374.289    21365.023   -33115.429    14739.555    19582.414   -1176.9482    78.507847 
   11200    1907.2448   -118.47572    1.7257151      -116.75    13940.006    4.2980505    4.2980505    4.2980505    13940.006    38794.788    57948.654   -54923.426     19304.19   -4786.3699   -6271.7745    79.398908 
   11300    1804.8586   -118.37947     1.633074   -116.74639   -52905.512    4.3221907    4.3221907    4.3221907   -52905.512   -48802.271    -23135.23   -86779.035   -21649.754    20438.877   -2622.9725    80.744283 
   11400    1440.7462   -118.01989    1.3036174   -116.71627   -36939.921    4.3148549    4.3148549    4.3148549   -36939.921   -37991.766   -3745.2044   -69082.794   -17794.196    15004.389    5927.6691    80.333852 
   11500    2017.5558   -118.51844    1.8255268   -116.69291    20538.082    4.2927966    4.2927966    4.2927966    20538.082    44627.438    74312.515   -57325.708    5942.7982   -9270.7176    474.46475    79.108096 
   11600    1533.6309   -118.13546    1.3876615    -116.7478   -6417.8586    4.3082388    4.3082388    4.3082388   -6417.8586    99289.362   -29506.387   -89036.551    15839.021    6415.4948    -2010.677    79.964881 
   11700      1270.32   -117.89214    1.1494123   -116.74273    21474.351    4.3198108    4.3198108    4.3198108    21474.351    110078.63     26395.76   -72051.336    37541.238    3278.5856    363.57685    80.610977 
   11800    1093.0128    -117.7137   0.98898093   -116.72472    31800.495    4.3217151    4.3217151    4.3217151    31800.495    105637.43    14072.625   -24308.572    25691.723   -7143.7448   -4898.6279    80.717629 
   11900    1540.1689   -118.10181    1.3935772   -116.70823   -18136.777     4.324067     4.324067     4.324067   -18136.777    13421.497   -4996.1202   -62835.707    2409.6015    3140.8528   -16201.186    80.849483 
   12000    1796.4302   -118.31784    1.6254478   -116.69239   -8272.0441    4.3149394    4.3149394    4.3149394   -8272.0441    14440.486    7199.3645   -46455.983    4054.5852    17490.224    11135.848    80.338569 
   12100    2366.1743   -118.82801    2.1409642   -116.68705   -17317.098      4.30629      4.30629      4.30629   -17317.098   -23979.722   -8388.1408   -19583.432   -2689.0979    8909.3809     2305.465    79.856416 
   12200    2115.1995    -118.6167    1.9138769   -116.70283    8004.5199    4.3096155    4.3096155    4.3096155    8004.5199    13007.131    48594.956   -37588.527   -4597.1863    2419.5148   -9163.4259    80.041568 
   12300    1862.1575   -118.40466    1.6849193   -116.71974   -11119.437    4.3159308    4.3159308    4.3159308   -11119.437   -38306.937    57482.717   -52534.091     9688.471     19839.02    7628.9363    80.393959 
   12400    1020.7469   -117.65129   0.92359324    -116.7277     17060.68    4.3083608    4.3083608    4.3083608     17060.68   -40444.619    75726.148    15900.512      3948.77   -892.96441   -4639.8803    79.971678 
   12500    1523.7638    -118.0983    1.3787335   -116.71956   -14659.786     4.301623     4.301623     4.301623   -14659.786   -66122.203     46363.31   -24220.466    12473.052   -9899.0944    11936.382    79.597064 
   12600    1744.2471   -118.28789    1.5782314   -116.70966    48803.759    4.2881689    4.2881689    4.2881689    48803.759    61578.158    83285.006    1548.1135    1509.7321    7746.5928    -13388.11    78.852531 
   12700     1855.806   -118.41531    1.6791723   -116.73614    2936.2431    4.3069286    4.3069286    4.3069286    2936.2431   -30108.066    28084.194    10832.601   -16162.071    1962.0743   -5851.0598    79.891949 
   12800    1783.8308   -118.33454    1.6140476   -116.72049   -44595.626    4.3420218    4.3420218    4.3420218   -44595.626   -59571.585   -38150.655   -36064.637   -4845.0069   -26484.656   -5587.1606      81.8608 
   12900    1956.4395   -118.42789    1.7702276   -116.65767   -18078.721    4.3336205    4.3336205    4.3336205   -18078.721   -15252.386   -5712.2513   -33271.527    19578.915   -4217.0407   -18106.118    81.386548 
   13000     1484.511   -117.96266    1.3432167   -116.61944    24060.216    4.3032441    4.3032441    4.3032441    24060.216    47173.731   -8858.0423    33864.958    4424.4903    15174.269    9503.4581    79.687087 
   13100    1291.9844   -117.84192    1.1690146   -116.67291      35247.1    4.3064251    4.3064251    4.3064251      35247.1    73761.585    18425.632    13554.082   -16653.481   -9713.1861    10622.051    79.863932 
   13200    1658.3933   -118.20554    1.5005491   -116.70499    -31151.44       4.3341       4.3341       4.3341    -31151.44    34110.991   -64891.717   -62673.595   -18169.708   -3344.9726    14975.148    81.413565 
   13300    1871.0782   -118.37822    1.6929908   -116.68523   -745.84297    4.3216987    4.3216987    4.3216987   -745.84297   -21084.153   -29239.727    48086.351    9387.3935   -613.11778    11998.245     80.71671 
   13400     1695.395   -118.20368     1.534029   -116.66965    30316.193    4.3034956    4.3034956    4.3034956    30316.193   -26918.768   -19070.992    136938.34    1612.8115   -5622.3116    19442.588     79.70106 
   13500    1807.2499   -118.35807    1.6352377   -116.72283    4092.7702    4.3154764    4.3154764    4.3154764    4092.7702   -6303.7405   -43941.428    62523.479   -15170.195   -16149.468    6916.0293    80.368569 
   13600    1246.5191   -117.85029    1.1278767   -116.72241    25220.311     4.331791     4.331791     4.331791    25220.311    32038.892   -32967.369     76589.41   -3311.5275    37798.347    1401.3306    81.283514 
   13700    2065.2012   -118.55826    1.8686375   -116.68963   -55027.928    4.3337063    4.3337063    4.3337063   -55027.928   -52526.655   -76138.968   -36418.162   -566.15323    24260.588   -6022.1156    81.391383 
   13800    1536.3503   -118.04368     1.390122   -116.65355   -18870.849    4.3081776    4.3081776    4.3081776   -18870.849    19439.183   -29264.773   -46786.958   -8093.0899   -54.841086     -10691.4    79.961475 
   13900    1432.4886   -117.95726    1.2961458   -116.66112    38276.305    4.2969707    4.2969707    4.2969707    38276.305    39809.456    73624.444    1395.0155    32262.076    10751.374   -20529.524    79.339081 
   14000    1557.9386   -118.12433    1.4096556   -116.71467   -15592.088    4.3306231    4.3306231    4.3306231   -15592.088    16297.812    1376.6531   -64450.729    22670.561     4859.515    -7205.894    81.217788 
   14100    2181.4487   -118.65691    1.9738206   -116.68309   -55563.535    4.3335454    4.3335454    4.3335454   -55563.535    15858.131   -80962.666   -101586.07   -7068.3486    8442.3508    -6212.889     81.38232 
   14200    2017.7972   -118.47905    1.8257453    -116.6533    14947.765    4.3113277    4.3113277    4.3113277    14947.765    40760.955   -8507.1633    12589.504   -14707.934   -1112.1123   -3262.5593    80.137005 
   14300    1799.4066    -118.3114    1.6281409   -116.68326    9815.4603    4.3165622    4.3165622    4.3165622    9815.4603    35318.976   -1976.1102   -3896.4845    11015.902   -513.11823    14433.039    80.429246 
   14400    1249.0237   -117.81497    1.1301429   -116.68483    30783.697    4.3308852    4.3308852    4.3308852    30783.697     3865.669     48266.13    40219.292    12088.837    15132.696    22962.888    81.232534 
   14500    1769.8515   -118.26699    1.6013988   -116.66559   -14257.844    4.3391115    4.3391115    4.3391115   -14257.844    23134.187   -49075.526   -16832.193   -720.66614    11764.807   -11043.386     81.69631 
   14600    1605.0273   -118.10716    1.4522625    -116.6549    -4893.391    4.3254404    4.3254404    4.3254404    -4893.391   -54139.064    42136.241   -2677.3492    6359.2454    5467.8443    4790.0643    80.926543 
   14700    1586.6859   -118.08402    1.4356668   -116.64836    29925.868    4.2964208    4.2964208    4.2964208    29925.868   -49449.284    140488.25    -1261.366   -4425.1464   -2626.7251    4356.8054    79.308629 
   14800    1871.2845   -118.38192    1.6931775   -116.68874    14988.087     4.304375     4.304375     4.304375    14988.087   -3576.2324    40644.897    7895.5963   -25329.824   -4336.1914    21911.517    79.749928 
   14900     1346.972   -117.92656    1.2187686   -116.70779   -18810.242     4.331731     4.331731     4.331731   -18810.242     18627.77   -30405.543   -44652.953   -1909.4734    30471.004   -2695.4618    81.280137 
   15000    1971.2638   -118.46288    1.7836409   -116.67924   -42220.146    4.3149189    4.3149189    4.3149189   -42220.146   -14796.873   -40844.051   -71019.514    1471.3721     25822.64      2266.71    80.337423 
   15100    1744.7785   -118.23657    1.5787123   -116.65786    19775.295    4.2853857    4.2853857    4.2853857    19775.295    65514.377     1830.874   -8019.3647   -4921.9524   -5175.0754   -1067.5014    78.699094 
   15200    983.36404   -117.61624   0.88976844   -116.72647    31546.848    4.3013218    4.3013218    4.3013218    31546.848    128783.06   -3233.4408    -30909.08    26914.005    12775.097   -1012.0555     79.58034 
   15300    1659.7059   -118.22525    1.5017368   -116.72352   -11756.031    4.3170045    4.3170045    4.3170045   -11756.031    52302.161   -10624.871   -76945.383    23525.139    9859.5316    3052.8134    80.453975 
   15400    1878.2905   -118.41434    1.6995167   -116.71482    18037.287    4.3104424    4.3104424    4.3104424    18037.287    86599.453   -3443.9257   -29043.667   -20364.188   -6998.2472   -5808.6286    80.087648 
   15500    1675.5403   -118.23033     1.516064   -116.71426   -2572.7452    4.3106064    4.3106064    4.3106064   -2572.7452    14234.116    -14599.14   -7353.2116   -9111.6671    5877.5585      -6087.9    80.096791 
   15600    1547.1827   -118.10424    1.3999235   -116.70431   -28897.202    4.3130453    4.3130453    4.3130453   -28897.202   -14142.724   -59759.481   -12789.401    30152.006   -13079.878    17626.638     80.23282 
   15700      1928.14    -118.4372    1.7446216   -116.69258    7033.4067    4.3026136    4.3026136    4.3026136    7033.4067   -1133.7518    10773.935    11460.036   -14282.209   -3390.4413     379.3161    79.652064 
   15800     1542.702   -118.10662    1.3958692   -116.71075     45389.71    4.2849207    4.2849207    4.2849207     45389.71    46316.704    59705.683    30146.742    9099.4106    4854.0266   -19028.594     78.67348 
   15900    1512.9566   -118.11097    1.3689549   -116.74202   -4947.7007    4.2972158    4.2972158    4.2972158   -4947.7007   -26404.882   -12989.134    24550.913    43261.033   -6885.3822   -6945.9212    79.352663 
   16000    1726.1252   -118.29027    1.5618343   -116.72844   -24239.752    4.3127749    4.3127749    4.3127749   -24239.752   -66153.773    13611.826   -20177.309    2995.6707   -8045.8024    -16397.93     80.21773 
   16100    2544.3885   -118.99819    2.3022162   -116.69597   -21121.035    4.2985582    4.2985582    4.2985582   -21121.035    3029.2558   -39380.867   -27011.493   -9399.3566    2089.5939    31586.489    79.427049 
   16200    1750.3258   -118.28997    1.5837316   -116.70624    7307.3345    4.2875979    4.2875979    4.2875979    7307.3345   -40367.082     28449.89    33839.196    3942.2042    5997.8832    4281.1283     78.82104 
   16300     899.5658    -117.5411   0.81394604   -116.72715    2136.4948    4.2852445    4.2852445    4.2852445    2136.4948   -81225.504     105910.8   -18275.809    9905.6767   -32844.056   -7822.3774    78.691319 
   16400    1466.6807   -118.07052    1.3270835   -116.74344    6930.8813    4.2937229    4.2937229    4.2937229    6930.8813    18666.159    17977.369   -15850.884    19220.083   -5951.1976     19.89461    79.159317 
   16500    2112.6235   -118.64155    1.9115462      -116.73   -25952.985    4.3108593    4.3108593    4.3108593   -25952.985   -49595.893   -15887.514   -12375.547   -3512.8373    14503.066    1831.6998    80.110888 
   16600    2301.6948   -118.78152    2.0826218    -116.6989   -10172.121    4.2931972    4.2931972    4.2931972   -10172.121    16460.784   -9660.1775    -37316.97    4951.2828   -18959.778   -2466.1238    79.130243 
   16700    1391.7282   -117.98421    1.2592649   -116.72494   -16678.788    4.2906628    4.2906628    4.2906628   -16678.788   -19337.659   -31988.905    1290.2006    20108.503   -11864.009   -3366.3479    78.990192 
   16800    1089.0398   -117.71974   0.98538613   -116.73435   -30991.567     4.293576     4.293576     4.293576   -30991.567   -75360.112    -46160.96    28546.371    40780.082    12294.323   -5000.1939    79.151195 
   16900    2068.0354   -118.59218    1.8712019   -116.72098   -13031.444    4.2747739    4.2747739    4.2747739   -13031.444   -4214.1967   -17834.227   -17045.908    3481.6887    12038.498    2370.2707    78.115901 
   17000    2226.1991   -118.75829    2.0143117   -116.74398   -3408.3048    4.2759287    4.2759287    4.2759287   -3408.3048     46904.55   -31981.151   -25148.313    7183.4722   -22150.793   -18223.914    78.179225 
   17100    2122.8787   -118.66848    1.9208252   -116.74766    17143.673    4.2801364    4.2801364    4.2801364    17143.673    56830.651   -19358.553    13958.921    5300.4299   -7617.4041   -6606.1157    78.410246 
   17200    1186.9112   -117.83343    1.0739422   -116.75948    135.19472    4.2881787    4.2881787    4.2881787    135.19472    53189.515    17264.267   -70048.198    13506.464    2623.9072    12144.804    78.853076 
   17300    738.43454   -117.43134   0.66815109   -116.76319   -56620.522    4.2897353    4.2897353    4.2897353   -56620.522   -61488.525   -17346.665   -91026.374   -26418.224    10951.201   -2588.4291    78.938973 
   17400    1774.1258   -118.34409    1.6052663   -116.73882    7914.3998    4.2675328    4.2675328    4.2675328    7914.3998    -11371.08    8618.6826    26495.597   -22382.107    4228.0082    1340.6381    77.719606 
   17500    2279.8136   -118.82219    2.0628233   -116.75936    3317.5734    4.2845049    4.2845049    4.2845049    3317.5734    33992.918   -48883.079    24842.882    17576.857    8715.9159    9783.0648    78.650582 
   17600    1959.5905   -118.51257    1.7730786   -116.73949   -12975.234    4.2956359    4.2956359    4.2956359   -12975.234     16684.12   -42448.057   -13161.766    4239.8419    6748.5691    2135.8732    79.265169 
   17700    923.50248   -117.57106   0.83560445   -116.73546    46522.397    4.2873593    4.2873593    4.2873593    46522.397    61023.851   -19564.399    98107.741   -22254.294   -5724.3653   -5204.6636    78.807877 
   17800    1542.2887    -118.1299    1.3954952    -116.7344    -5038.533    4.2967464    4.2967464    4.2967464    -5038.533    17885.597   -56838.217    23837.022   -6204.3232    1459.7253   -12319.471    79.326658 
   17900    2112.9091   -118.61852    1.9118046   -116.70672     799.5756    4.2967235    4.2967235    4.2967235     799.5756   -24426.521   -9789.1414     36614.39    8053.9568    1032.8557    22745.257    79.325391 
   18000    1899.7438   -118.43971    1.7189281   -116.72079   -14079.271    4.3049827    4.3049827    4.3049827   -14079.271    25775.744   -59837.041   -8176.5149   -12122.934    16468.879    -21720.16    79.783713 
   18100    1772.6017   -118.32648    1.6038873   -116.72259   -43473.302    4.3114893    4.3114893    4.3114893   -43473.302   -2295.6103   -91523.234   -36601.063   -18153.093        14969   -23757.925    80.146013 
   18200    1830.1297   -118.36841    1.6559398   -116.71247   -769.26299    4.2946604    4.2946604    4.2946604   -769.26299   -18596.739   -21436.237    37725.187    17227.288    2120.6032   -13184.613    79.211178 
   18300    2252.0568   -118.74895    2.0377083   -116.71124   -18081.269    4.2824569    4.2824569    4.2824569   -18081.269   -25730.377   -7439.3228   -21074.106    714.29737    199.51283     7140.815     78.53785 
   18400    2105.2943    -118.6394    1.9049146   -116.73448   -23465.654    4.2878819    4.2878819    4.2878819   -23465.654   -52617.277   -26437.435    8657.7503   -27595.254    1274.1851   -10586.386      78.8367 
   18500    1549.1135   -118.14303    1.4016705   -116.74136   -32174.071    4.3098186    4.3098186    4.3098186   -32174.071   -61075.034   -35440.396   -6.7840213    9921.7688   -172.07215   -1202.8981     80.05288 
   18600    1316.0313   -117.90517    1.1907727   -116.71439   -12776.943    4.3099269    4.3099269    4.3099269   -12776.943     10242.82   -66046.596    17472.946     14037.22    8174.8177    29013.042    80.058916 
   18700    2162.0689   -118.64793    1.9562854   -116.69164    3444.9987    4.2841431    4.2841431    4.2841431    3444.9987    44671.367    -52802.22    18465.849   -14240.817     17704.35     11613.95    78.630656 
   18800    1971.4697   -118.48625    1.7838272   -116.70242    17994.831    4.2826184    4.2826184    4.2826184    17994.831    20171.862   -11956.293    45768.924   -1326.1729    11450.642    5580.6199    78.546733 
   18900    1351.5296    -117.9552    1.2228924   -116.73231   -47150.931    4.3151946    4.3151946    4.3151946   -47150.931   -58375.577   -81193.132   -1884.0856    15804.763   -8960.0228    7813.1504    80.352829 
   19000    1545.3733   -118.08816    1.3982863   -116.68987   -41089.983    4.3180092    4.3180092    4.3180092   -41089.983   -43627.042   -84969.633    5326.7264    7304.1879    5463.2399    22296.716    80.510161 
   19100    1832.1194    -118.3248    1.6577401   -116.66706    33648.377    4.2832969    4.2832969    4.2832969    33648.377    21749.398    16483.277    62712.457    5131.5284    8751.5909   -3051.7474    78.584076 
   19200    1979.6057   -118.49145    1.7911888   -116.70026    17740.787    4.2845038    4.2845038    4.2845038    17740.787    46643.874   -47220.037    53798.525      13474.9    32733.139   -3585.5455    78.650518 
   19300    1606.4152   -118.18402    1.4535183    -116.7305   -17335.163    4.3160794    4.3160794    4.3160794   -17335.163    12755.642   -69571.524    4810.3937    884.87773   -466.73931    27144.669    80.402261 
   19400    1903.0938   -118.41389    1.7219593   -116.69193   -42210.913    4.3266549    4.3266549    4.3266549   -42210.913   -64071.905   -15045.816   -47515.019   -3159.6533   -6406.4503    7050.3288    80.994732 
   19500    1847.8416   -118.33962    1.6719659   -116.66766    2466.6533    4.3032717    4.3032717    4.3032717    2466.6533    22471.614    13737.266    -28808.92    1271.9084   -1404.7564   -13223.372    79.688618 
   19600    1362.7498   -117.92419    1.2330446   -116.69115   -35865.601     4.299351     4.299351     4.299351   -35865.601    -50850.88   -39171.234   -17574.689    404.25596    14327.551    22730.527    79.471003 
   19700    1527.5936   -118.08625    1.3821988   -116.70405    7085.7067    4.2875602    4.2875602    4.2875602    7085.7067   -12300.346   -15920.779    49478.245    10330.685    -1396.679    10469.263    78.818961 
   19800    2051.1001   -118.57581    1.8558785   -116.71994    32858.551    4.2797167    4.2797167    4.2797167    32858.551    66780.837    21931.313    9863.5011    9635.2675   -6378.1256   -12242.212    78.387184 
   19900    1905.5549   -118.45733    1.7241861   -116.73314   -16164.842     4.297879     4.297879     4.297879   -16164.842    59184.266   -62741.118   -44937.673    21777.356    10622.995    8079.4035    79.389408 
   20000    1603.2618   -118.17301     1.450665   -116.72234   -44158.154     4.313304     4.313304     4.313304   -44158.154   -28951.953   -58324.027   -45198.482   -3362.4418    6420.8825    10651.113    80.247258 
   20100    1686.3267   -118.22813    1.5258238   -116.70231   -55339.076    4.3123292    4.3123292    4.3123292   -55339.076   -71979.091   -33861.301   -60176.836     375.0532   -29679.468   -18841.587    80.192862 
   20200    1837.4035   -118.37121    1.6625213   -116.70868    3692.7023    4.2889988    4.2889988    4.2889988    3692.7023    58245.977     1615.848   -48783.718    -2109.377   -7483.4689    5700.6773    78.898322 
   20300    2293.9428   -118.79121    2.0756076    -116.7156   -3565.1845    4.2760297    4.2760297    4.2760297   -3565.1845    36602.585    -20028.59   -27269.549    1063.8342    15266.445    1725.9505    78.184764 
   20400    1691.0728   -118.26866    1.5301182   -116.73854   -8965.9378    4.2866224    4.2866224    4.2866224   -8965.9378    6813.1333   -8788.4663    -24922.48   -13061.193   -27796.317   -6549.9076    78.767251 
   20500    1519.9139   -118.11391      1.37525   -116.73866   -6154.6368    4.2913474    4.2913474    4.2913474   -6154.6368   -28070.893    20276.206   -10669.224   -8556.6473   -33713.498     11352.39    79.028003 
   20600    1720.7892    -118.2895    1.5570062    -116.7325   -18554.328    4.2987702    4.2987702    4.2987702   -18554.328   -26889.604   -31665.343    2891.9645    12243.106     9492.983   -2841.2104    79.438804 
   20700    2053.7034   -118.57297     1.858234   -116.71473   -18558.063    4.2950835    4.2950835    4.2950835   -18558.063    16637.152    5781.3664   -78092.709    -5521.846     11224.28   -6428.7407    79.234596 
   20800    1372.7815   -117.96196    1.2421216   -116.71984    43042.527     4.288145     4.288145     4.288145    43042.527    49983.623    71851.923    7292.0362   -17401.306   -6212.7917    17608.153    78.851215 
   20900    1487.3174   -118.08329    1.3457561   -116.73754    8780.3778    4.3059888    4.3059888    4.3059888    8780.3778    25072.784     -31387.7    32656.049   -18493.044   -12234.288    2011.9306    79.839662 
   21000    1834.9917   -118.37557     1.660339   -116.71523   -24201.538     4.305648     4.305648     4.305648   -24201.538   -35212.479   -34805.842   -2586.2935    17943.858    -1342.383    2161.5403    79.820708 
   21100    2094.5084   -118.58395    1.8951552   -116.68879    23087.935    4.2736941    4.2736941    4.2736941    23087.935   -4716.7566     42661.72    31318.841    8496.3566    17634.781   -6366.2025    78.056718 
   21200    1379.2172   -117.99421    1.2479447   -116.74626    27352.882    4.2850522    4.2850522    4.2850522    27352.882    15335.177    66556.954    166.51578    -377.0223   -11438.502   -3456.1797    78.680724 
   21300    1019.6005   -117.64904   0.92255592   -116.72648   -12921.913     4.318139     4.318139     4.318139   -12921.913   -50781.628     76834.98   -64819.091   -13568.309   -16019.656    4928.6788    80.517421 
   21400    2378.0955   -118.82827    2.1517508   -116.67652   -28847.035    4.3072015    4.3072015    4.3072015   -28847.035   -6257.6585   -13471.413   -66812.033   -3861.9698    1570.0719   -25156.127    79.907139 
   21500    1655.0274   -118.18154    1.4975035   -116.68403    9786.1083     4.295797     4.295797     4.295797    9786.1083    33719.479   -14359.124    9997.9702   -5998.8247   -31663.794    4102.3097    79.274087 
   21600    1913.1949    -118.4288    1.7310989   -116.69771    -14739.59    4.2939103    4.2939103    4.2939103    -14739.59   -54819.726   -37455.563    48056.519   -14660.704   -35022.965    8490.5196     79.16968 
   21700    1633.4353   -118.19343    1.4779666   -116.71546    32542.251    4.2929199    4.2929199    4.2929199    32542.251    54813.605    26297.513    16515.635   -1927.0876   -6388.0295    3004.1607    79.114912 
   21800    1909.0135   -118.44223    1.7273155   -116.71491   -44479.019     4.311994     4.311994     4.311994   -44479.019   -36742.368   -47472.516   -49222.172    2559.2801    21152.376    18146.414    80.174163 
   21900    1320.4252   -117.89695    1.1947484    -116.7022   -34516.229    4.3049595    4.3049595    4.3049595   -34516.229    31386.475    -58632.39   -76302.773   -20182.814    7532.9556   -6574.3288    79.782421 
   22000    1539.1516   -118.08899    1.3926567   -116.69634    42214.593     4.280062     4.280062     4.280062    42214.593    26315.996    52600.623    47727.161   -15843.593   -19810.759    5846.1902    78.406161 
   22100    1778.3896   -118.34446    1.6091243   -116.73534    25122.206    4.2965522    4.2965522    4.2965522    25122.206    20415.771   -32995.178    87946.025   -1444.8517   -13387.648    14807.583    79.315905 
   22200    1892.1355   -118.42737     1.712044   -116.71533   -8869.2331    4.3204066    4.3204066    4.3204066   -8869.2331   -3237.9033     -70156.4    46786.604    -18400.29    -20566.45    1130.5518    80.644333 
   22300    1804.4445   -118.30809    1.6326993   -116.67539   -12311.738    4.3221799    4.3221799    4.3221799   -12311.738   -26361.336   -21560.057    10986.178    1465.3938   -14221.165   -17728.433    80.743677 
   22400    1839.6869   -118.31636    1.6645873   -116.65177   -44469.033    4.3173202    4.3173202    4.3173202   -44469.033   -7053.9301   -52728.924   -73624.246    7161.6254    5026.2724   -2814.9815    80.471628 
   22500    1411.3712   -117.93332    1.2770383   -116.65628   -5015.5178     4.294522     4.294522     4.294522   -5015.5178    50158.719   -62865.205   -2340.0666   -2609.2799   -2059.5808    24044.642    79.203521 
   22600    1185.0501   -117.75903    1.0722582   -116.68677    36515.909    4.2795691    4.2795691    4.2795691    36515.909    73093.698   -41954.402    78408.431    5839.3846   -45581.202   -11443.642    78.379076 
   22700    1684.9833   -118.25098    1.5246083   -116.72637    -16979.47    4.2976444    4.2976444    4.2976444    -16979.47    -2025.893     -48869.4   -43.115309     2262.421   -35363.129   -4308.5325    79.376409 
   22800    2029.5543   -118.54549    1.8363833    -116.7091   -21708.694    4.3056516    4.3056516    4.3056516   -21708.694   -46494.218   -49970.685     31338.82   -8566.6159    5650.1109    10435.658    79.820909 
   22900    1758.9384   -118.28414    1.5915245   -116.69262    16515.893    4.2935782    4.2935782    4.2935782    16515.893    12096.314     63424.24   -25972.875   -2163.9289   -660.25885    22465.105    79.151313 
   23000    1403.6372   -117.97678    1.2700404   -116.70674    15460.281    4.2944248    4.2944248    4.2944248    15460.281    8164.2178    81560.642   -43344.017     22650.86   -19853.723    6138.8025    79.198144 
   23100    1570.5249   -118.11729    1.4210439   -116.69624   -14546.014    4.3097781    4.3097781    4.3097781   -14546.014   -24560.499    19251.155   -38328.696   -4034.5102   -10021.269   -17742.152    80.050626 
   23200    1777.0944   -118.28332    1.6079524   -116.67537   -18899.609    4.3163051    4.3163051    4.3163051   -18899.609   -66130.509   -46464.841    55896.524   -20888.768   -3397.3562    -785.6026    80.414876 
   23300    1142.1573   -117.70519    1.0334479   -116.67174    26188.761    4.3114546    4.3114546    4.3114546    26188.761   -784.74129     33899.03    45451.995    9689.5488   -41567.245    21189.862     80.14408 
   23400    2392.9891   -118.81224    2.1652269   -116.64702   -14103.258    4.2974676    4.2974676    4.2974676   -14103.258   -16100.291   -5242.7066   -20966.778   -9818.0238    7153.1443     -29511.2     79.36661 
   23500     2114.055   -118.58255    1.9128414   -116.66971   -878.24224    4.3007206    4.3007206    4.3007206   -878.24224    26296.773   -902.10186   -28029.398    11817.952    7658.5339   -16731.499    79.546981 
   23600      1652.54   -118.17851    1.4952529   -116.68325    10105.479    4.3078797    4.3078797    4.3078797    10105.479    11186.045    47499.537   -28369.144    5544.7117   -19863.096    22948.708    79.944886 
   23700     1700.968   -118.20813    1.5390716   -116.66906    5568.9596    4.2999463    4.2999463    4.2999463    5568.9596    -28492.15    26388.655    18810.373   -6922.4666    769.98684     20953.68    79.504021 
   23800    1469.8663    -118.0164    1.3299659   -116.68643   -16159.672    4.2864061    4.2864061    4.2864061   -16159.672   -36463.193   -31894.877    19879.055    11318.674   -3938.7217   -18413.832    78.755329 
   23900     1300.599   -117.88976    1.1768093   -116.71295    13273.091    4.2692831    4.2692831    4.2692831    13273.091    9764.6447    1141.4796    28913.149   -224.65883   -27308.049   -10538.439    77.815274 
   24000    2163.2606   -118.69249    1.9573637   -116.73512    7062.7044    4.2740618    4.2740618    4.2740618    7062.7044    19163.054     12656.93   -10631.871   -1446.1079   -19757.437    14981.146    78.076868 
   24100    1373.5216   -117.98708    1.2427912   -116.74429    -13686.75    4.3008884    4.3008884    4.3008884    -13686.75    19608.966   -3098.4579   -57570.757    -6451.322    4578.6087    -27500.56    79.556289 
   24200    1639.2962   -118.18676    1.4832696   -116.70349   -13653.525    4.2919205    4.2919205    4.2919205   -13653.525   -7293.7232   -19380.802   -14286.051   -5243.8311   -12385.112   -29712.086    79.059671 
   24300    1838.8347   -118.35636    1.6638163   -116.69254    21961.377    4.2770971    4.2770971    4.2770971    21961.377   -18072.228    10473.684    73482.676   -3636.3944   -15180.775    25544.971    78.243329 
   24400    1701.7819   -118.25614    1.5398081   -116.71633    31715.891    4.2858688    4.2858688    4.2858688    31715.891    69293.552    16708.914    9145.2061   -8583.7951   -8393.9749   -6810.0345    78.725716 
   24500    1823.2472   -118.36846    1.6497124   -116.71875   -1029.5904    4.3061761    4.3061761    4.3061761   -1029.5904     20048.99   -7078.3575   -16059.404    4365.9251    6175.5332   -18724.507    79.850081 
   24600    1764.4625   -118.28666    1.5965227   -116.69014    -23854.76    4.3134544    4.3134544    4.3134544    -23854.76   -19668.758   -8240.3612   -43655.161   -8351.3287   -5425.4482    6335.6331    80.255653 
   24700    1167.5482   -117.71784    1.0564221   -116.66141    38884.845    4.3014741    4.3014741    4.3014741    38884.845    52384.936    14971.235    49298.364   -4035.4164   -28103.155    360.41778    79.588797 
   24800    1633.8413   -118.13218    1.4783339   -116.65385    36580.816    4.2914114    4.2914114    4.2914114    36580.816    33899.332   -24780.327    100623.44    8480.8174   -15038.125   -8291.0577    79.031543 
   24900    1811.0064   -118.31581    1.6386366   -116.67718   -13676.639    4.2974433    4.2974433    4.2974433   -13676.639   -35103.903   -8224.0696    2298.0566   -2015.1954   -4945.0154    1044.8557    79.365263 
   25000    1652.2336   -118.17797    1.4949756   -116.68299    10269.847    4.3036583    4.3036583    4.3036583    10269.847   -7815.5229    54226.558   -15601.494    8089.4811    1403.6211    1986.5327    79.710097 
   25100    2310.3836   -118.76745    2.0904836   -116.67697   -4962.8821     4.293544     4.293544     4.293544   -4962.8821    17836.867    6291.3802   -39016.893    10357.739    28184.405   -994.81002    79.149424 
   25200    1646.7012   -118.17344    1.4899699   -116.68347    20870.758    4.2724554    4.2724554    4.2724554    20870.758    22446.314    10634.077    29531.883   -1759.9099   -23699.373    10780.385     77.98887 
   25300    1349.7762    -117.9302    1.2213059    -116.7089    32615.947    4.2773429    4.2773429    4.2773429    32615.947   -39360.358    70067.199    67141.001   -5246.5563   -20504.031    18814.944    78.256822 
   25400    1718.7121   -118.26524    1.5551268   -116.71011    1734.9436    4.2984935    4.2984935    4.2984935    1734.9436   -45527.309    41183.989    9548.1511    15993.529    11560.585    7949.0475    79.423462 
   25500     1843.522   -118.36032    1.6680574   -116.69226    9934.5115    4.2973687    4.2973687    4.2973687    9934.5115   -45334.011    14170.904    60966.642    1267.3094   -19177.703   -14510.131     79.36113 
   25600    1761.0834   -118.28312    1.5934653   -116.68965    1960.9831    4.2900156    4.2900156    4.2900156    1960.9831    36357.764    11245.367   -41720.181    -4594.144   -19186.233   -12013.054    78.954449 
   25700    1803.5694   -118.32299    1.6319075   -116.69108   -3270.9043    4.2821999    4.2821999    4.2821999   -3270.9043    46460.219    18463.885   -74736.816    7286.3282     21466.44    7127.2518    78.523709 
   25800    1375.7072   -117.95054    1.2447688   -116.70577    16765.403    4.2757337    4.2757337    4.2757337    16765.403    8531.4935    24693.619    17071.096    25937.333     11147.95   -9476.6282     78.16853 
   25900    1606.6488   -118.17779    1.4537296   -116.72406    3065.1963    4.2838243    4.2838243    4.2838243    3065.1963   -27904.236    41585.957   -4486.1323    8536.2051   -14224.266   -22080.376    78.613107 
   26000    2052.3261   -118.57566    1.8569878   -116.71868   -29548.728    4.2907374    4.2907374    4.2907374   -29548.728   -22333.444   -192.76006    -66119.98   -3093.0192    12742.636    15510.261    78.994309 
   26100    1593.3483   -118.14995    1.4416951   -116.70826    16735.056    4.2702431    4.2702431    4.2702431    16735.056    60381.041    376.00709    -10551.88    1474.3466    14460.071    14080.956     77.86778 
   26200    1365.7072   -117.95354    1.2357206   -116.71782    16738.917    4.2723145    4.2723145    4.2723145    16738.917    42580.499    37111.748   -29475.496    22165.018   -15712.797   -14535.924     77.98115 
   26300    1704.4084   -118.26284    1.5421846   -116.72065   -39723.731    4.2916027    4.2916027    4.2916027   -39723.731   -25817.958   -13118.364   -80234.871    4066.7187   -15509.181    16768.755    79.042111 
   26400    2010.3713   -118.52553    1.8190262    -116.7065   -9513.6939    4.2798044    4.2798044    4.2798044   -9513.6939    12880.715   -4968.1884   -36453.609   -11560.612    15872.934     33271.57    78.392001 
   26500    1954.6075   -118.47801      1.76857   -116.70944   -3480.4412    4.2759303    4.2759303    4.2759303   -3480.4412     7475.721   -6130.1409   -11786.904    31399.055    -18088.62   -15255.358    78.179314 
   26600    1311.7515   -117.90589    1.1869003   -116.71899   -35999.531    4.2864195    4.2864195    4.2864195   -35999.531    1994.2236   -20342.093   -89650.724    10342.613   -8377.3066    9263.8403    78.756065 
   26700    1511.5676   -118.07937    1.3676982   -116.71167   -18710.219    4.2752068    4.2752068    4.2752068   -18710.219    30757.633    -4451.814   -82436.477   -7290.9619    7866.1191    34639.252    78.139634 
   26800     1739.217   -118.29316    1.5736801   -116.71948    11463.219    4.2718367    4.2718367    4.2718367    11463.219    33239.718   -3421.4493    4571.3866     28356.19   -7890.9569    -14331.14    77.954992 
   26900    1545.3146   -118.13166    1.3982331   -116.73342   -19178.137    4.2879835    4.2879835    4.2879835   -19178.137    -45773.03   -9914.3109   -1847.0694    11940.098   -29024.548   -9733.9806    78.842308 
   27000    2364.4176   -118.84716    2.1393747   -116.70778    -23271.68    4.2851847    4.2851847    4.2851847    -23271.68   -26010.555   -16633.879   -27170.607   -8916.2767   -14518.807    16768.305    78.688026 
   27100    1803.7567   -118.33421     1.632077   -116.70213    2854.6066    4.2717522    4.2717522    4.2717522    2854.6066      26738.9    13476.121   -31651.201    21893.389    8314.7453    6883.1646    77.950365 
   27200    844.15899   -117.48953    0.7638128   -116.72572    -5368.151    4.2737533    4.2737533    4.2737533    -5368.151   -24615.948    46293.822   -37782.327    21042.641     -16114.8   -7441.8375    78.059965 
   27300    1853.6572    -118.4067    1.6772279   -116.72947   -23145.346    4.2844934    4.2844934    4.2844934   -23145.346   -48696.155    2479.3861   -23219.268   -28043.141   -22622.901   -2552.3552    78.649948 
   27400    2339.5489   -118.83367     2.116873    -116.7168   -18249.919    4.2862175    4.2862175    4.2862175   -18249.919   -8632.0145   -45961.719   -156.02364    4783.5349     14827.12    30090.232    78.744931 
   27500    1388.0528   -117.97032    1.2559393   -116.71438   -19890.105    4.2828835    4.2828835    4.2828835   -19890.105   -19781.882   -22920.694   -16967.738    21093.357   -8289.1071    10284.107     78.56132 
   27600     1182.698   -117.78334      1.07013   -116.71321   -14075.076    4.2825112    4.2825112    4.2825112   -14075.076    -37874.99    23080.488   -27430.726   -8422.2144   -46573.831   -13141.321    78.540837 
   27700    2005.1758   -118.51797    1.8143252   -116.70364   -22237.527    4.2804825    4.2804825    4.2804825   -22237.527   -10779.768   -14914.017   -41018.795   -5498.2383    1271.3931    4990.5579    78.429273 
   27800     1593.939   -118.16015    1.4422295   -116.71792    8938.1531    4.2676526    4.2676526    4.2676526    8938.1531   -34688.256    28048.829    33453.887    21738.779    19035.686   -1382.2875    77.726154 
   27900    1663.1993   -118.23755    1.5048977   -116.73266    10569.318    4.2756032    4.2756032    4.2756032    10569.318    3202.6567    44306.045   -15800.746    20018.254   -17850.616   -6558.3671    78.161372 
   28000    1725.5002   -118.27915    1.5612688   -116.71788    -13923.49    4.2998409    4.2998409    4.2998409    -13923.49    386.19116    27099.173   -69255.835   -8472.4648   -2526.7434   -11662.189    79.498175 
   28100    822.26739   -117.44734   0.74400481   -116.70333    834.56163    4.2940805    4.2940805    4.2940805    834.56163   -16258.397     60798.79   -42036.708    13354.463    19359.028   -2734.1909    79.179099 
   28200    1715.2368   -118.23561    1.5519823   -116.68362    6430.5517    4.2769911    4.2769911    4.2769911    6430.5517    13677.691     38792.27   -33178.305    8430.1449    14648.354   -13907.613    78.237516 
   28300    2801.7801   -119.22033    2.5351095   -116.68522   -2965.0231    4.2788931    4.2788931    4.2788931   -2965.0231   -19130.396   -15789.773    26025.099   -13261.885   -10504.547   -19743.285     78.34194 
   28400    878.03572   -117.51005   0.79446517   -116.71559    37359.452    4.2909458    4.2909458    4.2909458    37359.452     58236.46    17062.403    36779.494   -4645.5245   -7431.2397   -13178.129    79.005822 
   28500     1760.277   -118.27727    1.5927356   -116.68453   -9545.5195    4.3049571    4.3049571    4.3049571   -9545.5195   -18625.824     5816.712   -15827.446   -11371.647    4588.0635   -1693.2304    79.782287 
   28600    2059.5955   -118.52608    1.8635653   -116.66252    3346.8399    4.2932373    4.2932373    4.2932373    3346.8399    33664.992   -1893.7081   -21730.765    12477.993    -14914.85    11610.812    79.132462 
   28700    1180.9815    -117.7488    1.0685769   -116.68022    42668.864    4.2746012    4.2746012    4.2746012    42668.864      17470.3    99757.714     10778.58    16619.306   -9224.6838   -3296.0763    78.106432 
   28800    2022.5071   -118.52468    1.8300069   -116.69468   -17153.333     4.285617     4.285617     4.285617   -17153.333   -32222.733   -27371.081    8133.8157   -28402.559    475.16539    1857.2839    78.711838 
   28900    1603.0932   -118.14205    1.4505124   -116.69154    642.06225    4.2849985    4.2849985    4.2849985    642.06225    9352.0748   -32265.754    24839.866    40001.715   -3764.3866    15702.028    78.677768 
   29000    1134.0396   -117.72892    1.0261029   -116.70282    8891.2405     4.285358     4.285358     4.285358    8891.2405     20792.51    20079.561   -14198.349     35823.62    9507.1405   -346.61063    78.697572 
   29100    2412.4195    -118.8618    2.1828079   -116.67899   -27783.254    4.2921882    4.2921882    4.2921882   -27783.254   -6036.4666    4755.2663   -82068.563   -33305.405    17782.157    1441.9018    79.074463 
   29200    1461.3521   -118.01355    1.3222621   -116.69128    31764.801    4.2806588    4.2806588    4.2806588    31764.801    15581.082    33980.395    45732.925    15349.014   -9031.2785    31098.678    78.438963 
   29300    1526.0564   -118.08709    1.3808079   -116.70629    34482.547    4.2862304    4.2862304    4.2862304    34482.547     35809.65    23249.369    44388.621    25817.803    3393.9639   -8100.4237    78.745646 
   29400    2315.8986   -118.77798    2.0954737    -116.6825   -19371.161    4.2982178    4.2982178    4.2982178   -19371.161   -32110.835   -17507.433    -8495.215   -26114.192    11814.595    -21891.65    79.408182 
   29500    1214.1999   -117.78156    1.0986336   -116.68293    44109.836    4.2796141    4.2796141    4.2796141    44109.836    14592.294    51081.118    66656.096     13175.67   -17574.906    23229.047    78.381544 
   29600    1273.1396   -117.86672    1.1519634   -116.71476   -26260.557    4.2874523    4.2874523    4.2874523   -26260.557   -8571.3065   -19024.987   -51185.377    33940.168   -9295.9147    12436.212    78.813009 
   29700     2114.705   -118.60961    1.9134296   -116.69618   -22351.539    4.2846177    4.2846177    4.2846177   -22351.539   -2826.2423    5370.8414   -69599.217   -9747.7137    10488.171   -22554.422     78.65679 
   29800    1700.2267   -118.24714    1.5384008   -116.70874    25692.164    4.2782261    4.2782261    4.2782261    25692.164    31817.457    36047.275    9211.7601    19335.545    738.49877    4584.0539    78.305309 
   29900     1347.092    -117.9441    1.2188772   -116.72522   -33003.608    4.2927967    4.2927967    4.2927967   -33003.608     -34896.8   -75053.525    10939.501    50852.157   -10916.824    26221.681    79.108101 
   30000    2181.0062   -118.66153    1.9734203   -116.68811   -1002.6394    4.2845697    4.2845697    4.2845697   -1002.6394   -17503.074     27224.75   -12729.594   -10834.142    6417.0815   -3681.6913     78.65415 
   30100    1561.4306   -118.11033    1.4128152   -116.69752   -4631.2973    4.2929664    4.2929664    4.2929664   -4631.2973    12139.371    713.15859   -26746.422    6162.8373   -13934.898    18352.113    79.117485 
   30200    1435.5843   -117.99661    1.2989469   -116.69766   -17374.506     4.291152     4.291152     4.291152   -17374.506   -11464.636   -24278.488   -16380.394    40210.829   -781.34599    18773.457    79.017212 
   30300    2182.3624   -118.65529    1.9746474   -116.68065    24496.534    4.2761124    4.2761124    4.2761124    24496.534     23625.49     43510.43    6353.6819     8585.941   -4080.7307   -14795.574    78.189305 
   30400    1568.9338   -118.12212    1.4196043   -116.70251    -9081.405    4.2894546    4.2894546    4.2894546    -9081.405   -32355.294   -13008.041    18119.119    8616.1622   -28151.659     -4843.74    78.923479 
   30500     1494.133   -118.05901     1.351923   -116.70708   -17174.836     4.283685     4.283685     4.283685   -17174.836   -30711.484    -38281.67    17468.645    17194.505    24426.593     11731.98    78.605437 
   30600    1838.4149   -118.36131    1.6634365   -116.69787    10348.719    4.2691487    4.2691487    4.2691487    10348.719    62787.677   -12922.233   -18819.287    18412.801    15856.062   -22798.971    77.807928 
   30700    1500.0378   -118.07999    1.3572657   -116.72272   -20377.232    4.2837296    4.2837296    4.2837296   -20377.232   -3610.3711    1554.7729   -59076.096   -4008.0985   -40492.071   -29956.778    78.607892 
   30800    1866.3768   -118.40967     1.688737   -116.72093   -22796.674    4.2876145    4.2876145    4.2876145   -22796.674   -56555.788   -4552.3445    -7281.889    1023.2135   -6100.7909    12513.215    78.821953 
   30900    1898.3353   -118.42988    1.7176537   -116.71223   -8898.5721    4.2794973    4.2794973    4.2794973   -8898.5721    21639.538   -63425.609    15090.354    5681.9369    27884.743     4987.944     78.37513 
   31000    1341.5876   -117.93236    1.2138966   -116.71847   -4290.0752    4.2853656    4.2853656    4.2853656   -4290.0752    37540.935   -34951.313   -15459.848    -10438.73   -21648.301   -31259.467    78.697989 
   31100     1668.274   -118.22036    1.5094894   -116.71087   -11541.477    4.2875484    4.2875484    4.2875484   -11541.477   -31193.473    22294.888   -25725.846   -3655.5512   -16492.003   -2552.5805    78.818308 
   31200    1796.6906   -118.33492    1.6256834   -116.70923    25157.006    4.2832616    4.2832616    4.2832616    25157.006    11377.314    56887.241    7206.4637   -9268.0665      17801.7    10685.296    78.582132 
   31300    2189.5766   -118.68552    1.9811749   -116.70434    7543.6013    4.2946124    4.2946124    4.2946124    7543.6013    10867.229    1123.4862    10640.088   -10257.294   -12753.472   -11376.688    79.208523 
   31400    2136.8831   -118.62357    1.9334967   -116.69007   -30434.096    4.3054877    4.3054877    4.3054877   -30434.096   -54616.171   -22935.181   -13750.937   -5738.3936   -17090.928   -1868.0051    79.811792 
   31500    1020.0561   -117.60854   0.92296818   -116.68557     32684.91    4.2905842    4.2905842    4.2905842     32684.91    2737.7379    68407.949    26909.044     224.8963     5883.969    24988.856     78.98585 
   31600    1588.0735   -118.10931    1.4369223   -116.67239    11430.404    4.2921633    4.2921633    4.2921633    11430.404    5403.6726    49902.598    -21015.06    7244.1856   -18916.005    3108.8662    79.073091 
   31700    1667.0471   -118.18503    1.5083792   -116.67665   -46005.344    4.3164957    4.3164957    4.3164957   -46005.344    7060.9582   -46106.213   -98970.777    2781.7471    6379.2628    5617.2967     80.42553 
   31800    1511.7874   -118.02291     1.367897   -116.65501   -5979.6552    4.3119739    4.3119739    4.3119739   -5979.6552    47488.091    2567.3791   -67994.435   -15694.348    21212.896    3924.9429    80.173043 
   31900    2598.3374   -118.99367    2.3510303   -116.64264   -26764.758    4.2996795    4.2996795    4.2996795   -26764.758   -21812.616   -37938.147   -20543.511    20685.932    -1562.744   -17760.469    79.489224 
   32000    1677.0261     -118.193    1.5174084   -116.67559   -48401.457    4.2971648    4.2971648    4.2971648   -48401.457   -47710.077   -59314.334    -38179.96    6780.5103    15352.039    15159.192    79.349837 
   32100    1192.3745   -117.77005    1.0788855   -116.69117    2234.3727    4.2701594    4.2701594    4.2701594    2234.3727    51003.463   -3675.8495   -40624.495   -13963.612    33174.399    16684.597    77.863203 
   32200    1853.4039   -118.39911    1.6769988   -116.72211    22291.941    4.2776966    4.2776966    4.2776966    22291.941    24277.272   -2292.8778    44891.429    2477.2828    681.51792   -5501.0668    78.276237 
   32300    1720.9743   -118.29253    1.5571737   -116.73536   -23271.651    4.2971266    4.2971266    4.2971266   -23271.651   -12045.566   -19059.501   -38709.885   -11883.654   -6753.2407    26398.205    79.347717 
   32400    1498.7866   -118.07798    1.3561336   -116.72184    41859.076    4.2728822    4.2728822    4.2728822    41859.076    76687.975    32996.804     15892.45    4031.9188    31899.701    24484.408    78.012241 
   32500    2052.4872     -118.587    1.8571335   -116.72987   -4027.1994    4.2783359    4.2783359    4.2783359   -4027.1994   -15319.883   -11906.034    15144.319    10423.539   -16723.678    2687.1492    78.311335 
   32600    1445.7405   -118.02817    1.3081364   -116.72003   -8378.5082    4.2926561    4.2926561    4.2926561   -8378.5082   -18742.062   -11067.594    4674.1315    -9989.825    4263.1654     6862.411    79.100328 
   32700     726.7673   -117.37642   0.65759433   -116.71883    15595.632    4.3076024    4.3076024    4.3076024    15595.632   -24703.709    25919.884    45570.721    8892.1118    15209.439    41613.892    79.929454 
   32800    2056.5646   -118.53879    1.8608228   -116.67797   -25380.623    4.3154385    4.3154385    4.3154385   -25380.623   -4513.5229   -14988.349   -56639.998     8856.649   -14864.245   -20049.462    80.366451 
   32900    2059.5967   -118.52019    1.8635663   -116.65662    25770.313    4.2977149    4.2977149    4.2977149    25770.313    34111.322    41269.784    1929.8317   -34627.935    4713.1598    672.49359    79.380311 
   33000    1575.9713   -118.08369     1.425972   -116.65772    42536.856    4.2892119    4.2892119    4.2892119    42536.856    54569.244    54612.847    18428.476   -15238.193    4611.4695    17951.511    78.910085 
   33100     1737.385   -118.24573    1.5720225   -116.67371   -35551.744    4.3060946    4.3060946    4.3060946   -35551.744   -52820.545   -14493.374   -39341.314    14505.275   -9758.4848   -17711.104    79.845547 
   33200    1108.2301   -117.67722    1.0027499   -116.67447   -43469.401    4.3194603    4.3194603    4.3194603   -43469.401   -70168.194   -56842.117   -3397.8913   -9191.2279    12101.179    20328.579    80.591356 
   33300    1895.0189    -118.3624    1.7146529   -116.64775   -9983.1397    4.3009963    4.3009963    4.3009963   -9983.1397    26643.818   -22390.334   -34202.903   -20557.226    20962.997     23922.21    79.562279 
   33400    1490.6949   -118.02184    1.3488121   -116.67302    26992.091    4.2908027    4.2908027    4.2908027    26992.091     51980.27    7788.1616    21207.841    16979.929    -2358.277   -4156.6414    78.997914 
   33500    1397.1766   -117.95514    1.2641947   -116.69095    6589.8278    4.3006763    4.3006763    4.3006763    6589.8278    62352.216   -25070.715   -17512.017    480.39428   -596.84227    13885.924    79.544523 
   33600    2203.4844     -118.683     1.993759   -116.68924   -25331.271    4.3056082    4.3056082    4.3056082   -25331.271   -18586.292   -15274.541   -42132.979   -11583.666    8029.1193    11827.301    79.818495 
   33700    1386.6272   -117.94587    1.2546494   -116.69122   -10349.988     4.306536     4.306536     4.306536   -10349.988   -50921.608   -39824.295    59695.938     5935.195   -5716.0444    9371.2879    79.870105 
   33800    1215.3182   -117.79146    1.0996454   -116.69181    22188.131    4.3068453    4.3068453    4.3068453    22188.131    12725.168   -10652.103    64491.328    3545.5625   -26257.498    6401.4373    79.887312 
   33900    2345.2509   -118.79722    2.1220323   -116.67519   -15086.049    4.3024771    4.3024771    4.3024771   -15086.049    -55574.47   -26092.301    36408.625   -1681.7021   -11590.935   -16173.885    79.644482 
   34000    1849.2271   -118.35926    1.6732195   -116.68604    6412.9199    4.2839105    4.2839105    4.2839105    6412.9199   -29540.258    41693.118    7085.8989    31057.357   -3007.2502   -4027.1329    78.617853 
   34100    932.06036   -117.55985    0.8433478   -116.71651   -15168.762     4.281443     4.281443     4.281443   -15168.762   -66261.768   -19674.157     40429.64    7836.9402    13406.501   -6930.9459    78.482078 
   34200    1639.5198   -118.20731     1.483472   -116.72383   -23243.238    4.2786406    4.2786406    4.2786406   -23243.238   -45255.153   -22784.039   -1690.5215   -22013.242    3763.5863    5523.5316    78.328072 
   34300    2298.1756    -118.8222    2.0794376   -116.74276    2727.1565     4.286162     4.286162     4.286162    2727.1565    25896.814    -5765.544     -11949.8   -6052.9059    1017.9423   -12220.379    78.741875 
   34400    2054.6527   -118.59394    1.8590929   -116.73485    -26930.08    4.2984162    4.2984162    4.2984162    -26930.08   -51428.901   -54507.474    25146.135    9296.6434   -7724.6041    6263.4438    79.419176 
   34500    1180.6798     -117.787    1.0683039    -116.7187    27654.761    4.2750016    4.2750016    4.2750016    27654.761   -56805.358    81440.714    58328.927   -31212.171    8246.1801    24471.736    78.128387 
   34600     1182.323   -117.80252    1.0697907   -116.73273    31604.883    4.2677682    4.2677682    4.2677682    31604.883   -9403.3593    85269.534    18948.473    -17460.32    7428.7966    5761.0502    77.732471 
   34700    1903.7044   -118.46379    1.7225118   -116.74128    6517.9252    4.2784215    4.2784215    4.2784215    6517.9252   -34290.463    68938.046   -15093.807    7980.5549    -7208.445   -6015.6836    78.316038 
   34800    2306.5834   -118.82848    2.0870452   -116.74143    4613.4941    4.2838615    4.2838615    4.2838615    4613.4941   -17425.258    49939.925   -18674.184    -2815.434   -7947.4163   -22491.205    78.615154 
   34900    1975.2335   -118.53009    1.7872328   -116.74286   -24573.638    4.2903661    4.2903661    4.2903661   -24573.638   -13526.178   -34795.099   -25399.637   -20605.964    1065.1834   -518.67064    78.973803 
   35000    1296.2679   -117.91862    1.1728904   -116.74573    5902.1366     4.269894     4.269894     4.269894    5902.1366   -32998.799    52633.016    -1927.807   -7635.2277    7845.4853   -3090.6678    77.848688 
   35100    922.80502   -117.58051   0.83497338   -116.74554    20787.378    4.2583182    4.2583182    4.2583182    20787.378   -39132.095    48107.828      53386.4    8399.2659   -7774.0852   -38008.858    77.217252 
   35200    1465.1122   -118.09197    1.3256643    -116.7663   -15369.084    4.2807155    4.2807155    4.2807155   -15369.084   -25535.534   -34568.735    13997.018   -13169.045   -6054.2722   -12223.989    78.442077 
[...]
   91200    1435.8578   -118.00079    1.2991943    -116.7016     21666.41    4.2872112    4.2872112    4.2872112     21666.41    56578.647    25690.644   -17270.063   -8081.1459    17911.762   -33619.867    78.799712 
   91300    2002.7887   -118.50641    1.8121653   -116.69425   -21473.474    4.2953379    4.2953379    4.2953379   -21473.474    29293.434   -43801.098   -49912.758    8789.4501    5990.6541   -36570.545    79.248673 
   91400    2050.3972   -118.52962    1.8552425   -116.67437   -24545.215    4.2893883    4.2893883    4.2893883   -24545.215   -16299.583   -41250.888   -16085.174    1279.2104   -17417.588    15374.015     78.91982 
   91500    786.63155   -117.41803   0.71176076   -116.70627    10759.573    4.2850646    4.2850646    4.2850646    10759.573    32566.162    805.57097   -1093.0132    20794.254    28776.049   -57702.747    78.681409 
   91600     2080.249   -118.59122     1.882253   -116.70896   -16261.985    4.2833397    4.2833397    4.2833397   -16261.985   -6654.5013   -16171.171   -25960.284    2149.7813    9296.2724   -24548.062    78.586428 
   91700    2371.5918   -118.85202    2.1458661   -116.70616    25684.144    4.2854792    4.2854792    4.2854792    25684.144     23363.33     40048.56    13640.542   -273.42928    11768.795     17947.83     78.70425 
   91800    1135.1231    -117.7485    1.0270832   -116.72142   -20467.611    4.3013204    4.3013204    4.3013204   -20467.611    11488.041   -12117.664    -60773.21    8889.9869    6730.4451   -46938.046    79.580267 
   91900    1288.3215   -117.86401    1.1657003   -116.69831   -42138.117    4.2971307    4.2971307    4.2971307   -42138.117     -23380.7   -51476.828   -51556.822    10755.598   -1616.2274   -20359.903    79.347946 
   92000    2158.6048   -118.63087     1.953151   -116.67771    7721.0957    4.2775203    4.2775203    4.2775203    7721.0957     18217.72   -16621.707    21567.274    6707.5036    1056.8818    2665.9244    78.266559 
   92100    1902.0745   -118.42875     1.721037   -116.70771    11359.875    4.2837464    4.2837464    4.2837464    11359.875    58033.255   -45748.625    21794.994   -16681.441   -3532.7433   -33292.891    78.608818 
   92200    2318.5469   -118.80044      2.09787   -116.70257   -26889.696    4.3051008    4.3051008    4.3051008   -26889.696    40855.229   -63879.829   -57644.489    9096.0626    8126.7785    4795.1486    79.790279 
   92300    998.20979   -117.59758   0.90320119   -116.69438    17013.663      4.30513      4.30513      4.30513    17013.663   -1819.1492    4377.6066     48482.53   -6125.7932     11296.55    4531.7951      79.7919 
   92400    1171.5968    -117.7285    1.0600854   -116.66841   -2632.6478    4.2889282    4.2889282    4.2889282   -2632.6478    1197.5411   -39109.769    30014.284   -26254.003   -1381.0502    3903.0757    78.894429 
   92500    2230.4785   -118.68725    2.0181838   -116.66907   -23586.966    4.2931467    4.2931467    4.2931467   -23586.966   -65189.646    20261.186   -25832.437   -4550.7868    13562.652    7829.2627    79.127452 
   92600    1409.4963   -117.96849    1.2753419   -116.69314     22673.19    4.3142287    4.3142287    4.3142287     22673.19     -49616.4    76083.626    41552.343   -5002.9344    5381.8912   -25250.707    80.298879 
   92700    2033.4064    -118.4892    1.8398688   -116.64933   -28313.311    4.3255621    4.3255621    4.3255621   -28313.311   -54747.038   -1236.6082   -28956.288   -20305.159   -8432.7732   -10429.582    80.933373 
   92800    2030.4292   -118.45498     1.837175   -116.61781   -27204.179    4.3085599    4.3085599    4.3085599   -27204.179     -42012.2   -16350.317    -23250.02    8288.7385    29693.818     3359.092    79.982761 
   92900      1175.84   -117.68943    1.0639247    -116.6255    56780.288    4.2827833    4.2827833    4.2827833    56780.288    44621.029    44899.053     80820.78   -937.20257     9347.891    -28820.49    78.555806 
   93000    1941.5295    -118.4186    1.7567367   -116.66186    21889.124      4.28837      4.28837      4.28837    21889.124    13887.424    367.32997    51412.619   -16873.247   -1398.3272    1051.7223    78.863626 
   93100    2099.6636   -118.57693    1.8998198   -116.67711   -5394.1241    4.3019119    4.3019119    4.3019119   -5394.1241   -3566.1151    9606.0654   -22222.323    19409.962    14786.435    6011.1798    79.613099 
   93200    988.89961    -117.5822   0.89477715   -116.68742    41330.782    4.3020929    4.3020929    4.3020929    41330.782    49827.677    69113.386     5051.282    2399.3721   -2312.4354   -13708.383    79.623148 
   93300    1453.6069   -118.00309    1.3152541   -116.68784   -8368.5755    4.2948436    4.2948436    4.2948436   -8368.5755   -23526.703    21394.711   -22973.735   -15312.635   -6541.4199     995.3512    79.221318 
   93400    2265.1325   -118.73049    2.0495395   -116.68095    1303.4498    4.2816704    4.2816704    4.2816704    1303.4498     6822.655   -7163.4805    4251.1748   -3122.0281   -5262.5134    1729.3809    78.494587 
   93500    1924.7123   -118.44744    1.7415201   -116.70592    14256.852     4.286311     4.286311     4.286311    14256.852    34079.412   -42545.341    51236.484    2851.6989   -19989.765   -32709.716    78.750086 
   93600    1121.1822   -117.72296    1.0144692   -116.70849   -1623.5796    4.2969017    4.2969017    4.2969017   -1623.5796   -30540.617   -69339.035    95008.912   -5358.2615    5446.3718    1341.9121    79.335264 
   93700    1672.4498   -118.19741    1.5132677   -116.68414    -20529.94    4.3021805    4.3021805    4.3021805    -20529.94   -64592.815   -11224.815     14227.81    5400.4483    1767.3171    22996.223    79.628013 
   93800    1480.1517   -118.01931    1.3392723   -116.68003   -14511.364    4.3056881    4.3056881    4.3056881   -14511.364   -30965.614    27678.737   -40247.216   -22640.374    8182.5664    2019.8171    79.822936 
   93900    1421.3905   -117.96009     1.286104   -116.67398    35160.045    4.2983959    4.2983959    4.2983959    35160.045    15967.636    63583.217    25929.282    2206.9265     -4370.69   -24912.557    79.418052 
   94000    2285.5269   -118.73894    2.0679928   -116.67095   -18312.795    4.2965267    4.2965267    4.2965267   -18312.795    8688.2845   -15519.747   -48106.922    23337.909    12333.799    15915.407     79.31449 
   94100    1094.6875   -117.68914   0.99049622   -116.69864    11789.027    4.2880278    4.2880278    4.2880278    11789.027    76263.277   -6170.6288   -34725.568   -4383.0663   -2398.4142    40589.877    78.844748 
   94200    1695.7596   -118.22809    1.5343589   -116.69374    15399.267    4.2727304    4.2727304    4.2727304    15399.267    10466.522    28823.857    6907.4218   -34865.488    377.20187   -255.76427    78.003928 
   94300    2292.0029    -118.7862    2.0738524   -116.71235   -20627.135    4.2780492    4.2780492    4.2780492   -20627.135   -55564.285    30069.489    -36386.61    18235.712    5246.4428    13151.643    78.295592 
   94400    1347.7934   -117.94808    1.2195118   -116.72857    16645.038    4.2747158    4.2747158    4.2747158    16645.038    10454.591    54738.444   -15257.921    3396.5727    933.93589    36248.284    78.112719 
   94500    1299.1726   -117.91836    1.1755187   -116.74284   -20697.111    4.2849528    4.2849528    4.2849528   -20697.111    38120.227   -92328.659   -7882.9023   -50401.791    11767.133    6357.2494    78.675247 
   94600    2494.6575   -118.97186    2.2572185   -116.71465    -43317.58     4.293049     4.293049     4.293049    -43317.58   -27341.217   -55987.609   -46623.913   -6398.3829   -15867.603   -21159.418    79.122052 
   94700    1855.0103     -118.387    1.6784523   -116.70855    10144.889    4.2822073    4.2822073    4.2822073    10144.889    2397.2174     -7910.32    35947.769      14224.4   -5014.2749   -4122.3777    78.524115 
   94800     1157.895   -117.76475    1.0476877   -116.71707    10441.534    4.2755117    4.2755117    4.2755117    10441.534    16289.781   -1422.2788      16457.1   -37812.759    7784.0284     25988.55    78.156355 
   94900    1503.1783   -118.07549    1.3601073   -116.71539   -1899.8856    4.2747388    4.2747388    4.2747388   -1899.8856   -22528.932    29055.874   -12226.599    -18504.43   -9438.3446   -3490.8733    78.113979 
   95000    2177.2769   -118.68885    1.9700459   -116.71881   -13736.373    4.2792312    4.2792312    4.2792312   -13736.373    1679.7806   -6555.3081   -36333.592    21394.445   -8454.1665   -7389.2304    78.360511 
   95100    1718.7861   -118.28712    1.5551938   -116.73193   -6312.5249    4.2868713    4.2868713    4.2868713   -6312.5249   -2770.4608    11605.936    -27773.05   -21992.226   -1874.6631    10002.657     78.78097 
   95200    1623.2478   -118.20219    1.4687487   -116.73344   -9710.8331    4.2831726    4.2831726    4.2831726   -9710.8331   -17950.112    811.19923   -11993.587     -25578.5    5617.7858    38249.973    78.577234 
   95300     1370.813   -117.96497    1.2403404   -116.72463    7965.7201    4.2786827    4.2786827    4.2786827    7965.7201   -21945.959    56276.544   -10433.424    -10607.32   -19088.359    -7898.087    78.330379 
   95400    1518.7399   -118.09693    1.3741878   -116.72274    5541.5283     4.290055     4.290055     4.290055    5541.5283   -40175.376    6057.9536    50742.008   -2204.5405   -8006.4004   -25539.651    78.956623 
   95500    1893.9543   -118.41348    1.7136897   -116.69979   -28973.457     4.308342     4.308342     4.308342   -28973.457   -16651.239   -43264.084   -27005.049   -3360.4163    14285.536     23664.48    79.970628 
   95600    1392.3798   -117.94343    1.2598545   -116.68358    23633.616    4.3025769    4.3025769    4.3025769    23633.616    17126.527    41494.755    12279.565   -3482.8459   -31708.345   -1626.5484    79.650025 
   95700    2273.8883   -118.72392    2.0574619   -116.66646   -34591.982    4.3018579    4.3018579    4.3018579   -34591.982   -43570.645   -24163.955   -36041.346    19195.385   -20550.015   -11566.744      79.6101 
   95800    1959.6478   -118.42823    1.7731305    -116.6551   -7355.2143    4.2879904    4.2879904    4.2879904   -7355.2143    -51922.53    7002.1883    22854.698    22998.169    41123.685    15476.883    78.842684 
   95900    1121.1829   -117.69739    1.0144698   -116.68292    22060.147    4.2841203    4.2841203    4.2841203    22060.147    7055.4623    67503.273   -8378.2933   -2980.0184   -6927.4975    16079.374    78.629399 
   96000    1793.3906   -118.30523    1.6226975   -116.68253   -26548.971    4.3134703    4.3134703    4.3134703   -26548.971   -17248.091    34488.674   -96887.498   -84.296203   -30958.186   -5675.5964     80.25654 
   96100    2213.6432   -118.64712    2.0029509   -116.64417   -52255.148    4.3198081    4.3198081    4.3198081   -52255.148    -41778.03   -47747.975   -67239.439    972.45433    11807.951    7816.6697    80.610824 
   96200    1146.2462   -117.68282    1.0371476   -116.64568    51981.066     4.291951     4.291951     4.291951    51981.066    34067.154    82728.655     39147.39   -21700.384   -6231.7219     7641.016     79.06136 
   96300    1608.7125   -118.10742    1.4555968   -116.65182    19607.685      4.28742      4.28742      4.28742    19607.685    30000.868    28234.332    587.85478   -12744.255   -7903.9924    8445.2286    78.811229 
   96400    1825.9818   -118.32933    1.6521867   -116.67715   -29515.821    4.3002699    4.3002699    4.3002699   -29515.821   -15717.521   -53952.794   -18877.148    7731.5262   -762.13761    16647.017     79.52197 
   96500    1627.0986   -118.15342     1.472233   -116.68119    14978.075    4.2988711    4.2988711    4.2988711    14978.075    5585.4332   -17210.865    56559.658    5900.7474    -1428.619    3781.4522    79.444397 
   96600    1947.2502   -118.44273    1.7619129   -116.68082   -922.31611    4.3049584    4.3049584    4.3049584   -922.31611    8152.6619   -2321.9425   -8597.6678   -17273.635   -4426.3602   -6343.7909     79.78236 
   96700    2177.7148   -118.64964    1.9704421    -116.6792   -16485.065    4.2926184    4.2926184    4.2926184   -16485.065    38442.552   -53318.375   -34579.372    15698.742    18956.799    31972.765    79.098246 
   96800    1465.9349   -118.01201    1.3264087   -116.68561    12982.162    4.2718978    4.2718978    4.2718978    12982.162    14177.056   -24885.332    49654.762    10803.885    1793.5292    670.77384    77.958337 
   96900    1287.7951   -117.88447    1.1652241   -116.71924    4539.7754    4.2833928    4.2833928    4.2833928    4539.7754   -19250.388    10923.994     21945.72   -6970.9442    1350.4966   -43406.634    78.589351 
   97000    1720.0001   -118.26446    1.5562922   -116.70817    3357.1703    4.2959251    4.2959251    4.2959251    3357.1703   -6947.1261    18470.986   -1452.3485    3813.6632    9636.6539    9827.6019    79.281177 
   97100    1834.4587   -118.36409    1.6598568   -116.70423   -4799.4324    4.2914361    4.2914361    4.2914361   -4799.4324   -32235.124   -41489.269    59326.096    866.16074   -1091.6078    7470.0573    79.032904 
   97200    1934.4166   -118.45582    1.7503008   -116.70552    12071.964      4.27205      4.27205      4.27205    12071.964    38919.871   -49420.312    46716.332   -13498.201     4130.109   -16089.144     77.96667 
   97300    1990.1007   -118.51599    1.8006849   -116.71531    7756.9402    4.2694769    4.2694769    4.2694769    7756.9402   -8943.4326    10660.588    21553.665    4931.9814   -3239.9486   -12521.411    77.825873 
   97400    1223.3032   -117.84659    1.1068704   -116.73972   -13078.043    4.2851463    4.2851463    4.2851463   -13078.043     -93660.7     9145.381    45281.191     315.3436    8291.5276    18881.658    78.685906 
   97500    1185.9132   -117.80175    1.0730392   -116.72871   -37354.935     4.296709     4.296709     4.296709   -37354.935   -67918.286   -12276.289   -31870.231    11116.582    5268.4588   -15667.512    79.324591 
   97600    2406.4372   -118.87043     2.177395   -116.69304   -18620.975     4.286489     4.286489     4.286489   -18620.975   -26939.734    9466.9448   -38390.136   -7804.4311   -35312.589    -21148.88    78.759895 
   97700    1705.5268   -118.24613    1.5431965   -116.70293   -9946.6545    4.2873594    4.2873594    4.2873594   -9946.6545    12884.571   -11582.421   -31142.114   -9522.7466   -2834.0782    28785.003    78.807885 
   97800    1468.3442   -118.03968    1.3285887   -116.71109   -26176.169    4.2852387    4.2852387    4.2852387   -26176.169   -13254.327   -33333.142   -31941.039    24649.421    8653.8867    11039.148    78.690998 
   97900     1796.841   -118.32779    1.6258195   -116.70198     19912.86    4.2717576    4.2717576    4.2717576     19912.86   -28573.719    41362.669    46949.629    3847.8396   -12913.049   -9859.0435    77.950663 
   98000    1561.8565   -118.14362    1.4132005   -116.73042   -14289.913    4.2897875    4.2897875    4.2897875   -14289.913   -42599.331   -14636.636    14366.227   -11792.225   -23269.154      21520.9    78.941857 
   98100    2025.6185   -118.54781    1.8328222   -116.71499   -8764.9541    4.2934877    4.2934877    4.2934877   -8764.9541   -14375.822   -8153.6602   -3765.3795    4534.1043    16472.412    1679.8903    79.146311 
   98200    2107.8923    -118.6069    1.9072652   -116.69964    20017.258    4.2743899    4.2743899    4.2743899    20017.258    1667.8248    13057.115    45326.833     3234.689   -14362.752   -5315.8751    78.094849 
   98300    1473.3418   -118.05878    1.3331106   -116.72567   -2069.2822    4.2871148    4.2871148    4.2871148   -2069.2822   -24857.001    31993.981   -13344.827   -1685.9654   -26416.725    2024.2085    78.794398 
   98400    1520.0555   -118.07591    1.3753782   -116.70053   -29732.082    4.3116449    4.3116449    4.3116449   -29732.082   -40407.355   -37164.861   -11624.031    8566.6663    13920.984   -8983.2958    80.154692 
   98500    790.10606   -117.39219   0.71490457   -116.67729    11840.832    4.3080108    4.3080108    4.3080108    11840.832    16928.842    37284.359   -18690.704     24065.45   -31456.802    9170.9136    79.952187 
   98600    1827.2971   -118.32045    1.6533768   -116.66707     -4396.97    4.2893903    4.2893903    4.2893903     -4396.97   -31696.939    39035.345   -20529.316   -7451.4936   -37962.951   -16261.389    78.919931 
   98700    2553.1943   -118.97839    2.3101839   -116.66821    1592.0858     4.282517     4.282517     4.282517    1592.0858    20516.096   -33462.598    17722.759    12770.492     22735.07     3613.396    78.541154 
   98800    1648.2693   -118.20962    1.4913887   -116.71823    22984.212    4.2981432    4.2981432    4.2981432    22984.212   -9039.5677    15202.007    62790.196    1881.4155    3732.7806    22807.324    79.404046 
   98900    1457.6558   -118.02864    1.3189176   -116.70972   -23363.567    4.3259827    4.3259827    4.3259827   -23363.567   -43062.883   -31014.126    3986.3069    -1240.626   -32454.747   -1828.8755    80.956984 
   99000    1946.0502   -118.42071    1.7608271   -116.65988   -45949.508    4.3139269    4.3139269    4.3139269   -45949.508   -70388.519   -25649.359   -41810.646    18284.908    26677.426   -8639.1386     80.28203 
   99100    1174.2353   -117.69933    1.0624728   -116.63686    42914.943    4.2694355    4.2694355    4.2694355    42914.943    16838.959    83702.211    28203.659    20984.188   -18099.771    14200.239    77.823607 
   99200     1531.353   -118.06062    1.3856004   -116.67502    50905.953    4.2681766    4.2681766    4.2681766    50905.953     9973.981    114481.67    28262.206   -21558.223    -23769.01    20265.527     77.75479 
   99300    2235.0914   -118.73144    2.0223577   -116.70908   -6982.6964    4.2992638    4.2992638    4.2992638   -6982.6964    12866.116    1277.7684   -35091.974   -2968.5198    4745.3848   -5289.5006    79.466168 
   99400    1299.5193   -117.88585    1.1758324   -116.71002   -7841.8179    4.3163066    4.3163066    4.3163066   -7841.8179    7085.6699     42673.19   -73284.313    15557.582   -21636.295   -929.91842    80.414963 
   99500    1735.3546   -118.24169    1.5701853    -116.6715   -19146.968    4.3061543    4.3061543    4.3061543   -19146.968   -26353.669    23234.791   -54322.025   -8899.6603   -31402.375    2256.0315    79.848868 
   99600    2338.1086   -118.76839    2.1155698   -116.65282    860.01211    4.2700872    4.2700872    4.2700872    860.01211   -34950.055    44357.026   -6826.9346   -12492.231    20281.402   -4533.5583    77.859253 
   99700    1177.7968   -117.76867    1.0656953   -116.70298    28677.546    4.2617582    4.2617582    4.2617582    28677.546    2120.9631    87745.575   -3833.8999    13378.503   -27698.207    1717.5665    77.404539 
   99800    1308.0624   -117.92588    1.1835623   -116.74232   -14804.756    4.2896404    4.2896404    4.2896404   -14804.756    -14838.13    29979.529   -59555.666     27472.12   -36047.333   -7429.7132    78.933734 
   99900    1997.4616   -118.52272    1.8073452   -116.71537   -26326.568    4.3005451    4.3005451    4.3005451   -26326.568   -20907.356   -9123.3122   -48949.036   -8735.0491    2586.6332   -14629.802    79.537241 
  100000    2078.5347   -118.57055    1.8807019   -116.68984   -20398.056    4.2987062    4.2987062    4.2987062   -20398.056    7998.7861   -40739.919   -28453.036   -17822.165    4444.9553   -4129.3501    79.435257 
Loop time of 222.179 on 1 procs for 100000 steps with 8 atoms

Pair  time (%) = 76.2302 (34.3103)
Kspce time (%) = 53.4445 (24.0547)
Neigh time (%) = 1.4575 (0.656002)
Comm  time (%) = 10.4894 (4.72114)
Outpt time (%) = 0.374857 (0.168719)
Other time (%) = 80.1823 (36.0891)

Nlocal:    8 ave 8 max 8 min
Histogram: 1 0 0 0 0 0 0 0 0 0
Nghost:    2147 ave 2147 max 2147 min
Histogram: 1 0 0 0 0 0 0 0 0 0
Neighs:    2244 ave 2244 max 2244 min
Histogram: 1 0 0 0 0 0 0 0 0 0

Total # of neighbors = 2244
Ave neighs/atom = 280.5
Neighbor list builds = 1783
Dangerous builds = 0
seeds:779599
