   4   4   0   0
  0.1079242E+02  0.3508000E-09  0.3508000E-09  0.3508000E-09  0.5000000E-15
  1.000000000000000E-004
  CAR 
 automatically generated by pyflamestk   
     33.69489070     -0.88008845  301      9.52892200      1.00000000
     -0.880  0.0000E+00  0.0000E+00  0.0000E+00  0.0000E+00
     -0.765  0.0000E+00  0.0000E+00  0.0000E+00  0.0000E+00
     -0.650  0.0000E+00  0.0000E+00  0.0000E+00  0.0000E+00
     -0.534 -0.1228E-30 -0.1229E-30 -0.1415E-31 -0.1416E-31
     -0.419 -0.1131E-26 -0.1132E-26 -0.1304E-27 -0.1305E-27
     -0.304 -0.5334E-23 -0.5337E-23 -0.6149E-24 -0.6153E-24
     -0.189 -0.1286E-19 -0.1287E-19 -0.1483E-20 -0.1484E-20
     -0.073 -0.1583E-16 -0.1584E-16 -0.1826E-17 -0.1827E-17
      0.042 -0.9596E-14 -0.9601E-14 -0.1108E-14 -0.1108E-14
      0.157 -0.3035E-11 -0.3037E-11 -0.3509E-12 -0.3511E-12
      0.272 -0.4844E-09 -0.4846E-09 -0.5618E-10 -0.5620E-10
      0.388 -0.3868E-07 -0.3870E-07 -0.4515E-08 -0.4516E-08
      0.503 -0.1522E-05 -0.1523E-05 -0.1800E-06 -0.1800E-06
      0.618 -0.2862E-04 -0.2863E-04 -0.3479E-05 -0.3479E-05
      0.733 -0.2377E-03 -0.2378E-03 -0.3088E-04 -0.3088E-04
      0.849 -0.6335E-03 -0.6335E-03 -0.1039E-03 -0.1039E-03
      0.964  0.1314E-02  0.1315E-02  0.4760E-04  0.4764E-04
      1.079  0.8574E-02  0.8574E-02  0.1036E-02  0.1036E-02
      1.194  0.1250E-01  0.1250E-01  0.2476E-02  0.2476E-02
      1.310  0.6147E-02  0.6146E-02  0.3184E-02  0.3184E-02
      1.425  0.2054E-03  0.2052E-03  0.3208E-02  0.3208E-02
      1.540 -0.5651E-03 -0.5650E-03  0.3143E-02  0.3143E-02
      1.655 -0.1405E-03 -0.1405E-03  0.3127E-02  0.3127E-02
      1.771 -0.1313E-04 -0.1313E-04  0.3125E-02  0.3125E-02
      1.886 -0.6176E-06 -0.6174E-06  0.3125E-02  0.3125E-02
      2.001 -0.2576E-05 -0.2575E-05  0.3125E-02  0.3125E-02
      2.116 -0.5490E-04 -0.5489E-04  0.3118E-02  0.3118E-02
      2.232 -0.5297E-03 -0.5297E-03  0.3057E-02  0.3057E-02
      2.347 -0.1821E-02 -0.1821E-02  0.2847E-02  0.2847E-02
      2.462  0.1796E-02  0.1796E-02  0.3054E-02  0.3054E-02
      2.577  0.2148E-01  0.2148E-01  0.5531E-02  0.5530E-02
      2.693  0.3789E-01  0.3789E-01  0.9897E-02  0.9897E-02
      2.808  0.2273E-01  0.2273E-01  0.1252E-01  0.1252E-01
      2.923  0.2359E-02  0.2359E-02  0.1279E-01  0.1279E-01
      3.038 -0.1858E-02 -0.1858E-02  0.1257E-01  0.1257E-01
      3.154 -0.5792E-03 -0.5792E-03  0.1251E-01  0.1251E-01
      3.269 -0.6504E-04 -0.6505E-04  0.1250E-01  0.1250E-01
      3.384 -0.5516E-04 -0.5508E-04  0.1249E-01  0.1249E-01
      3.499 -0.5114E-03 -0.5109E-03  0.1243E-01  0.1243E-01
      3.615 -0.1804E-02 -0.1804E-02  0.1223E-01  0.1223E-01
      3.730  0.1590E-02  0.1585E-02  0.1241E-01  0.1241E-01
      3.845  0.2100E-01  0.2099E-01  0.1483E-01  0.1483E-01
      3.960  0.3786E-01  0.3786E-01  0.1919E-01  0.1919E-01
      4.076  0.2312E-01  0.2314E-01  0.2186E-01  0.2186E-01
      4.191  0.2129E-02  0.2136E-02  0.2210E-01  0.2210E-01
      4.306 -0.2337E-02 -0.2340E-02  0.2183E-01  0.2183E-01
      4.421  0.2626E-02  0.2612E-02  0.2214E-01  0.2214E-01
      4.537  0.9869E-02  0.9857E-02  0.2327E-01  0.2327E-01
      4.652  0.1775E-01  0.1774E-01  0.2532E-01  0.2532E-01
      4.767  0.3307E-01  0.3305E-01  0.2913E-01  0.2913E-01
      4.882  0.3406E-01  0.3408E-01  0.3306E-01  0.3305E-01
      4.998  0.9732E-02  0.9767E-02  0.3418E-01  0.3418E-01
      5.113  0.1461E-03  0.9671E-04  0.3419E-01  0.3419E-01
      5.228  0.3146E-01  0.3130E-01  0.3782E-01  0.3780E-01
      5.343  0.7359E-01  0.7352E-01  0.4630E-01  0.4627E-01
      5.459  0.8775E-01  0.8779E-01  0.5641E-01  0.5639E-01
      5.574  0.8185E-01  0.8193E-01  0.6585E-01  0.6583E-01
      5.689  0.4329E-01  0.4340E-01  0.7084E-01  0.7083E-01
      5.804  0.1992E-01  0.1979E-01  0.7313E-01  0.7311E-01
      5.920  0.7600E-01  0.7569E-01  0.8189E-01  0.8184E-01
      6.035  0.1308E+00  0.1308E+00  0.9697E-01  0.9691E-01
      6.150  0.9209E-01  0.9232E-01  0.1076E+00  0.1076E+00
      6.265  0.6333E-01  0.6319E-01  0.1149E+00  0.1148E+00
      6.381  0.9981E-01  0.9968E-01  0.1264E+00  0.1263E+00
      6.496  0.8510E-01  0.8534E-01  0.1362E+00  0.1362E+00
      6.611  0.5891E-01  0.5892E-01  0.1430E+00  0.1429E+00
      6.726  0.8731E-01  0.8719E-01  0.1530E+00  0.1530E+00
      6.842  0.8668E-01  0.8674E-01  0.1630E+00  0.1630E+00
      6.957  0.6583E-01  0.6579E-01  0.1706E+00  0.1706E+00
      7.072  0.8290E-01  0.8274E-01  0.1802E+00  0.1801E+00
      7.187  0.1250E+00  0.1248E+00  0.1946E+00  0.1945E+00
      7.303  0.1700E+00  0.1699E+00  0.2142E+00  0.2141E+00
      7.418  0.1595E+00  0.1597E+00  0.2325E+00  0.2325E+00
      7.533  0.9721E-01  0.9746E-01  0.2438E+00  0.2437E+00
      7.648  0.8250E-01  0.8232E-01  0.2533E+00  0.2532E+00
      7.764  0.1417E+00  0.1414E+00  0.2696E+00  0.2695E+00
      7.879  0.1972E+00  0.1971E+00  0.2923E+00  0.2922E+00
      7.994  0.1757E+00  0.1760E+00  0.3126E+00  0.3125E+00
      8.109  0.8997E-01  0.9037E-01  0.3229E+00  0.3229E+00
      8.225  0.5008E-01  0.5003E-01  0.3287E+00  0.3287E+00
      8.340  0.9067E-01  0.9044E-01  0.3392E+00  0.3391E+00
      8.455  0.1049E+00  0.1049E+00  0.3512E+00  0.3512E+00
      8.570  0.1181E+00  0.1178E+00  0.3649E+00  0.3648E+00
      8.686  0.1869E+00  0.1866E+00  0.3864E+00  0.3863E+00
      8.801  0.1811E+00  0.1816E+00  0.4073E+00  0.4072E+00
      8.916  0.8240E-01  0.8289E-01  0.4168E+00  0.4167E+00
      9.031  0.4928E-01  0.4907E-01  0.4225E+00  0.4224E+00
      9.147  0.1186E+00  0.1181E+00  0.4361E+00  0.4360E+00
      9.262  0.1690E+00  0.1690E+00  0.4556E+00  0.4555E+00
      9.377  0.1458E+00  0.1459E+00  0.4724E+00  0.4723E+00
      9.492  0.1716E+00  0.1712E+00  0.4922E+00  0.4920E+00
      9.608  0.2172E+00  0.2172E+00  0.5172E+00  0.5171E+00
      9.723  0.1380E+00  0.1388E+00  0.5331E+00  0.5331E+00
      9.838  0.2515E-01  0.2561E-01  0.5360E+00  0.5360E+00
      9.953 -0.9132E-02 -0.9115E-02  0.5350E+00  0.5350E+00
     10.069 -0.4368E-02 -0.4407E-02  0.5345E+00  0.5345E+00
     10.184 -0.6452E-03 -0.6543E-03  0.5344E+00  0.5344E+00
     10.299 -0.4275E-04 -0.4353E-04  0.5344E+00  0.5344E+00
     10.414 -0.2536E-05 -0.2549E-05  0.5344E+00  0.5344E+00
     10.530 -0.3649E-04 -0.3603E-04  0.5344E+00  0.5344E+00
     10.645 -0.5381E-03 -0.5330E-03  0.5343E+00  0.5343E+00
     10.760 -0.3345E-02 -0.3327E-02  0.5339E+00  0.5339E+00
     10.875 -0.4598E-02 -0.4630E-02  0.5334E+00  0.5334E+00
     10.991  0.2743E-01  0.2719E-01  0.5366E+00  0.5365E+00
     11.106  0.9671E-01  0.9648E-01  0.5477E+00  0.5476E+00
     11.221  0.1023E+00  0.1025E+00  0.5595E+00  0.5595E+00
     11.336  0.3419E-01  0.3445E-01  0.5634E+00  0.5634E+00
     11.452 -0.3546E-02 -0.3500E-02  0.5630E+00  0.5630E+00
     11.567 -0.3820E-02 -0.3838E-02  0.5626E+00  0.5626E+00
     11.682 -0.6867E-03 -0.6926E-03  0.5625E+00  0.5625E+00
     11.797 -0.7529E-04 -0.7574E-04  0.5625E+00  0.5625E+00
     11.913 -0.3036E-03 -0.3024E-03  0.5625E+00  0.5625E+00
     12.028 -0.1472E-02 -0.1469E-02  0.5623E+00  0.5623E+00
     12.143 -0.5696E-03 -0.5817E-03  0.5622E+00  0.5622E+00
     12.258  0.1441E-01  0.1436E-01  0.5639E+00  0.5639E+00
     12.374  0.3604E-01  0.3602E-01  0.5680E+00  0.5680E+00
     12.489  0.2955E-01  0.2960E-01  0.5714E+00  0.5714E+00
     12.604  0.6581E-02  0.6617E-02  0.5722E+00  0.5722E+00
     12.719 -0.1808E-02 -0.1805E-02  0.5720E+00  0.5720E+00
     12.835 -0.9344E-03 -0.9371E-03  0.5719E+00  0.5719E+00
     12.950 -0.2910E-03 -0.2907E-03  0.5719E+00  0.5719E+00
     13.065 -0.1062E-02 -0.1058E-02  0.5717E+00  0.5717E+00
     13.180 -0.1654E-02 -0.1659E-02  0.5715E+00  0.5715E+00
     13.296  0.8302E-02  0.8249E-02  0.5725E+00  0.5725E+00
     13.411  0.3150E-01  0.3145E-01  0.5761E+00  0.5761E+00
     13.526  0.3480E-01  0.3485E-01  0.5801E+00  0.5801E+00
     13.641  0.1226E-01  0.1232E-01  0.5816E+00  0.5816E+00
     13.757 -0.1045E-02 -0.1033E-02  0.5814E+00  0.5814E+00
     13.872 -0.1334E-02 -0.1339E-02  0.5813E+00  0.5813E+00
     13.987 -0.2485E-03 -0.2499E-03  0.5813E+00  0.5813E+00
     14.102 -0.4861E-04 -0.4856E-04  0.5812E+00  0.5812E+00
     14.218 -0.4208E-03 -0.4186E-03  0.5812E+00  0.5812E+00
     14.333 -0.2446E-02 -0.2440E-02  0.5809E+00  0.5809E+00
     14.448 -0.2674E-02 -0.2689E-02  0.5806E+00  0.5806E+00
     14.563  0.2127E-01  0.2118E-01  0.5831E+00  0.5830E+00
     14.679  0.6725E-01  0.6717E-01  0.5908E+00  0.5908E+00
     14.794  0.6583E-01  0.6591E-01  0.5984E+00  0.5984E+00
     14.909  0.1958E-01  0.1967E-01  0.6007E+00  0.6007E+00
     15.024 -0.2932E-02 -0.2919E-02  0.6003E+00  0.6003E+00
     15.140 -0.2326E-02 -0.2333E-02  0.6000E+00  0.6000E+00
     15.255 -0.3835E-03 -0.3855E-03  0.6000E+00  0.6000E+00
     15.370 -0.2644E-04 -0.2662E-04  0.6000E+00  0.6000E+00
     15.485 -0.8584E-06 -0.8657E-06  0.6000E+00  0.6000E+00
     15.601 -0.2316E-06 -0.2292E-06  0.6000E+00  0.6000E+00
     15.716 -0.7653E-05 -0.7581E-05  0.6000E+00  0.6000E+00
     15.831 -0.1273E-03 -0.1264E-03  0.6000E+00  0.6000E+00
     15.946 -0.9144E-03 -0.9104E-03  0.5999E+00  0.5999E+00
     16.062 -0.1816E-02 -0.1819E-02  0.5997E+00  0.5997E+00
     16.177  0.6458E-02  0.6407E-02  0.6004E+00  0.6004E+00
     16.292  0.2940E-01  0.2933E-01  0.6038E+00  0.6038E+00
     16.407  0.3610E-01  0.3613E-01  0.6080E+00  0.6080E+00
     16.523  0.1429E-01  0.1436E-01  0.6096E+00  0.6096E+00
     16.638 -0.1954E-02 -0.1933E-02  0.6094E+00  0.6094E+00
     16.753 -0.2230E-02 -0.2246E-02  0.6091E+00  0.6091E+00
     16.868  0.1335E-01  0.1330E-01  0.6107E+00  0.6107E+00
     16.984  0.3562E-01  0.3559E-01  0.6148E+00  0.6148E+00
     17.099  0.3024E-01  0.3029E-01  0.6183E+00  0.6183E+00
     17.214  0.7153E-02  0.7195E-02  0.6191E+00  0.6191E+00
     17.329 -0.1767E-02 -0.1763E-02  0.6189E+00  0.6189E+00
     17.445 -0.1036E-02 -0.1039E-02  0.6188E+00  0.6188E+00
     17.560 -0.8992E-03 -0.8974E-03  0.6187E+00  0.6187E+00
     17.675 -0.3265E-02 -0.3261E-02  0.6183E+00  0.6183E+00
     17.790  0.3688E-03  0.3426E-03  0.6183E+00  0.6183E+00
     17.906  0.3425E-01  0.3416E-01  0.6223E+00  0.6223E+00
     18.021  0.7426E-01  0.7424E-01  0.6308E+00  0.6308E+00
     18.136  0.5398E-01  0.5406E-01  0.6370E+00  0.6370E+00
     18.251  0.9433E-02  0.9486E-02  0.6381E+00  0.6381E+00
     18.367 -0.4021E-02 -0.4019E-02  0.6377E+00  0.6377E+00
     18.482 -0.2188E-02 -0.2193E-02  0.6374E+00  0.6374E+00
     18.597  0.1101E-02  0.1090E-02  0.6375E+00  0.6375E+00
     18.712  0.8534E-02  0.8516E-02  0.6385E+00  0.6385E+00
     18.828  0.1250E-01  0.1251E-01  0.6400E+00  0.6400E+00
     18.943  0.6177E-02  0.6195E-02  0.6407E+00  0.6407E+00
     19.058  0.2156E-03  0.2220E-03  0.6407E+00  0.6407E+00
     19.173 -0.5743E-03 -0.5751E-03  0.6406E+00  0.6406E+00
     19.289 -0.2934E-03 -0.2933E-03  0.6406E+00  0.6406E+00
     19.404 -0.1330E-02 -0.1326E-02  0.6405E+00  0.6405E+00
     19.519 -0.3786E-02 -0.3785E-02  0.6400E+00  0.6400E+00
     19.634  0.6566E-02  0.6519E-02  0.6408E+00  0.6408E+00
     19.750  0.4911E-01  0.4902E-01  0.6464E+00  0.6464E+00
     19.865  0.7543E-01  0.7544E-01  0.6551E+00  0.6551E+00
     19.980  0.3927E-01  0.3936E-01  0.6597E+00  0.6597E+00
     20.095  0.2092E-02  0.2125E-02  0.6599E+00  0.6599E+00
     20.211 -0.3602E-02 -0.3605E-02  0.6595E+00  0.6595E+00
     20.326 -0.1722E-02 -0.1723E-02  0.6593E+00  0.6593E+00
     20.441 -0.1976E-02 -0.1977E-02  0.6591E+00  0.6591E+00
     20.556  0.4978E-02  0.4949E-02  0.6596E+00  0.6596E+00
     20.672  0.2737E-01  0.2733E-01  0.6628E+00  0.6628E+00
     20.787  0.3700E-01  0.3702E-01  0.6670E+00  0.6670E+00
     20.902  0.1672E-01  0.1677E-01  0.6690E+00  0.6690E+00
     21.017  0.6182E-04  0.7566E-04  0.6690E+00  0.6690E+00
     21.133 -0.1630E-02 -0.1632E-02  0.6688E+00  0.6688E+00
     21.248 -0.7142E-03 -0.7144E-03  0.6687E+00  0.6687E+00
     21.363 -0.2230E-02 -0.2226E-02  0.6685E+00  0.6685E+00
     21.478 -0.3206E-02 -0.3213E-02  0.6681E+00  0.6681E+00
     21.594  0.1740E-01  0.1734E-01  0.6701E+00  0.6701E+00
     21.709  0.6254E-01  0.6248E-01  0.6773E+00  0.6773E+00
     21.824  0.6899E-01  0.6903E-01  0.6852E+00  0.6852E+00
     21.939  0.4068E-01  0.4073E-01  0.6899E+00  0.6899E+00
     22.055  0.3490E-01  0.3490E-01  0.6940E+00  0.6940E+00
     22.170  0.2405E-01  0.2407E-01  0.6967E+00  0.6967E+00
     22.285  0.3984E-02  0.3996E-02  0.6972E+00  0.6972E+00
     22.400 -0.2471E-02 -0.2469E-02  0.6969E+00  0.6969E+00
     22.516 -0.2980E-02 -0.2979E-02  0.6966E+00  0.6966E+00
     22.631 -0.3364E-03 -0.3500E-03  0.6965E+00  0.6965E+00
     22.746  0.2137E-01  0.2132E-01  0.6990E+00  0.6990E+00
     22.861  0.5647E-01  0.5643E-01  0.7055E+00  0.7055E+00
     22.977  0.6104E-01  0.6107E-01  0.7125E+00  0.7125E+00
     23.092  0.2828E-01  0.2833E-01  0.7158E+00  0.7158E+00
     23.207  0.1954E-02  0.1971E-02  0.7160E+00  0.7160E+00
     23.322 -0.2612E-02 -0.2614E-02  0.7157E+00  0.7157E+00
     23.438 -0.1602E-02 -0.1602E-02  0.7155E+00  0.7155E+00
     23.553 -0.2631E-02 -0.2630E-02  0.7152E+00  0.7152E+00
     23.668  0.1653E-02  0.1638E-02  0.7154E+00  0.7154E+00
     23.783  0.2625E-01  0.2621E-01  0.7184E+00  0.7184E+00
     23.899  0.6766E-01  0.6763E-01  0.7262E+00  0.7262E+00
     24.014  0.9004E-01  0.9004E-01  0.7366E+00  0.7366E+00
     24.129  0.5772E-01  0.5777E-01  0.7433E+00  0.7433E+00
     24.244  0.1030E-01  0.1033E-01  0.7445E+00  0.7445E+00
     24.360 -0.4072E-02 -0.4071E-02  0.7440E+00  0.7440E+00
     24.475 -0.1786E-02 -0.1789E-02  0.7438E+00  0.7438E+00
     24.590 -0.2389E-03 -0.2394E-03  0.7438E+00  0.7438E+00
     24.705 -0.1459E-04 -0.1463E-04  0.7437E+00  0.7437E+00
     24.821 -0.2033E-04 -0.2027E-04  0.7437E+00  0.7437E+00
     24.936 -0.3108E-03 -0.3101E-03  0.7437E+00  0.7437E+00
     25.051 -0.2064E-02 -0.2062E-02  0.7435E+00  0.7435E+00
     25.166 -0.3436E-02 -0.3440E-02  0.7431E+00  0.7431E+00
     25.282  0.1546E-01  0.1543E-01  0.7449E+00  0.7449E+00
     25.397  0.6107E-01  0.6103E-01  0.7519E+00  0.7519E+00
     25.512  0.7298E-01  0.7301E-01  0.7603E+00  0.7603E+00
     25.627  0.4286E-01  0.4289E-01  0.7652E+00  0.7652E+00
     25.743  0.2294E-01  0.2295E-01  0.7679E+00  0.7679E+00
     25.858  0.9132E-02  0.9135E-02  0.7689E+00  0.7689E+00
     25.973 -0.2510E-03 -0.2502E-03  0.7689E+00  0.7689E+00
     26.088 -0.1148E-02 -0.1148E-02  0.7688E+00  0.7688E+00
     26.204 -0.2683E-03 -0.2684E-03  0.7688E+00  0.7688E+00
     26.319 -0.2882E-04 -0.2883E-04  0.7687E+00  0.7687E+00
     26.434 -0.8475E-04 -0.8454E-04  0.7687E+00  0.7687E+00
     26.549 -0.7016E-03 -0.7004E-03  0.7687E+00  0.7687E+00
     26.665 -0.1900E-02 -0.1900E-02  0.7684E+00  0.7684E+00
     26.780  0.3803E-02  0.3789E-02  0.7689E+00  0.7689E+00
     26.895  0.2548E-01  0.2546E-01  0.7718E+00  0.7718E+00
     27.010  0.3754E-01  0.3755E-01  0.7761E+00  0.7761E+00
     27.126  0.1869E-01  0.1871E-01  0.7783E+00  0.7783E+00
     27.241  0.7021E-03  0.7108E-03  0.7784E+00  0.7784E+00
     27.356 -0.1707E-02 -0.1708E-02  0.7782E+00  0.7782E+00
     27.471 -0.4297E-03 -0.4305E-03  0.7781E+00  0.7781E+00
     27.587 -0.4082E-04 -0.4093E-04  0.7781E+00  0.7781E+00
     27.702 -0.1233E-04 -0.1231E-04  0.7781E+00  0.7781E+00
     27.817 -0.1626E-03 -0.1623E-03  0.7781E+00  0.7781E+00
     27.932 -0.1058E-02 -0.1057E-02  0.7780E+00  0.7780E+00
     28.048 -0.1648E-02 -0.1649E-02  0.7778E+00  0.7778E+00
     28.163  0.8355E-02  0.8340E-02  0.7788E+00  0.7788E+00
     28.278  0.3156E-01  0.3154E-01  0.7824E+00  0.7824E+00
     28.393  0.3476E-01  0.3478E-01  0.7864E+00  0.7864E+00
     28.509  0.1220E-01  0.1222E-01  0.7878E+00  0.7878E+00
     28.624 -0.1058E-02 -0.1054E-02  0.7877E+00  0.7877E+00
     28.739 -0.1340E-02 -0.1341E-02  0.7875E+00  0.7875E+00
     28.854 -0.3949E-03 -0.3952E-03  0.7875E+00  0.7875E+00
     28.970 -0.1024E-02 -0.1023E-02  0.7874E+00  0.7874E+00
     29.085 -0.1721E-02 -0.1722E-02  0.7872E+00  0.7872E+00
     29.200  0.7643E-02  0.7635E-02  0.7880E+00  0.7880E+00
     29.315  0.3080E-01  0.3079E-01  0.7916E+00  0.7916E+00
     29.431  0.3530E-01  0.3530E-01  0.7957E+00  0.7957E+00
     29.546  0.1305E-01  0.1306E-01  0.7972E+00  0.7972E+00
     29.661 -0.8834E-03 -0.8813E-03  0.7971E+00  0.7971E+00
     29.776 -0.1386E-02 -0.1387E-02  0.7969E+00  0.7969E+00
     29.892 -0.2667E-03 -0.2669E-03  0.7969E+00  0.7969E+00
     30.007 -0.2072E-04 -0.2075E-04  0.7969E+00  0.7969E+00
     30.122 -0.7482E-06 -0.7493E-06  0.7969E+00  0.7969E+00
     30.237 -0.1315E-07 -0.1318E-07  0.7969E+00  0.7969E+00
     30.353 -0.1150E-09 -0.1152E-09  0.7969E+00  0.7969E+00
     30.468 -0.5055E-12 -0.5067E-12  0.7969E+00  0.7969E+00
     30.583 -0.2692E-14 -0.2685E-14  0.7969E+00  0.7969E+00
     30.698 -0.6064E-12 -0.6039E-12  0.7969E+00  0.7969E+00
     30.814 -0.1183E-09 -0.1178E-09  0.7969E+00  0.7969E+00
     30.929 -0.1157E-07 -0.1154E-07  0.7969E+00  0.7969E+00
     31.044 -0.5613E-06 -0.5598E-06  0.7969E+00  0.7969E+00
     31.159 -0.1316E-04 -0.1313E-04  0.7969E+00  0.7969E+00
     31.275 -0.1407E-03 -0.1405E-03  0.7969E+00  0.7969E+00
     31.390 -0.5653E-03 -0.5650E-03  0.7968E+00  0.7968E+00
     31.505  0.2073E-03  0.2052E-03  0.7968E+00  0.7968E+00
     31.620  0.6152E-02  0.6146E-02  0.7975E+00  0.7975E+00
     31.736  0.1250E-01  0.1250E-01  0.7990E+00  0.7990E+00
     31.851  0.8568E-02  0.8574E-02  0.8000E+00  0.8000E+00
     31.966  0.1311E-02  0.1315E-02  0.8001E+00  0.8001E+00
     32.081 -0.6335E-03 -0.6335E-03  0.8000E+00  0.8000E+00
     32.197 -0.2375E-03 -0.2378E-03  0.8000E+00  0.8000E+00
     32.312 -0.2857E-04 -0.2863E-04  0.8000E+00  0.8000E+00
     32.427 -0.1519E-05 -0.1523E-05  0.8000E+00  0.8000E+00
     32.542 -0.3858E-07 -0.3870E-07  0.8000E+00  0.8000E+00
     32.658 -0.4829E-09 -0.4846E-09  0.8000E+00  0.8000E+00
     32.773 -0.3024E-11 -0.3037E-11  0.8000E+00  0.8000E+00
     32.888 -0.9555E-14 -0.9597E-14  0.8000E+00  0.8000E+00
     33.003 -0.1806E-16 -0.1806E-16  0.8000E+00  0.8000E+00
     33.119  0.0000E+00  0.0000E+00  0.8000E+00  0.8000E+00
     33.234  0.0000E+00  0.0000E+00  0.8000E+00  0.8000E+00
     33.349  0.0000E+00  0.0000E+00  0.8000E+00  0.8000E+00
     33.464  0.0000E+00  0.0000E+00  0.8000E+00  0.8000E+00
     33.580  0.0000E+00  0.0000E+00  0.8000E+00  0.8000E+00
     33.695  0.0000E+00  0.0000E+00  0.8000E+00  0.8000E+00
