    4    4   40    2
  0.1079242E+02  0.3508000E-09  0.3508000E-09  0.3508000E-09  0.5000000E-15
  1.000000000000000E-004
  CAR 
 automatically generated by pyflamestk   
     40      4     32
 
  0.1250000E+00  0.1250000E+00  0.1250000E+00  0.1250000E+00
    1        1.119920      1.119910   1.000000   1.000000
    2        5.330886      5.331252   1.000000   1.000000
    3        5.330886      5.331252   1.000000   1.000000
    4        5.330886      5.331252   1.000000   1.000000
    5        5.900825      5.901399   1.000000   1.000000
    6        5.900825      5.901399   1.000000   1.000000
    7        5.900825      5.901399   1.000000   1.000000
    8        7.437227      7.437908   1.000000   1.000000
    9        7.721825      7.722527   1.000000   1.000000
   10        7.721825      7.722527   1.000000   1.000000
   11        8.699167      8.699793   1.000000   1.000000
   12        8.699167      8.699793   1.000000   1.000000
   13        8.722160      8.722771   1.000000   1.000000
   14        8.722160      8.722771   1.000000   1.000000
   15        8.722160      8.722771   1.000000   1.000000
   16        9.202404      9.203072   1.021566   1.021719
   17        9.202404      9.203072   1.021566   1.021719
   18        9.202404      9.203072   1.021566   1.021719
   19        9.604730      9.605499   0.203339   0.200799
   20        9.604730      9.605499   0.203339   0.200799
   21        9.604730      9.605499   0.203339   0.200799
   22       12.351989     12.352229  -0.000000  -0.000000
   23       12.351989     12.352229  -0.000000  -0.000000
   24       12.351989     12.352229  -0.000000  -0.000000
   25       20.704399     20.704615   0.000000   0.000000
   26       20.704399     20.704615   0.000000   0.000000
   27       20.704399     20.704615   0.000000   0.000000
   28       22.018264     22.018368   0.000000   0.000000
   29       22.018264     22.018368   0.000000   0.000000
   30       22.018264     22.018368   0.000000   0.000000
   31       25.665073     25.665113   0.000000   0.000000
   32       25.665073     25.665113   0.000000   0.000000
 
  0.3750000E+00  0.1250000E+00  0.1250000E+00  0.3750000E+00
    1        2.637890      2.637895   1.000000   1.000000
    2        4.783763      4.783909   1.000000   1.000000
    3        5.994836      5.995248   1.000000   1.000000
    4        5.994836      5.995248   1.000000   1.000000
    5        6.347806      6.348404   1.000000   1.000000
    6        6.356997      6.357539   1.000000   1.000000
    7        6.356997      6.357539   1.000000   1.000000
    8        6.997665      6.998308   1.000000   1.000000
    9        7.397340      7.397907   1.000000   1.000000
   10        7.397340      7.397907   1.000000   1.000000
   11        7.809733      7.810268   1.000000   1.000000
   12        7.879992      7.880641   1.000000   1.000000
   13        8.030299      8.030994   1.000000   1.000000
   14        8.550200      8.550849   1.000000   1.000000
   15        8.618097      8.618790   1.000000   1.000000
   16        8.750869      8.751485   1.000000   1.000000
   17        8.750869      8.751485   1.000000   1.000000
   18        9.009834      9.010489   1.000748   1.000760
   19        9.398641      9.399342   0.941744   0.940346
   20        9.518244      9.519028   0.545102   0.541797
   21        9.518244      9.519028   0.545102   0.541797
   22        9.620489      9.621085   0.153925   0.152169
   23       14.676316     14.676578  -0.000000  -0.000000
   24       14.676316     14.676578  -0.000000  -0.000000
   25       17.986270     17.986468   0.000000   0.000000
   26       17.986270     17.986468   0.000000   0.000000
   27       21.716318     21.716492   0.000000   0.000000
   28       21.716318     21.716492   0.000000   0.000000
   29       23.818218     23.818346   0.000000   0.000000
   30       23.988109     23.988219   0.000000   0.000000
   31       23.988109     23.988219   0.000000   0.000000
   32       26.937042     26.937157   0.000000   0.000000
 
  0.3750000E+00  0.3750000E+00  0.1250000E+00  0.3750000E+00
    1        3.907866      3.907926   1.000000   1.000000
    2        5.534311      5.534585   1.000000   1.000000
    3        5.534311      5.534585   1.000000   1.000000
    4        6.043582      6.044058   1.000000   1.000000
    5        6.637029      6.637447   1.000000   1.000000
    6        6.744457      6.744960   1.000000   1.000000
    7        6.744457      6.744960   1.000000   1.000000
    8        7.022271      7.022855   1.000000   1.000000
    9        7.207638      7.208224   1.000000   1.000000
   10        7.207638      7.208224   1.000000   1.000000
   11        7.326083      7.326652   1.000000   1.000000
   12        7.645263      7.645880   1.000000   1.000000
   13        7.981540      7.982187   1.000000   1.000000
   14        8.332731      8.333350   1.000000   1.000000
   15        8.333483      8.334112   1.000000   1.000000
   16        8.333483      8.334112   1.000000   1.000000
   17        8.640709      8.641393   1.000000   1.000000
   18        9.168581      9.169304   1.014367   1.014506
   19        9.168581      9.169304   1.014367   1.014506
   20        9.236479      9.237232   1.029299   1.029459
   21        9.582116      9.582792   0.283492   0.280958
   22       11.106499     11.107012  -0.000000  -0.000000
   23       11.106499     11.107012  -0.000000  -0.000000
   24       13.421807     13.422124  -0.000000  -0.000000
   25       16.965675     16.965943   0.000000   0.000000
   26       19.795931     19.796132   0.000000   0.000000
   27       19.795931     19.796132   0.000000   0.000000
   28       22.810270     22.810438   0.000000   0.000000
   29       22.935009     22.935154   0.000000   0.000000
   30       25.409731     25.409841   0.000000   0.000000
   31       25.409731     25.409841   0.000000   0.000000
   32       28.288733     28.288819   0.000000   0.000000
 
  0.3750000E+00  0.3750000E+00  0.3750000E+00  0.1250000E+00
    1        4.523872      4.524108   1.000000   1.000000
    2        5.278604      5.279018   1.000000   1.000000
    3        5.278604      5.279018   1.000000   1.000000
    4        5.278604      5.279018   1.000000   1.000000
    5        7.244584      7.245094   1.000000   1.000000
    6        7.244584      7.245094   1.000000   1.000000
    7        7.244584      7.245094   1.000000   1.000000
    8        7.648727      7.649356   1.000000   1.000000
    9        7.648727      7.649356   1.000000   1.000000
   10        7.806340      7.806965   1.000000   1.000000
   11        7.806340      7.806965   1.000000   1.000000
   12        7.806340      7.806965   1.000000   1.000000
   13        7.867096      7.867386   1.000000   1.000000
   14        7.897955      7.898429   1.000000   1.000000
   15        7.897955      7.898429   1.000000   1.000000
   16        7.897955      7.898429   1.000000   1.000000
   17        9.276432      9.277150   1.035250   1.035287
   18        9.276432      9.277150   1.035250   1.035287
   19        9.513403      9.514142   0.565438   0.562338
   20        9.513403      9.514142   0.565438   0.562338
   21        9.513403      9.514142   0.565438   0.562338
   22       11.123358     11.123727  -0.000000  -0.000000
   23       11.123358     11.123727  -0.000000  -0.000000
   24       11.123358     11.123727  -0.000000  -0.000000
   25       16.314617     16.314956   0.000000   0.000000
   26       16.314617     16.314956   0.000000   0.000000
   27       16.314617     16.314956   0.000000   0.000000
   28       18.753574     18.753827   0.000000   0.000000
   29       29.330294     29.330342   0.000000   0.000000
   30       29.330294     29.330342   0.000000   0.000000
   31       29.330294     29.330342   0.000000   0.000000
   32       31.694800     31.694886   0.000000   0.000000
