    4    4   40    2
  0.1079242E+02  0.3508000E-09  0.3508000E-09  0.3508000E-09  0.5000000E-15
  1.000000000000000E-004
  CAR 
 automatically generated by pyflamestk   
     40      4     32
 
  0.1250000E+00  0.1250000E+00  0.1250000E+00  0.1250000E+00
    1        1.119921      1.119912   1.000000   1.000000
    2        5.330888      5.331253   1.000000   1.000000
    3        5.330888      5.331253   1.000000   1.000000
    4        5.330888      5.331253   1.000000   1.000000
    5        5.900827      5.901401   1.000000   1.000000
    6        5.900827      5.901401   1.000000   1.000000
    7        5.900827      5.901401   1.000000   1.000000
    8        7.437229      7.437910   1.000000   1.000000
    9        7.721827      7.722529   1.000000   1.000000
   10        7.721827      7.722529   1.000000   1.000000
   11        8.699170      8.699796   1.000000   1.000000
   12        8.699170      8.699796   1.000000   1.000000
   13        8.722163      8.722773   1.000000   1.000000
   14        8.722163      8.722773   1.000000   1.000000
   15        8.722163      8.722773   1.000000   1.000000
   16        9.202406      9.203074   1.021566   1.021719
   17        9.202406      9.203074   1.021566   1.021719
   18        9.202406      9.203074   1.021566   1.021719
   19        9.604733      9.605501   0.203339   0.200799
   20        9.604733      9.605501   0.203339   0.200799
   21        9.604733      9.605501   0.203339   0.200799
   22       12.351991     12.352232  -0.000000  -0.000000
   23       12.351991     12.352232  -0.000000  -0.000000
   24       12.351991     12.352232  -0.000000  -0.000000
   25       20.704402     20.704618   0.000000   0.000000
   26       20.704402     20.704618   0.000000   0.000000
   27       20.704402     20.704618   0.000000   0.000000
   28       22.018267     22.018371   0.000000   0.000000
   29       22.018267     22.018371   0.000000   0.000000
   30       22.018267     22.018371   0.000000   0.000000
   31       25.665077     25.665117   0.000000   0.000000
   32       25.665077     25.665117   0.000000   0.000000
 
  0.3750000E+00  0.1250000E+00  0.1250000E+00  0.3750000E+00
    1        2.637892      2.637896   1.000000   1.000000
    2        4.783764      4.783910   1.000000   1.000000
    3        5.994838      5.995250   1.000000   1.000000
    4        5.994838      5.995250   1.000000   1.000000
    5        6.347808      6.348406   1.000000   1.000000
    6        6.356998      6.357540   1.000000   1.000000
    7        6.356998      6.357540   1.000000   1.000000
    8        6.997667      6.998310   1.000000   1.000000
    9        7.397342      7.397909   1.000000   1.000000
   10        7.397342      7.397909   1.000000   1.000000
   11        7.809735      7.810270   1.000000   1.000000
   12        7.879994      7.880643   1.000000   1.000000
   13        8.030301      8.030996   1.000000   1.000000
   14        8.550202      8.550851   1.000000   1.000000
   15        8.618100      8.618793   1.000000   1.000000
   16        8.750871      8.751487   1.000000   1.000000
   17        8.750871      8.751487   1.000000   1.000000
   18        9.009836      9.010492   1.000748   1.000760
   19        9.398644      9.399345   0.941744   0.940346
   20        9.518246      9.519031   0.545101   0.541797
   21        9.518246      9.519031   0.545101   0.541797
   22        9.620491      9.621088   0.153925   0.152169
   23       14.676319     14.676581  -0.000000  -0.000000
   24       14.676319     14.676581  -0.000000  -0.000000
   25       17.986273     17.986471   0.000000   0.000000
   26       17.986273     17.986471   0.000000   0.000000
   27       21.716322     21.716495   0.000000   0.000000
   28       21.716322     21.716495   0.000000   0.000000
   29       23.818222     23.818350   0.000000   0.000000
   30       23.988113     23.988223   0.000000   0.000000
   31       23.988113     23.988223   0.000000   0.000000
   32       26.937047     26.937161   0.000000   0.000000
 
  0.3750000E+00  0.3750000E+00  0.1250000E+00  0.3750000E+00
    1        3.907868      3.907928   1.000000   1.000000
    2        5.534312      5.534586   1.000000   1.000000
    3        5.534312      5.534586   1.000000   1.000000
    4        6.043583      6.044060   1.000000   1.000000
    5        6.637030      6.637448   1.000000   1.000000
    6        6.744458      6.744962   1.000000   1.000000
    7        6.744458      6.744962   1.000000   1.000000
    8        7.022273      7.022857   1.000000   1.000000
    9        7.207640      7.208226   1.000000   1.000000
   10        7.207640      7.208226   1.000000   1.000000
   11        7.326085      7.326654   1.000000   1.000000
   12        7.645265      7.645883   1.000000   1.000000
   13        7.981542      7.982190   1.000000   1.000000
   14        8.332734      8.333352   1.000000   1.000000
   15        8.333485      8.334114   1.000000   1.000000
   16        8.333485      8.334114   1.000000   1.000000
   17        8.640711      8.641395   1.000000   1.000000
   18        9.168584      9.169307   1.014367   1.014506
   19        9.168584      9.169307   1.014367   1.014506
   20        9.236481      9.237235   1.029299   1.029459
   21        9.582119      9.582794   0.283492   0.280958
   22       11.106502     11.107014  -0.000000  -0.000000
   23       11.106502     11.107014  -0.000000  -0.000000
   24       13.421810     13.422127  -0.000000  -0.000000
   25       16.965678     16.965947   0.000000   0.000000
   26       19.795934     19.796136   0.000000   0.000000
   27       19.795934     19.796136   0.000000   0.000000
   28       22.810274     22.810442   0.000000   0.000000
   29       22.935013     22.935158   0.000000   0.000000
   30       25.409735     25.409845   0.000000   0.000000
   31       25.409735     25.409845   0.000000   0.000000
   32       28.288737     28.288824   0.000000   0.000000
 
  0.3750000E+00  0.3750000E+00  0.3750000E+00  0.1250000E+00
    1        4.523874      4.524109   1.000000   1.000000
    2        5.278606      5.279019   1.000000   1.000000
    3        5.278606      5.279019   1.000000   1.000000
    4        5.278606      5.279019   1.000000   1.000000
    5        7.244586      7.245096   1.000000   1.000000
    6        7.244586      7.245096   1.000000   1.000000
    7        7.244586      7.245096   1.000000   1.000000
    8        7.648729      7.649358   1.000000   1.000000
    9        7.648729      7.649358   1.000000   1.000000
   10        7.806342      7.806967   1.000000   1.000000
   11        7.806342      7.806967   1.000000   1.000000
   12        7.806342      7.806967   1.000000   1.000000
   13        7.867098      7.867388   1.000000   1.000000
   14        7.897958      7.898431   1.000000   1.000000
   15        7.897958      7.898431   1.000000   1.000000
   16        7.897958      7.898431   1.000000   1.000000
   17        9.276434      9.277153   1.035250   1.035287
   18        9.276434      9.277153   1.035250   1.035287
   19        9.513406      9.514145   0.565438   0.562338
   20        9.513406      9.514145   0.565438   0.562338
   21        9.513406      9.514145   0.565438   0.562338
   22       11.123360     11.123730  -0.000000  -0.000000
   23       11.123360     11.123730  -0.000000  -0.000000
   24       11.123360     11.123730  -0.000000  -0.000000
   25       16.314621     16.314959   0.000000   0.000000
   26       16.314621     16.314959   0.000000   0.000000
   27       16.314621     16.314959   0.000000   0.000000
   28       18.753577     18.753830   0.000000   0.000000
   29       29.330298     29.330346   0.000000   0.000000
   30       29.330298     29.330346   0.000000   0.000000
   31       29.330298     29.330346   0.000000   0.000000
   32       31.694805     31.694891   0.000000   0.000000
