<?xml version="1.0" encoding="ISO-8859-1"?>
<modeling>
 <generator>
  <i name="program" type="string">vasp </i>
  <i name="version" type="string">5.4.1  </i>
  <i name="subversion" type="string">24Jun15 (build Jun 05 2017 10:38:15) complex                          parallel </i>
  <i name="platform" type="string">IFC91_ompi </i>
  <i name="date" type="string">2017 08 15 </i>
  <i name="time" type="string">14:11:18 </i>
 </generator>
 <incar>
  <i type="string" name="SYSTEM"> automatically generated by pyflamestk</i>
  <i type="int" name="ISTART">     0</i>
  <i type="string" name="PREC">high                   ! avoid wrap aro</i>
  <i type="string" name="ALGO"> Normal                 ! blocked Davids</i>
  <i type="int" name="ISPIN">     2</i>
  <i type="int" name="ICHARG">     0</i>
  <i type="int" name="NELM">    40</i>
  <i type="int" name="IBRION">     2</i>
  <i name="EDIFF">      0.00000100</i>
  <i name="EDIFFG">     -0.00100000</i>
  <i type="int" name="NSW">    40</i>
  <i type="int" name="ISIF">     3</i>
  <i name="ENCUT">    269.53200000</i>
  <i name="POTIM">      0.50000000</i>
  <v name="MAGMOM">      1.00000000      1.00000000      1.00000000      1.00000000</v>
  <i type="logical" name="LREAL"> F  </i>
  <i type="int" name="ISMEAR">     1</i>
  <i name="SIGMA">      0.20000000</i>
  <i type="logical" name="LWAVE"> F  </i>
  <i type="logical" name="LCHARG"> F  </i>
  <i type="logical" name="LVTOT"> F  </i>
  <v type="int" name="KPOINT_BSE">    -1     0     0     0</v>
  <i type="int" name="NELM">    40</i>
 </incar>
 <kpoints>
  <generation param="Monkhorst-Pack">
   <v type="int" name="divisions">       4        4        4 </v>
   <v name="usershift">      0.00000000       0.00000000       0.00000000 </v>
   <v name="genvec1">      0.25000000       0.00000000       0.00000000 </v>
   <v name="genvec2">      0.00000000       0.25000000       0.00000000 </v>
   <v name="genvec3">      0.00000000       0.00000000       0.25000000 </v>
   <v name="shift">      0.50000000       0.50000000       0.50000000 </v>
  </generation>
  <varray name="kpointlist" >
   <v>       0.12500000       0.12500000       0.12500000 </v>
   <v>       0.37500000       0.12500000       0.12500000 </v>
   <v>       0.37500000       0.37500000       0.12500000 </v>
   <v>       0.37500000       0.37500000       0.37500000 </v>
  </varray>
  <varray name="weights" >
   <v>       0.12500000 </v>
   <v>       0.37500000 </v>
   <v>       0.37500000 </v>
   <v>       0.12500000 </v>
  </varray>
 </kpoints>
 <parameters>
  <separator name="general" >
   <i type="string" name="SYSTEM">automatically generated by pyflamestk</i>
   <i type="logical" name="LCOMPAT"> F  </i>
  </separator>
  <separator name="electronic" >
   <i type="string" name="PREC">high</i>
   <i name="ENMAX">    269.53200000</i>
   <i name="ENAUG">    544.56500000</i>
   <i name="EDIFF">      0.00000100</i>
   <i type="int" name="IALGO">    38</i>
   <i type="int" name="IWAVPR">    11</i>
   <i type="int" name="NBANDS">    32</i>
   <i name="NELECT">     40.00000000</i>
   <i type="int" name="TURBO">     0</i>
   <i type="int" name="IRESTART">     0</i>
   <i type="int" name="NREBOOT">     0</i>
   <i type="int" name="NMIN">     0</i>
   <i name="EREF">      0.00000000</i>
   <separator name="electronic smearing" >
    <i type="int" name="ISMEAR">     1</i>
    <i name="SIGMA">      0.20000000</i>
    <i name="KSPACING">      0.50000000</i>
    <i type="logical" name="KGAMMA"> T  </i>
   </separator>
   <separator name="electronic projectors" >
    <i type="logical" name="LREAL"> F  </i>
    <v name="ROPT">      0.00000000</v>
    <i type="int" name="LMAXPAW">  -100</i>
    <i type="int" name="LMAXMIX">     2</i>
    <i type="logical" name="NLSPLINE"> F  </i>
   </separator>
   <separator name="electronic startup" >
    <i type="int" name="ISTART">     0</i>
    <i type="int" name="ICHARG">     0</i>
    <i type="int" name="INIWAV">     1</i>
   </separator>
   <separator name="electronic spin" >
    <i type="int" name="ISPIN">     2</i>
    <i type="logical" name="LNONCOLLINEAR"> F  </i>
    <v name="MAGMOM">      1.00000000      1.00000000      1.00000000      1.00000000</v>
    <i name="NUPDOWN">     -1.00000000</i>
    <i type="logical" name="LSORBIT"> F  </i>
    <v name="SAXIS">      0.00000000      0.00000000      1.00000000</v>
    <i type="logical" name="LSPIRAL"> F  </i>
    <v name="QSPIRAL">      0.00000000      0.00000000      0.00000000</v>
    <i type="logical" name="LZEROZ"> F  </i>
   </separator>
   <separator name="electronic exchange-correlation" >
    <i type="logical" name="LASPH"> F  </i>
    <i type="logical" name="LMETAGGA"> F  </i>
   </separator>
   <separator name="electronic convergence" >
    <i type="int" name="NELM">    40</i>
    <i type="int" name="NELMDL">    -5</i>
    <i type="int" name="NELMIN">     2</i>
    <i name="ENINI">    269.53200000</i>
    <separator name="electronic convergence detail" >
     <i type="logical" name="LDIAG"> T  </i>
     <i type="logical" name="LSUBROT"> F  </i>
     <i name="WEIMIN">      0.00100000</i>
     <i name="EBREAK">      0.00000001</i>
     <i name="DEPER">      0.30000000</i>
     <i type="int" name="NRMM">     4</i>
     <i name="TIME">      0.40000000</i>
    </separator>
   </separator>
   <separator name="electronic mixer" >
    <i name="AMIX">      0.40000000</i>
    <i name="BMIX">      1.00000000</i>
    <i name="AMIN">      0.10000000</i>
    <i name="AMIX_MAG">      1.60000000</i>
    <i name="BMIX_MAG">      1.00000000</i>
    <separator name="electronic mixer details" >
     <i type="int" name="IMIX">     4</i>
     <i type="logical" name="MIXFIRST"> F  </i>
     <i type="int" name="MAXMIX">   -45</i>
     <i name="WC">    100.00000000</i>
     <i type="int" name="INIMIX">     1</i>
     <i type="int" name="MIXPRE">     1</i>
     <i type="int" name="MREMOVE">     5</i>
    </separator>
   </separator>
   <separator name="electronic dipolcorrection" >
    <i type="logical" name="LDIPOL"> F  </i>
    <i type="logical" name="LMONO"> F  </i>
    <i type="int" name="IDIPOL">     0</i>
    <i name="EPSILON">      1.00000000</i>
    <v name="DIPOL">   -100.00000000   -100.00000000   -100.00000000</v>
    <i name="EFIELD">      0.00000000</i>
   </separator>
  </separator>
  <separator name="grids" >
   <i type="int" name="NGX">    20</i>
   <i type="int" name="NGY">    20</i>
   <i type="int" name="NGZ">    20</i>
   <i type="int" name="NGXF">    36</i>
   <i type="int" name="NGYF">    36</i>
   <i type="int" name="NGZF">    36</i>
   <i type="logical" name="ADDGRID"> F  </i>
  </separator>
  <separator name="ionic" >
   <i type="int" name="NSW">    40</i>
   <i type="int" name="IBRION">     2</i>
   <i type="int" name="ISIF">     3</i>
   <i name="PSTRESS">      0.00000000</i>
   <i name="EDIFFG">     -0.00100000</i>
   <i type="int" name="NFREE">     1</i>
   <i name="POTIM">      0.50000000</i>
   <i name="SMASS">     -3.00000000</i>
   <i name="SCALEE">      1.00000000</i>
  </separator>
  <separator name="ionic md" >
   <i name="TEBEG">      0.00010000</i>
   <i name="TEEND">      0.00010000</i>
   <i type="int" name="NBLOCK">     1</i>
   <i type="int" name="KBLOCK">    40</i>
   <i type="int" name="NPACO">   256</i>
   <i name="APACO">     16.00000000</i>
  </separator>
  <separator name="symmetry" >
   <i type="int" name="ISYM">     2</i>
   <i name="SYMPREC">      0.00001000</i>
  </separator>
  <separator name="dos" >
   <i type="logical" name="LORBIT"> F  </i>
   <v name="RWIGS">     -1.00000000</v>
   <i type="int" name="NEDOS">   301</i>
   <i name="EMIN">     10.00000000</i>
   <i name="EMAX">    -10.00000000</i>
   <i name="EFERMI">      0.00000000</i>
  </separator>
  <separator name="writing" >
   <i type="int" name="NWRITE">     2</i>
   <i type="logical" name="LWAVE"> F  </i>
   <i type="logical" name="LCHARG"> F  </i>
   <i type="logical" name="LPARD"> F  </i>
   <i type="logical" name="LVTOT"> F  </i>
   <i type="logical" name="LVHAR"> F  </i>
   <i type="logical" name="LELF"> F  </i>
   <i type="logical" name="LOPTICS"> F  </i>
   <v name="STM">      0.00000000      0.00000000      0.00000000      0.00000000      0.00000000      0.00000000      0.00000000</v>
  </separator>
  <separator name="performance" >
   <i type="int" name="NPAR">    16</i>
   <i type="int" name="NSIM">     4</i>
   <i type="int" name="NBLK">    -1</i>
   <i type="logical" name="LPLANE"> T  </i>
   <i type="logical" name="LSCALAPACK"> T  </i>
   <i type="logical" name="LSCAAWARE"> F  </i>
   <i type="logical" name="LSCALU"> F  </i>
   <i type="logical" name="LASYNC"> F  </i>
   <i type="logical" name="LORBITALREAL"> F  </i>
  </separator>
  <separator name="miscellaneous" >
   <i type="int" name="IDIOT">     3</i>
   <i type="logical" name="LMUSIC"> F  </i>
   <v name="POMASS">     58.69000000</v>
   <v name="DARWINR">      0.00000000</v>
   <v name="DARWINV">      1.00000000</v>
   <i type="logical" name="LCORR"> T  </i>
  </separator>
  <i type="logical" name="GGA_COMPAT"> T  </i>
  <i type="logical" name="LBERRY"> F  </i>
  <i type="int" name="ICORELEVEL">     0</i>
  <i type="logical" name="LDAU"> F  </i>
  <i type="int" name="I_CONSTRAINED_M">     0</i>
  <separator name="electronic exchange-correlation" >
   <i type="string" name="GGA">--</i>
   <i type="int" name="VOSKOWN">     0</i>
   <i type="logical" name="LHFCALC"> F  </i>
   <i type="string" name="PRECFOCK"></i>
   <i type="logical" name="LSYMGRAD"> F  </i>
   <i type="logical" name="LHFONE"> F  </i>
   <i type="logical" name="LRHFCALC"> F  </i>
   <i type="logical" name="LTHOMAS"> F  </i>
   <i type="logical" name="LMODELHF"> F  </i>
   <i name="ENCUT4O">     -1.00000000</i>
   <i type="int" name="EXXOEP">     0</i>
   <i type="int" name="FOURORBIT">     0</i>
   <i name="AEXX">      0.00000000</i>
   <i name="HFALPHA">      0.00000000</i>
   <i name="MCALPHA">      0.00000000</i>
   <i name="ALDAX">      1.00000000</i>
   <i name="AGGAX">      1.00000000</i>
   <i name="ALDAC">      1.00000000</i>
   <i name="AGGAC">      1.00000000</i>
   <i type="int" name="NKREDX">     1</i>
   <i type="int" name="NKREDY">     1</i>
   <i type="int" name="NKREDZ">     1</i>
   <i type="logical" name="SHIFTRED"> F  </i>
   <i type="logical" name="ODDONLY"> F  </i>
   <i type="logical" name="EVENONLY"> F  </i>
   <i type="int" name="LMAXFOCK">     0</i>
   <i type="int" name="NMAXFOCKAE">     0</i>
   <i type="logical" name="LFOCKAEDFT"> F  </i>
   <i name="HFSCREEN">      0.00000000</i>
   <i name="HFSCREENC">      0.00000000</i>
   <i type="int" name="NBANDSGWLOW">     0</i>
  </separator>
  <separator name="vdW DFT" >
   <i type="logical" name="LUSE_VDW"> F  </i>
   <i name="Zab_VDW">     -0.84910000</i>
   <i name="PARAM1">      0.12340000</i>
   <i name="PARAM2">      1.00000000</i>
   <i name="PARAM3">      0.00000000</i>
  </separator>
  <separator name="model GW" >
   <i type="int" name="MODEL_GW">     0</i>
   <i name="MODEL_EPS0">      6.47545088</i>
   <i name="MODEL_ALPHA">      1.00000000</i>
  </separator>
  <separator name="linear response parameters" >
   <i type="logical" name="LEPSILON"> F  </i>
   <i type="logical" name="LRPA"> F  </i>
   <i type="logical" name="LNABLA"> F  </i>
   <i type="logical" name="LVEL"> F  </i>
   <i type="int" name="KINTER">     0</i>
   <i name="CSHIFT">      0.10000000</i>
   <i name="OMEGAMAX">     -1.00000000</i>
   <i name="DEG_THRESHOLD">      0.00200000</i>
  </separator>
  <separator name="orbital magnetization" >
   <i type="logical" name="NUCIND"> F  </i>
   <v name="MAGPOS">      0.00000000      0.00000000      0.00000000</v>
   <i type="logical" name="LNICSALL"> T  </i>
   <i type="logical" name="ORBITALMAG"> F  </i>
   <i type="logical" name="LMAGBLOCH"> F  </i>
   <i type="logical" name="LCHIMAG"> F  </i>
   <i type="logical" name="LGAUGE"> T  </i>
   <i type="int" name="MAGATOM">     0</i>
   <v name="MAGDIPOL">      0.00000000      0.00000000      0.00000000</v>
   <v name="AVECCONST">      0.00000000      0.00000000      0.00000000</v>
  </separator>
  <separator name="response functions" >
   <i type="logical" name="LADDER"> F  </i>
   <i type="logical" name="LFXC"> F  </i>
   <i type="logical" name="LHARTREE"> T  </i>
   <i type="int" name="IBSE">     0</i>
   <v type="int" name="KPOINT">    -1     0     0     0</v>
   <i type="logical" name="LTCTE"> F  </i>
   <i type="logical" name="LTETE"> F  </i>
   <i type="logical" name="LTRIPLET"> F  </i>
   <i type="logical" name="LFXCEPS"> F  </i>
   <i type="logical" name="LFXHEG"> F  </i>
   <i type="int" name="NATURALO">     0</i>
   <i type="logical" name="L2ORDER"> F  </i>
   <i type="logical" name="LUSEW"> F  </i>
   <i name="ENCUTGW">     -2.00000000</i>
   <i name="ENCUTGWSOFT">     -2.00000000</i>
   <i name="ENCUTLF">     -1.00000000</i>
   <i type="int" name="LMAXMP2">    -1</i>
   <i name="SCISSOR">      0.00000000</i>
   <i type="int" name="NOMEGA">     0</i>
   <i type="int" name="NOMEGAR">     0</i>
   <i type="int" name="NBANDSGW">    -1</i>
   <i type="int" name="NBANDSO">    -1</i>
   <i type="int" name="NBANDSV">    -1</i>
   <i type="int" name="NELM">    40</i>
   <i type="int" name="NELMHF">     1</i>
   <i type="int" name="DIM">     3</i>
   <i type="int" name="ANTIRES">     0</i>
   <i name="OMEGAMAX">    -30.00000000</i>
   <i name="OMEGAMIN">    -30.00000000</i>
   <i name="OMEGATL">   -200.00000000</i>
   <i type="int" name="OMEGAGRID">     0</i>
   <i name="CSHIFT">     -0.10000000</i>
   <i type="logical" name="SELFENERGY"> F  </i>
   <i type="logical" name="LSPECTRAL"> F  </i>
   <i type="logical" name="LSPECTRALGW"> F  </i>
   <i type="logical" name="LSINGLES"> F  </i>
   <i type="logical" name="LFERMIGW"> F  </i>
   <i type="logical" name="ODDONLYGW"> F  </i>
   <i type="logical" name="EVENONLYGW"> F  </i>
   <i type="int" name="NKREDLFX">     1</i>
   <i type="int" name="NKREDLFY">     1</i>
   <i type="int" name="NKREDLFZ">     1</i>
   <i type="int" name="MAXMEM">  1800</i>
   <i type="int" name="TELESCOPE">     0</i>
   <i type="int" name="TAUPAR">     1</i>
   <i type="int" name="OMEGAPAR">    -1</i>
   <i name="LAMBDA">      1.00000000</i>
  </separator>
  <separator name="External order field" >
   <i name="OFIELD_KAPPA">      0.00000000</i>
   <v name="OFIELD_K">      0.00000000      0.00000000      0.00000000</v>
   <i name="OFIELD_Q6_NEAR">      0.00000000</i>
   <i name="OFIELD_Q6_FAR">      0.00000000</i>
   <i name="OFIELD_A">      0.00000000</i>
  </separator>
 </parameters>
 <atominfo>
  <atoms>       4 </atoms>
  <types>       1 </types>
  <array name="atoms" >
   <dimension dim="1">ion</dimension>
   <field type="string">element</field>
   <field type="int">atomtype</field>
   <set>
    <rc><c>Ni</c><c>   1</c></rc>
    <rc><c>Ni</c><c>   1</c></rc>
    <rc><c>Ni</c><c>   1</c></rc>
    <rc><c>Ni</c><c>   1</c></rc>
   </set>
  </array>
  <array name="atomtypes" >
   <dimension dim="1">type</dimension>
   <field type="int">atomspertype</field>
   <field type="string">element</field>
   <field>mass</field>
   <field>valence</field>
   <field type="string">pseudopotential</field>
   <set>
    <rc><c>   4</c><c>Ni</c><c>     58.69000000</c><c>     10.00000000</c><c>  PAW_PBE Ni 02Aug2007                  </c></rc>
   </set>
  </array>
 </atominfo>
 <structure name="initialpos" >
  <crystal>
   <varray name="basis" >
    <v>       3.50800000       0.00000000       0.00000000 </v>
    <v>       0.00000000       3.50800000       0.00000000 </v>
    <v>       0.00000000       0.00000000       3.50800000 </v>
   </varray>
   <i name="volume">     43.16967251 </i>
   <varray name="rec_basis" >
    <v>       0.28506271       0.00000000       0.00000000 </v>
    <v>       0.00000000       0.28506271       0.00000000 </v>
    <v>       0.00000000       0.00000000       0.28506271 </v>
   </varray>
  </crystal>
  <varray name="positions" >
   <v>       0.00000000       0.00000000       0.00000000 </v>
   <v>       0.00000000       0.50000000       0.50000000 </v>
   <v>       0.50000000       0.00000000       0.50000000 </v>
   <v>       0.50000000       0.50000000       0.00000000 </v>
  </varray>
 </structure>
 <calculation>
  <scstep>
   <time name="dav">    0.08    0.08</time>
   <time name="total">    0.10    0.11</time>
   <energy>
    <i name="alphaZ">    189.02149415 </i>
    <i name="ewald">  -3764.02729516 </i>
    <i name="hartreedc">    -81.23422405 </i>
    <i name="XCdc">     84.22849299 </i>
    <i name="pawpsdc"> 109800.18072698 </i>
    <i name="pawaedc">-109857.98262121 </i>
    <i name="eentropy">      0.00072474 </i>
    <i name="bandstr">  -1546.48990439 </i>
    <i name="atom">   4310.54060494 </i>
    <i name="e_fr_energy">   -865.76200102 </i>
    <i name="e_wo_entrp">   -865.76272576 </i>
    <i name="e_0_energy">   -865.76224260 </i>
   </energy>
  </scstep>
  <scstep>
   <time name="dav">    0.14    0.14</time>
   <time name="total">    0.14    0.15</time>
   <energy>
    <i name="e_fr_energy">   -999.55923358 </i>
    <i name="e_wo_entrp">   -999.78204681 </i>
    <i name="e_0_energy">   -999.63350466 </i>
   </energy>
  </scstep>
  <scstep>
   <time name="dav">    0.08    0.08</time>
   <time name="total">    0.08    0.08</time>
   <energy>
    <i name="e_fr_energy">  -1000.85601450 </i>
    <i name="e_wo_entrp">  -1001.08826930 </i>
    <i name="e_0_energy">  -1000.93343277 </i>
   </energy>
  </scstep>
  <scstep>
   <time name="dav">    0.13    0.13</time>
   <time name="total">    0.13    0.14</time>
   <energy>
    <i name="e_fr_energy">  -1000.88945284 </i>
    <i name="e_wo_entrp">  -1001.12185321 </i>
    <i name="e_0_energy">  -1000.96691963 </i>
   </energy>
  </scstep>
  <scstep>
   <time name="dav">    0.10    0.10</time>
   <time name="total">    0.11    0.12</time>
   <energy>
    <i name="e_fr_energy">  -1000.88981481 </i>
    <i name="e_wo_entrp">  -1001.12222435 </i>
    <i name="e_0_energy">  -1000.96728466 </i>
   </energy>
  </scstep>
  <scstep>
   <time name="dav">    0.12    0.12</time>
   <time name="total">    0.14    0.15</time>
   <energy>
    <i name="e_fr_energy">   -142.24277755 </i>
    <i name="e_wo_entrp">   -142.29954719 </i>
    <i name="e_0_energy">   -142.26170076 </i>
   </energy>
  </scstep>
  <scstep>
   <time name="dav">    0.10    0.10</time>
   <time name="total">    0.12    0.12</time>
   <energy>
    <i name="e_fr_energy">   -312.27608191 </i>
    <i name="e_wo_entrp">   -312.27991881 </i>
    <i name="e_0_energy">   -312.27736087 </i>
   </energy>
  </scstep>
  <scstep>
   <time name="dav">    0.08    0.08</time>
   <time name="total">    0.10    0.11</time>
   <energy>
    <i name="e_fr_energy">    -48.11342233 </i>
    <i name="e_wo_entrp">    -48.14690899 </i>
    <i name="e_0_energy">    -48.12458455 </i>
   </energy>
  </scstep>
  <scstep>
   <time name="dav">    0.12    0.12</time>
   <time name="total">    0.14    0.14</time>
   <energy>
    <i name="e_fr_energy">    -21.67236356 </i>
    <i name="e_wo_entrp">    -21.62604269 </i>
    <i name="e_0_energy">    -21.65692327 </i>
   </energy>
  </scstep>
  <scstep>
   <time name="dav">    0.09    0.09</time>
   <time name="total">    0.11    0.11</time>
   <energy>
    <i name="e_fr_energy">    -36.73120555 </i>
    <i name="e_wo_entrp">    -36.72434177 </i>
    <i name="e_0_energy">    -36.72891762 </i>
   </energy>
  </scstep>
  <scstep>
   <time name="dav">    0.09    0.09</time>
   <time name="total">    0.11    0.11</time>
   <energy>
    <i name="e_fr_energy">    -22.18530211 </i>
    <i name="e_wo_entrp">    -22.18987334 </i>
    <i name="e_0_energy">    -22.18682586 </i>
   </energy>
  </scstep>
  <scstep>
   <time name="dav">    0.11    0.11</time>
   <time name="total">    0.13    0.14</time>
   <energy>
    <i name="e_fr_energy">    -22.60377490 </i>
    <i name="e_wo_entrp">    -22.61241734 </i>
    <i name="e_0_energy">    -22.60665571 </i>
   </energy>
  </scstep>
  <scstep>
   <time name="dav">    0.12    0.12</time>
   <time name="total">    0.14    0.15</time>
   <energy>
    <i name="e_fr_energy">    -22.70942638 </i>
    <i name="e_wo_entrp">    -22.72217039 </i>
    <i name="e_0_energy">    -22.71367439 </i>
   </energy>
  </scstep>
  <scstep>
   <time name="dav">    0.09    0.09</time>
   <time name="total">    0.11    0.11</time>
   <energy>
    <i name="e_fr_energy">    -22.38712135 </i>
    <i name="e_wo_entrp">    -22.35053445 </i>
    <i name="e_0_energy">    -22.37492571 </i>
   </energy>
  </scstep>
  <scstep>
   <time name="dav">    0.09    0.09</time>
   <time name="total">    0.11    0.12</time>
   <energy>
    <i name="e_fr_energy">    -21.87441055 </i>
    <i name="e_wo_entrp">    -21.84835526 </i>
    <i name="e_0_energy">    -21.86572546 </i>
   </energy>
  </scstep>
  <scstep>
   <time name="dav">    0.11    0.11</time>
   <time name="total">    0.13    0.13</time>
   <energy>
    <i name="e_fr_energy">    -21.70162041 </i>
    <i name="e_wo_entrp">    -21.61978541 </i>
    <i name="e_0_energy">    -21.67434208 </i>
   </energy>
  </scstep>
  <scstep>
   <time name="dav">    0.08    0.08</time>
   <time name="total">    0.11    0.11</time>
   <energy>
    <i name="e_fr_energy">    -21.63127099 </i>
    <i name="e_wo_entrp">    -21.58561467 </i>
    <i name="e_0_energy">    -21.61605222 </i>
   </energy>
  </scstep>
  <scstep>
   <time name="dav">    0.12    0.13</time>
   <time name="total">    0.15    0.15</time>
   <energy>
    <i name="e_fr_energy">    -21.60488329 </i>
    <i name="e_wo_entrp">    -21.53383459 </i>
    <i name="e_0_energy">    -21.58120039 </i>
   </energy>
  </scstep>
  <scstep>
   <time name="dav">    0.10    0.10</time>
   <time name="total">    0.12    0.13</time>
   <energy>
    <i name="e_fr_energy">    -21.60602270 </i>
    <i name="e_wo_entrp">    -21.53447877 </i>
    <i name="e_0_energy">    -21.58217472 </i>
   </energy>
  </scstep>
  <scstep>
   <time name="dav">    0.10    0.10</time>
   <time name="total">    0.12    0.12</time>
   <energy>
    <i name="e_fr_energy">    -21.60474548 </i>
    <i name="e_wo_entrp">    -21.53092047 </i>
    <i name="e_0_energy">    -21.58013715 </i>
   </energy>
  </scstep>
  <scstep>
   <time name="dav">    0.10    0.10</time>
   <time name="total">    0.13    0.13</time>
   <energy>
    <i name="e_fr_energy">    -21.60487365 </i>
    <i name="e_wo_entrp">    -21.53111502 </i>
    <i name="e_0_energy">    -21.58028744 </i>
   </energy>
  </scstep>
  <scstep>
   <time name="dav">    0.09    0.09</time>
   <time name="total">    0.11    0.12</time>
   <energy>
    <i name="e_fr_energy">    -21.60481887 </i>
    <i name="e_wo_entrp">    -21.53126398 </i>
    <i name="e_0_energy">    -21.58030057 </i>
   </energy>
  </scstep>
  <scstep>
   <time name="dav">    0.11    0.11</time>
   <time name="total">    0.13    0.14</time>
   <energy>
    <i name="e_fr_energy">    -21.60480809 </i>
    <i name="e_wo_entrp">    -21.53137577 </i>
    <i name="e_0_energy">    -21.58033065 </i>
   </energy>
  </scstep>
  <scstep>
   <time name="dav">    0.07    0.07</time>
   <time name="total">    0.08    0.09</time>
   <energy>
    <i name="alphaZ">    189.02149415 </i>
    <i name="ewald">  -3764.02729516 </i>
    <i name="hartreedc">   -893.88805635 </i>
    <i name="XCdc">    122.68069906 </i>
    <i name="pawpsdc">   4273.07253027 </i>
    <i name="pawaedc">  -4546.99504467 </i>
    <i name="eentropy">     -0.07342659 </i>
    <i name="bandstr">    288.06368546 </i>
    <i name="atom">   4310.54060494 </i>
    <i name="e_fr_energy">    -21.60480890 </i>
    <i name="e_wo_entrp">    -21.53138231 </i>
    <i name="e_0_energy">    -21.58033337 </i>
   </energy>
  </scstep>
  <structure>
   <crystal>
    <varray name="basis" >
     <v>       3.50800000       0.00000000       0.00000000 </v>
     <v>       0.00000000       3.50800000       0.00000000 </v>
     <v>       0.00000000       0.00000000       3.50800000 </v>
    </varray>
    <i name="volume">     43.16967251 </i>
    <varray name="rec_basis" >
     <v>       0.28506271       0.00000000       0.00000000 </v>
     <v>       0.00000000       0.28506271       0.00000000 </v>
     <v>       0.00000000       0.00000000       0.28506271 </v>
    </varray>
   </crystal>
   <varray name="positions" >
    <v>       0.00000000       0.00000000       0.00000000 </v>
    <v>       0.00000000       0.50000000       0.50000000 </v>
    <v>       0.50000000       0.00000000       0.50000000 </v>
    <v>       0.50000000       0.50000000       0.00000000 </v>
   </varray>
  </structure>
  <varray name="forces" >
   <v>       0.00000000       0.00000000       0.00000000 </v>
   <v>       0.00000000      -0.00000000       0.00000000 </v>
   <v>       0.00000000      -0.00000000      -0.00000000 </v>
   <v>      -0.00000000       0.00000000       0.00000000 </v>
  </varray>
  <varray name="stress" >
   <v>     -32.53098262      -0.00000000      -0.00000000 </v>
   <v>       0.00000000     -32.53098262      -0.00000000 </v>
   <v>      -0.00000000       0.00000000     -32.53098262 </v>
  </varray>
  <energy>
   <i name="e_fr_energy">    -21.60480890 </i>
   <i name="e_wo_entrp">    -21.58033337 </i>
   <i name="e_0_energy">     -0.07342659 </i>
  </energy>
  <time name="totalsc">    2.96    3.05</time>
 </calculation>
 <calculation>
  <scstep>
   <time name="dav">    0.08    0.08</time>
   <time name="total">    0.10    0.11</time>
   <energy>
    <i name="alphaZ">    195.14523099 </i>
    <i name="ewald">  -3804.24385356 </i>
    <i name="hartreedc">   -903.45048400 </i>
    <i name="XCdc">    124.67236536 </i>
    <i name="pawpsdc">   4273.04906943 </i>
    <i name="pawaedc">  -4546.97385914 </i>
    <i name="eentropy">     -0.07866551 </i>
    <i name="bandstr">    328.99149060 </i>
    <i name="atom">   4310.54060494 </i>
    <i name="e_fr_energy">    -22.34810089 </i>
    <i name="e_wo_entrp">    -22.26943538 </i>
    <i name="e_0_energy">    -22.32187905 </i>
   </energy>
  </scstep>
  <scstep>
   <time name="dav">    0.09    0.09</time>
   <time name="total">    0.11    0.11</time>
   <energy>
    <i name="e_fr_energy">    -21.85660920 </i>
    <i name="e_wo_entrp">    -21.80118993 </i>
    <i name="e_0_energy">    -21.83813611 </i>
   </energy>
  </scstep>
  <scstep>
   <time name="dav">    0.08    0.08</time>
   <time name="total">    0.10    0.11</time>
   <energy>
    <i name="e_fr_energy">    -21.61469462 </i>
    <i name="e_wo_entrp">    -21.53582155 </i>
    <i name="e_0_energy">    -21.58840360 </i>
   </energy>
  </scstep>
  <scstep>
   <time name="dav">    0.13    0.13</time>
   <time name="total">    0.15    0.15</time>
   <energy>
    <i name="e_fr_energy">    -21.59975020 </i>
    <i name="e_wo_entrp">    -21.52424359 </i>
    <i name="e_0_energy">    -21.57458133 </i>
   </energy>
  </scstep>
  <scstep>
   <time name="dav">    0.09    0.09</time>
   <time name="total">    0.11    0.12</time>
   <energy>
    <i name="e_fr_energy">    -21.59967986 </i>
    <i name="e_wo_entrp">    -21.52399798 </i>
    <i name="e_0_energy">    -21.57445257 </i>
   </energy>
  </scstep>
  <scstep>
   <time name="dav">    0.12    0.12</time>
   <time name="total">    0.14    0.14</time>
   <energy>
    <i name="e_fr_energy">    -21.59968554 </i>
    <i name="e_wo_entrp">    -21.52399754 </i>
    <i name="e_0_energy">    -21.57445621 </i>
   </energy>
  </scstep>
  <scstep>
   <time name="dav">    0.10    0.10</time>
   <time name="total">    0.12    0.13</time>
   <energy>
    <i name="e_fr_energy">    -21.59964615 </i>
    <i name="e_wo_entrp">    -21.52391613 </i>
    <i name="e_0_energy">    -21.57440281 </i>
   </energy>
  </scstep>
  <scstep>
   <time name="dav">    0.10    0.10</time>
   <time name="total">    0.12    0.12</time>
   <energy>
    <i name="e_fr_energy">    -21.59963727 </i>
    <i name="e_wo_entrp">    -21.52383208 </i>
    <i name="e_0_energy">    -21.57436887 </i>
   </energy>
  </scstep>
  <scstep>
   <time name="dav">    0.05    0.05</time>
   <time name="total">    0.06    0.07</time>
   <energy>
    <i name="alphaZ">    195.14523099 </i>
    <i name="ewald">  -3804.24385356 </i>
    <i name="hartreedc">   -874.20017274 </i>
    <i name="XCdc">    123.02940938 </i>
    <i name="pawpsdc">   4332.79814329 </i>
    <i name="pawaedc">  -4607.81700568 </i>
    <i name="eentropy">     -0.07580706 </i>
    <i name="bandstr">    303.22381262 </i>
    <i name="atom">   4310.54060494 </i>
    <i name="e_fr_energy">    -21.59963784 </i>
    <i name="e_wo_entrp">    -21.52383078 </i>
    <i name="e_0_energy">    -21.57436882 </i>
   </energy>
  </scstep>
  <structure>
   <crystal>
    <varray name="basis" >
     <v>       3.47091518      -0.00000000      -0.00000000 </v>
     <v>       0.00000000       3.47091518      -0.00000000 </v>
     <v>      -0.00000000       0.00000000       3.47091518 </v>
    </varray>
    <i name="volume">     41.81499060 </i>
    <varray name="rec_basis" >
     <v>       0.28810845      -0.00000000       0.00000000 </v>
     <v>       0.00000000       0.28810845       0.00000000 </v>
     <v>       0.00000000       0.00000000       0.28810845 </v>
    </varray>
   </crystal>
   <varray name="positions" >
    <v>       0.00000000       0.00000000       0.00000000 </v>
    <v>       0.00000000       0.50000000       0.50000000 </v>
    <v>       0.50000000      -0.00000000       0.50000000 </v>
    <v>       0.50000000       0.50000000       0.00000000 </v>
   </varray>
  </structure>
  <varray name="forces" >
   <v>      -0.00000000      -0.00000000      -0.00000000 </v>
   <v>       0.00000000       0.00000000       0.00000000 </v>
   <v>       0.00000000       0.00000000       0.00000000 </v>
   <v>      -0.00000000       0.00000000      -0.00000000 </v>
  </varray>
  <varray name="stress" >
   <v>      49.55382335      -0.00000000      -0.00000000 </v>
   <v>       0.00000000      49.55382335       0.00000000 </v>
   <v>      -0.00000000       0.00000000      49.55382335 </v>
  </varray>
  <energy>
   <i name="e_fr_energy">    -21.59963784 </i>
   <i name="e_wo_entrp">    -21.57436882 </i>
   <i name="e_0_energy">     -0.07580706 </i>
  </energy>
  <time name="totalsc">    1.11    1.15</time>
 </calculation>
 <calculation>
  <scstep>
   <time name="dav">    0.08    0.08</time>
   <time name="total">    0.11    0.11</time>
   <energy>
    <i name="alphaZ">    191.65195459 </i>
    <i name="ewald">  -3781.40723760 </i>
    <i name="hartreedc">   -868.94821613 </i>
    <i name="XCdc">    121.91188935 </i>
    <i name="pawpsdc">   4332.71631729 </i>
    <i name="pawaedc">  -4607.74032575 </i>
    <i name="eentropy">     -0.05080294 </i>
    <i name="bandstr">    279.47540824 </i>
    <i name="atom">   4310.54060494 </i>
    <i name="e_fr_energy">    -21.85040801 </i>
    <i name="e_wo_entrp">    -21.79960507 </i>
    <i name="e_0_energy">    -21.83347370 </i>
   </energy>
  </scstep>
  <scstep>
   <time name="dav">    0.09    0.09</time>
   <time name="total">    0.11    0.11</time>
   <energy>
    <i name="e_fr_energy">    -21.69555818 </i>
    <i name="e_wo_entrp">    -21.61298964 </i>
    <i name="e_0_energy">    -21.66803533 </i>
   </energy>
  </scstep>
  <scstep>
   <time name="dav">    0.08    0.08</time>
   <time name="total">    0.10    0.11</time>
   <energy>
    <i name="e_fr_energy">    -21.61621201 </i>
    <i name="e_wo_entrp">    -21.54385336 </i>
    <i name="e_0_energy">    -21.59209246 </i>
   </energy>
  </scstep>
  <scstep>
   <time name="dav">    0.13    0.13</time>
   <time name="total">    0.16    0.16</time>
   <energy>
    <i name="e_fr_energy">    -21.61130121 </i>
    <i name="e_wo_entrp">    -21.53679054 </i>
    <i name="e_0_energy">    -21.58646432 </i>
   </energy>
  </scstep>
  <scstep>
   <time name="dav">    0.09    0.09</time>
   <time name="total">    0.11    0.11</time>
   <energy>
    <i name="e_fr_energy">    -21.61139665 </i>
    <i name="e_wo_entrp">    -21.53702133 </i>
    <i name="e_0_energy">    -21.58660487 </i>
   </energy>
  </scstep>
  <scstep>
   <time name="dav">    0.11    0.11</time>
   <time name="total">    0.13    0.14</time>
   <energy>
    <i name="e_fr_energy">    -21.61116926 </i>
    <i name="e_wo_entrp">    -21.53665233 </i>
    <i name="e_0_energy">    -21.58633029 </i>
   </energy>
  </scstep>
  <scstep>
   <time name="dav">    0.10    0.10</time>
   <time name="total">    0.12    0.12</time>
   <energy>
    <i name="e_fr_energy">    -21.61120412 </i>
    <i name="e_wo_entrp">    -21.53667540 </i>
    <i name="e_0_energy">    -21.58636122 </i>
   </energy>
  </scstep>
  <scstep>
   <time name="dav">    0.06    0.06</time>
   <time name="total">    0.08    0.09</time>
   <energy>
    <i name="e_fr_energy">    -21.61121477 </i>
    <i name="e_wo_entrp">    -21.53670707 </i>
    <i name="e_0_energy">    -21.58637887 </i>
   </energy>
  </scstep>
  <scstep>
   <time name="dav">    0.08    0.08</time>
   <time name="total">    0.11    0.11</time>
   <energy>
    <i name="e_fr_energy">    -21.61121799 </i>
    <i name="e_wo_entrp">    -21.53674700 </i>
    <i name="e_0_energy">    -21.58639432 </i>
   </energy>
  </scstep>
  <scstep>
   <time name="dav">    0.05    0.05</time>
   <time name="total">    0.06    0.07</time>
   <energy>
    <i name="alphaZ">    191.65195459 </i>
    <i name="ewald">  -3781.40723760 </i>
    <i name="hartreedc">   -885.33871285 </i>
    <i name="XCdc">    122.83021997 </i>
    <i name="pawpsdc">   4298.31406841 </i>
    <i name="pawaedc">  -4572.71593699 </i>
    <i name="eentropy">     -0.07446959 </i>
    <i name="bandstr">    294.58829078 </i>
    <i name="atom">   4310.54060494 </i>
    <i name="e_fr_energy">    -21.61121834 </i>
    <i name="e_wo_entrp">    -21.53674874 </i>
    <i name="e_0_energy">    -21.58639514 </i>
   </energy>
  </scstep>
  <structure>
   <crystal>
    <varray name="basis" >
     <v>       3.49187668      -0.00000000      -0.00000000 </v>
     <v>       0.00000000       3.49187668      -0.00000000 </v>
     <v>      -0.00000000       0.00000000       3.49187668 </v>
    </varray>
    <i name="volume">     42.57716034 </i>
    <varray name="rec_basis" >
     <v>       0.28637896      -0.00000000       0.00000000 </v>
     <v>       0.00000000       0.28637896       0.00000000 </v>
     <v>       0.00000000       0.00000000       0.28637896 </v>
    </varray>
   </crystal>
   <varray name="positions" >
    <v>       0.00000000       0.00000000       0.00000000 </v>
    <v>       0.00000000       0.50000000       0.50000000 </v>
    <v>       0.50000000      -0.00000000       0.50000000 </v>
    <v>       0.50000000       0.50000000       0.00000000 </v>
   </varray>
  </structure>
  <varray name="forces" >
   <v>       0.00000000       0.00000000       0.00000000 </v>
   <v>       0.00000000      -0.00000000       0.00000000 </v>
   <v>      -0.00000000       0.00000000       0.00000000 </v>
   <v>      -0.00000000      -0.00000000      -0.00000000 </v>
  </varray>
  <varray name="stress" >
   <v>       0.46732585      -0.00000000       0.00000000 </v>
   <v>       0.00000000       0.46732585       0.00000000 </v>
   <v>      -0.00000000      -0.00000000       0.46732585 </v>
  </varray>
  <energy>
   <i name="e_fr_energy">    -21.61121834 </i>
   <i name="e_wo_entrp">    -21.58639514 </i>
   <i name="e_0_energy">     -0.07446959 </i>
  </energy>
  <time name="totalsc">    1.17    1.21</time>
 </calculation>
 <calculation>
  <scstep>
   <time name="dav">    0.08    0.08</time>
   <time name="total">    0.11    0.11</time>
   <energy>
    <i name="alphaZ">    191.61487076 </i>
    <i name="ewald">  -3781.16332654 </i>
    <i name="hartreedc">   -885.28219359 </i>
    <i name="XCdc">    122.81824239 </i>
    <i name="pawpsdc">   4298.34070142 </i>
    <i name="pawaedc">  -4572.74200197 </i>
    <i name="eentropy">     -0.07421782 </i>
    <i name="bandstr">    294.33607265 </i>
    <i name="atom">   4310.54060494 </i>
    <i name="e_fr_energy">    -21.61124777 </i>
    <i name="e_wo_entrp">    -21.53702994 </i>
    <i name="e_0_energy">    -21.58650849 </i>
   </energy>
  </scstep>
  <scstep>
   <time name="dav">    0.09    0.09</time>
   <time name="total">    0.11    0.11</time>
   <energy>
    <i name="e_fr_energy">    -21.61122895 </i>
    <i name="e_wo_entrp">    -21.53665908 </i>
    <i name="e_0_energy">    -21.58637233 </i>
   </energy>
  </scstep>
  <scstep>
   <time name="dav">    0.08    0.08</time>
   <time name="total">    0.10    0.11</time>
   <energy>
    <i name="e_fr_energy">    -21.61121955 </i>
    <i name="e_wo_entrp">    -21.53678610 </i>
    <i name="e_0_energy">    -21.58640840 </i>
   </energy>
  </scstep>
  <scstep>
   <time name="dav">    0.07    0.07</time>
   <time name="total">    0.08    0.08</time>
   <energy>
    <i name="alphaZ">    191.61487076 </i>
    <i name="ewald">  -3781.16332654 </i>
    <i name="hartreedc">   -885.45323125 </i>
    <i name="XCdc">    122.82769960 </i>
    <i name="pawpsdc">   4298.11519289 </i>
    <i name="pawaedc">  -4572.51350472 </i>
    <i name="eentropy">     -0.07444615 </i>
    <i name="bandstr">    294.49492090 </i>
    <i name="atom">   4310.54060494 </i>
    <i name="e_fr_energy">    -21.61121957 </i>
    <i name="e_wo_entrp">    -21.53677342 </i>
    <i name="e_0_energy">    -21.58640419 </i>
   </energy>
  </scstep>
  <structure>
   <crystal>
    <varray name="basis" >
     <v>       3.49210193      -0.00000000      -0.00000000 </v>
     <v>       0.00000000       3.49210193      -0.00000000 </v>
     <v>      -0.00000000       0.00000000       3.49210193 </v>
    </varray>
    <i name="volume">     42.58540043 </i>
    <varray name="rec_basis" >
     <v>       0.28636048      -0.00000000       0.00000000 </v>
     <v>       0.00000000       0.28636048       0.00000000 </v>
     <v>       0.00000000       0.00000000       0.28636048 </v>
    </varray>
   </crystal>
   <varray name="positions" >
    <v>       0.00000000       0.00000000       0.00000000 </v>
    <v>       0.00000000       0.50000000       0.50000000 </v>
    <v>       0.50000000      -0.00000000       0.50000000 </v>
    <v>       0.50000000       0.50000000       0.00000000 </v>
   </varray>
  </structure>
  <varray name="forces" >
   <v>       0.00000000      -0.00000000      -0.00000000 </v>
   <v>      -0.00000000       0.00000000       0.00000000 </v>
   <v>      -0.00000000      -0.00000000       0.00000000 </v>
   <v>       0.00000000       0.00000000      -0.00000000 </v>
  </varray>
  <varray name="stress" >
   <v>       0.09974545       0.00000000       0.00000000 </v>
   <v>       0.00000000       0.09974545       0.00000000 </v>
   <v>       0.00000000       0.00000000       0.09974545 </v>
  </varray>
  <energy>
   <i name="e_fr_energy">    -21.61121957 </i>
   <i name="e_wo_entrp">    -21.58640419 </i>
   <i name="e_0_energy">     -0.07444615 </i>
  </energy>
  <time name="totalsc">    0.47    0.49</time>
  <eigenvalues>
   <array>
    <dimension dim="1">band</dimension>
    <dimension dim="2">kpoint</dimension>
    <dimension dim="3">spin</dimension>
    <field>eigene</field>
    <field>occ</field>
    <set>
     <set comment="spin 1">
      <set comment="kpoint 1">
       <r>    1.1199    1.0000 </r>
       <r>    5.3309    1.0000 </r>
       <r>    5.3309    1.0000 </r>
       <r>    5.3309    1.0000 </r>
       <r>    5.9008    1.0000 </r>
       <r>    5.9008    1.0000 </r>
       <r>    5.9008    1.0000 </r>
       <r>    7.4372    1.0000 </r>
       <r>    7.7218    1.0000 </r>
       <r>    7.7218    1.0000 </r>
       <r>    8.6992    1.0000 </r>
       <r>    8.6992    1.0000 </r>
       <r>    8.7222    1.0000 </r>
       <r>    8.7222    1.0000 </r>
       <r>    8.7222    1.0000 </r>
       <r>    9.2024    1.0216 </r>
       <r>    9.2024    1.0216 </r>
       <r>    9.2024    1.0216 </r>
       <r>    9.6047    0.2033 </r>
       <r>    9.6047    0.2033 </r>
       <r>    9.6047    0.2033 </r>
       <r>   12.3520   -0.0000 </r>
       <r>   12.3520   -0.0000 </r>
       <r>   12.3520   -0.0000 </r>
       <r>   20.7044    0.0000 </r>
       <r>   20.7044    0.0000 </r>
       <r>   20.7044    0.0000 </r>
       <r>   22.0183    0.0000 </r>
       <r>   22.0183    0.0000 </r>
       <r>   22.0183    0.0000 </r>
       <r>   25.6651    0.0000 </r>
       <r>   25.6651    0.0000 </r>
      </set>
      <set comment="kpoint 2">
       <r>    2.6379    1.0000 </r>
       <r>    4.7838    1.0000 </r>
       <r>    5.9948    1.0000 </r>
       <r>    5.9948    1.0000 </r>
       <r>    6.3478    1.0000 </r>
       <r>    6.3570    1.0000 </r>
       <r>    6.3570    1.0000 </r>
       <r>    6.9977    1.0000 </r>
       <r>    7.3973    1.0000 </r>
       <r>    7.3973    1.0000 </r>
       <r>    7.8097    1.0000 </r>
       <r>    7.8800    1.0000 </r>
       <r>    8.0303    1.0000 </r>
       <r>    8.5502    1.0000 </r>
       <r>    8.6181    1.0000 </r>
       <r>    8.7509    1.0000 </r>
       <r>    8.7509    1.0000 </r>
       <r>    9.0098    1.0007 </r>
       <r>    9.3986    0.9417 </r>
       <r>    9.5182    0.5451 </r>
       <r>    9.5182    0.5451 </r>
       <r>    9.6205    0.1539 </r>
       <r>   14.6763   -0.0000 </r>
       <r>   14.6763   -0.0000 </r>
       <r>   17.9863    0.0000 </r>
       <r>   17.9863    0.0000 </r>
       <r>   21.7163    0.0000 </r>
       <r>   21.7163    0.0000 </r>
       <r>   23.8182    0.0000 </r>
       <r>   23.9881    0.0000 </r>
       <r>   23.9881    0.0000 </r>
       <r>   26.9370    0.0000 </r>
      </set>
      <set comment="kpoint 3">
       <r>    3.9079    1.0000 </r>
       <r>    5.5343    1.0000 </r>
       <r>    5.5343    1.0000 </r>
       <r>    6.0436    1.0000 </r>
       <r>    6.6370    1.0000 </r>
       <r>    6.7445    1.0000 </r>
       <r>    6.7445    1.0000 </r>
       <r>    7.0223    1.0000 </r>
       <r>    7.2076    1.0000 </r>
       <r>    7.2076    1.0000 </r>
       <r>    7.3261    1.0000 </r>
       <r>    7.6453    1.0000 </r>
       <r>    7.9815    1.0000 </r>
       <r>    8.3327    1.0000 </r>
       <r>    8.3335    1.0000 </r>
       <r>    8.3335    1.0000 </r>
       <r>    8.6407    1.0000 </r>
       <r>    9.1686    1.0144 </r>
       <r>    9.1686    1.0144 </r>
       <r>    9.2365    1.0293 </r>
       <r>    9.5821    0.2835 </r>
       <r>   11.1065   -0.0000 </r>
       <r>   11.1065   -0.0000 </r>
       <r>   13.4218   -0.0000 </r>
       <r>   16.9657    0.0000 </r>
       <r>   19.7959    0.0000 </r>
       <r>   19.7959    0.0000 </r>
       <r>   22.8103    0.0000 </r>
       <r>   22.9350    0.0000 </r>
       <r>   25.4097    0.0000 </r>
       <r>   25.4097    0.0000 </r>
       <r>   28.2887    0.0000 </r>
      </set>
      <set comment="kpoint 4">
       <r>    4.5239    1.0000 </r>
       <r>    5.2786    1.0000 </r>
       <r>    5.2786    1.0000 </r>
       <r>    5.2786    1.0000 </r>
       <r>    7.2446    1.0000 </r>
       <r>    7.2446    1.0000 </r>
       <r>    7.2446    1.0000 </r>
       <r>    7.6487    1.0000 </r>
       <r>    7.6487    1.0000 </r>
       <r>    7.8063    1.0000 </r>
       <r>    7.8063    1.0000 </r>
       <r>    7.8063    1.0000 </r>
       <r>    7.8671    1.0000 </r>
       <r>    7.8980    1.0000 </r>
       <r>    7.8980    1.0000 </r>
       <r>    7.8980    1.0000 </r>
       <r>    9.2764    1.0352 </r>
       <r>    9.2764    1.0352 </r>
       <r>    9.5134    0.5654 </r>
       <r>    9.5134    0.5654 </r>
       <r>    9.5134    0.5654 </r>
       <r>   11.1234   -0.0000 </r>
       <r>   11.1234   -0.0000 </r>
       <r>   11.1234   -0.0000 </r>
       <r>   16.3146    0.0000 </r>
       <r>   16.3146    0.0000 </r>
       <r>   16.3146    0.0000 </r>
       <r>   18.7536    0.0000 </r>
       <r>   29.3303    0.0000 </r>
       <r>   29.3303    0.0000 </r>
       <r>   29.3303    0.0000 </r>
       <r>   31.6948    0.0000 </r>
      </set>
     </set>
     <set comment="spin 2">
      <set comment="kpoint 1">
       <r>    1.1199    1.0000 </r>
       <r>    5.3313    1.0000 </r>
       <r>    5.3313    1.0000 </r>
       <r>    5.3313    1.0000 </r>
       <r>    5.9014    1.0000 </r>
       <r>    5.9014    1.0000 </r>
       <r>    5.9014    1.0000 </r>
       <r>    7.4379    1.0000 </r>
       <r>    7.7225    1.0000 </r>
       <r>    7.7225    1.0000 </r>
       <r>    8.6998    1.0000 </r>
       <r>    8.6998    1.0000 </r>
       <r>    8.7228    1.0000 </r>
       <r>    8.7228    1.0000 </r>
       <r>    8.7228    1.0000 </r>
       <r>    9.2031    1.0217 </r>
       <r>    9.2031    1.0217 </r>
       <r>    9.2031    1.0217 </r>
       <r>    9.6055    0.2008 </r>
       <r>    9.6055    0.2008 </r>
       <r>    9.6055    0.2008 </r>
       <r>   12.3522   -0.0000 </r>
       <r>   12.3522   -0.0000 </r>
       <r>   12.3522   -0.0000 </r>
       <r>   20.7046    0.0000 </r>
       <r>   20.7046    0.0000 </r>
       <r>   20.7046    0.0000 </r>
       <r>   22.0184    0.0000 </r>
       <r>   22.0184    0.0000 </r>
       <r>   22.0184    0.0000 </r>
       <r>   25.6651    0.0000 </r>
       <r>   25.6651    0.0000 </r>
      </set>
      <set comment="kpoint 2">
       <r>    2.6379    1.0000 </r>
       <r>    4.7839    1.0000 </r>
       <r>    5.9953    1.0000 </r>
       <r>    5.9953    1.0000 </r>
       <r>    6.3484    1.0000 </r>
       <r>    6.3575    1.0000 </r>
       <r>    6.3575    1.0000 </r>
       <r>    6.9983    1.0000 </r>
       <r>    7.3979    1.0000 </r>
       <r>    7.3979    1.0000 </r>
       <r>    7.8103    1.0000 </r>
       <r>    7.8806    1.0000 </r>
       <r>    8.0310    1.0000 </r>
       <r>    8.5509    1.0000 </r>
       <r>    8.6188    1.0000 </r>
       <r>    8.7515    1.0000 </r>
       <r>    8.7515    1.0000 </r>
       <r>    9.0105    1.0008 </r>
       <r>    9.3993    0.9403 </r>
       <r>    9.5190    0.5418 </r>
       <r>    9.5190    0.5418 </r>
       <r>    9.6211    0.1522 </r>
       <r>   14.6766   -0.0000 </r>
       <r>   14.6766   -0.0000 </r>
       <r>   17.9865    0.0000 </r>
       <r>   17.9865    0.0000 </r>
       <r>   21.7165    0.0000 </r>
       <r>   21.7165    0.0000 </r>
       <r>   23.8183    0.0000 </r>
       <r>   23.9882    0.0000 </r>
       <r>   23.9882    0.0000 </r>
       <r>   26.9372    0.0000 </r>
      </set>
      <set comment="kpoint 3">
       <r>    3.9079    1.0000 </r>
       <r>    5.5346    1.0000 </r>
       <r>    5.5346    1.0000 </r>
       <r>    6.0441    1.0000 </r>
       <r>    6.6374    1.0000 </r>
       <r>    6.7450    1.0000 </r>
       <r>    6.7450    1.0000 </r>
       <r>    7.0229    1.0000 </r>
       <r>    7.2082    1.0000 </r>
       <r>    7.2082    1.0000 </r>
       <r>    7.3267    1.0000 </r>
       <r>    7.6459    1.0000 </r>
       <r>    7.9822    1.0000 </r>
       <r>    8.3334    1.0000 </r>
       <r>    8.3341    1.0000 </r>
       <r>    8.3341    1.0000 </r>
       <r>    8.6414    1.0000 </r>
       <r>    9.1693    1.0145 </r>
       <r>    9.1693    1.0145 </r>
       <r>    9.2372    1.0295 </r>
       <r>    9.5828    0.2810 </r>
       <r>   11.1070   -0.0000 </r>
       <r>   11.1070   -0.0000 </r>
       <r>   13.4221   -0.0000 </r>
       <r>   16.9659    0.0000 </r>
       <r>   19.7961    0.0000 </r>
       <r>   19.7961    0.0000 </r>
       <r>   22.8104    0.0000 </r>
       <r>   22.9352    0.0000 </r>
       <r>   25.4098    0.0000 </r>
       <r>   25.4098    0.0000 </r>
       <r>   28.2888    0.0000 </r>
      </set>
      <set comment="kpoint 4">
       <r>    4.5241    1.0000 </r>
       <r>    5.2790    1.0000 </r>
       <r>    5.2790    1.0000 </r>
       <r>    5.2790    1.0000 </r>
       <r>    7.2451    1.0000 </r>
       <r>    7.2451    1.0000 </r>
       <r>    7.2451    1.0000 </r>
       <r>    7.6494    1.0000 </r>
       <r>    7.6494    1.0000 </r>
       <r>    7.8070    1.0000 </r>
       <r>    7.8070    1.0000 </r>
       <r>    7.8070    1.0000 </r>
       <r>    7.8674    1.0000 </r>
       <r>    7.8984    1.0000 </r>
       <r>    7.8984    1.0000 </r>
       <r>    7.8984    1.0000 </r>
       <r>    9.2772    1.0353 </r>
       <r>    9.2772    1.0353 </r>
       <r>    9.5141    0.5623 </r>
       <r>    9.5141    0.5623 </r>
       <r>    9.5141    0.5623 </r>
       <r>   11.1237   -0.0000 </r>
       <r>   11.1237   -0.0000 </r>
       <r>   11.1237   -0.0000 </r>
       <r>   16.3150    0.0000 </r>
       <r>   16.3150    0.0000 </r>
       <r>   16.3150    0.0000 </r>
       <r>   18.7538    0.0000 </r>
       <r>   29.3303    0.0000 </r>
       <r>   29.3303    0.0000 </r>
       <r>   29.3303    0.0000 </r>
       <r>   31.6949    0.0000 </r>
      </set>
     </set>
    </set>
   </array>
  </eigenvalues>
  <separator name="orbital magnetization" >
   <v name="MAGDIPOLOUT">      0.00000000      0.00000000      0.00000000</v>
  </separator>
  <dos>
   <i name="efermi">      9.52892200 </i>
   <total>
    <array>
     <dimension dim="1">gridpoints</dimension>
     <dimension dim="2">spin</dimension>
     <field>energy</field>
     <field>total</field>
     <field>integrated</field>
     <set>
      <set comment="spin 1">
       <r>    -0.8801     0.0000     0.0000 </r>
       <r>    -0.7648     0.0000     0.0000 </r>
       <r>    -0.6496     0.0000     0.0000 </r>
       <r>    -0.5343    -0.0000    -0.0000 </r>
       <r>    -0.4191    -0.0000    -0.0000 </r>
       <r>    -0.3038    -0.0000    -0.0000 </r>
       <r>    -0.1886    -0.0000    -0.0000 </r>
       <r>    -0.0733    -0.0000    -0.0000 </r>
       <r>     0.0419    -0.0000    -0.0000 </r>
       <r>     0.1572    -0.0000    -0.0000 </r>
       <r>     0.2724    -0.0000    -0.0000 </r>
       <r>     0.3877    -0.0000    -0.0000 </r>
       <r>     0.5029    -0.0001    -0.0000 </r>
       <r>     0.6182    -0.0011    -0.0001 </r>
       <r>     0.7334    -0.0095    -0.0012 </r>
       <r>     0.8487    -0.0253    -0.0042 </r>
       <r>     0.9639     0.0526     0.0019 </r>
       <r>     1.0792     0.3430     0.0414 </r>
       <r>     1.1944     0.4998     0.0990 </r>
       <r>     1.3097     0.2459     0.1274 </r>
       <r>     1.4249     0.0082     0.1283 </r>
       <r>     1.5402    -0.0226     0.1257 </r>
       <r>     1.6554    -0.0056     0.1251 </r>
       <r>     1.7707    -0.0005     0.1250 </r>
       <r>     1.8859    -0.0000     0.1250 </r>
       <r>     2.0012    -0.0001     0.1250 </r>
       <r>     2.1164    -0.0022     0.1247 </r>
       <r>     2.2317    -0.0212     0.1223 </r>
       <r>     2.3469    -0.0728     0.1139 </r>
       <r>     2.4622     0.0718     0.1222 </r>
       <r>     2.5774     0.8594     0.2212 </r>
       <r>     2.6927     1.5156     0.3959 </r>
       <r>     2.8079     0.9091     0.5007 </r>
       <r>     2.9232     0.0943     0.5115 </r>
       <r>     3.0384    -0.0743     0.5030 </r>
       <r>     3.1537    -0.0232     0.5003 </r>
       <r>     3.2689    -0.0026     0.5000 </r>
       <r>     3.3842    -0.0022     0.4997 </r>
       <r>     3.4994    -0.0205     0.4974 </r>
       <r>     3.6147    -0.0722     0.4891 </r>
       <r>     3.7299     0.0636     0.4964 </r>
       <r>     3.8452     0.8400     0.5932 </r>
       <r>     3.9604     1.5143     0.7677 </r>
       <r>     4.0757     0.9249     0.8743 </r>
       <r>     4.1909     0.0852     0.8841 </r>
       <r>     4.3062    -0.0935     0.8734 </r>
       <r>     4.4214     0.1050     0.8855 </r>
       <r>     4.5367     0.3948     0.9310 </r>
       <r>     4.6519     0.7102     1.0128 </r>
       <r>     4.7672     1.3227     1.1653 </r>
       <r>     4.8824     1.3622     1.3223 </r>
       <r>     4.9977     0.3893     1.3671 </r>
       <r>     5.1129     0.0058     1.3678 </r>
       <r>     5.2282     1.2584     1.5128 </r>
       <r>     5.3434     2.9437     1.8521 </r>
       <r>     5.4587     3.5098     2.2566 </r>
       <r>     5.5739     3.2740     2.6339 </r>
       <r>     5.6892     1.7317     2.8335 </r>
       <r>     5.8044     0.7967     2.9253 </r>
       <r>     5.9197     3.0401     3.2757 </r>
       <r>     6.0349     5.2319     3.8787 </r>
       <r>     6.1502     3.6835     4.3032 </r>
       <r>     6.2654     2.5334     4.5952 </r>
       <r>     6.3807     3.9924     5.0553 </r>
       <r>     6.4959     3.4041     5.4476 </r>
       <r>     6.6112     2.3564     5.7192 </r>
       <r>     6.7264     3.4925     6.1217 </r>
       <r>     6.8417     3.4670     6.5213 </r>
       <r>     6.9569     2.6332     6.8247 </r>
       <r>     7.0722     3.3159     7.2069 </r>
       <r>     7.1874     4.9992     7.7830 </r>
       <r>     7.3027     6.7995     8.5667 </r>
       <r>     7.4179     6.3801     9.3020 </r>
       <r>     7.5332     3.8886     9.7502 </r>
       <r>     7.6484     3.2999    10.1305 </r>
       <r>     7.7637     5.6681    10.7837 </r>
       <r>     7.8789     7.8891    11.6929 </r>
       <r>     7.9942     7.0268    12.5028 </r>
       <r>     8.1094     3.5986    12.9175 </r>
       <r>     8.2247     2.0034    13.1484 </r>
       <r>     8.3399     3.6269    13.5664 </r>
       <r>     8.4552     4.1957    14.0499 </r>
       <r>     8.5704     4.7244    14.5944 </r>
       <r>     8.6857     7.4755    15.4560 </r>
       <r>     8.8009     7.2460    16.2911 </r>
       <r>     8.9162     3.2958    16.6709 </r>
       <r>     9.0314     1.9711    16.8981 </r>
       <r>     9.1467     4.7451    17.4450 </r>
       <r>     9.2619     6.7599    18.2240 </r>
       <r>     9.3772     5.8307    18.8960 </r>
       <r>     9.4924     6.8657    19.6873 </r>
       <r>     9.6077     8.6867    20.6885 </r>
       <r>     9.7229     5.5186    21.3245 </r>
       <r>     9.8382     1.0060    21.4404 </r>
       <r>     9.9534    -0.3653    21.3983 </r>
       <r>    10.0687    -0.1747    21.3782 </r>
       <r>    10.1839    -0.0258    21.3752 </r>
       <r>    10.2992    -0.0017    21.3750 </r>
       <r>    10.4144    -0.0001    21.3750 </r>
       <r>    10.5297    -0.0015    21.3748 </r>
       <r>    10.6449    -0.0215    21.3723 </r>
       <r>    10.7602    -0.1338    21.3569 </r>
       <r>    10.8754    -0.1839    21.3357 </r>
       <r>    10.9907     1.0974    21.4622 </r>
       <r>    11.1059     3.8682    21.9080 </r>
       <r>    11.2212     4.0929    22.3797 </r>
       <r>    11.3364     1.3677    22.5374 </r>
       <r>    11.4517    -0.1418    22.5210 </r>
       <r>    11.5669    -0.1528    22.5034 </r>
       <r>    11.6822    -0.0275    22.5002 </r>
       <r>    11.7974    -0.0030    22.4999 </r>
       <r>    11.9127    -0.0121    22.4985 </r>
       <r>    12.0279    -0.0589    22.4917 </r>
       <r>    12.1432    -0.0228    22.4891 </r>
       <r>    12.2584     0.5764    22.5555 </r>
       <r>    12.3737     1.4416    22.7217 </r>
       <r>    12.4889     1.1821    22.8579 </r>
       <r>    12.6042     0.2632    22.8882 </r>
       <r>    12.7194    -0.0723    22.8799 </r>
       <r>    12.8347    -0.0374    22.8756 </r>
       <r>    12.9499    -0.0116    22.8742 </r>
       <r>    13.0652    -0.0425    22.8693 </r>
       <r>    13.1804    -0.0661    22.8617 </r>
       <r>    13.2957     0.3321    22.9000 </r>
       <r>    13.4109     1.2601    23.0452 </r>
       <r>    13.5262     1.3922    23.2057 </r>
       <r>    13.6414     0.4905    23.2622 </r>
       <r>    13.7567    -0.0418    23.2574 </r>
       <r>    13.8719    -0.0534    23.2512 </r>
       <r>    13.9872    -0.0099    23.2501 </r>
       <r>    14.1024    -0.0019    23.2499 </r>
       <r>    14.2177    -0.0168    23.2479 </r>
       <r>    14.3329    -0.0979    23.2366 </r>
       <r>    14.4482    -0.1070    23.2243 </r>
       <r>    14.5634     0.8509    23.3224 </r>
       <r>    14.6787     2.6900    23.6324 </r>
       <r>    14.7939     2.6333    23.9359 </r>
       <r>    14.9092     0.7830    24.0261 </r>
       <r>    15.0244    -0.1173    24.0126 </r>
       <r>    15.1397    -0.0930    24.0019 </r>
       <r>    15.2549    -0.0153    24.0001 </r>
       <r>    15.3702    -0.0011    24.0000 </r>
       <r>    15.4854    -0.0000    24.0000 </r>
       <r>    15.6007    -0.0000    24.0000 </r>
       <r>    15.7159    -0.0003    24.0000 </r>
       <r>    15.8312    -0.0051    23.9994 </r>
       <r>    15.9464    -0.0366    23.9952 </r>
       <r>    16.0617    -0.0726    23.9868 </r>
       <r>    16.1769     0.2583    24.0166 </r>
       <r>    16.2922     1.1759    24.1521 </r>
       <r>    16.4074     1.4439    24.3185 </r>
       <r>    16.5227     0.5717    24.3844 </r>
       <r>    16.6379    -0.0782    24.3754 </r>
       <r>    16.7532    -0.0892    24.3651 </r>
       <r>    16.8684     0.5342    24.4267 </r>
       <r>    16.9837     1.4249    24.5909 </r>
       <r>    17.0989     1.2096    24.7303 </r>
       <r>    17.2142     0.2861    24.7633 </r>
       <r>    17.3294    -0.0707    24.7551 </r>
       <r>    17.4447    -0.0414    24.7504 </r>
       <r>    17.5599    -0.0360    24.7462 </r>
       <r>    17.6752    -0.1306    24.7312 </r>
       <r>    17.7904     0.0148    24.7329 </r>
       <r>    17.9057     1.3698    24.8907 </r>
       <r>    18.0209     2.9705    25.2331 </r>
       <r>    18.1362     2.1594    25.4819 </r>
       <r>    18.2514     0.3773    25.5254 </r>
       <r>    18.3666    -0.1608    25.5069 </r>
       <r>    18.4819    -0.0875    25.4968 </r>
       <r>    18.5971     0.0440    25.5019 </r>
       <r>    18.7124     0.3414    25.5412 </r>
       <r>    18.8276     0.5001    25.5989 </r>
       <r>    18.9429     0.2471    25.6273 </r>
       <r>    19.0581     0.0086    25.6283 </r>
       <r>    19.1734    -0.0230    25.6257 </r>
       <r>    19.2886    -0.0117    25.6243 </r>
       <r>    19.4039    -0.0532    25.6182 </r>
       <r>    19.5191    -0.1515    25.6007 </r>
       <r>    19.6344     0.2626    25.6310 </r>
       <r>    19.7496     1.9642    25.8574 </r>
       <r>    19.8649     3.0171    26.2051 </r>
       <r>    19.9801     1.5710    26.3862 </r>
       <r>    20.0954     0.0837    26.3958 </r>
       <r>    20.2106    -0.1441    26.3792 </r>
       <r>    20.3259    -0.0689    26.3713 </r>
       <r>    20.4411    -0.0790    26.3621 </r>
       <r>    20.5564     0.1991    26.3851 </r>
       <r>    20.6716     1.0950    26.5113 </r>
       <r>    20.7869     1.4801    26.6819 </r>
       <r>    20.9021     0.6690    26.7590 </r>
       <r>    21.0174     0.0025    26.7593 </r>
       <r>    21.1326    -0.0652    26.7517 </r>
       <r>    21.2479    -0.0286    26.7484 </r>
       <r>    21.3631    -0.0892    26.7382 </r>
       <r>    21.4784    -0.1282    26.7234 </r>
       <r>    21.5936     0.6959    26.8036 </r>
       <r>    21.7089     2.5015    27.0919 </r>
       <r>    21.8241     2.7597    27.4099 </r>
       <r>    21.9394     1.6273    27.5975 </r>
       <r>    22.0546     1.3959    27.7584 </r>
       <r>    22.1699     0.9621    27.8692 </r>
       <r>    22.2851     0.1594    27.8876 </r>
       <r>    22.4004    -0.0988    27.8762 </r>
       <r>    22.5156    -0.1192    27.8625 </r>
       <r>    22.6309    -0.0135    27.8609 </r>
       <r>    22.7461     0.8547    27.9594 </r>
       <r>    22.8614     2.2587    28.2198 </r>
       <r>    22.9766     2.4417    28.5012 </r>
       <r>    23.0919     1.1312    28.6315 </r>
       <r>    23.2071     0.0782    28.6405 </r>
       <r>    23.3224    -0.1045    28.6285 </r>
       <r>    23.4376    -0.0641    28.6211 </r>
       <r>    23.5529    -0.1052    28.6090 </r>
       <r>    23.6681     0.0661    28.6166 </r>
       <r>    23.7834     1.0499    28.7376 </r>
       <r>    23.8986     2.7065    29.0495 </r>
       <r>    24.0139     3.6015    29.4646 </r>
       <r>    24.1291     2.3088    29.7307 </r>
       <r>    24.2444     0.4120    29.7782 </r>
       <r>    24.3596    -0.1629    29.7594 </r>
       <r>    24.4749    -0.0714    29.7512 </r>
       <r>    24.5901    -0.0096    29.7501 </r>
       <r>    24.7054    -0.0006    29.7500 </r>
       <r>    24.8206    -0.0008    29.7499 </r>
       <r>    24.9359    -0.0124    29.7485 </r>
       <r>    25.0511    -0.0826    29.7390 </r>
       <r>    25.1664    -0.1374    29.7231 </r>
       <r>    25.2816     0.6186    29.7944 </r>
       <r>    25.3969     2.4427    30.0759 </r>
       <r>    25.5121     2.9193    30.4124 </r>
       <r>    25.6274     1.7142    30.6099 </r>
       <r>    25.7426     0.9177    30.7157 </r>
       <r>    25.8579     0.3653    30.7578 </r>
       <r>    25.9731    -0.0100    30.7566 </r>
       <r>    26.0884    -0.0459    30.7514 </r>
       <r>    26.2036    -0.0107    30.7501 </r>
       <r>    26.3189    -0.0012    30.7500 </r>
       <r>    26.4341    -0.0034    30.7496 </r>
       <r>    26.5494    -0.0281    30.7464 </r>
       <r>    26.6646    -0.0760    30.7376 </r>
       <r>    26.7799     0.1521    30.7551 </r>
       <r>    26.8951     1.0193    30.8726 </r>
       <r>    27.0104     1.5016    31.0457 </r>
       <r>    27.1256     0.7475    31.1318 </r>
       <r>    27.2409     0.0281    31.1350 </r>
       <r>    27.3561    -0.0683    31.1272 </r>
       <r>    27.4714    -0.0172    31.1252 </r>
       <r>    27.5866    -0.0016    31.1250 </r>
       <r>    27.7019    -0.0005    31.1249 </r>
       <r>    27.8171    -0.0065    31.1242 </r>
       <r>    27.9324    -0.0423    31.1193 </r>
       <r>    28.0476    -0.0659    31.1117 </r>
       <r>    28.1629     0.3342    31.1502 </r>
       <r>    28.2781     1.2623    31.2957 </r>
       <r>    28.3934     1.3906    31.4560 </r>
       <r>    28.5086     0.4881    31.5122 </r>
       <r>    28.6239    -0.0423    31.5074 </r>
       <r>    28.7391    -0.0536    31.5012 </r>
       <r>    28.8544    -0.0158    31.4994 </r>
       <r>    28.9696    -0.0409    31.4946 </r>
       <r>    29.0849    -0.0688    31.4867 </r>
       <r>    29.2001     0.3057    31.5219 </r>
       <r>    29.3154     1.2320    31.6639 </r>
       <r>    29.4306     1.4119    31.8266 </r>
       <r>    29.5459     0.5219    31.8868 </r>
       <r>    29.6611    -0.0353    31.8827 </r>
       <r>    29.7764    -0.0554    31.8763 </r>
       <r>    29.8916    -0.0107    31.8751 </r>
       <r>    30.0069    -0.0008    31.8750 </r>
       <r>    30.1221    -0.0000    31.8750 </r>
       <r>    30.2374    -0.0000    31.8750 </r>
       <r>    30.3526    -0.0000    31.8750 </r>
       <r>    30.4679    -0.0000    31.8750 </r>
       <r>    30.5831    -0.0000    31.8750 </r>
       <r>    30.6984    -0.0000    31.8750 </r>
       <r>    30.8136    -0.0000    31.8750 </r>
       <r>    30.9289    -0.0000    31.8750 </r>
       <r>    31.0441    -0.0000    31.8750 </r>
       <r>    31.1594    -0.0005    31.8749 </r>
       <r>    31.2746    -0.0056    31.8743 </r>
       <r>    31.3899    -0.0226    31.8717 </r>
       <r>    31.5051     0.0083    31.8726 </r>
       <r>    31.6204     0.2461    31.9010 </r>
       <r>    31.7356     0.4999    31.9586 </r>
       <r>    31.8509     0.3427    31.9981 </r>
       <r>    31.9661     0.0525    32.0042 </r>
       <r>    32.0814    -0.0253    32.0012 </r>
       <r>    32.1966    -0.0095    32.0001 </r>
       <r>    32.3119    -0.0011    32.0000 </r>
       <r>    32.4271    -0.0001    32.0000 </r>
       <r>    32.5424    -0.0000    32.0000 </r>
       <r>    32.6576    -0.0000    32.0000 </r>
       <r>    32.7729    -0.0000    32.0000 </r>
       <r>    32.8881    -0.0000    32.0000 </r>
       <r>    33.0034    -0.0000    32.0000 </r>
       <r>    33.1186     0.0000    32.0000 </r>
       <r>    33.2339     0.0000    32.0000 </r>
       <r>    33.3491     0.0000    32.0000 </r>
       <r>    33.4644     0.0000    32.0000 </r>
       <r>    33.5796     0.0000    32.0000 </r>
       <r>    33.6949     0.0000    32.0000 </r>
      </set>
      <set comment="spin 2">
       <r>    -0.8801     0.0000     0.0000 </r>
       <r>    -0.7648     0.0000     0.0000 </r>
       <r>    -0.6496     0.0000     0.0000 </r>
       <r>    -0.5343    -0.0000    -0.0000 </r>
       <r>    -0.4191    -0.0000    -0.0000 </r>
       <r>    -0.3038    -0.0000    -0.0000 </r>
       <r>    -0.1886    -0.0000    -0.0000 </r>
       <r>    -0.0733    -0.0000    -0.0000 </r>
       <r>     0.0419    -0.0000    -0.0000 </r>
       <r>     0.1572    -0.0000    -0.0000 </r>
       <r>     0.2724    -0.0000    -0.0000 </r>
       <r>     0.3877    -0.0000    -0.0000 </r>
       <r>     0.5029    -0.0001    -0.0000 </r>
       <r>     0.6182    -0.0011    -0.0001 </r>
       <r>     0.7334    -0.0095    -0.0012 </r>
       <r>     0.8487    -0.0253    -0.0042 </r>
       <r>     0.9639     0.0526     0.0019 </r>
       <r>     1.0792     0.3430     0.0414 </r>
       <r>     1.1944     0.4998     0.0990 </r>
       <r>     1.3097     0.2458     0.1274 </r>
       <r>     1.4249     0.0082     0.1283 </r>
       <r>     1.5402    -0.0226     0.1257 </r>
       <r>     1.6554    -0.0056     0.1251 </r>
       <r>     1.7707    -0.0005     0.1250 </r>
       <r>     1.8859    -0.0000     0.1250 </r>
       <r>     2.0012    -0.0001     0.1250 </r>
       <r>     2.1164    -0.0022     0.1247 </r>
       <r>     2.2317    -0.0212     0.1223 </r>
       <r>     2.3469    -0.0728     0.1139 </r>
       <r>     2.4622     0.0718     0.1222 </r>
       <r>     2.5774     0.8593     0.2212 </r>
       <r>     2.6927     1.5156     0.3959 </r>
       <r>     2.8079     0.9091     0.5007 </r>
       <r>     2.9232     0.0944     0.5115 </r>
       <r>     3.0384    -0.0743     0.5030 </r>
       <r>     3.1537    -0.0232     0.5003 </r>
       <r>     3.2689    -0.0026     0.5000 </r>
       <r>     3.3842    -0.0022     0.4997 </r>
       <r>     3.4994    -0.0204     0.4974 </r>
       <r>     3.6147    -0.0721     0.4891 </r>
       <r>     3.7299     0.0634     0.4964 </r>
       <r>     3.8452     0.8394     0.5931 </r>
       <r>     3.9604     1.5143     0.7676 </r>
       <r>     4.0757     0.9255     0.8743 </r>
       <r>     4.1909     0.0855     0.8842 </r>
       <r>     4.3062    -0.0936     0.8734 </r>
       <r>     4.4214     0.1045     0.8854 </r>
       <r>     4.5367     0.3943     0.9308 </r>
       <r>     4.6519     0.7098     1.0127 </r>
       <r>     4.7672     1.3221     1.1650 </r>
       <r>     4.8824     1.3632     1.3221 </r>
       <r>     4.9977     0.3907     1.3672 </r>
       <r>     5.1129     0.0039     1.3676 </r>
       <r>     5.2282     1.2521     1.5119 </r>
       <r>     5.3434     2.9406     1.8508 </r>
       <r>     5.4587     3.5114     2.2555 </r>
       <r>     5.5739     3.2773     2.6332 </r>
       <r>     5.6892     1.7359     2.8333 </r>
       <r>     5.8044     0.7917     2.9245 </r>
       <r>     5.9197     3.0276     3.2735 </r>
       <r>     6.0349     5.2318     3.8764 </r>
       <r>     6.1502     3.6927     4.3020 </r>
       <r>     6.2654     2.5278     4.5933 </r>
       <r>     6.3807     3.9872     5.0529 </r>
       <r>     6.4959     3.4137     5.4463 </r>
       <r>     6.6112     2.3568     5.7179 </r>
       <r>     6.7264     3.4874     6.1198 </r>
       <r>     6.8417     3.4698     6.5197 </r>
       <r>     6.9569     2.6317     6.8230 </r>
       <r>     7.0722     3.3095     7.2045 </r>
       <r>     7.1874     4.9904     7.7796 </r>
       <r>     7.3027     6.7945     8.5627 </r>
       <r>     7.4179     6.3891     9.2990 </r>
       <r>     7.5332     3.8985     9.7483 </r>
       <r>     7.6484     3.2930    10.1278 </r>
       <r>     7.7637     5.6546    10.7795 </r>
       <r>     7.8789     7.8851    11.6883 </r>
       <r>     7.9942     7.0387    12.4995 </r>
       <r>     8.1094     3.6150    12.9161 </r>
       <r>     8.2247     2.0013    13.1467 </r>
       <r>     8.3399     3.6178    13.5637 </r>
       <r>     8.4552     4.1967    14.0474 </r>
       <r>     8.5704     4.7125    14.5905 </r>
       <r>     8.6857     7.4635    15.4506 </r>
       <r>     8.8009     7.2631    16.2877 </r>
       <r>     8.9162     3.3155    16.6698 </r>
       <r>     9.0314     1.9629    16.8960 </r>
       <r>     9.1467     4.7238    17.4405 </r>
       <r>     9.2619     6.7587    18.2194 </r>
       <r>     9.3772     5.8349    18.8919 </r>
       <r>     9.4924     6.8490    19.6812 </r>
       <r>     9.6077     8.6900    20.6827 </r>
       <r>     9.7229     5.5510    21.3225 </r>
       <r>     9.8382     1.0246    21.4406 </r>
       <r>     9.9534    -0.3646    21.3985 </r>
       <r>    10.0687    -0.1763    21.3782 </r>
       <r>    10.1839    -0.0262    21.3752 </r>
       <r>    10.2992    -0.0017    21.3750 </r>
       <r>    10.4144    -0.0001    21.3750 </r>
       <r>    10.5297    -0.0014    21.3748 </r>
       <r>    10.6449    -0.0213    21.3724 </r>
       <r>    10.7602    -0.1331    21.3570 </r>
       <r>    10.8754    -0.1852    21.3357 </r>
       <r>    10.9907     1.0877    21.4610 </r>
       <r>    11.1059     3.8592    21.9058 </r>
       <r>    11.2212     4.1008    22.3784 </r>
       <r>    11.3364     1.3782    22.5373 </r>
       <r>    11.4517    -0.1400    22.5211 </r>
       <r>    11.5669    -0.1535    22.5034 </r>
       <r>    11.6822    -0.0277    22.5002 </r>
       <r>    11.7974    -0.0030    22.4999 </r>
       <r>    11.9127    -0.0121    22.4985 </r>
       <r>    12.0279    -0.0588    22.4917 </r>
       <r>    12.1432    -0.0233    22.4890 </r>
       <r>    12.2584     0.5744    22.5552 </r>
       <r>    12.3737     1.4406    22.7213 </r>
       <r>    12.4889     1.1839    22.8577 </r>
       <r>    12.6042     0.2647    22.8882 </r>
       <r>    12.7194    -0.0722    22.8799 </r>
       <r>    12.8347    -0.0375    22.8756 </r>
       <r>    12.9499    -0.0116    22.8742 </r>
       <r>    13.0652    -0.0423    22.8694 </r>
       <r>    13.1804    -0.0664    22.8617 </r>
       <r>    13.2957     0.3300    22.8997 </r>
       <r>    13.4109     1.2579    23.0447 </r>
       <r>    13.5262     1.3938    23.2054 </r>
       <r>    13.6414     0.4930    23.2622 </r>
       <r>    13.7567    -0.0413    23.2574 </r>
       <r>    13.8719    -0.0535    23.2512 </r>
       <r>    13.9872    -0.0100    23.2501 </r>
       <r>    14.1024    -0.0019    23.2499 </r>
       <r>    14.2177    -0.0167    23.2479 </r>
       <r>    14.3329    -0.0976    23.2367 </r>
       <r>    14.4482    -0.1076    23.2243 </r>
       <r>    14.5634     0.8470    23.3219 </r>
       <r>    14.6787     2.6869    23.6316 </r>
       <r>    14.7939     2.6366    23.9354 </r>
       <r>    14.9092     0.7868    24.0261 </r>
       <r>    15.0244    -0.1167    24.0127 </r>
       <r>    15.1397    -0.0933    24.0019 </r>
       <r>    15.2549    -0.0154    24.0001 </r>
       <r>    15.3702    -0.0011    24.0000 </r>
       <r>    15.4854    -0.0000    24.0000 </r>
       <r>    15.6007    -0.0000    24.0000 </r>
       <r>    15.7159    -0.0003    24.0000 </r>
       <r>    15.8312    -0.0051    23.9994 </r>
       <r>    15.9464    -0.0364    23.9952 </r>
       <r>    16.0617    -0.0728    23.9868 </r>
       <r>    16.1769     0.2563    24.0163 </r>
       <r>    16.2922     1.1734    24.1516 </r>
       <r>    16.4074     1.4453    24.3181 </r>
       <r>    16.5227     0.5745    24.3844 </r>
       <r>    16.6379    -0.0773    24.3754 </r>
       <r>    16.7532    -0.0898    24.3651 </r>
       <r>    16.8684     0.5319    24.4264 </r>
       <r>    16.9837     1.4237    24.5905 </r>
       <r>    17.0989     1.2116    24.7301 </r>
       <r>    17.2142     0.2878    24.7633 </r>
       <r>    17.3294    -0.0705    24.7552 </r>
       <r>    17.4447    -0.0415    24.7504 </r>
       <r>    17.5599    -0.0359    24.7462 </r>
       <r>    17.6752    -0.1304    24.7312 </r>
       <r>    17.7904     0.0137    24.7328 </r>
       <r>    17.9057     1.3665    24.8903 </r>
       <r>    18.0209     2.9694    25.2325 </r>
       <r>    18.1362     2.1626    25.4817 </r>
       <r>    18.2514     0.3794    25.5255 </r>
       <r>    18.3666    -0.1607    25.5069 </r>
       <r>    18.4819    -0.0877    25.4968 </r>
       <r>    18.5971     0.0436    25.5018 </r>
       <r>    18.7124     0.3406    25.5411 </r>
       <r>    18.8276     0.5002    25.5988 </r>
       <r>    18.9429     0.2478    25.6273 </r>
       <r>    19.0581     0.0089    25.6283 </r>
       <r>    19.1734    -0.0230    25.6257 </r>
       <r>    19.2886    -0.0117    25.6243 </r>
       <r>    19.4039    -0.0530    25.6182 </r>
       <r>    19.5191    -0.1514    25.6008 </r>
       <r>    19.6344     0.2608    25.6308 </r>
       <r>    19.7496     1.9608    25.8568 </r>
       <r>    19.8649     3.0176    26.2046 </r>
       <r>    19.9801     1.5745    26.3860 </r>
       <r>    20.0954     0.0850    26.3958 </r>
       <r>    20.2106    -0.1442    26.3792 </r>
       <r>    20.3259    -0.0689    26.3713 </r>
       <r>    20.4411    -0.0791    26.3622 </r>
       <r>    20.5564     0.1980    26.3850 </r>
       <r>    20.6716     1.0932    26.5110 </r>
       <r>    20.7869     1.4807    26.6816 </r>
       <r>    20.9021     0.6708    26.7589 </r>
       <r>    21.0174     0.0030    26.7593 </r>
       <r>    21.1326    -0.0653    26.7517 </r>
       <r>    21.2479    -0.0286    26.7485 </r>
       <r>    21.3631    -0.0890    26.7382 </r>
       <r>    21.4784    -0.1285    26.7234 </r>
       <r>    21.5936     0.6935    26.8033 </r>
       <r>    21.7089     2.4993    27.0913 </r>
       <r>    21.8241     2.7613    27.4096 </r>
       <r>    21.9394     1.6290    27.5973 </r>
       <r>    22.0546     1.3961    27.7582 </r>
       <r>    22.1699     0.9628    27.8692 </r>
       <r>    22.2851     0.1599    27.8876 </r>
       <r>    22.4004    -0.0988    27.8762 </r>
       <r>    22.5156    -0.1192    27.8625 </r>
       <r>    22.6309    -0.0140    27.8609 </r>
       <r>    22.7461     0.8528    27.9592 </r>
       <r>    22.8614     2.2574    28.2193 </r>
       <r>    22.9766     2.4429    28.5009 </r>
       <r>    23.0919     1.1332    28.6315 </r>
       <r>    23.2071     0.0788    28.6406 </r>
       <r>    23.3224    -0.1045    28.6285 </r>
       <r>    23.4376    -0.0641    28.6211 </r>
       <r>    23.5529    -0.1052    28.6090 </r>
       <r>    23.6681     0.0655    28.6166 </r>
       <r>    23.7834     1.0484    28.7374 </r>
       <r>    23.8986     2.7050    29.0491 </r>
       <r>    24.0139     3.6018    29.4642 </r>
       <r>    24.1291     2.3108    29.7306 </r>
       <r>    24.2444     0.4132    29.7782 </r>
       <r>    24.3596    -0.1628    29.7594 </r>
       <r>    24.4749    -0.0715    29.7512 </r>
       <r>    24.5901    -0.0096    29.7501 </r>
       <r>    24.7054    -0.0006    29.7500 </r>
       <r>    24.8206    -0.0008    29.7499 </r>
       <r>    24.9359    -0.0124    29.7485 </r>
       <r>    25.0511    -0.0825    29.7390 </r>
       <r>    25.1664    -0.1376    29.7231 </r>
       <r>    25.2816     0.6171    29.7942 </r>
       <r>    25.3969     2.4411    30.0756 </r>
       <r>    25.5121     2.9202    30.4121 </r>
       <r>    25.6274     1.7157    30.6099 </r>
       <r>    25.7426     0.9181    30.7157 </r>
       <r>    25.8579     0.3654    30.7578 </r>
       <r>    25.9731    -0.0100    30.7566 </r>
       <r>    26.0884    -0.0459    30.7514 </r>
       <r>    26.2036    -0.0107    30.7501 </r>
       <r>    26.3189    -0.0012    30.7500 </r>
       <r>    26.4341    -0.0034    30.7496 </r>
       <r>    26.5494    -0.0280    30.7464 </r>
       <r>    26.6646    -0.0760    30.7376 </r>
       <r>    26.7799     0.1516    30.7551 </r>
       <r>    26.8951     1.0183    30.8724 </r>
       <r>    27.0104     1.5018    31.0455 </r>
       <r>    27.1256     0.7485    31.1318 </r>
       <r>    27.2409     0.0284    31.1351 </r>
       <r>    27.3561    -0.0683    31.1272 </r>
       <r>    27.4714    -0.0172    31.1252 </r>
       <r>    27.5866    -0.0016    31.1250 </r>
       <r>    27.7019    -0.0005    31.1249 </r>
       <r>    27.8171    -0.0065    31.1242 </r>
       <r>    27.9324    -0.0423    31.1193 </r>
       <r>    28.0476    -0.0660    31.1117 </r>
       <r>    28.1629     0.3336    31.1502 </r>
       <r>    28.2781     1.2617    31.2956 </r>
       <r>    28.3934     1.3910    31.4559 </r>
       <r>    28.5086     0.4887    31.5122 </r>
       <r>    28.6239    -0.0422    31.5074 </r>
       <r>    28.7391    -0.0536    31.5012 </r>
       <r>    28.8544    -0.0158    31.4994 </r>
       <r>    28.9696    -0.0409    31.4946 </r>
       <r>    29.0849    -0.0689    31.4867 </r>
       <r>    29.2001     0.3054    31.5219 </r>
       <r>    29.3154     1.2316    31.6638 </r>
       <r>    29.4306     1.4121    31.8266 </r>
       <r>    29.5459     0.5223    31.8868 </r>
       <r>    29.6611    -0.0353    31.8827 </r>
       <r>    29.7764    -0.0555    31.8763 </r>
       <r>    29.8916    -0.0107    31.8751 </r>
       <r>    30.0069    -0.0008    31.8750 </r>
       <r>    30.1221    -0.0000    31.8750 </r>
       <r>    30.2374    -0.0000    31.8750 </r>
       <r>    30.3526    -0.0000    31.8750 </r>
       <r>    30.4679    -0.0000    31.8750 </r>
       <r>    30.5831    -0.0000    31.8750 </r>
       <r>    30.6984    -0.0000    31.8750 </r>
       <r>    30.8136    -0.0000    31.8750 </r>
       <r>    30.9289    -0.0000    31.8750 </r>
       <r>    31.0441    -0.0000    31.8750 </r>
       <r>    31.1594    -0.0005    31.8749 </r>
       <r>    31.2746    -0.0056    31.8743 </r>
       <r>    31.3899    -0.0226    31.8717 </r>
       <r>    31.5051     0.0082    31.8726 </r>
       <r>    31.6204     0.2458    31.9010 </r>
       <r>    31.7356     0.4998    31.9586 </r>
       <r>    31.8509     0.3430    31.9981 </r>
       <r>    31.9661     0.0526    32.0042 </r>
       <r>    32.0814    -0.0253    32.0012 </r>
       <r>    32.1966    -0.0095    32.0001 </r>
       <r>    32.3119    -0.0011    32.0000 </r>
       <r>    32.4271    -0.0001    32.0000 </r>
       <r>    32.5424    -0.0000    32.0000 </r>
       <r>    32.6576    -0.0000    32.0000 </r>
       <r>    32.7729    -0.0000    32.0000 </r>
       <r>    32.8881    -0.0000    32.0000 </r>
       <r>    33.0034    -0.0000    32.0000 </r>
       <r>    33.1186     0.0000    32.0000 </r>
       <r>    33.2339     0.0000    32.0000 </r>
       <r>    33.3491     0.0000    32.0000 </r>
       <r>    33.4644     0.0000    32.0000 </r>
       <r>    33.5796     0.0000    32.0000 </r>
       <r>    33.6949     0.0000    32.0000 </r>
      </set>
     </set>
    </array>
   </total>
  </dos>
 </calculation>
 <structure name="finalpos" >
  <crystal>
   <varray name="basis" >
    <v>       3.49210193      -0.00000000      -0.00000000 </v>
    <v>       0.00000000       3.49210193      -0.00000000 </v>
    <v>      -0.00000000       0.00000000       3.49210193 </v>
   </varray>
   <i name="volume">     42.58540043 </i>
   <varray name="rec_basis" >
    <v>       0.28636048      -0.00000000       0.00000000 </v>
    <v>       0.00000000       0.28636048       0.00000000 </v>
    <v>       0.00000000       0.00000000       0.28636048 </v>
   </varray>
  </crystal>
  <varray name="positions" >
   <v>       0.00000000       0.00000000       0.00000000 </v>
   <v>       0.00000000       0.50000000       0.50000000 </v>
   <v>       0.50000000      -0.00000000       0.50000000 </v>
   <v>       0.50000000       0.50000000       0.00000000 </v>
  </varray>
 </structure>
</modeling>
