automatically generated by pyflamestk   
           1
     3.470915   -0.000000   -0.000000
     0.000000    3.470915    0.000000
     0.000000    0.000000    3.470915
   Ni
   4
Direct configuration=     1
   0.00000000  0.00000000  0.00000000
   0.00000000  0.50000000  0.50000000
   0.50000000  0.00000000  0.50000000
   0.50000000  0.50000000  0.00000000
automatically generated by pyflamestk   
           1
     3.491877   -0.000000   -0.000000
     0.000000    3.491877    0.000000
     0.000000    0.000000    3.491877
   Ni
   4
Direct configuration=     2
  -0.00000000  0.00000000 -0.00000000
   0.00000000  0.50000000  0.50000000
   0.50000000 -0.00000000  0.50000000
   0.50000000  0.50000000 -0.00000000
automatically generated by pyflamestk   
           1
     3.492102   -0.000000   -0.000000
     0.000000    3.492102    0.000000
     0.000000    0.000000    3.492102
   Ni
   4
Direct configuration=     3
  -0.00000000  0.00000000 -0.00000000
   0.00000000  0.50000000  0.50000000
   0.50000000 -0.00000000  0.50000000
   0.50000000  0.50000000 -0.00000000
automatically generated by pyflamestk   
           1
     3.492102   -0.000000   -0.000000
     0.000000    3.492102    0.000000
     0.000000    0.000000    3.492102
   Ni
   4
Direct configuration=     4
  -0.00000000  0.00000000 -0.00000000
   0.00000000  0.50000000  0.50000000
   0.50000000 -0.00000000  0.50000000
   0.50000000  0.50000000 -0.00000000
