# ['Mg', 'O']

40 atoms
2 atom types

    0.0000     4.7140 xlo xhi
    0.0000     4.7140 ylo yhi
    0.0000    47.1402 zlo zhi

    0.0000     0.0000     0.0000 xy xz yz

Atoms

1 1     1.0000     2.3570     2.3570     0.0000
2 1     1.0000     2.3570     0.0000     2.3570
3 1     1.0000     0.0000     0.0000     0.0000
4 1     1.0000     0.0000     2.3570     2.3570
5 1     1.0000     2.3570     2.3570     4.7140
6 1     1.0000     2.3570     0.0000     7.0710
7 1     1.0000     0.0000     0.0000     4.7140
8 1     1.0000     0.0000     2.3570     7.0710
9 1     1.0000     2.3570     2.3570     9.4280
10 1     1.0000     2.3570     0.0000    11.7850
11 1     1.0000     0.0000     0.0000     9.4280
12 1     1.0000     0.0000     2.3570    11.7850
13 1     1.0000     2.3570     2.3570    14.1420
14 1     1.0000     2.3570     0.0000    16.4991
15 1     1.0000     0.0000     0.0000    14.1420
16 1     1.0000     0.0000     2.3570    16.4991
17 1     1.0000     2.3570     2.3570    18.8561
18 1     1.0000     2.3570     0.0000    21.2131
19 1     1.0000     0.0000     0.0000    18.8561
20 1     1.0000     0.0000     2.3570    21.2131
21 2     1.0000     0.0000     2.3570     0.0000
22 2     1.0000     2.3570     0.0000     0.0000
23 2     1.0000     2.3570     2.3570     2.3570
24 2     1.0000     0.0000     0.0000     2.3570
25 2     1.0000     0.0000     2.3570     4.7140
26 2     1.0000     2.3570     0.0000     4.7140
27 2     1.0000     2.3570     2.3570     7.0710
28 2     1.0000     0.0000     0.0000     7.0710
29 2     1.0000     0.0000     2.3570     9.4280
30 2     1.0000     2.3570     0.0000     9.4280
31 2     1.0000     2.3570     2.3570    11.7850
32 2     1.0000     0.0000     0.0000    11.7850
33 2     1.0000     0.0000     2.3570    14.1420
34 2     1.0000     2.3570     0.0000    14.1420
35 2     1.0000     2.3570     2.3570    16.4991
36 2     1.0000     0.0000     0.0000    16.4991
37 2     1.0000     0.0000     2.3570    18.8561
38 2     1.0000     2.3570     0.0000    18.8561
39 2     1.0000     2.3570     2.3570    21.2131
40 2     1.0000     0.0000     0.0000    21.2131
