LAMMPS (11 Aug 2017)
# ---- initialize simulations
clear
units metal
dimension 3
boundary p p p
atom_style atomic
atom_modify map array
# ---- create atoms
read_data /home/sullberg/repos/pypospack/examples/Ni__eam__born_exp_rose/01_preconditioning_3.5NN/rank_21/Ni_dia.lmps_min_all/lammps.structure
  triclinic box = (0 0 0) to (4.8791 4.8791 4.8791) with tilt (0 0 0)
  1 by 1 by 1 MPI processor grid
  reading atoms ...
  8 atoms
# ---- define interatomic potential
include potential.mod
mass 1 58.6934

group Ni type 1
8 atoms in group Ni

pair_style eam/alloy
pair_coeff * * /home/sullberg/repos/pypospack/examples/Ni__eam__born_exp_rose/01_preconditioning_3.5NN/rank_21/Ni_dia.lmps_min_all/Ni.eam.alloy Ni

neighbor 1.0 bin
neigh_modify every 1 delay 0 check yes
# ---- define settings
compute eng all pe/atom
compute eatoms all reduce sum c_eng
# ---- run minimization
reset_timestep 0
fix 1 all box/relax aniso 0.0 vmax 0.001
thermo 10
thermo_style custom step pe xhi xlo yhi ylo zhi xy xz yz press pxx pyy pzz pxy pxz pyz c_eatoms
min_style cg
minimize 1e-25 1e-25 5000 10000
Neighbor list info ...
  update every 1 steps, delay 0 steps, check yes
  max neighbors/atom: 2000, page size: 100000
  master list distance cutoff = 11
  ghost atom cutoff = 11
  binsize = 5.5, bins = 1 1 1
  1 neighbor lists, perpetual/occasional/extra = 1 0 0
  (1) pair eam/alloy, perpetual
      attributes: half, newton on
      pair build: half/bin/newton/tri
      stencil: half/bin/3d/newton/tri
      bin: standard
Per MPI rank memory allocation (min/avg/max) = 4.276 | 4.276 | 4.276 Mbytes
Step PotEng Xhi Xlo Yhi Ylo Zhi Xy Xz Yz Press Pxx Pyy Pzz Pxy Pxz Pyz c_eatoms 
       0   -45.324864       4.8791            0       4.8791            0       4.8791            0            0            0    -249434.5    -249434.5    -249434.5    -249434.5     23.52286     23.52286     23.52286   -45.324864 
      10   -45.842601    4.8547045    0.0243955    4.8547045    0.0243955    4.8547045            0            0            0   -230860.92   -230860.92   -230860.92   -230860.92     24.29046     24.29046     24.29046   -45.842601 
      20   -46.307076     4.830309     0.048791     4.830309     0.048791     4.830309            0            0            0   -208474.05   -208474.05   -208474.05   -208474.05    25.100426    25.100426    25.100426   -46.307076 
      30   -46.711324    4.8059135    0.0731865    4.8059135    0.0731865    4.8059135            0            0            0   -181699.03   -181699.03   -181699.03   -181699.03    25.966265    25.966265    25.966265   -46.711324 
      40   -47.047797     4.781518     0.097582     4.781518     0.097582     4.781518            0            0            0   -149652.72   -149652.72   -149652.72   -149652.72    26.908203    26.908203    26.908203   -47.047797 
      50   -47.308267    4.7571225    0.1219775    4.7571225    0.1219775    4.7571225            0            0            0   -111826.19   -111826.19   -111826.19   -111826.19    27.988843    27.988843    27.988843   -47.308267 
      60   -47.483769     4.732727     0.146373     4.732727     0.146373     4.732727            0            0            0   -67574.821   -67574.821   -67574.821   -67574.821    29.376863    29.376863    29.376863   -47.483769 
      70   -47.564511    4.7083315    0.1707685    4.7083315    0.1707685    4.7083315            0            0            0   -15908.341   -15908.341   -15908.341   -15908.341    32.055619    32.055619    32.055619   -47.564511 
      80   -48.154486    4.6890738   0.19002625    4.6890738   0.19002625    4.6890738            0            0            0    36067.016    36067.016    36067.016    36067.016    133354.91    133354.91    133354.91   -48.154486 
      90   -48.710377    4.7037111   0.17538895    4.7037111   0.17538895    4.7037111            0            0            0    4112.6977    4112.6977    4112.6977    4112.6977    186649.66    186649.66    186649.66   -48.710377 
     100   -49.190279    4.7085902   0.17050985    4.7085902   0.17050985    4.7085902            0            0            0   -3687.5862   -3687.5861   -3687.5864   -3687.5862    230236.74    230236.74    230236.74   -49.190279 
     110   -49.402671    4.7085902   0.17050984    4.7085901   0.17050985    4.7085902            0            0            0   -1358.6566   -1358.6546   -1358.6606   -1358.6548    239243.52    239243.51    239243.52   -49.402671 
     120    -53.54136    4.7213791    0.1577209    4.7213784   0.15772162    4.7213791            0            0            0    17632.901    17633.006    17632.695    17633.001    252411.71    252411.11    252411.72    -53.54136 
     130   -57.791763    4.7457746    0.1333254    4.7457725   0.13332755    4.7457746            0            0            0    10027.146    10027.477    10026.499    10027.461    257752.57    257750.87    257752.61   -57.791763 
     140   -63.313141    4.7701701    0.1089299     4.770165   0.10893499      4.77017            0            0            0    15607.001    15607.809    15605.418    15607.774    261829.65    261825.78    261829.71   -63.313141 
     150   -68.820134    4.7945656  0.084534402    4.7945561  0.084543862    4.7945654            0            0            0    20457.126    20458.673    20454.093    20458.612    261813.23    261806.16    261813.33   -68.820134 
     160   -74.252081    4.8189611  0.060138902    4.8189456  0.060154362    4.8189609            0            0            0    24649.969    24652.385    24645.237    24652.287    258495.75    258484.94    258495.91   -74.252081 
     170   -79.556394    4.8433566  0.035743402    4.8433337  0.035766304    4.8433563            0            0            0    28157.335    28161.325    28149.487    28161.193    252669.61    252652.59    252669.82   -79.556394 
     180   -84.689405    4.8677521  0.011347902    4.8677191  0.011380853    4.8677516            0            0            0     31191.21    31196.738    31180.339    31196.554    244942.12     244918.9     244942.4   -84.689405 
     190   -89.616642    4.8921476 -0.013047598    4.8921025 -0.013002533     4.892147            0            0            0    33810.458    33817.723    33796.205    33817.447    235840.57    235810.53    235840.96   -89.616642 
     200   -94.315488    4.9165431 -0.037443098    4.9164831 -0.037383145    4.9165423            0            0            0    35915.569    35924.793    35897.485    35924.431    225859.78    225822.21    225860.29   -94.315488 
     210   -98.772442    4.9409386 -0.061838598    4.9408595  -0.06175946    4.9409375            0            0            0    37723.655     37740.16    37691.085    37739.722    215279.83    215217.73    215280.44   -98.772442 
     220   -102.97986    4.9653341 -0.086234098      4.96523 -0.086130037    4.9653327            0            0            0    39131.104     39143.92    39105.814    39143.578    204396.73    204344.24    204397.24   -102.97986 
     230   -106.93825    4.9897296   -0.1106296    4.9895962  -0.11049618    4.9897279            0            0            0     40304.76    40323.882    40267.406    40322.992    193387.32    193314.13    193388.43   -106.93825 
     240   -110.64716    5.0141251   -0.1350251    5.0139543  -0.13485434    5.0141229            0            0            0    41296.945    41327.394    41237.008    41326.432     182388.9    182279.05     182390.1   -110.64716 
     250     -114.109    5.0385206   -0.1594206    5.0382976  -0.15919756    5.0385179            0            0            0    41920.361    41951.702    41858.555    41950.828    171593.39    171478.01    171594.51     -114.109 
     260   -117.33581    5.0629161   -0.1838161    5.0626272  -0.18352723    5.0629127            0            0            0    42557.549    42604.862    42464.674    42603.111    160965.83    160800.75    160967.86   -117.33581 
     270   -120.33012    5.0873116   -0.2082116    5.0869419  -0.20784191    5.0873075            0            0            0    42703.796    42756.997    42599.251    42755.139    150778.79    150593.61    150780.94   -120.33012 
     280   -123.10806    5.1117071   -0.2326071    5.1112345  -0.23213446     5.111702            0            0            0      43007.4    43085.704    42852.268    43084.227    140835.07    140570.67    140836.84   -123.10806 
     290   -125.67372    5.1361026   -0.2570026    5.1354959  -0.25639588    5.1360962            0            0            0    42903.137    42994.922    42723.631    42990.858    131393.73    131091.15    131398.12   -125.67372 
     300   -128.04204    5.1604981   -0.2813981    5.1597198  -0.28061975    5.1604903            0            0            0    42793.122    42917.183    42549.182        42913    122344.85    121942.81    122349.35   -128.04204 
     310   -130.22222    5.1848936   -0.3057936    5.1838906  -0.30479062    5.1848835            0            0            0     42352.04    42482.979    42094.555    42478.587    113811.58    113386.31    113816.31   -130.22222 
     320   -132.22654    5.2092891   -0.3301891    5.2079904  -0.32889045    5.2092764            0            0            0    41964.285    42163.687    41562.812    42166.356    105727.59    105080.44    105725.33   -132.22654 
     330   -134.06657    5.2336844  -0.35458438    5.2320138  -0.35291376    5.2336686            0            0            0    41283.061    41541.456    40778.247    41529.481    98160.133    97363.214    98172.383   -134.06657 
     340   -135.75365    5.2580799  -0.37897988    5.2559047  -0.37680465    5.2580598            0            0            0    40700.104    41041.387    40023.215     41035.71    91006.464    89947.215    91012.481   -135.75365 
     350   -137.29662    5.2824751  -0.40337514     5.279625  -0.40052505    5.2824505            0            0            0    39696.107    40118.537    38845.915    40123.868    84467.603    83141.608    84462.719   -137.29662 
     360   -138.70688    5.3068703  -0.42777029    5.3031063  -0.42400627     5.306841            0            0            0    38687.341    39288.843     37489.43     39283.75    78418.024    76575.702    78423.394   -138.70688 
     370   -139.99618    5.3312658  -0.45216579    5.3262707  -0.44717067    5.3312267            0            0            0    37875.738    38672.454    36282.783    38671.978    72710.604    70275.604    72711.396   -139.99618 
     380   -141.17265    5.3556608  -0.47656078    5.3490056  -0.46990562    5.3556082            0            0            0    36834.322    37887.869    34753.693    37861.404    67541.274    64391.428    67567.681   -141.17265 
     390   -142.24434    5.3800554  -0.50095544    5.3711005  -0.49200052    5.3799841            0            0            0    35704.675    37151.913    32886.456    37075.656    62920.774    58694.406    62996.219   -142.24434 
     400    -143.2235    5.4044494  -0.52534942    5.3923523  -0.51325229    5.4043621            0            0            0     34654.63    36591.929    30812.081    36559.878    58836.789    53060.345    58868.405    -143.2235 
     410   -144.12063    5.4288449  -0.54974492    5.4124038  -0.53330378    5.4287325            0            0            0    33573.276    36198.705    28390.449    36130.675    55270.701    47510.165    55337.513   -144.12063 
     420   -144.95304    5.4532404  -0.57414042    5.4308282  -0.55172821    5.4530891            0            0            0        32449    36005.031    25403.582    35938.386    52389.176    41839.959     52454.09   -144.95304 
     430   -145.75312    5.4776359  -0.59853592      5.44711  -0.56800999    5.4774453            0            0            0    31628.496     36449.92    22056.117     36379.45     50073.68    35734.986    50141.585   -145.75312 
     440   -146.57327    5.5020314  -0.62293142    5.4607273  -0.58162729    5.5017707            0            0            0    30824.471     37294.36    17965.704    37213.349    48508.393    29220.046    48585.269   -146.57327 
     450   -147.52282    5.5264269  -0.64732692    5.4713383  -0.59223829    5.5261132            0            0            0    31116.303    39575.716    14340.686    39432.506    47053.967    21881.136    47189.875   -147.52282 
     460   -148.78068    5.5508224  -0.67172242    5.4791753   -0.6000753    5.5504159            0            0            0    32436.706    42948.094    11557.129    42804.894    45517.829    14144.188    45650.636   -148.78068 
     470    -150.5635    5.5752179  -0.69611792    5.4855929  -0.60649295    5.5747216            0            0            0    36314.204    48288.845    12594.959    48058.806    42195.167    6690.8058    42408.024    -150.5635 
     480   -152.75216    5.5996134  -0.72051342     5.493249  -0.61414895     5.599012            0            0            0    43613.085    55159.784    20777.865    54901.608    35260.305    1562.8289    35495.385   -152.75216 
     490   -154.31706    5.6240089  -0.74490892    5.5046744  -0.62557442    5.6232998            0            0            0    51232.695    60919.498    32165.771    60612.817    26548.829   -718.61654    26825.891   -154.31706 
     500   -155.18188    5.6484044  -0.76930442    5.5187158   -0.6396158    5.6475745            0            0            0    52678.968    61872.771     34624.54    61539.594    22452.927   -2934.0003    22751.242   -155.18188 
     510   -156.13481    5.6727999  -0.79369992    5.5326599  -0.65355988    5.6718378            0            0            0     51778.08    61493.164    32741.615    61099.459     20757.63    -5962.879    21109.494   -156.13481 
     520   -157.37476    5.6971954  -0.81809542    5.5459496  -0.66684959    5.6960857            0            0            0    51466.147    61643.992    31505.492    61248.957    18944.755   -9018.5804    19292.745   -157.37476 
     530   -159.01625    5.7215909  -0.84249092    5.5591339  -0.68003393    5.7203268            0            0            0    53159.613    63223.924    33463.109    62791.807    15604.677   -11580.542    15981.966   -159.01625 
     540   -160.96414    5.7459864  -0.86688642    5.5735013  -0.69440133    5.7445751            0            0            0    57312.562    66070.429    40258.187     65609.07    9831.2685   -12647.968    10230.218   -160.96414 
     550   -162.48662    5.7703819  -0.89128192    5.5906368  -0.71153676    5.7688383            0            0            0    62596.195    68792.284    50606.454    68389.846    2276.5289    -11636.73    2615.0058   -162.48662 
     560    -163.1263    5.7947774  -0.91567742    5.6106982  -0.73159816    5.7931237            0            0            0    63632.836    67968.322    55312.341    67617.844   -2269.1463   -10188.962    -1981.536    -163.1263 
     570   -163.53971    5.8191729  -0.94007292    5.6320169  -0.75291688    5.8174137            0            0            0    60807.987    64470.018    53836.408    64117.535   -3478.1957   -9383.1384    -3188.915   -163.53971 
     580   -163.93063    5.8435684  -0.96446842    5.6537022  -0.77460215    5.8416995            0            0            0     57321.48    60575.059    51142.185    60247.195   -3896.5757   -8750.3847   -3630.2289   -163.93063 
     590   -164.30711    5.8679639  -0.98886392    5.6756302  -0.79653019    5.8659805            0            0            0    53968.042    56830.527    48544.191    56529.409   -4232.1322   -8097.0664   -3990.5003   -164.30711 
     600    -164.6692    5.8923594   -1.0132594    5.6978238  -0.81872384    5.8902555            0            0            0    50569.693    53069.558    45884.708    52754.812   -4431.5329   -7335.9419   -4176.4674    -164.6692 
     610   -165.01674    5.9167549   -1.0376549    5.7203294  -0.84122941    5.9145261            0            0            0    47429.486    49541.938    43498.927    49247.594   -4644.6602    -6570.362   -4407.9825   -165.01674 
     620   -165.34969    5.9411504   -1.0620504    5.7432009  -0.86410091    5.9387928            0            0            0    44393.622    46117.195    41225.466    45838.203   -4813.8911   -5750.0263     -4590.56   -165.34969 
     630   -165.66792    5.9655459   -1.0864459    5.7664999  -0.88739994    5.9630497            0            0            0    41413.545    42761.082    38976.933    42502.621   -4895.8853   -4902.4919   -4690.6684   -165.66792 
     640   -165.97154    5.9899414   -1.1108414    5.7903045  -0.91120454    5.9873031            0            0            0    38512.872    39479.588    36838.731    39220.297   -4955.6757   -3979.1137   -4748.1865   -165.97154 
     650   -166.25976    6.0142558   -1.1351558    5.8146203  -0.93552026    6.0114739            0            0            0     35743.16    36328.486    34820.998    36079.997   -4986.2038   -3048.5474   -4787.1232   -166.25976 
     660   -166.52724    6.0379776   -1.1588776    5.8390158  -0.95991576    6.0350446            0            0            0    33138.539    33351.899    32953.815    33109.903   -4996.9663   -2116.1479   -4802.1291   -166.52724 
     670   -166.77384    6.0609586   -1.1818586    5.8634113  -0.98431126    6.0578732            0            0            0    30675.577    30518.348     31227.95    30280.433    -4987.674    -1161.212    -4794.624   -166.77384 
     680   -167.00057    6.0831316   -1.2040316    5.8878068   -1.0087068    6.0798978            0            0            0    28332.269    27819.947    29575.295    27601.567   -4922.2888   -230.09095   -4745.3554   -167.00057 
     690   -167.20863    6.1044373   -1.2253373    5.9122023   -1.0331023    6.1010528            0            0            0    26210.624    25328.691    28164.264    25138.917   -4900.2538    696.66566    -4747.927   -167.20863 
     700   -167.39926    6.1248026   -1.2457026    5.9365978   -1.0574978    6.1212659            0            0            0    24212.318    22978.779    26858.161    22800.015   -4868.8633    1614.4681   -4724.4851   -167.39926 
     710   -167.57388    6.1441584   -1.2650584    5.9609933   -1.0818933    6.1404699            0            0            0    22316.665    20744.984    25629.949    20575.063    -4813.125    2520.4288   -4674.5187   -167.57388 
     720   -167.73407    6.1624393   -1.2833393    5.9853888   -1.1062888    6.1585976            0            0            0    20646.205    18724.655    24658.577    18555.383   -4835.4166    3414.7572   -4694.8291   -167.73407 
     730    -167.8815     6.179573    -1.300473    6.0097843   -1.1306843    6.1755891            0            0            0    18944.358      16701.5    23592.842    16538.731   -4750.3152    4305.7062   -4613.0005    -167.8815 
     740   -168.01789     6.195501    -1.316401    6.0341798   -1.1550798    6.1913739            0            0            0    17512.524     14916.96    22850.838    14769.772     -4779.61    5178.5186   -4654.2965   -168.01789 
     750   -168.14509    6.2101599   -1.3310599    6.0585753   -1.1794753     6.205898            0            0            0    16197.047    13247.719    22243.875    13099.548   -4840.7332    6059.1041   -4711.5701   -168.14509 
     760   -168.26498    6.2235008   -1.3444008    6.0829708   -1.2038708    6.2191062            0            0            0    14913.124    11615.348    21644.858    11479.166   -4857.2235    6937.2442   -4736.4557   -168.26498 
     770   -168.37956     6.235483    -1.356383    6.1073663   -1.2282663    6.2309612            0            0            0    13796.339    10120.378    21262.728    10005.911   -4942.6434    7824.6191   -4839.6366   -168.37956 
     780    -168.4908    6.2460739   -1.3669739    6.1317618   -1.2526618    6.2414324            0            0            0    12758.981    8705.3776     20976.88    8594.6855   -5050.3876    8722.0907   -4947.9042    -168.4908 
     790   -168.60077     6.255268    -1.376168    6.1561573   -1.2770573     6.250513            0            0            0    11838.829     7387.488    20854.318    7274.6811   -5212.1816    9638.7663   -5104.4554   -168.60077 
     800   -168.71145    6.2630625   -1.3839625    6.1805528   -1.3014528    6.2581977            0            0            0    11022.765    6141.4961    20882.681    6044.1178   -5412.2584    10576.788   -5316.2337   -168.71145 
     810    -168.8249      6.26947     -1.39037    6.2049483   -1.3258483    6.2645056            0            0            0    10331.206    4987.9479    21101.552    4904.1184   -5682.0634    11541.914   -5595.9603    -168.8249 
     820   -168.94308    6.2745269   -1.3954269    6.2293438   -1.3502438    6.2694712            0            0            0    9680.9554    3855.6221    21408.216    3779.0285   -5972.9716    12548.835   -5890.5681   -168.94308 
     830   -169.06796     6.278276    -1.399176    6.2537393   -1.3746393    6.2731366            0            0            0      9103.92    2768.0538    21856.497    2687.2088   -6316.4738    13601.028   -6226.3781   -169.06796 
     840   -169.20147    6.2807761   -1.4016761    6.2781348   -1.3990348    6.2755599            0            0            0    8565.3202    1680.7272     22405.65     1609.583   -6680.6648    14705.235    -6596.476   -169.20147 
     850    -169.3455    6.2820893   -1.4029893    6.3025303   -1.4234303     6.276804            0            0            0    8159.3991    670.32761    23201.891     605.9787   -7147.8581    15863.417   -7066.6989    -169.3455 
     860   -169.50187    6.2822947   -1.4031947    6.3269258   -1.4478258    6.2769482            0            0            0    7757.3017    -366.4395    24066.618   -428.27332   -7629.9995    17084.661   -7547.4256   -169.50187 
     870   -169.67238    6.2814704   -1.4023704    6.3513213   -1.4722213    6.2760693            0            0            0    7434.2186   -1380.2467    25117.112   -1434.2096   -8181.0518    18369.963   -8102.3456   -169.67238 
     880   -169.85885    6.2796903   -1.4005903    6.3757168   -1.4966168    6.2742415            0            0            0     7182.697   -2383.9863    26353.653   -2421.5753   -8799.2055    19725.943   -8732.9116   -169.85885 
     890   -170.06294    6.2770466   -1.3979466    6.4001123   -1.5210123    6.2715571            0            0            0    6921.8872   -3423.7839    27646.986   -3457.5405   -9431.9903    21142.956     -9365.26   -170.06294 
     900   -170.28652    6.2736003   -1.3945003    6.4245078   -1.5454078    6.2680753            0            0            0    6778.6644   -4427.9589    29217.543   -4453.5906   -10177.702    22642.765   -10114.854   -170.28652 
     910   -170.53118     6.269443    -1.390343    6.4489033   -1.5698033    6.2638881            0            0            0    6587.3336   -5507.2922    30798.431    -5529.138   -10911.409    24210.367   -10847.746   -170.53118 
     920   -170.79883    6.2646257   -1.3855257    6.4732988   -1.5941988    6.2590481            0            0            0    6528.8891   -6537.4852    32682.247   -6558.0947   -11772.054    25854.026   -11704.857   -170.79883 
     930   -171.09117     6.259224    -1.380124    6.4976943   -1.6185943     6.253626            0            0            0    6484.8661   -7613.9611    34693.325   -7624.7654   -12668.742    27577.736   -12606.749   -171.09117 
     940   -171.40985    6.2533096   -1.3742096    6.5220898   -1.6429898    6.2476962            0            0            0    6476.1138   -8702.8032    36843.558   -8712.4132   -13615.632    29358.951    -13549.68   -171.40985 
     950   -171.75678    6.2469278   -1.3678278    6.5464853   -1.6673853    6.2413031            0            0            0    6501.2178   -9833.3372    39172.051     -9835.06   -14622.013    31233.323   -14558.968   -171.75678 
     960   -172.13369    6.2401381   -1.3610381    6.5708808   -1.6917808    6.2345034            0            0            0    6552.9951   -10993.593    41633.534   -10980.956   -15666.029    33166.575   -15612.735   -172.13369 
     970   -172.54255    6.2329794   -1.3538794    6.5952763   -1.7161763    6.2273394            0            0            0    6654.8734   -12164.553    44281.544   -12152.371   -16782.722    35170.339    -16723.14   -172.54255 
     980   -172.98523    6.2254969   -1.3463969    6.6196718   -1.7405718    6.2198543            0            0            0    6822.5279   -13348.848    47146.243    -13329.81   -17972.626    37245.579   -17914.503   -172.98523 
     990    -173.4636    6.2177342   -1.3386342    6.6440673   -1.7649673    6.2120908            0            0            0    6988.7918   -14575.119    50097.275   -14555.781   -19182.806    39370.486   -19118.787    -173.4636 
    1000   -173.97971    6.2097236   -1.3306236    6.6684628   -1.7893628     6.204081            0            0            0    7222.7268    -15816.21     53275.33    -15790.94   -20469.262    41567.799   -20405.365   -173.97971 
    1010    -174.5355    6.2015018   -1.3224018    6.6928583   -1.8137583    6.1958616            0            0            0    7493.4757   -17076.493    56600.891   -17043.971   -21797.207    43808.667   -21734.788    -174.5355 
    1020   -175.13306    6.1930972   -1.3139972    6.7172538   -1.8381538    6.1874605            0            0            0    7777.2406   -18374.106     60044.76   -18338.932   -23156.093    46100.628   -23089.843   -175.13306 
    1030   -175.77451     6.184537    -1.305437    6.7416493   -1.8625493    6.1789049            0            0            0    8165.5911   -19647.807    63751.734   -19607.154   -24604.481    48433.666   -24537.514   -175.77451 
    1040   -176.46194    6.1758483   -1.2967483    6.7660448   -1.8869448    6.1702215            0            0            0    8598.1347   -20932.844    67614.905   -20887.657   -26095.956     50800.21   -26027.087   -176.46194 
    1050   -177.19761    6.1670529   -1.2879529    6.7904403   -1.9113403    6.1614317            0            0            0    9070.6291    -22227.73    71618.871   -22179.253   -27623.015    53191.266   -27550.703   -177.19761 
    1060   -177.98365     6.158176    -1.279076    6.8148358   -1.9357358    6.1525609            0            0            0    9574.8461   -23531.668    75739.654   -23483.448   -29175.985    55596.989   -29095.992   -177.98365 
    1070   -178.82243    6.1492356   -1.2701356    6.8392313   -1.9601313    6.1436266            0            0            0    10134.072   -24833.583    80016.647   -24780.847   -30766.198    58015.636   -30683.956   -178.82243 
    1080   -179.71628    6.1402505   -1.2611505    6.8636268   -1.9845268    6.1346476            0            0            0    10822.972   -26082.664    84575.764   -26024.185   -32447.593    60441.755   -32364.596   -179.71628 
    1090   -180.66754      6.13124     -1.25214    6.8880223   -2.0089223    6.1256431            0            0            0    11500.299   -27350.933    89145.122   -27293.291   -34109.269    62851.833   -34017.617   -180.66754 
    1100   -181.67873    6.1222203   -1.2431203    6.9124178   -2.0333178    6.1166286            0            0            0    12264.185   -28582.854    93894.768   -28519.358   -35814.334    65243.988    -35721.98   -181.67873 
    1110   -182.75236    6.1132072   -1.2341072    6.9368133   -2.0577133    6.1076203            0            0            0     13103.06   -29773.917    98798.877   -29715.779   -37561.772    67612.174   -37455.216   -182.75236 
    1120   -183.89103    6.1042162   -1.2251162    6.9612088   -2.0821088    6.0986336            0            0            0    13983.807   -30942.045    103776.33   -30882.865   -39307.215    69937.187    -39194.13   -183.89103 
    1130   -185.09738    6.0952632   -1.2161632    6.9856043   -2.1065043    6.0896842            0            0            0    14968.181   -32044.051    108930.69   -31982.097    -41095.35    72212.839   -40977.928   -185.09738 
    1140   -186.37428    6.0863608   -1.2072608    7.0099998   -2.1308998    6.0807844            0            0            0    15984.252   -33109.938    114110.49   -33047.796   -42867.064    74420.478    -42742.19   -186.37428 
    1150   -187.72472    6.0775219   -1.1984219    7.0343953   -2.1552953    6.0719473            0            0            0    17092.618   -34101.031    119420.41   -34041.526   -44664.768    76556.335   -44529.008   -187.72472 
    1160   -189.15177    6.0687604   -1.1896604    7.0587908   -2.1796908    6.0631865            0            0            0    18278.442   -35016.426    124815.88    -34964.13   -46471.507    78605.758   -46319.199   -189.15177 
    1170   -190.65854    6.0600912   -1.1809912    7.0831863   -2.2040863    6.0545173            0            0            0    19525.513   -35863.426    130246.93   -35806.968   -48257.732    80552.899   -48103.322   -190.65854 
    1180   -192.24859     6.051526    -1.172426    7.1075818   -2.2284818    6.0459509            0            0            0    20857.441   -36611.561    135749.96   -36566.075   -50054.836    82392.659   -49879.292   -192.24859 
    1190   -193.92552    6.0430794   -1.1639794    7.1319773   -2.2528773    6.0375016            0            0            0    22292.392   -37250.402    141331.92   -37204.346   -51848.739    84103.942   -51667.006   -193.92552 
    1200   -195.69355    6.0347615   -1.1556615    7.1563728   -2.2772728    6.0291797            0            0            0    23778.808   -37799.234    146897.73   -37762.073   -53616.597    85688.553   -53416.651   -195.69355 
    1210   -197.55668    6.0265898   -1.1474898    7.1807683   -2.3016683    6.0210024            0            0            0    25317.271   -38235.871    152390.97   -38203.286   -55329.097    87102.613   -55116.813   -197.55668 
    1220   -199.51946    6.0185791   -1.1394791    7.2051638   -2.3260638    6.0129853            0            0            0    26969.023   -38530.048     157941.6   -38504.482   -57041.263    88359.423   -56813.815   -199.51946 
    1230   -201.58739     6.010741    -1.131641    7.2295593   -2.3504593    6.0051392            0            0            0    28729.433    -38665.25    163503.99   -38650.446   -58737.226    89430.772   -58490.064   -201.58739 
    1240   -203.76582    6.0030939   -1.1239939    7.2539548   -2.3748548    5.9974824            0            0            0     30555.34   -38659.792    168978.59   -38652.776   -60376.383     90304.97   -60113.836   -203.76582 
    1250   -206.06112    5.9956534   -1.1165534    7.2783503   -2.3992503    5.9900308            0            0            0    32480.229   -38470.258    174381.93   -38470.982   -61968.466    90947.306   -61691.202   -206.06112 
    1260   -208.47985    5.9884404   -1.1093404    7.3027458   -2.4236458     5.982805            0            0            0    34534.568   -38082.742    179783.34   -38096.895   -63544.372    91368.045   -63245.328   -208.47985 
    1270   -211.03022    5.9814716   -1.1023716    7.3271413   -2.4480413    5.9758215            0            0            0    36651.001   -37504.082    184987.85   -37530.767   -65029.713    91519.651   -64710.742   -211.03022 
    1280   -213.72037    5.9747713   -1.0956713    7.3515368   -2.4724368     5.969105            0            0            0    38905.563    -36694.24    190142.32    -36731.39   -66479.368    91404.295   -66144.119   -213.72037 
    1290   -216.55954    5.9683651   -1.0892651    7.3759323   -2.4968323    5.9626807            0            0            0    41286.852   -35629.467    195169.82   -35679.798    -67870.54    90982.562   -67516.264   -216.55954 
    1300   -219.55725     5.962284    -1.083184    7.4003278   -2.5212278    5.9565796            0            0            0    43773.964   -34309.768    200010.32   -34378.662   -69185.995    90243.247    -68806.23   -219.55725 
    1310   -222.72451    5.9565585   -1.0774585    7.4247233   -2.5456233    5.9508322            0            0            0    46431.189   -32641.176    204660.66   -32725.919   -70421.505    89090.994   -70021.474   -222.72451 
    1320   -226.07115    5.9512288   -1.0721288    7.4491188   -2.5700188    5.9454786            0            0            0    49265.599   -30613.812    209123.32   -30712.715   -71581.461    87520.674   -71165.142   -226.07115 
    1330    -229.6048    5.9463435   -1.0672435    7.4735143   -2.5944143    5.9405674            0            0            0     52314.16    -28148.06    213359.04     -28268.5   -72661.433    85451.106   -72220.419    -229.6048 
    1340   -233.32936    5.9419571   -1.0628571    7.4979098   -2.6188098    5.9361527            0            0            0    55610.838   -25178.897    217331.01   -25319.598   -73645.856    82807.965   -73184.337   -233.32936 
    1350   -237.23722    5.9381387   -1.0590387    7.5223053   -2.6432053    5.9323037            0            0            0    59167.421   -21660.234     220987.7   -21825.202   -74524.432    79539.806   -74039.395   -237.23722 
    1360   -241.30033    5.9349686   -1.0558686    7.5467008   -2.6676008    5.9291003            0            0            0    63043.556   -17450.987    224221.25   -17639.597   -75260.975    75482.341   -74756.875   -241.30033 
    1370   -245.44963    5.9325453   -1.0534453    7.5710963   -2.6919963    5.9266408            0            0            0    67300.073    -12473.08    227065.24   -12691.943   -75877.401    70575.292   -75348.714   -245.44963 
    1380   -249.54893    5.9309791   -1.0518791    7.5954918   -2.7163918    5.9250354            0            0            0    71928.958    -6686.727    229408.94    -6935.337   -76336.032    64755.012   -75787.943   -249.54893 
    1390   -253.38013    5.9303799   -1.0512799    7.6198873   -2.7407873    5.9243935            0            0            0    76779.601   -198.14848     231018.7   -481.74562   -76567.797    58082.416   -75996.898   -253.38013 
    1400   -256.71747    5.9308186   -1.0517186    7.6442828   -2.7651828    5.9247858            0            0            0    81478.048    6455.2945    231843.57    6135.2756   -76559.124     51087.66   -75965.086   -256.71747 
    1410   -259.50561    5.9322735   -1.0531735    7.6686783   -2.7895783    5.9261905            0            0            0    85465.047    12506.884    231734.66    12153.595   -76261.057    44505.172   -75646.667   -259.50561 
    1420   -261.83063    5.9346268   -1.0555268    7.6930738   -2.8139738    5.9284897            0            0            0    88576.419    17630.119    230852.83    17246.304    -75728.91    38700.855   -75094.574   -261.83063 
    1430   -263.65587    5.9377544   -1.0586544    7.7174693   -2.8383693    5.9315595            0            0            0    90826.709    21848.096    229193.25    21438.784   -74958.369     33650.21   -74307.858   -263.65587 
    1440   -264.92497    5.9415337   -1.0624337    7.7418648   -2.8627648    5.9352779            0            0            0    92156.122    25014.886    226866.04    24587.439   -73983.871    29523.415     -73323.4   -264.92497 
    1450   -265.80825    5.9457811   -1.0666811    7.7662603   -2.8871603     5.939462            0            0            0    92286.934    26673.399    223948.79    26238.614   -72826.648     26791.49   -72164.893   -265.80825 
    1460   -266.54861     5.950277    -1.071177    7.7906558   -2.9115558    5.9438934            0            0            0    91522.541    27101.335    220798.32    26667.968   -71601.468    25254.395   -70945.162   -266.54861 
    1470   -267.25162    5.9548679   -1.0757679    7.8150513   -2.9359513    5.9484194            0            0            0     90293.34    26889.635    217528.25    26462.139   -70344.179    24345.694   -69696.658   -267.25162 
    1480   -267.93924    5.9594815   -1.0803815    7.8394468   -2.9603468    5.9529681            0            0            0    88815.144    26387.805    214089.57    25968.054   -69038.215    23705.156   -68400.851   -267.93924 
    1490   -268.61447    5.9640921   -1.0849921    7.8638423   -2.9847423    5.9575138            0            0            0    87346.169    25844.635    210760.73    25433.141   -67774.935    23145.097   -67148.248   -268.61447 
    1500    -269.2778    5.9686908   -1.0895908    7.8882378   -3.0091378    5.9620477            0            0            0    85884.471    25296.453    207463.92    24893.037    -66528.83     22611.81   -65912.539    -269.2778 
    1510   -269.92939     5.973275    -1.094175    7.9126333   -3.0335333    5.9665672            0            0            0    84391.866     24722.35    204126.04    24327.205   -65275.706    22109.898    -64670.02   -269.92939 
    1520   -270.56944    5.9778451   -1.0987451    7.9370288   -3.0579288    5.9710729            0            0            0    82910.654    24153.836     200811.4    23766.723   -64036.771    21621.614    -63441.38   -270.56944 
    1530   -271.19805    5.9823996   -1.1032996    7.9614243   -3.0823243    5.9755629            0            0            0    81469.983    23620.197    197548.77     23240.98   -62821.088    21123.462    -62235.99   -271.19805 
    1540   -271.81539    5.9869394   -1.1078394    7.9858198   -3.1067198    5.9800385            0            0            0     80042.15    23097.945    194302.13    22726.379   -61617.009    20630.896   -61041.921   -271.81539 
    1550   -272.42162    5.9914643   -1.1123643    8.0102153   -3.1311153    5.9844992            0            0            0    78626.303    22562.474    191117.58     22198.85   -60438.782    20177.428   -59874.077   -272.42162 
    1560   -273.01688    5.9959758   -1.1168758    8.0346108   -3.1555108    5.9889467            0            0            0    77209.959    22038.935    187908.02    21682.927   -59258.967    19719.854   -58704.262   -273.01688 
    1570   -273.60132    6.0004736   -1.1213736    8.0590063   -3.1799063    5.9933806            0            0            0    75810.258    21532.258    184714.87     21183.65   -58090.704    19261.599   -57545.784   -273.60132 
    1580   -274.17505    6.0049554   -1.1258554    8.0834018   -3.2043018    5.9977987            0            0            0     74494.67    21077.047    181671.31    20735.653   -56975.989    18794.944   -56440.827   -274.17505 
    1590   -274.73828    6.0094247   -1.1303247    8.1077973   -3.2286973    6.0022043            0            0            0    73115.551    20570.182    178540.36    20236.113   -55839.405    18373.801   -55313.939   -274.73828 
    1600   -275.29112    6.0138809   -1.1347809    8.1321928   -3.2530928     6.006597            0            0            0    71755.707    20068.824    175456.14    19742.151   -54723.398    17968.337   -54207.778   -275.29112 
    1610   -275.83372    6.0183235   -1.1392235    8.1565883   -3.2774883    6.0109762            0            0            0    70453.355    19631.238    172417.55    19311.282   -53628.059    17520.215   -53121.621   -275.83372 
    1620   -276.36622    6.0227526   -1.1436526    8.1809838   -3.3018838    6.0153421            0            0            0    69139.768    19155.176    169421.78    18842.352     -52551.5    17129.947   -52054.658   -276.36622 
    1630   -276.88877     6.027168    -1.148068    8.2053793   -3.3262793    6.0196943            0            0            0    67881.512    18738.257    166474.24    18432.041   -51495.937    16701.246   -51008.246   -276.88877 
    1640   -277.40154    6.0315722   -1.1524722    8.2297748   -3.3506748    6.0240355            0            0            0    66581.128    18271.553     163499.7    17972.127   -50437.401    16327.459   -49958.867   -277.40154 
    1650   -277.90465    6.0359635   -1.1568635    8.2541703   -3.3750703     6.028364            0            0            0    65332.428    17846.031    160598.15    17553.097   -49407.234    15937.443   -48937.637   -277.90465 
    1660   -278.39823    6.0403413   -1.1612413    8.2785658   -3.3994658     6.032679            0            0            0    64103.264    17428.301    157739.58    17141.911   -48395.605    15557.985   -47935.085   -278.39823 
    1670   -278.88244    6.0447078   -1.1656078    8.3029613   -3.4238613    6.0369829            0            0            0    62897.826    17026.679    154920.29    16746.511   -47401.648     15180.11   -46949.793   -278.88244 
    1680   -279.35742    6.0490615   -1.1699615    8.3273568   -3.4482568    6.0412741            0            0            0    61677.432    16609.516     152087.1     16335.68   -46408.447    14824.525   -45965.366   -279.35742 
    1690    -279.8233    6.0534035   -1.1743035    8.3517523   -3.4726523    6.0455537            0            0            0    60500.172    16230.381    149307.71    15962.423   -45437.251    14450.953   -45002.465    -279.8233 
    1700   -280.28024    6.0577347   -1.1786347    8.3761478   -3.4970478    6.0498227            0            0            0    59329.711    15833.754    146583.38    15572.002   -44487.681    14114.271   -44061.588   -280.28024 
    1710   -280.72836    6.0620535   -1.1829535    8.4005433   -3.5214433    6.0540794            0            0            0    58189.931    15462.653     143900.4    15206.742   -43555.885    13768.996   -43138.072   -280.72836 
    1720   -281.16782    6.0663608   -1.1872608    8.4249388   -3.5458388    6.0583248            0            0            0    57043.235    15081.728    141216.31    14831.664   -42628.552    13441.913   -42218.979   -281.16782 
    1730   -281.59872    6.0706575   -1.1915575    8.4493343   -3.5702343    6.0625595            0            0            0     55937.35    14728.695    138599.07    14484.287   -41726.404    13108.098   -41324.945   -281.59872 
    1740   -282.02123    6.0749428   -1.1958428    8.4737298   -3.5946298    6.0667831            0            0            0    54826.821    14371.035     135977.3    14132.129   -40827.665    12786.347   -40434.052   -282.02123 
    1750   -282.43545    6.0792167   -1.2001167    8.4981253   -3.6190253    6.0709955            0            0            0    53756.006    14030.529    133440.39    13797.097    -39959.11    12471.231   -39573.391   -282.43545 
    1760   -282.84155    6.0834803   -1.2043803    8.5225208   -3.6434208    6.0751975            0            0            0    52674.525      13683.5    130884.64    13455.433   -39089.463    12167.001   -38711.446   -282.84155 
    1770   -283.23964    6.0877326   -1.2086326    8.5469163   -3.6678163    6.0793885            0            0            0    51620.785    13345.535    128393.99    13122.832   -38243.741    11873.236    -37873.47   -283.23964 
    1780   -283.62984     6.091976    -1.212876    8.5713118   -3.6922118    6.0835707            0            0            0    50603.903    13036.111    125957.16    12818.435   -37418.732    11568.488   -37055.845   -283.62984 
    1790   -284.01234    6.0962079   -1.2171079    8.5957073   -3.7166073    6.0877415            0            0            0    49568.203    12702.059    123513.03    12489.523   -36595.651    11294.036   -36240.175   -284.01234 
    1800   -284.38715    6.1004275   -1.2213275    8.6201028   -3.7410028    6.0919001            0            0            0    48587.747      12410.3    121150.24    12202.705   -35800.984    10999.118   -35452.878   -284.38715 
    1810   -284.75454     6.104643    -1.225543    8.6444983   -3.7653983    6.0960547            0            0            0    47584.688      12092.8    118771.26    11890.005   -35005.896    10734.082   -34664.751   -284.75454 
    1820   -285.11452    6.1088426   -1.2297426    8.6688938   -3.7897938    6.1001936            0            0            0     46613.78      11793.3    116452.71    11595.328   -34232.522    10468.398   -33898.495   -285.11452 
    1830   -285.46727    6.1130356   -1.2339356    8.6932893   -3.8141893     6.104326            0            0            0    45681.612    11527.589    114183.12    11334.132    -33477.75    10184.319   -33150.575   -285.46727 
    1840   -285.81292    6.1172192   -1.2381192    8.7176848   -3.8385848    6.1084491            0            0            0    44736.947    11225.134    111949.25    11036.463   -32737.141    9949.3502   -32416.977   -285.81292 
    1850   -286.15154    6.1213914   -1.2422914    8.7420803   -3.8629803     6.112561            0            0            0    43802.892    10945.725    109701.53    10761.418   -31996.526    9695.3955   -31682.866   -286.15154 
    1860   -286.48332    6.1255564   -1.2464564    8.7664758   -3.8873758    6.1166657            0            0            0    42903.109    10679.381    107530.49    10499.454   -31282.027    9447.6836   -30974.968   -286.48332 
    1870   -286.80831    6.1297119   -1.2506119    8.7908713   -3.9117713    6.1207611            0            0            0     42023.85    10418.977    105409.21    10243.363    -30585.68    9208.5575   -30285.139   -286.80831 
    1880   -287.12667    6.1338566   -1.2547566    8.8152668   -3.9361668    6.1248458            0            0            0    41134.685    10154.119    103267.23    9982.7048   -29886.897    8976.0369   -29592.674   -287.12667 
    1890   -287.43851    6.1379941   -1.2588941    8.8396623   -3.9605623    6.1289234            0            0            0    40282.426    9910.3218    101193.98    9742.9734   -29211.632    8739.8608   -28923.639   -287.43851 
    1900   -287.74393    6.1421226   -1.2630226    8.8640578   -3.9849578    6.1329921            0            0            0    39441.316    9666.4866    99154.295     9503.167   -28549.481    8514.8651   -28267.645   -287.74393 
    1910   -288.04306    6.1462426   -1.2671426    8.8884533   -4.0093533    6.1370525            0            0            0    38606.812    9418.3206    97143.149    9258.9653   -27898.929    8304.2718   -27623.099   -288.04306 
    1920   -288.33601    6.1503531   -1.2712531    8.9128488   -4.0337488    6.1411036            0            0            0    37785.911    9181.3096    95150.597    9025.8274   -27257.004    8090.8118   -26987.115   -288.33601 
    1930   -288.62288     6.154457    -1.275357    8.9372443   -4.0581443    6.1451481            0            0            0     36990.12    8951.1138    93219.773     8799.474   -26636.003    7885.8881   -26372.033   -288.62288 
    1940   -288.90377    6.1585516   -1.2794516    8.9616398   -4.0825398    6.1491834            0            0            0    36207.874    8731.8498    91307.941    8583.8308   -26023.674    7678.1539   -25765.329   -288.90377 
    1950   -289.17882    6.1626381   -1.2835381    8.9860353   -4.1069353    6.1532107            0            0            0    35428.666    8508.1243    89414.091    8363.7837   -25419.457    7482.5011   -25166.802   -289.17882 
    1960   -289.44811    6.1667175   -1.2876175    9.0104308   -4.1313308    6.1572311            0            0            0    34677.294     8300.106    87572.515    8159.2608   -24833.226     7284.465   -24586.053   -289.44811 
    1970   -289.71176    6.1707891   -1.2916891    9.0348263   -4.1557263    6.1612438            0            0            0    33924.861    8084.4571    85743.079    7947.0458   -24253.416    7100.5409    -24011.55   -289.71176 
    1980   -289.96986    6.1748517   -1.2957517    9.0592218   -4.1801218    6.1652477            0            0            0    33199.294    7884.7477    83962.377    7750.7572   -23690.178    6912.9433   -23453.719   -289.96986 
    1990   -290.22253    6.1789089   -1.2998089    9.0836173   -4.2045173    6.1692462            0            0            0    32479.328     7683.864    82200.951    7553.1706   -23135.294    6733.9489    -22904.01   -290.22253 
    2000   -290.46985     6.182957    -1.303857    9.1080128   -4.2289128    6.1732358            0            0            0     31775.83    7489.0002    80476.919    7361.5706   -22593.634    6559.0713   -22367.504   -290.46985 
    2010   -290.71193    6.1869988   -1.3078988    9.1324083   -4.2533083    6.1772191            0            0            0    31084.137    7299.9011    78776.916    7175.5931   -22061.485    6386.3575   -21840.304   -290.71193 
    2020   -290.94886    6.1910328   -1.3119328    9.1568038   -4.2777038    6.1811948            0            0            0     30408.96    7115.0158    77118.049    6993.8145    -21543.43    6219.8792   -21327.191   -290.94886 
    2030   -291.18074    6.1950591   -1.3159591    9.1811993   -4.3020993    6.1851629            0            0            0    29739.453     6931.911    75472.706    6813.7423   -21031.727    6057.5911   -20820.313   -291.18074 
    2040   -291.40766    6.1990786   -1.3199786    9.2055948   -4.3264948    6.1891244            0            0            0    29091.091    6759.0024    73870.449    6643.8204   -20534.504    5895.5971   -20327.908   -291.40766 
    2050   -291.62973    6.2030943   -1.3239943    9.2299903   -4.3508903    6.1930821            0            0            0    28450.346    6586.0493     72291.27    6473.7184    -20046.27     5740.958    -19844.24   -291.62973 
    2060   -291.84704    6.2071007   -1.3280007    9.2543858   -4.3752858    6.1970307            0            0            0    27820.752    6417.2222    70737.321    6307.7135   -19567.353    5589.5675   -19369.868   -291.84704 
    2070   -292.05968    6.2111034   -1.3320034    9.2787813   -4.3996813    6.2009757            0            0            0    27208.063     6255.403    69220.165    6148.6208   -19101.008     5440.349   -18907.943   -292.05968 
    2080   -292.26773    6.2150969   -1.3359969    9.3031768   -4.4240768    6.2049116            0            0            0    26603.193    6092.1828    67729.264    5988.1314   -18644.108    5299.8462   -18455.447   -292.26773 
    2090   -292.47126    6.2190837   -1.3399837    9.3275723   -4.4484723    6.2088409            0            0            0    26010.939    5938.0238    66258.183    5836.6092   -18194.903    5156.6123   -18010.557   -292.47126 
    2100   -292.67038    6.2230661   -1.3439661    9.3519678   -4.4728678     6.212766            0            0            0    25434.021    5788.0369    64824.804    5689.2227   -17758.214    5018.0994    -17578.14   -292.67038 
    2110   -292.86518    6.2270422   -1.3479422    9.3763633   -4.4972633    6.2166849            0            0            0    24862.234    5637.0432    63408.956    5540.7026   -17328.532    4886.3656   -17152.483   -292.86518 
    2120   -293.05575    6.2310127   -1.3519127    9.4007588   -4.5216588    6.2205983            0            0            0    24306.192    5494.9755    62022.539    5401.0626   -16908.927    4753.1019   -16736.893   -293.05575 
    2130   -293.24215    6.2349779   -1.3558779    9.4251543   -4.5460543    6.2245064            0            0            0    23757.692    5350.5437    60663.478    5259.0534   -16498.777    4629.1774   -16330.711   -293.24215 
    2140   -293.42447    6.2389358   -1.3598358    9.4495498   -4.5704498    6.2284074            0            0            0    23223.379    5213.7591    59331.766    5124.6118   -16098.024    4504.5335   -15933.845   -293.42447 
    2150   -293.60278     6.242889    -1.363789    9.4739453   -4.5948453    6.2323038            0            0            0    22698.828    5080.0818    58023.174    4993.2279   -15705.469    4382.9695   -15545.106   -293.60278 
    2160   -293.77717    6.2468372   -1.3677372    9.4983408   -4.6192408    6.2361954            0            0            0     22186.16    4950.2201    56742.651    4865.6095   -15322.379    4264.3997   -15165.765   -293.77717 
    2170   -293.94773     6.250781    -1.371681    9.5227363   -4.6436363    6.2400827            0            0            0    21682.997    4823.3957    55484.661    4740.9332   -14947.249      4148.73   -14794.229   -293.94773 
    2180   -294.11454    6.2547203   -1.3756203    9.5471318   -4.6680318    6.2439655            0            0            0    21188.839    4698.0273    54250.807    4617.6822    -14580.39    4037.6282   -14430.908   -294.11454 
    2190   -294.27765    6.2586536   -1.3795536    9.5715273   -4.6924273    6.2478425            0            0            0    20705.179    4576.5249    53040.755    4498.2558    -14221.64    3928.5634    -14075.65   -294.27765 
    2200   -294.43714    6.2625823   -1.3834823    9.5959228   -4.7168228     6.251715            0            0            0    20231.445     4457.289    51855.988    4381.0591   -13871.355     3823.275   -13728.797   -294.43714 
    2210   -294.59309    6.2665051   -1.3874051    9.6203183   -4.7412183    6.2555818            0            0            0    19767.496    4341.5208    50693.693    4267.2738   -13528.724    3720.0793   -13389.517   -294.59309 
    2220   -294.74556    6.2704235   -1.3913235    9.6447138   -4.7656138    6.2594442            0            0            0    19313.465    4229.4136    49553.884     4157.096   -13193.702    3618.7126   -13057.775   -294.74556 
    2230   -294.89463    6.2743379   -1.3952379    9.6691093   -4.7900093    6.2633027            0            0            0    18868.468    4120.0299    48435.776    4049.5994   -12866.024    3519.8981   -12733.315   -294.89463 
    2240   -295.04036    6.2782483   -1.3991483    9.6935048   -4.8144048    6.2671574            0            0            0    18433.238    4013.3662    47341.586    3944.7629   -12546.243    3423.8999   -12416.656   -295.04036 
    2250   -295.18283    6.2821543   -1.4030543    9.7179003   -4.8388003    6.2710078            0            0            0    18006.148    3908.6586    46267.946    3841.8403   -12233.394    3330.9088   -12106.859   -295.18283 
    2260    -295.3221    6.2860563   -1.4069563    9.7422958   -4.8631958    6.2748542            0            0            0    17588.587    3807.3169    45216.187    3742.2554   -11927.762    3239.6305   -11804.251    -295.3221 
    2270   -295.45823    6.2899544   -1.4108544    9.7666913   -4.8875913     6.278697            0            0            0    17180.685    3708.8372    44187.727    3645.4896   -11629.687    3150.7082   -11509.136   -295.45823 
    2280    -295.5913    6.2938495   -1.4147495    9.7910868   -4.9119868    6.2825368            0            0            0    16780.433    3612.1765    43178.638    3550.4843   -11338.113    3064.5758    -11220.42    -295.5913 
    2290   -295.72137    6.2977407   -1.4186407    9.8154823   -4.9363823    6.2863728            0            0            0    16389.381    3519.1033     42190.01    3459.0293   -11053.238    2979.5252   -10938.361   -295.72137 
    2300   -295.84849     6.301629    -1.422529    9.8398778   -4.9607778    6.2902061            0            0            0    16005.521    3426.3752      41222.3    3367.8888   -10775.152    2898.8022   -10663.026   -295.84849 
    2310   -295.97273    6.3055127   -1.4264127    9.8642733   -4.9851733    6.2940348            0            0            0    15630.044    3336.6834    40273.708      3279.74   -10503.328    2819.4045   -10393.889   -295.97273 
    2320   -296.09414    6.3093929   -1.4302929    9.8886688   -5.0095688    6.2978602            0            0            0    15262.974    3249.6602    39345.035    3194.2262    -10237.93    2741.7539   -10131.132   -296.09414 
    2330   -296.21279    6.3132701   -1.4341701    9.9130643   -5.0339643    6.3016827            0            0            0    14903.979    3165.0169     38435.86    3111.0611   -9978.8031    2666.0155   -9874.6023   -296.21279 
    2340   -296.32873    6.3171446   -1.4380446    9.9374598   -5.0583598    6.3055026            0            0            0    14552.663    3082.5447    37545.428    3030.0163   -9725.7322    2592.2522   -9624.0447   -296.32873 
    2350   -296.44202    6.3210164   -1.4419164    9.9618553   -5.0827553    6.3093199            0            0            0    14208.659    3002.1904    36672.732    2951.0533   -9478.3993    2520.3054   -9379.1693   -296.44202 
    2360   -296.55272    6.3248856   -1.4457856    9.9862508   -5.1071508    6.3131347            0            0            0    13871.961    2923.6604     35818.34    2873.8819   -9236.9098    2450.4928   -9140.0838   -296.55272 
    2370   -296.66088     6.328752    -1.449652    10.010646   -5.1315463    6.3169469            0            0            0    13542.576     2846.957    34982.266    2798.5058   -9001.2234    2382.7582   -8906.7511   -296.66088 
    2380   -296.76656    6.3326159   -1.4535159    10.035042   -5.1559418    6.3207566            0            0            0    13220.776    2772.3726    34164.737    2725.2177    -8771.358    2316.7921   -8679.1922   -296.76656 
    2390    -296.8698     6.336477    -1.457377    10.059437   -5.1803373    6.3245637            0            0            0    12906.099    2699.7851    33364.613    2653.8975   -8546.9814    2252.5177   -8457.0786    -296.8698 
    2400   -296.97065    6.3403362   -1.4612362    10.083833   -5.2047328     6.328369            0            0            0    12598.709     2629.668    32581.445    2585.0157   -8327.9443    2189.3465   -8240.2608   -296.97065 
    2410   -297.06919    6.3441956   -1.4650956    10.108228   -5.2291283    6.3321745            0            0            0     12298.28    2561.3873    31815.531    2517.9208   -8114.3196    2127.9223   -8028.7693   -297.06919 
    2420   -297.16545    6.3480515   -1.4689515    10.132624   -5.2535238    6.3359768            0            0            0    12003.641    2494.4782    31064.274    2452.1707   -7905.3675    2068.2859   -7821.9056   -297.16545 
    2430   -297.25948    6.3519071   -1.4728071    10.157019   -5.2779193    6.3397787            0            0            0    11715.229    2428.1374    30330.578    2386.9707   -7701.8046    2011.5854   -7620.3904   -297.25948 
    2440   -297.35132    6.3557586   -1.4766586    10.181415   -5.3023148    6.3435768            0            0            0    11433.343    2364.2809    29611.522    2324.2255   -7502.8388    1955.4809   -7423.4353   -297.35132 
    2450   -297.44103    6.3596087   -1.4805087     10.20581   -5.3267103    6.3473734            0            0            0    11158.303    2302.4338    28909.013     2263.463   -7308.9335    1900.6619   -7231.5014   -297.44103 
    2460   -297.52864    6.3634574   -1.4843574    10.230206   -5.3511058    6.3511689            0            0            0    10889.118    2242.0887     28221.09    2204.1759   -7119.5634    1847.3373   -7044.0595   -297.52864 
    2470   -297.61421    6.3673049   -1.4882049    10.254601   -5.3755013    6.3549633            0            0            0    10625.809    2183.2593    27547.796    2146.3699   -6934.7174    1795.4623   -6861.0822   -297.61421 
    2480   -297.69779    6.3711514   -1.4920514    10.278997   -5.3998968    6.3587568            0            0            0    10368.266    2125.9465    26888.798    2090.0525   -6754.2744    1744.9455   -6682.4613   -297.69779 
    2490    -297.7794    6.3749971   -1.4958971    10.303392   -5.4242923    6.3625495            0            0            0     10116.63    2070.2192    26244.374    2035.2984   -6578.2683    1695.7141   -6508.2435    -297.7794 
    2500    -297.8591    6.3788422   -1.4997422    10.327788   -5.4486878    6.3663418            0            0            0    9870.7686    2015.9742     25614.33     1982.002   -6406.6262    1647.8137   -6338.3492    -297.8591 
    2510   -297.93692    6.3826867   -1.5035867    10.352183   -5.4730833    6.3701336            0            0            0    9630.3963    1963.0388    24998.159    1929.9908   -6239.1933    1601.3162   -6172.6229   -297.93692 
    2520   -298.01291    6.3865307   -1.5074307    10.376579   -5.4974788     6.373925            0            0            0    9395.4857     1911.466    24395.673    1879.3185   -6075.8935    1556.1083   -6010.9899   -298.01291 
    2530   -298.08711    6.3903743   -1.5112743    10.400974   -5.5218743    6.3777161            0            0            0    9165.8622    1861.1861    23806.485    1829.9158   -5916.6038    1512.1775   -5853.3277   -298.08711 
    2540   -298.15956    6.3942175   -1.5151175     10.42537   -5.5462698    6.3815069            0            0            0    8941.5083    1812.2474    23230.445    1781.8323   -5761.2594     1469.423   -5699.5746   -298.15956 
    2550    -298.2303    6.3980605   -1.5189605    10.449765   -5.5706653    6.3852977            0            0            0    8722.3328     1764.644    22667.293    1735.0615   -5609.7711    1427.7871   -5549.6403    -298.2303 
    2560   -298.29935    6.4019037   -1.5228037    10.474161   -5.5950608    6.3890887            0            0            0    8508.1828    1718.3051     22116.71    1689.5332   -5462.0356    1387.2693    -5403.422   -298.29935 
    2570   -298.36677    6.4057471   -1.5266471    10.498556   -5.6194563    6.3928801            0            0            0    8298.9481    1673.1876    21578.453    1645.2044    -5317.969     1347.852   -5260.8356   -298.36677 
    2580   -298.43259    6.4095909   -1.5304909    10.522952   -5.6438518     6.396672            0            0            0    8094.5232     1629.253    21052.279    1602.0376   -5177.4875    1309.5134   -5121.7989   -298.43259 
    2590   -298.49684    6.4134354   -1.5343354    10.547347   -5.6682473    6.4004646            0            0            0    7894.8123    1586.4719    20537.961    1560.0041   -5040.5117    1272.2259   -4986.2335   -298.49684 
    2600   -298.55956    6.4172805   -1.5381805    10.571743   -5.6926428     6.404258            0            0            0    7699.7358    1544.8057    20035.336    1519.0662   -4906.9786    1235.9801   -4854.0778   -298.55956 
    2610   -298.62078    6.4211264   -1.5420264    10.596138   -5.7170383    6.4080524            0            0            0    7509.2013     1504.242     19544.15    1479.2118   -4776.8043    1200.7306   -4725.2485   -298.62078 
    2620   -298.68054    6.4249734   -1.5458734    10.620534   -5.7414338    6.4118478            0            0            0    7323.1268    1464.7722    19064.176    1440.4324   -4649.9117    1166.4323   -4599.6689   -298.68054 
    2630   -298.73887    6.4288216   -1.5497216    10.644929   -5.7658293    6.4156447            0            0            0    7141.4071    1426.3479    18595.193    1402.6801   -4526.2267    1133.0812   -4477.2653   -298.73887 
    2640    -298.7958    6.4326712   -1.5535712    10.669325   -5.7902248     6.419443            0            0            0    6963.9341    1388.9402    18136.936    1365.9265    -4405.664    1100.6492    -4357.953    -298.7958 
    2650   -298.85136    6.4365223   -1.5574223     10.69372   -5.8146203    6.4232429            0            0            0    6790.6175    1352.5033    17689.223    1330.1262   -4288.1553    1069.1358   -4241.6642   -298.85136 
    2660   -298.90559     6.440375    -1.561275    10.718116   -5.8390158    6.4270445            0            0            0    6621.3439    1317.0119    17251.765    1295.2543   -4173.6152    1038.5081   -4128.3141   -298.90559 
    2670   -298.95852    6.4442294   -1.5651294    10.742511   -5.8634113     6.430848            0            0            0    6456.0271    1282.4308    16824.374    1261.2766   -4061.9795    1008.7557   -4017.8401   -298.95852 
    2680   -299.01016    6.4480857   -1.5689857    10.766907   -5.8878068    6.4346535            0            0            0    6294.5953     1248.768    16406.817    1228.2012   -3953.1743    979.82125   -3910.1686   -299.01016 
    2690   -299.06057     6.451944    -1.572844    10.791302   -5.9122023     6.438461            0            0            0     6136.965    1215.9984    15998.893    1196.0032   -3847.1335    951.68483    -3805.234   -299.06057 
    2700   -299.10975    6.4558044   -1.5767044    10.815698   -5.9365978    6.4422709            0            0            0    5983.0516    1184.0957    15600.402    1164.6567   -3743.7916    924.32815   -3702.9713   -299.10975 
    2710   -299.15774    6.4596673   -1.5805673    10.840093   -5.9609933    6.4460832            0            0            0    5832.7934    1153.0562    15211.166    1134.1585   -3643.0889    897.71384   -3603.3217   -299.15774 
    2720   -299.20457    6.4635328   -1.5844328    10.864489   -5.9853888    6.4498983            0            0            0    5686.1049    1122.8469    14830.992    1104.4758   -3544.9634    871.83305   -3506.2236   -299.20457 
    2730   -299.25026     6.467401    -1.588301    10.888884   -6.0097843    6.4537163            0            0            0    5542.9158     1093.448     14459.71    1075.5894   -3449.3583    846.66645   -3411.6207   -299.25026 
    2740   -299.29485    6.4712723   -1.5921723     10.91328   -6.0341798    6.4575373            0            0            0    5403.1459    1064.8315    14097.135    1047.4715   -3356.2139    822.20201   -3319.4539   -299.29485 
    2750   -299.33835    6.4751467   -1.5960467    10.937675   -6.0585753    6.4613617            0            0            0    5266.7266    1036.9791    13743.096    1020.1042   -3265.4747    798.42053   -3229.6683   -299.33835 
    2760   -299.38078    6.4790245   -1.5999245    10.962071   -6.0829708    6.4651895            0            0            0    5133.5825    1009.8715    13397.407    993.46861   -3177.0813    775.30234    -3142.205   -299.38078 
    2770   -299.42219    6.4829057   -1.6038057    10.986466   -6.1073663    6.4690209            0            0            0    5003.6037    983.44019    13059.874    967.49674   -3090.9734    752.87653   -3057.0043   -299.42219 
    2780   -299.46258    6.4867905   -1.6076905    11.010862   -6.1317618    6.4728559            0            0            0    4876.7186    957.68861    12730.275    942.19216   -3007.0846    731.09792        -2974   -299.46258 
    2790   -299.50198    6.4906789   -1.6115789    11.035257   -6.1561573    6.4766947            0            0            0    4752.8669     932.6168    12408.429    917.55528   -2925.3582    709.92971   -2893.1362   -299.50198 
    2800   -299.54042    6.4945711   -1.6154711    11.059653   -6.1805528    6.4805374            0            0            0    4631.9935    908.21893    12094.181    893.58052   -2845.7449    689.34505   -2814.3644   -299.54042 
    2810   -299.57792    6.4984674   -1.6193674    11.084048   -6.2049483    6.4843843            0            0            0    4514.0266    884.47258    11787.362    870.24574   -2768.1919    669.33209   -2737.6319   -299.57792 
    2820    -299.6145    6.5023679   -1.6232679    11.108444   -6.2293438    6.4882355            0            0            0    4398.9012    861.35853    11487.813    847.53198     -2692.65    649.87776     -2662.89    -299.6145 
    2830   -299.65017    6.5062729   -1.6271729    11.132839   -6.2537393    6.4920913            0            0            0    4286.5556    838.85921    11195.386    825.42197   -2619.0718    630.96862   -2590.0918   -299.65017 
    2840   -299.68497    6.5101825   -1.6310825    11.157235   -6.2781348    6.4959518            0            0            0    4176.9312    816.95827    10909.936    803.89979   -2547.4119    612.59132   -2519.1927   -299.68497 
    2850   -299.71891     6.514097    -1.634997     11.18163   -6.3025303    6.4998173            0            0            0    4069.9797    795.65094    10631.327    782.96089   -2477.6272     594.7223   -2450.1499   -299.71891 
    2860   -299.75202    6.5180165   -1.6389165    11.206026   -6.3269258     6.503688            0            0            0    3965.6361    774.91817    10359.404     762.5864   -2409.6702    577.35046   -2382.9162   -299.75202 
    2870    -299.7843    6.5219413   -1.6428413    11.230421   -6.3513213     6.507564            0            0            0    3863.8821    754.80343    10094.023     742.8197   -2343.4968    560.40425   -2317.4482    -299.7843 
    2880   -299.81579    6.5258713   -1.6467713    11.254817   -6.3757168    6.5114453            0            0            0    3765.0097    735.81388    9835.0503    724.16492   -2279.0647    543.35109   -2253.7044   -299.81579 
    2890   -299.84649    6.5298055   -1.6507055    11.279212   -6.4001123     6.515331            0            0            0    3672.7072    723.49828    9582.4872    712.13602   -2216.3594    520.64791   -2191.6786   -299.84649 
    2900   -299.87641    6.5337472   -1.6546472    11.303608   -6.4245078    6.5192243            0            0            0    3577.1275    703.12243    9336.1705    692.08971   -2155.3474    506.95301   -2131.3108   -299.87641 
    2910   -299.90561    6.5376951   -1.6585951    11.328003   -6.4489033    6.5231238            0            0            0    3483.9307    683.24105    9096.0185     672.5326    -2095.986    493.71641   -2072.5859   -299.90561 
    2920   -299.93408    6.5416493   -1.6625493    11.352399   -6.4732988    6.5270298            0            0            0    3392.3429    662.78253    8861.8487     652.3973   -2038.2277    481.97687    -2015.448   -299.93408 
    2930   -299.96185    6.5456083   -1.6665083    11.376794   -6.4976943    6.5309407            0            0            0    3306.7448    648.70545    8632.9316     638.5975   -1981.8915    464.71225   -1959.7266   -299.96185 
    2940   -299.98892    6.5495739   -1.6704739     11.40119   -6.5220898    6.5348583            0            0            0    3223.1863    635.14646     8409.108    625.30432   -1926.9412    447.74199   -1905.3702   -299.98892 
    2950   -300.01532    6.5535458   -1.6744458    11.425585   -6.5464853    6.5387823            0            0            0    3142.9848    623.85586    8190.8369    614.26158   -1873.4655    429.35635    -1852.481   -300.01532 
    2960   -300.04105    6.5575235   -1.6784235    11.449981   -6.5708808    6.5427122            0            0            0    3067.0847    616.38735    7977.8548     607.0121   -1821.3956    407.96975   -1800.9903   -300.04105 
    2970   -300.06606    6.5615053   -1.6824053    11.474376   -6.5952763    6.5466463            0            0            0    2999.5488    618.71551    7770.4375    609.49324   -1770.7775    377.64491   -1750.9573   -300.06606 
    2980   -300.09061    6.5655044   -1.6864044    11.498772   -6.6196718    6.5505979            0            0            0    2912.9363    589.95093    7567.7923     581.0658   -1721.4782    379.05732   -1702.1577   -300.09061 
    2990   -300.11447    6.5695064   -1.6904064    11.523167   -6.6440673    6.5545524            0            0            0    2838.0433    576.23065    7370.3131    567.58603   -1673.5187    366.24133   -1654.7156   -300.11447 
    3000   -300.13773    6.5735169   -1.6944169    11.547563   -6.6684628    6.5585155            0            0            0    2763.5623    560.59562    7177.8903    552.20082   -1626.8861    356.08303   -1608.5853   -300.13773 
    3010    -300.1604    6.5775346   -1.6984346    11.571958   -6.6928583    6.5624858            0            0            0    2692.6311    547.96839    6990.1285    539.79649   -1581.4807    343.62975   -1563.6722    -300.1604 
    3020    -300.1825    6.5815607   -1.7024607    11.596354   -6.7172538    6.5664648            0            0            0    2622.9287    534.84687    6807.0418    526.89733   -1537.3003    332.36164   -1519.9705    -300.1825 
    3030   -300.20407    6.5855972   -1.7064972    11.620749   -6.7416493    6.5704541            0            0            0    2550.8693    515.68108     6628.933    507.99379   -1494.4082    327.83201   -1477.5404   -300.20407 
    3040   -300.22505    6.5896385   -1.7105385    11.645145   -6.7660448    6.5744484            0            0            0     2489.683    510.87706    6454.8185    503.35357   -1452.5632    309.60049   -1436.1675   -300.22505 
    3050   -300.24553    6.5936909   -1.7145909     11.66954   -6.7904403    6.5784539            0            0            0    2424.8301    498.45106    6284.9045    491.13464   -1411.8257    299.58848   -1395.8714   -300.24553 
    3060   -300.26551    6.5977587   -1.7186587    11.693936   -6.8148358    6.5824747            0            0            0    2344.2102    460.28592    6119.0015    453.34312   -1372.1574    315.82394   -1356.5953   -300.26551 
    3070   -300.28494    6.6018299   -1.7227299    11.718331   -6.8392313    6.5864992            0            0            0    2281.4015    446.75191    5957.4323     440.0202   -1333.5804    308.12985   -1318.4424   -300.28494 
    3080    -300.3036    6.6059103   -1.7268103    11.742727   -6.8636268    6.5905329            0            0            0    2221.3948    435.46024    5799.8435    428.88072   -1296.0881     298.7994   -1281.2525    -300.3036 
    3090   -300.31967    6.6094161   -1.7303161    11.763647   -6.8845475    6.5939988            0            0            0    2171.5931    426.47283    5668.2077    420.09866   -1264.7137    290.55127   -1250.3523   -300.31967 
    3100   -300.33426    6.6127651   -1.7336651    11.783598   -6.9044977    6.5973098            0            0            0     2124.912     417.9417    5545.1279    411.66633   -1235.5594    283.05363   -1221.3857   -300.33426 
    3110   -300.34832    6.6159824   -1.7368824    11.802714   -6.9236139    6.6004907            0            0            0    2077.9281    405.10509    5429.6292    399.05008   -1208.1179    280.81291   -1194.3756   -300.34832 
    3120   -300.36196     6.619203    -1.740103    11.821836    -6.942736    6.6036751            0            0            0    2040.4233    405.46275    5316.3608    399.44645   -1181.3639    265.78722   -1167.8139   -300.36196 
    3130   -300.37523    6.6224311   -1.7433311    11.840912   -6.9618124     6.606867            0            0            0    1986.7761     380.2067    5205.6425    374.47919   -1155.1657    276.60499    -1141.985   -300.37523 
    3140   -300.38744    6.6254603   -1.7463603     11.85881   -6.9797099    6.6098624            0            0            0    1947.5092     372.2129    5103.6995    366.61516   -1131.1156     271.3989    -1118.204   -300.38744 
    3150   -300.40012    6.6286018   -1.7495018    11.877369   -6.9982686    6.6129689            0            0            0    1921.4958    385.02872     5000.075    379.38369   -1106.7409     245.2773   -1094.0284   -300.40012 
    3160   -300.41239    6.6318153   -1.7527153    11.896232   -7.0171317    6.6161468            0            0            0    1865.2714    352.19752    4896.7376    346.87924   -1082.4168    264.67621   -1070.0216   -300.41239 
    3170   -300.42452    6.6349646   -1.7558646    11.914812   -7.0357119    6.6192612            0            0            0     1856.348    388.83069    4796.8975    383.31584   -1058.9679    215.34753    -1046.836   -300.42452 
    3180   -300.43667    6.6383206   -1.7592206    11.934318   -7.0552176    6.6225806            0            0            0    1755.0458    287.93953    4694.0323     283.1656   -1034.9483    302.70899   -1022.9119   -300.43667 
    3190   -300.44781    6.6413594   -1.7622594    11.952098   -7.0729985     6.625586            0            0            0    1725.5914    289.59537    4602.3018    284.87691   -1013.4691    289.30793   -1001.6839   -300.44781 
    3200   -300.45921    6.6444855   -1.7653855      11.9705   -7.0914003    6.6286778            0            0            0    1753.5122    378.20836    4509.3461    372.98222   -991.62936    189.09229   -980.29337   -300.45921 
    3210   -300.47018    6.6477069   -1.7686069    11.989104   -7.1100039    6.6318644            0            0            0    1659.0864    282.52286    4416.7506    277.98567   -970.12861    272.64737   -958.83494   -300.47018 
    3220   -300.48083    6.6507672   -1.7716672    12.007031   -7.1279313    6.6348913            0            0            0     1684.789    364.87491    4329.6278    359.86436    -949.7217     179.4559   -938.84851   -300.48083 
    3230    -300.4912    6.6539493   -1.7748493    12.025325    -7.146225    6.6380393            0            0            0    1592.2921     269.6023    4241.9984    265.27557   -929.44132    263.26813   -918.59606    -300.4912 
    3240   -300.50057    6.6568078   -1.7777078    12.041865   -7.1627648    6.6408671            0            0            0    1565.5868    268.30164    4164.4197    264.03913   -911.41258    254.70565   -900.77609   -300.50057 
    3250   -300.51041    6.6598228   -1.7807228    12.059405   -7.1803045    6.6438496            0            0            0    1589.9174    345.32516    4083.8104    340.61662   -892.61056    167.70248   -882.36638   -300.51041 
    3260   -300.51998    6.6629314   -1.7838314    12.077175   -7.1980752    6.6469252            0            0            0    1507.3587    261.45209    4003.2746    257.34941   -874.04751    241.09842   -863.83518   -300.51998 
    3270   -300.52932    6.6659255   -1.7868255    12.094511   -7.2154111    6.6498873            0            0            0    1530.5258    334.79376     3926.519    330.26461   -856.19512    158.28321   -846.35718   -300.52932 
    3280   -300.53837    6.6689927   -1.7898927    12.111961   -7.2328608    6.6529223            0            0            0    1448.4364    249.45282    3850.3193    245.53706   -838.68914    233.71787   -828.86651   -300.53837 
    3290   -300.54733     6.671998    -1.792898    12.129296   -7.2501956    6.6558958            0            0            0    1475.9206    327.89999    3776.3412    323.52059   -821.52134    146.19269   -812.07788   -300.54733 
    3300    -300.5553    6.6747521   -1.7956521    12.145008   -7.2659081     6.658621            0            0            0    1449.0599    320.56178    3710.3418    316.27629   -806.31929    145.18896   -797.03938    -300.5553 
    3310   -300.56377    6.6777675   -1.7986675    12.162064   -7.2829641     6.661605            0            0            0    1375.5319    245.28479    3639.7671    241.54391   -790.16736    211.33677   -780.90849   -300.56377 
    3320   -300.57211    6.6807578   -1.8016578    12.179173   -7.3000735    6.6645641            0            0            0    1395.9861    310.75875    3570.5657    306.63398   -774.18125    137.37808    -765.2604   -300.57211 
    3330   -300.58019    6.6837639   -1.8046639    12.196092   -7.3169922    6.6675391            0            0            0    1321.5704    232.60647    3503.0607    229.04394   -758.78223    206.79882   -749.86614   -300.58019 
    3340   -300.58823    6.6867683   -1.8076683    12.213217   -7.3341168    6.6705123            0            0            0    1346.9362    304.27238    3436.2544    300.28193   -743.38068    126.99206   -734.81095   -300.58823 
    3350   -300.59544    6.6895153   -1.8104153    12.228704    -7.349604     6.673231            0            0            0    1319.6536    293.02331    3376.7899    289.14755   -729.78129    130.75535   -721.34762   -300.59544 
    3360   -300.60322    6.6925865   -1.8134865    12.245887   -7.3667874    6.6762709            0            0            0    1250.6282    221.72078    3311.8021    218.36161   -715.01051    193.69227   -706.58925   -300.60322 
    3370   -300.61108    6.6956964   -1.8165964    12.263468   -7.3843678    6.6793488            0            0            0    1269.9074    283.31124    3246.8234    279.58751   -700.09883    124.18506    -691.9968   -300.61108 
    3380   -300.61847    6.6987668   -1.8196668    12.280551   -7.4014515    6.6823882            0            0            0    1197.7737    205.95987    3184.5694    202.79177    -686.0001     193.5104   -677.88765   -300.61847 
[...]
    4270   -300.94996    7.0380876   -2.1589876    13.914665   -9.0355654    7.0189518            0            0            0    194.85333    50.924709    483.06121    50.574076   -95.271194    14.892501   -94.544074   -300.94996 
    4280   -300.95121    7.0423202   -2.1632202     13.93194   -9.0528398     7.023157            0            0            0    185.68524     49.77839    457.97674    49.300584   -90.499167    13.726105   -89.444198   -300.95121 
    4290   -300.95215    7.0456109   -2.1665109    13.945302   -9.0662017    7.0264264            0            0            0    177.00747    40.323104    450.78137    39.917946   -89.044396    22.223993   -87.985277   -300.95215 
    4300   -300.95292    7.0483514   -2.1692514    13.956417   -9.0773174    7.0291494            0            0            0    168.38596    39.607586    426.49481    39.055497   -84.492006    20.890099   -83.059454   -300.95292 
    4310   -300.95371    7.0512044   -2.1721044    13.967956   -9.0888562     7.031984            0            0            0    167.82201     40.91054    422.19323    40.362252   -83.584369    18.941173   -82.198311   -300.95371 
    4320   -300.95482    7.0552689   -2.1761689    13.984354   -9.1052539    7.0360224            0            0            0    167.72795    39.213108    425.18494    38.785795   -83.940628    20.343528   -82.838071   -300.95482 
    4330   -300.95568    7.0587954   -2.1796954    13.998483   -9.1193828    7.0395264            0            0            0    148.31396    13.435939    418.31995    13.185977    -82.59797    45.133704   -81.405481   -300.95568 
    4340   -300.95664      7.06212     -2.18302    14.011847   -9.1327466    7.0428299            0            0            0    161.79967    37.127956     411.5475     36.72356   -81.168802    20.654682   -80.104378   -300.95664 
    4350   -300.95737    7.0654197   -2.1863197    14.024981   -9.1458809    7.0461087            0            0            0    140.24652    7.7754579    405.38962    7.5744701   -79.975753    49.096404   -78.809367   -300.95737 
    4360   -300.95825    7.0684613   -2.1893613    14.037161   -9.1580613     7.049131            0            0            0    161.26878    42.645734     398.9542    42.206394   -78.606726    13.547162   -77.593886   -300.95825 
    4370   -300.95917    7.0722352   -2.1931352    14.052142   -9.1730415    7.0528812            0            0            0    162.54617    37.422072    413.12884    37.087597   -81.186196    19.371089   -80.327394   -300.95917 
    4380   -300.96006    7.0758797   -2.1967797    14.066595    -9.187495    7.0565029            0            0            0    157.08568    46.171853    379.37671     45.70847   -74.696327    7.8210917   -73.728504   -300.96006 
    4390   -300.96136    7.0812425   -2.2021425    14.087802    -9.208702    7.0618321            0            0            0     149.1235    36.134371    375.48424      35.7519   -73.859939    16.990794   -72.893763   -300.96136 
    4400   -300.96216    7.0846828   -2.2055828    14.101324   -9.2222237    7.0652509            0            0            0    148.49333    37.806784     370.2611    37.412106   -72.794981    14.600566   -71.843839   -300.96216 
    4410   -300.96304    7.0885828   -2.2094828    14.116598   -9.2374981    7.0691268            0            0            0    142.99007    31.715806    365.86753     31.38688   -71.866223     19.95601   -70.962583   -300.96304 
    4420   -300.96396    7.0926927   -2.2135927    14.132673   -9.2535733    7.0732112            0            0            0    137.33315    31.526264    349.30564    31.167539   -68.662401    18.552991   -67.696999   -300.96396 
    4430   -300.96451    7.0951795   -2.2160795    14.142369   -9.2632686    7.0756827            0            0            0    140.48137    35.794587    350.22703    35.422494   -68.769285    14.123981   -67.866788   -300.96451 
    4440   -300.96532    7.0994614   -2.2203614    14.159009   -9.2799088    7.0799381            0            0            0    165.90272    52.373372    393.04789     52.28689   -76.335308   0.12764094   -76.526284   -300.96532 
    4450   -300.96643    7.1041714   -2.2250714     14.17724   -9.2981401    7.0846194            0            0            0    135.68194       35.973    335.46469    35.608139    -65.78842     12.03373   -64.937807   -300.96643 
    4460   -300.96715     7.107701    -2.228601    14.190826   -9.3117264    7.0881275            0            0            0    126.94027    26.004402    329.10909    25.707313   -64.539961    21.188154   -63.659173   -300.96715 
    4470   -300.96795    7.1117434   -2.2326434    14.206416   -9.3273163    7.0921451            0            0            0     138.6622    49.190942    318.10407    48.691578   -62.385255   -3.0552765   -61.503077   -300.96795 
    4480   -300.96861    7.1149636   -2.2358636    14.218728   -9.3396282    7.0953456            0            0            0    124.81222      30.1719    314.44745    29.817313   -61.660889    15.345264   -60.745284   -300.96861 
    4490   -300.96938    7.1189246   -2.2398246    14.233873   -9.3547735    7.0992825            0            0            0    128.36975    39.962099    305.62406    39.523077   -59.921612     4.617371   -59.017001   -300.96938 
    4500   -300.97004     7.122865    -2.243765    14.248916    -9.369816    7.1031989            0            0            0    150.27764    64.029722    323.26188    63.541324   -63.024697   -18.480684   -62.521723   -300.97004 
    4510     -300.971    7.1275554   -2.2484554    14.266687   -9.3875868    7.1078608            0            0            0    111.69564    23.107373    289.21963    22.759931   -56.741183    19.518363   -55.732262     -300.971 
    4520   -300.97177    7.1317556   -2.2526556    14.282566   -9.4034658    7.1120353            0            0            0    111.29155    24.753676    284.72731    24.393671   -55.828206    17.212847   -54.833455   -300.97177 
    4530   -300.97263    7.1366439   -2.2575439    14.300973   -9.4218733    7.1168939            0            0            0    104.52539    20.225915    273.49541    19.854836    -53.69387    20.547045   -52.584385   -300.97263 
    4540   -300.97325    7.1400914   -2.2609914    14.313926   -9.4348263    7.1203204            0            0            0    115.46495    27.202973    292.20409     26.98777   -56.919264    14.566837   -56.370694   -300.97325 
    4550   -300.97405    7.1449275   -2.2658275    14.332028   -9.4529281    7.1251272            0            0            0    97.693308    23.988188    245.64531    23.446428   -48.483865    14.226667    -47.04282   -300.97405 
    4560    -300.9747    7.1485713   -2.2694713    14.345625   -9.4665252    7.1287488            0            0            0    111.06047    28.183162    277.06089    27.937352   -53.962603    11.861084   -53.379896    -300.9747 
    4570   -300.97515    7.1513378   -2.2722378    14.355922    -9.476822    7.1314985            0            0            0    113.02899    36.686023    266.08317    36.317787   -51.912548    2.4246918   -51.208921   -300.97515 
    4580   -300.97573    7.1548998   -2.2757998    14.369122   -9.4900224     7.135039            0            0            0    102.89389    27.086667    254.86988    26.725127   -49.843642    10.954193    -48.95468   -300.97573 
    4590   -300.97625    7.1581489   -2.2790489    14.381142   -9.5020424    7.1382685            0            0            0    105.06795    27.596082    260.29255     27.31522    -50.72029     10.55452   -50.056529   -300.97625 
    4600   -300.97681    7.1617519   -2.2826519    14.394429   -9.5153295      7.14185            0            0            0    99.192467     23.84236    250.21857    23.516469   -48.873763    13.351569   -48.017972   -300.97681 
    4610   -300.97735    7.1652174   -2.2861174    14.407186   -9.5280856    7.1452946            0            0            0    103.93304    28.261901    255.51914    28.018085   -49.677653    9.0216006   -49.139951   -300.97735 
    4620    -300.9779    7.1688843   -2.2897843     14.42063   -9.5415301    7.1489396            0            0            0    105.03992    28.272771    258.72243    28.124549   -50.113605     8.932383   -49.832508    -300.9779 
    4630   -300.97859    7.1735831   -2.2944831    14.437801   -9.5587013    7.1536106            0            0            0    88.478991    18.491796    228.78232    18.162858   -44.755388    16.348806   -43.800464   -300.97859 
    4640   -300.97919    7.1776375   -2.2985375    14.452579   -9.5734787    7.1576408            0            0            0    96.888383    22.859676    245.12175    22.683726   -47.545658    12.790077   -47.089006   -300.97919 
    4650   -300.97967    7.1809691   -2.3018691    14.464687   -9.5855871    7.1609527            0            0            0    94.729864     25.38944    233.67331    25.126842   -45.436011    9.2673421   -44.818661   -300.97967 
    4660   -300.98032    7.1858849   -2.3067849    14.482504   -9.6034045    7.1658393            0            0            0    108.78049    33.781872    258.80479    33.754802   -49.714215    2.2125612   -49.902321   -300.98032 
    4670   -300.98073    7.1886502   -2.3095502    14.492482   -9.6133822    7.1685885            0            0            0    91.043843    25.048915    223.21232    24.870297   -43.274368    8.3187603   -42.890344   -300.98073 
    4680    -300.9811    7.1914134   -2.3123134     14.50242   -9.6233201    7.1713355            0            0            0    88.742782    17.120101    232.11011     16.99814   -44.941218    16.672804   -44.524113    -300.9811 
    4690   -300.98174    7.1968404   -2.3177404    14.521934   -9.6428338    7.1767309            0            0            0    66.041024    12.404222    173.90397    11.814874   -34.608948     17.16933   -32.886101   -300.98174 
    4700   -300.98223    7.1999676   -2.3208676    14.533141   -9.6540407    7.1798396            0            0            0    91.894503    22.526788    230.71105    22.445672   -44.475966    10.605435   -44.301557   -300.98223 
    4710   -300.98279    7.2046594   -2.3255594    14.549922   -9.6708216    7.1845043            0            0            0    86.548832    36.136093    188.03821    35.472196    -37.03493   -6.0042234    -35.65036   -300.98279 
    4720   -300.98329    7.2082913   -2.3291913    14.562838   -9.6837385    7.1881149            0            0            0    89.733095    28.175447    213.01796    28.005876   -41.122526    3.2443561   -40.863718   -300.98329 
    4730   -300.98377    7.2122107   -2.3331107     14.57675     -9.69765    7.1920117            0            0            0    78.569483    19.725748    196.57072    19.411977   -38.290345    10.378292   -37.468716   -300.98377 
    4740   -300.98424    7.2161409   -2.3370409    14.590683   -9.7115826     7.195919            0            0            0    87.155698    30.471458    200.78848    30.207161   -38.857374  -0.32783436    -38.41521   -300.98424 
    4750    -300.9847    7.2199663   -2.3408663    14.604174    -9.725074    7.1997224            0            0            0    79.988329    21.919612     196.3464    21.698971   -38.030972    7.6693785   -37.517096    -300.9847 
    4760   -300.98509    7.2232956   -2.3441956    14.615887   -9.7367874    7.2030327            0            0            0    75.673661    19.112798    189.05873    18.849451   -36.726831    9.7976906   -36.043062   -300.98509 
    4770   -300.98567    7.2283675   -2.3492675    14.633724   -9.7546242    7.2080754            0            0            0    75.869502    20.030819    187.77285    19.804841   -36.383496    8.4856073    -35.82678   -300.98567 
    4780   -300.98616    7.2326997   -2.3535997    14.648878   -9.7697779    7.2123828            0            0            0    72.931179    18.198267    182.63031    17.964961    -35.41729      9.72373   -34.806841   -300.98616 
    4790   -300.98658    7.2368029   -2.3577029    14.663211   -9.7841111    7.2164625            0            0            0    88.445301    36.233727     193.0639    36.038277   -37.077755   -7.8268469   -36.980199   -300.98658 
    4800   -300.98713    7.2416722   -2.3625722    14.680131   -9.8010307    7.2213042            0            0            0    72.435701    19.506699    178.48915    19.311254   -34.507211      7.62407   -34.040039   -300.98713 
    4810   -300.98743    7.2448911   -2.3657911    14.691305   -9.8122047    7.2245048            0            0            0    81.630117     34.44211    176.29376    34.154478   -34.023933   -7.5875577   -33.658799   -300.98743 
    4820   -300.98808      7.25076     -2.37166    14.711598   -9.8324979    7.2303405            0            0            0    71.185774    20.754633    172.24503    20.557659   -33.260916    5.4690412   -32.831572   -300.98808 
    4830   -300.98843    7.2542445   -2.3751445    14.723591   -9.8444911    7.2338054            0            0            0    66.770258    17.427087      165.646    17.237689   -32.031981    8.1572136   -31.554605   -300.98843 
    4840   -300.98869    7.2569103   -2.3778103    14.732756   -9.8536555    7.2364562            0            0            0    63.923514    17.784449    156.41995    17.566142    -30.32614    7.0400653   -29.788437   -300.98869 
    4850     -300.989    7.2600482   -2.3809482    14.743519   -9.8644188    7.2395764            0            0            0    66.308719     17.19053    164.71791    17.017713   -31.799344    8.0311449   -31.366783     -300.989 
    4860   -300.98946     7.264799    -2.385699    14.759783   -9.8806832    7.2443005            0            0            0     65.42058    17.450142    161.53476    17.276841   -31.171277    7.3182055   -30.749722   -300.98946 
    4870   -300.98994    7.2699949   -2.3908949    14.777504   -9.8984036    7.2494673            0            0            0    63.648904    14.377035    162.30642    14.263258    -31.23544    10.164085   -30.906725   -300.98994 
    4880   -300.99032    7.2739916   -2.3948916    14.791103    -9.912003    7.2534417            0            0            0    62.909979    17.309472    154.28925     17.13122   -29.769681    6.5209757   -29.344803   -300.99032 
    4890   -300.99057    7.2766955   -2.3975955    14.800275    -9.921175    7.2561306            0            0            0     66.81475    20.518281    159.54441    20.381563   -30.636406    3.5268957   -30.396305   -300.99057 
    4900   -300.99091     7.280606    -2.401506     14.81349   -9.9343899    7.2600193            0            0            0    55.673861    10.165885    146.84811    10.007593   -28.400346    12.834683   -27.874123   -300.99091 
    4910   -300.99125    7.2843157   -2.4052157    14.826025   -9.9469252    7.2637084            0            0            0     62.02197    18.071988    150.07969    17.914233   -28.885011     4.981311   -28.544885   -300.99125 
    4920   -300.99161    7.2890481   -2.4099481    14.841973   -9.9628725    7.2684146            0            0            0    76.035769     33.82383    160.71857    33.564904   -30.787963   -10.199955   -30.535593   -300.99161 
    4930   -300.99204    7.2942449   -2.4151449    14.859425   -9.9803246    7.2735826            0            0            0    74.500303    32.487943    158.80729    32.205679   -30.448163   -9.2136417   -30.107596   -300.99204 
    4940    -300.9925    7.2991229   -2.4200229    14.875742   -9.9966416    7.2784336            0            0            0    58.444217    17.095559     141.2805    16.956588   -27.148293    4.6900416    -26.85474    -300.9925 
    4950   -300.99286    7.3036107   -2.4245107    14.890699   -10.011599    7.2828968            0            0            0    52.888141     12.37583    134.07423    12.214368   -25.873115    8.7368758   -25.417087   -300.99286 
    4960   -300.99313    7.3069375   -2.4278375    14.901776   -10.022676    7.2862053            0            0            0    59.779641    21.318442    136.85407    21.166408   -26.251208  -0.16085574   -26.030292   -300.99313 
    4970   -300.99352     7.311974    -2.432874    14.918488   -10.039388    7.2912142            0            0            0    52.136082    15.407517    125.83433    15.166405   -24.375272      4.83492    -23.78594   -300.99352 
    4980   -300.99398     7.317991    -2.438891    14.938414   -10.059314    7.2971983            0            0            0    49.271767    15.137958    117.82309    14.854253   -22.923258    4.3361838   -22.222012   -300.99398 
    4990   -300.99435    7.3230441   -2.4439441    14.955074   -10.075974    7.3022236            0            0            0    56.606973    14.416147    140.95089    14.453879   -26.740715    6.2684139   -26.883056   -300.99435 
    5000    -300.9946    7.3262454   -2.4471454     14.96561    -10.08651    7.3054076            0            0            0    52.137629    14.760081    127.01118    14.641627    -24.35769    4.9293785   -24.095866    -300.9946 
Loop time of 0.921236 on 1 procs for 5000 steps with 8 atoms

19.7% CPU use with 1 MPI tasks x no OpenMP threads

Minimization stats:
  Stopping criterion = max iterations
  Energy initial, next-to-last, final = 
        -45.3248638742     -300.994592103     -300.994595479
  Force two-norm initial, final = 31.3203 0.0702052
  Force max component initial, final = 18.0828 0.0367915
  Final line search alpha, max atom move = 0.00898269 0.000330486
  Iterations, force evaluations = 5000 5955

MPI task timing breakdown:
Section |  min time  |  avg time  |  max time  |%varavg| %total
---------------------------------------------------------------
Pair    | 0.65722    | 0.65722    | 0.65722    |   0.0 | 71.34
Neigh   | 0.0015757  | 0.0015757  | 0.0015757  |   0.0 |  0.17
Comm    | 0.022142   | 0.022142   | 0.022142   |   0.0 |  2.40
Output  | 0.0066788  | 0.0066788  | 0.0066788  |   0.0 |  0.72
Modify  | 0          | 0          | 0          |   0.0 |  0.00
Other   |            | 0.2336     |            |       | 25.36

Nlocal:    8 ave 8 max 8 min
Histogram: 1 0 0 0 0 0 0 0 0 0
Nghost:    192 ave 192 max 192 min
Histogram: 1 0 0 0 0 0 0 0 0 0
Neighs:    88 ave 88 max 88 min
Histogram: 1 0 0 0 0 0 0 0 0 0

Total # of neighbors = 88
Ave neighs/atom = 11
Neighbor list builds = 48
Dangerous builds = 0
# ---- define output variables ----
variable natoms equal "count(all)"
variable tot_energy equal "c_eatoms"
variable a11 equal "xhi-xlo"
variable a22 equal "yhi-ylo"
variable a33 equal "zhi-zlo"
variable tilt_xy equal "xy"
variable tilt_xz equal "xz"
variable tilt_yz equal "yz"
variable tot_press equal "press"
variable press_xx equal "pxx"
variable press_yy equal "pyy"
variable press_zz equal "pzz"
variable press_xy equal "pxy"
variable press_xz equal "pxz"
variable press_yz equal "pyz"

# ---- output ----
print "pypospack:output_section:begin"
pypospack:output_section:begin
print "tot_energy = ${tot_energy}"
tot_energy = -300.994595479293
print "num_atoms = ${natoms}"
num_atoms = 8
print "a11 = ${a11}"
a11 = 9.77339088358142
print "a22 = ${a22}"
a22 = 25.052120633854
print "a33 = ${a33}"
a33 = 9.73171513991465
print "a12 = ${tilt_xy}"
a12 = 0
print "a13 = ${tilt_xz}"
a13 = 0
print "a23 = ${tilt_yz}"
a23 = 0
print "tot_press = ${tot_press}"
tot_press = 52.1376292281203
print "pxx = ${press_xx}"
pxx = 14.7600810212461
print "pyy = ${press_yy}"
pyy = 127.011179903501
print "pzz = ${press_zz}"
pzz = 14.6416267596136
print "pxy = ${press_xy}"
pxy = -24.3576897764581
print "pxz = ${press_xz}"
pxz = 4.92937847261213
print "pyz = ${press_yz}"
pyz = -24.0958664251853
print "pypospack:output_section:done"
pypospack:output_section:done
print "pypospack:lammps_sim:done"
pypospack:lammps_sim:done
Total wall time: 0:00:00
