# ['Ni']

10 atoms
1 atom types

    0.0000     3.3901 xlo xhi
    0.0000     2.4268 ylo yhi
    0.0000    24.2677 zlo zhi

    0.0000     0.0000     0.0000 xy xz yz

Atoms

1 1     0.0000     0.0000     0.0000
2 1     1.6950     1.2134     1.2134
3 1     0.0000     0.0000     2.4268
4 1     1.6950     1.2134     3.6401
5 1     0.0000     0.0000     4.8535
6 1     1.6950     1.2134     6.0669
7 1     0.0000     0.0000     7.2803
8 1     1.6950     1.2134     8.4937
9 1     0.0000     0.0000     9.7071
10 1     1.6950     1.2134    10.9204
