 running on   16 total cores
 distrk:  each k-point on   16 cores,    1 groups
 distr:  one band on    1 cores,   16 groups
 using from now: INCAR     
 vasp.5.4.1 24Jun15 (build Jun 05 2017 10:38:15) complex                        
  
 POSCAR found type information on POSCAR  Ni
 POSCAR found :  1 types and       2 ions
 scaLAPACK will be used

 ----------------------------------------------------------------------------- 
|                                                                             |
|           W    W    AA    RRRRR   N    N  II  N    N   GGGG   !!!           |
|           W    W   A  A   R    R  NN   N  II  NN   N  G    G  !!!           |
|           W    W  A    A  R    R  N N  N  II  N N  N  G       !!!           |
|           W WW W  AAAAAA  RRRRR   N  N N  II  N  N N  G  GGG   !            |
|           WW  WW  A    A  R   R   N   NN  II  N   NN  G    G                |
|           W    W  A    A  R    R  N    N  II  N    N   GGGG   !!!           |
|                                                                             |
|      For optimal performance we recommend to set                            |
|        NCORE= 4 - approx SQRT( number of cores)                             |
|      NCORE specifies how many cores store one orbital (NPAR=cpu/NCORE).     |
|      This setting can  greatly improve the performance of VASP for DFT.     |
|      The default, NPAR=number of cores might be grossly inefficient         |
|      on modern multi-core architectures or massively parallel machines.     |
|      Do your own testing !!!!                                               |
|      Unfortunately you need to use the default for GW and RPA calculations. |
|      (for HF NCORE is supported but not extensively tested yet)             |
|                                                                             |
 ----------------------------------------------------------------------------- 

 LDA part: xc-table for Pade appr. of Perdew
 POSCAR, INCAR and KPOINTS ok, starting setup
 WARNING: small aliasing (wrap around) errors must be expected
 FFT: planning ...
 WAVECAR not read
 initial charge from wavefunction
 entering main loop
       N       E                     dE             d eps       ncg     rms          rms(c)
DAV:   1    -0.113858525762E+04   -0.11386E+04   -0.24058E+04   768   0.184E+03
DAV:   2    -0.114098099676E+04   -0.23957E+01   -0.24021E+01  1536   0.493E+01
DAV:   3    -0.114098744180E+04   -0.64450E-02   -0.64450E-02   768   0.316E+00
DAV:   4    -0.114098816251E+04   -0.72072E-03   -0.72070E-03  1328   0.991E-01
DAV:   5    -0.114098821203E+04   -0.49518E-04   -0.49522E-04   992   0.210E-01    0.115E+02
DAV:   6    -0.309219182301E+03    0.83177E+03   -0.21331E+02   768   0.148E+02    0.683E+01
DAV:   7    -0.485832010153E+03   -0.17661E+03   -0.66293E+03   768   0.398E+02    0.122E+02
DAV:   8    -0.126511713909E+03    0.35932E+03   -0.59501E+03   768   0.375E+02    0.530E+01
DAV:   9    -0.193237332111E+02    0.10719E+03   -0.37186E+02   768   0.197E+02    0.232E+01
DAV:  10    -0.147337040755E+02    0.45900E+01   -0.64668E+00  1296   0.275E+01    0.188E+01
DAV:  11    -0.176447570695E+02   -0.29111E+01   -0.95654E+00   768   0.370E+01    0.233E+01
DAV:  12    -0.689149631550E+01    0.10753E+02   -0.36147E+01   768   0.451E+01    0.840E+00
DAV:  13    -0.611385832367E+01    0.77764E+00   -0.17856E+00   880   0.808E+00    0.706E+00
DAV:  14    -0.610793037423E+01    0.59279E-02   -0.47254E-03   880   0.583E-01    0.705E+00
DAV:  15    -0.610417398321E+01    0.37564E-02   -0.64192E-04   960   0.213E-01    0.705E+00
DAV:  16    -0.609905393751E+01    0.51200E-02   -0.12416E-03   864   0.255E-01    0.703E+00
DAV:  17    -0.598107796082E+01    0.11798E+00   -0.20110E-01   768   0.337E+00    0.623E+00
DAV:  18    -0.607177003690E+01   -0.90692E-01   -0.60553E-01   768   0.616E+00    0.583E+00
DAV:  19    -0.615229920485E+01   -0.80529E-01   -0.83292E-01   768   0.795E+00    0.698E+00
DAV:  20    -0.559616410595E+01    0.55614E+00   -0.53652E+00   768   0.154E+01    0.689E+00
DAV:  21    -0.548864726414E+01    0.10752E+00   -0.10637E-01   784   0.239E+00    0.625E+00
DAV:  22    -0.512408013088E+01    0.36457E+00   -0.31378E+00   784   0.125E+01    0.228E+00
DAV:  23    -0.580146320356E+01   -0.67738E+00   -0.28506E+00   768   0.132E+01    0.591E+00
DAV:  24    -0.553642003230E+01    0.26504E+00   -0.45406E+00   768   0.186E+01    0.293E+00
DAV:  25    -0.555297232572E+01   -0.16552E-01   -0.42371E-02   784   0.189E+00    0.279E+00
DAV:  26    -0.553151039024E+01    0.21462E-01   -0.43410E-02   864   0.203E+00    0.261E+00
DAV:  27    -0.545280827258E+01    0.78702E-01   -0.20533E-01   768   0.384E+00    0.237E+00
DAV:  28    -0.541175389506E+01    0.41054E-01   -0.28139E-02   800   0.121E+00    0.329E+00
DAV:  29    -0.537104067493E+01    0.40713E-01   -0.21307E-01   768   0.392E+00    0.429E+00
DAV:  30    -0.538663171038E+01   -0.15591E-01   -0.24216E-02   832   0.115E+00    0.488E+00
DAV:  31    -0.541861455822E+01   -0.31983E-01   -0.12489E-02   784   0.719E-01    0.450E+00
DAV:  32    -0.547617910855E+01   -0.57565E-01   -0.53916E-02   832   0.154E+00    0.283E+00
DAV:  33    -0.549962528103E+01   -0.23446E-01   -0.81845E-02   800   0.193E+00    0.131E+00
DAV:  34    -0.550477660076E+01   -0.51513E-02   -0.63308E-02   832   0.164E+00    0.352E-01
DAV:  35    -0.550288000046E+01    0.18966E-02   -0.15326E-02   784   0.106E+00    0.641E-01
DAV:  36    -0.550472053661E+01   -0.18405E-02   -0.26431E-03   800   0.369E-01    0.369E-01
DAV:  37    -0.550476282221E+01   -0.42286E-04   -0.47078E-04   800   0.144E-01    0.283E-01
DAV:  38    -0.550491578052E+01   -0.15296E-03   -0.17806E-04   784   0.118E-01    0.216E-01
DAV:  39    -0.550503278142E+01   -0.11700E-03   -0.23640E-04   800   0.111E-01    0.125E-01
DAV:  40    -0.550504580738E+01   -0.13026E-04   -0.14796E-04   768   0.975E-02
   1 F= -.55050458E+01 E0= -.54923462E+01  d E =-.550505E+01  mag=    -1.5997
 curvature:   0.00 expect dE= 0.000E+00 dE for cont linesearch  0.000E+00
 trial: gam= 0.00000 g(F)=  0.494E-44 g(S)=  0.248E+01 ort = 0.000E+00 (trialstep = 0.100E+01)
 search vector abs. value=  0.248E+01
 bond charge predicted
       N       E                     dE             d eps       ncg     rms          rms(c)
DAV:   1    -0.125568682192E+03   -0.12006E+03   -0.15297E+03   768   0.326E+02    0.939E+01
DAV:   2    -0.956444907072E+02    0.29924E+02   -0.31781E+03   768   0.622E+02    0.455E+01
DAV:   3    -0.131653744307E+02    0.82479E+02   -0.19316E+02   768   0.145E+02    0.156E+01
DAV:   4    -0.122969169213E+02    0.86846E+00   -0.12960E+02   832   0.101E+02    0.196E+01
DAV:   5    -0.997513931708E+01    0.23218E+01   -0.86205E+01   768   0.955E+01    0.985E+00
DAV:   6    -0.890614625991E+01    0.10690E+01   -0.25162E+00   880   0.182E+01    0.574E+00
DAV:   7    -0.858041357041E+01    0.32573E+00   -0.75439E-01   896   0.862E+00    0.321E+00
DAV:   8    -0.848135563375E+01    0.99058E-01   -0.22758E-01   784   0.449E+00    0.180E+00
DAV:   9    -0.847076792840E+01    0.10588E-01   -0.63800E-03   992   0.732E-01    0.157E+00
DAV:  10    -0.844407411127E+01    0.26694E-01   -0.77914E-02   784   0.263E+00    0.752E-01
DAV:  11    -0.843701834922E+01    0.70558E-02   -0.29419E-02   832   0.156E+00    0.257E-01
DAV:  12    -0.843606302755E+01    0.95532E-03   -0.84737E-03   800   0.853E-01    0.126E-02
DAV:  13    -0.843606765667E+01   -0.46291E-05   -0.21722E-05   784   0.401E-02    0.106E-02
DAV:  14    -0.843606790191E+01   -0.24523E-06   -0.25586E-05   848   0.517E-02    0.448E-03
DAV:  15    -0.843606750036E+01    0.40154E-06   -0.27639E-06   384   0.150E-02
   2 F= -.84360675E+01 E0= -.84242688E+01  d E =-.293102E+01  mag=    -1.4923
 ZBRENT: can't locate minimum, use default step
 trial-energy change:   -2.931022  1 .order   -2.635615   -2.482571   -2.788658
 step:   4.0000(harm=  4.0000)  dis= 0.00000  next Energy=   -17.884027 (dE=-0.124E+02)
 bond charge predicted
       N       E                     dE             d eps       ncg     rms          rms(c)
 ERROR FEXCF: supplied exchange-correlation table
    is too small, maximal index :        4189
