# ['Ni']

10 atoms
1 atom types

    0.0000     3.0270 xlo xhi
    0.0000     2.1669 ylo yhi
    0.0000    21.6687 zlo zhi

    0.0000     0.0000     0.0000 xy xz yz

Atoms

1 1     0.0000     0.0000     0.0000
2 1     1.5135     1.0834     1.0834
3 1     0.0000     0.0000     2.1669
4 1     1.5135     1.0834     3.2503
5 1     0.0000     0.0000     4.3337
6 1     1.5135     1.0834     5.4172
7 1     0.0000     0.0000     6.5006
8 1     1.5135     1.0834     7.5841
9 1     0.0000     0.0000     8.6675
10 1     1.5135     1.0834     9.7509
