# ['Ni']

107 atoms
1 atom types

    0.0000    10.0006 xlo xhi
    0.0000    10.0006 ylo yhi
    0.0000    10.0006 zlo zhi

    0.0000    -0.0000    -0.0000 xy xz yz

Atoms

1 1     1.6668     1.6668     0.0000
2 1     1.6668     0.0000     1.6668
3 1     0.0000     1.6668     1.6668
4 1     0.0000     0.0000     3.3335
5 1     1.6668     1.6668     3.3335
6 1     1.6668     0.0000     5.0003
7 1     0.0000     1.6668     5.0003
8 1     0.0000     0.0000     6.6671
9 1     1.6668     1.6668     6.6671
10 1     1.6668     0.0000     8.3338
11 1     0.0000     1.6668     8.3338
12 1     0.0000     3.3335     0.0000
13 1     1.6668     5.0003     0.0000
14 1     1.6668     3.3335     1.6668
15 1     0.0000     5.0003     1.6668
16 1     0.0000     3.3335     3.3335
17 1     1.6668     5.0003     3.3335
18 1     1.6668     3.3335     5.0003
19 1     0.0000     5.0003     5.0003
20 1     0.0000     3.3335     6.6671
21 1     1.6668     5.0003     6.6671
22 1     1.6668     3.3335     8.3338
23 1     0.0000     5.0003     8.3338
24 1     0.0000     6.6671     0.0000
25 1     1.6668     8.3338     0.0000
26 1     1.6668     6.6671     1.6668
27 1     0.0000     8.3338     1.6668
28 1     0.0000     6.6671     3.3335
29 1     1.6668     8.3338     3.3335
30 1     1.6668     6.6671     5.0003
31 1     0.0000     8.3338     5.0003
32 1     0.0000     6.6671     6.6671
33 1     1.6668     8.3338     6.6671
34 1     1.6668     6.6671     8.3338
35 1     0.0000     8.3338     8.3338
36 1     3.3335     0.0000     0.0000
37 1     5.0003     1.6668     0.0000
38 1     5.0003     0.0000     1.6668
39 1     3.3335     1.6668     1.6668
40 1     3.3335     0.0000     3.3335
41 1     5.0003     1.6668     3.3335
42 1     5.0003     0.0000     5.0003
43 1     3.3335     1.6668     5.0003
44 1     3.3335     0.0000     6.6671
45 1     5.0003     1.6668     6.6671
46 1     5.0003     0.0000     8.3338
47 1     3.3335     1.6668     8.3338
48 1     3.3335     3.3335     0.0000
49 1     5.0003     5.0003     0.0000
50 1     5.0003     3.3335     1.6668
51 1     3.3335     5.0003     1.6668
52 1     3.3335     3.3335     3.3335
53 1     5.0003     5.0003     3.3335
54 1     5.0003     3.3335     5.0003
55 1     3.3335     5.0003     5.0003
56 1     3.3335     3.3335     6.6671
57 1     5.0003     5.0003     6.6671
58 1     5.0003     3.3335     8.3338
59 1     3.3335     5.0003     8.3338
60 1     3.3335     6.6671     0.0000
61 1     5.0003     8.3338     0.0000
62 1     5.0003     6.6671     1.6668
63 1     3.3335     8.3338     1.6668
64 1     3.3335     6.6671     3.3335
65 1     5.0003     8.3338     3.3335
66 1     5.0003     6.6671     5.0003
67 1     3.3335     8.3338     5.0003
68 1     3.3335     6.6671     6.6671
69 1     5.0003     8.3338     6.6671
70 1     5.0003     6.6671     8.3338
71 1     3.3335     8.3338     8.3338
72 1     6.6671     0.0000     0.0000
73 1     8.3338     1.6668     0.0000
74 1     8.3338     0.0000     1.6668
75 1     6.6671     1.6668     1.6668
76 1     6.6671     0.0000     3.3335
77 1     8.3338     1.6668     3.3335
78 1     8.3338     0.0000     5.0003
79 1     6.6671     1.6668     5.0003
80 1     6.6671     0.0000     6.6671
81 1     8.3338     1.6668     6.6671
82 1     8.3338     0.0000     8.3338
83 1     6.6671     1.6668     8.3338
84 1     6.6671     3.3335     0.0000
85 1     8.3338     5.0003     0.0000
86 1     8.3338     3.3335     1.6668
87 1     6.6671     5.0003     1.6668
88 1     6.6671     3.3335     3.3335
89 1     8.3338     5.0003     3.3335
90 1     8.3338     3.3335     5.0003
91 1     6.6671     5.0003     5.0003
92 1     6.6671     3.3335     6.6671
93 1     8.3338     5.0003     6.6671
94 1     8.3338     3.3335     8.3338
95 1     6.6671     5.0003     8.3338
96 1     6.6671     6.6671     0.0000
97 1     8.3338     8.3338     0.0000
98 1     8.3338     6.6671     1.6668
99 1     6.6671     8.3338     1.6668
100 1     6.6671     6.6671     3.3335
101 1     8.3338     8.3338     3.3335
102 1     8.3338     6.6671     5.0003
103 1     6.6671     8.3338     5.0003
104 1     6.6671     6.6671     6.6671
105 1     8.3338     8.3338     6.6671
106 1     8.3338     6.6671     8.3338
107 1     6.6671     8.3338     8.3338
