# ['Ni']

4 atoms
1 atom types

    0.0000     3.6000 xlo xhi
    0.0000     6.2354 ylo yhi
    0.0000     5.8788 zlo zhi

    0.0000     0.0000     0.0000 xy xz yz

Atoms

1 1     0.0000     0.0000     0.0000
2 1     1.8000     3.1177     0.0000
3 1     1.8000     1.0392     2.9394
4 1     0.0000     4.1569     2.9394
