LAMMPS (11 Aug 2017)
# ---- initialize simulations
clear
units metal
dimension 3
boundary p p p
atom_style atomic
atom_modify map array
# ---- create atoms
read_data /ufrc/phillpot/eragasa/pareto_optimization_3.5NN/rank_45/Ni_hcp.lmps_min_all/lammps.structure
  triclinic box = (0 0 0) to (3.6 6.2354 5.8788) with tilt (0 0 0)
  1 by 1 by 1 MPI processor grid
  reading atoms ...
  4 atoms
# ---- define interatomic potential
include potential.mod
mass 1 58.6934

group Ni type 1
4 atoms in group Ni

pair_style eam/alloy
pair_coeff * * /ufrc/phillpot/eragasa/pareto_optimization_3.5NN/rank_45/Ni_hcp.lmps_min_all/Ni.eam.alloy Ni

neighbor 1.0 bin
neigh_modify every 1 delay 0 check yes
# ---- define settings
compute eng all pe/atom
compute eatoms all reduce sum c_eng
# ---- run minimization
reset_timestep 0
fix 1 all box/relax aniso 0.0 vmax 0.001
thermo 10
thermo_style custom step pe xhi xlo yhi ylo zhi xy xz yz press pxx pyy pzz pxy pxz pyz c_eatoms
min_style cg
minimize 1e-25 1e-25 5000 10000
Neighbor list info ...
  update every 1 steps, delay 0 steps, check yes
  max neighbors/atom: 2000, page size: 100000
  master list distance cutoff = 5.64464
  ghost atom cutoff = 5.64464
  binsize = 2.82232, bins = 2 3 3
  1 neighbor lists, perpetual/occasional/extra = 1 0 0
  (1) pair eam/alloy, perpetual
      attributes: half, newton on
      pair build: half/bin/newton/tri
      stencil: half/bin/3d/newton/tri
      bin: standard
Per MPI rank memory allocation (min/avg/max) = 4.194 | 4.194 | 4.194 Mbytes
Step PotEng Xhi Xlo Yhi Ylo Zhi Xy Xz Yz Press Pxx Pyy Pzz Pxy Pxz Pyz c_eatoms 
       0   -7.5640046          3.6            0       6.2354            0       5.8788            0            0            0   -150103.42   -150104.96   -150102.54   -150102.76 2.695846e-12 4.043769e-12 2.695846e-11   -7.5640046 
      10   -7.9400623        3.582        0.018    6.2042235  0.031176498    5.8494064            0            0            0   -157434.75   -157436.35   -157433.84   -157434.06 3.2993089e-12 1.020181e-12 -1.6670192e-11   -7.9400623 
      20   -8.3266485        3.564        0.036     6.173047  0.062352996    5.8200129            0            0            0      -165166   -165167.66   -165165.05   -165165.28 -2.4391197e-12 -2.2824789e-12 -5.7285746e-12   -8.3266485 
      30   -8.7240745        3.546        0.054    6.1418705  0.093529493    5.7906193            0            0            0   -173319.01   -173320.73   -173318.02   -173318.27 -3.6922362e-13 -1.7261204e-11 -2.953789e-11   -8.7240745 
      40   -9.1326551        3.528        0.072     6.110694   0.12470599    5.7612257            0            0            0   -181916.41    -181918.2   -181915.38   -181915.64 -9.8553305e-12 -3.8088234e-13 1.2188235e-11   -9.1326551 
      50   -9.5527072         3.51         0.09    6.0795175   0.15588249    5.7318322            0            0            0   -190981.55   -190983.41   -190980.48   -190980.76 -2.456482e-12 -2.4073524e-11 6.288594e-12   -9.5527072 
      60   -9.9845478        3.492        0.108     6.048341   0.18705898    5.7024386            0            0            0    -200538.4   -200540.33   -200537.28   -200537.57 -1.4200012e-12 2.3328592e-12 -1.2982868e-11   -9.9845478 
      70   -10.428493        3.474        0.126    6.0171645   0.21823547     5.673045            0            0            0   -210611.37   -210613.38   -210610.22   -210610.52 -6.5983568e-12 2.031875e-11 -1.3406185e-11   -10.428493 
      80   -10.884854        3.456        0.144     5.985988   0.24941197    5.6436514            0            0            0    -221225.2   -221227.29      -221224   -221224.31 5.4094169e-13 -1.3415354e-11 3.4620268e-11   -10.884854 
      90   -11.353997        3.438        0.162    5.9548115   0.28058848    5.6142579            0            0            0   -232691.53   -232693.44   -232690.54   -232690.62 1.7328114e-11 1.7422441e-11 -4.10844e-11   -11.353997 
     100   -11.838086         3.42         0.18     5.923635   0.31176504    5.5848643            0            0            0   -245859.66   -245861.63   -245858.64   -245858.72 -8.667171e-12 -2.2274629e-11 5.778114e-12   -11.838086 
     110   -12.338223        3.402        0.198    5.8924584   0.34294161    5.5554707            0            0            0   -259664.91   -259666.92   -259663.86   -259663.94 -5.1086904e-12 -7.2895933e-12 -4.573921e-11   -12.338223 
     120   -12.854603        3.384        0.216    5.8612818   0.37411818    5.5260771            0            0            0   -274138.49   -274140.55   -274137.42    -274137.5 4.0795218e-12 1.8419659e-11 2.6825946e-11   -12.854603 
     130   -13.387413        3.366        0.234    5.8301052   0.40529476    5.4966834            0            0            0   -289309.96   -289312.06   -289308.86   -289308.95 8.7634677e-12 8.7634677e-12 -1.7590902e-11   -13.387413 
     140   -13.936828        3.348        0.252    5.7989287   0.43647135    5.4672898            0            0            0   -305206.41   -305208.56    -305205.3   -305205.38 -3.3112173e-12 2.5893719e-11 -1.1920382e-12   -13.936828 
     150   -14.502997         3.33         0.27    5.7677521   0.46764794    5.4378962            0            0            0   -321851.53    -321853.7    -321850.4   -321850.48 -1.7147314e-11 4.4034303e-11 6.735465e-11   -14.502997 
     160    -15.08604        3.312        0.288    5.7365755   0.49882454    5.4085025            0            0            0    -339264.3    -339266.5   -339263.16   -339263.25 -3.2407065e-11 4.8326325e-12 -1.0589151e-10    -15.08604 
     170   -15.686032        3.294        0.306    5.7053988   0.53000115    5.3791089            0            0            0   -357457.52   -357459.73   -357456.38   -357456.46 4.626344e-11 6.099702e-11 -4.0370008e-11   -15.686032 
     180   -16.302993        3.276        0.324    5.6742222   0.56117777    5.3497152            0            0            0   -376435.84   -376438.05    -376434.7   -376434.78 4.2476198e-11 6.1269623e-11 -2.2307643e-11   -16.302993 
     190   -16.936876        3.258        0.342    5.6430456    0.5923544    5.3203216            0            0            0   -396193.39   -396195.58   -396192.26   -396192.34 8.8771837e-12 -1.0303874e-11 1.6803241e-11   -16.936876 
     200   -17.587545         3.24         0.36     5.611869   0.62353103    5.2909279            0            0            0   -416710.82   -416712.97    -416709.7   -416709.79 -1.2834138e-11 2.3035633e-12 -3.9489657e-12   -17.587545 
     210   -18.254759        3.222        0.378    5.5806923   0.65470768    5.2615342            0            0            0   -437951.52    -437953.7   -437950.53   -437950.32 -1.7428532e-11 1.4352909e-11 -1.7770268e-11   -18.254759 
     220   -18.937841    3.2040267   0.39597326     5.549562   0.68583804    5.2321403            0            0            0      -460339   -459826.05   -459823.01   -461367.93 -1.0544546e-10 9.2309161e-12 3.5503523e-12   -18.937841 
     230   -19.635704    3.1861148   0.41388516    5.5185379   0.71686212    5.2027463            0            0            0   -483284.12   -482201.03   -482198.19   -485453.12 -1.6605046e-11 -1.8450051e-12 -3.8007105e-11   -19.635704 
     240   -20.347529    3.1682647   0.43173531    5.4876207   0.74777926    5.1733523            0            0            0   -506662.58   -504956.93   -504954.35   -510076.46 3.6449065e-11 6.7526688e-11 -2.4555159e-11   -20.347529 
     250   -21.072286    3.1504769   0.44952307    5.4568116   0.77858838    5.1439583            0            0            0   -530316.95   -527932.63   -527930.39   -535087.85 -5.5873896e-12 3.3125238e-11 7.7425255e-11   -21.072286 
     260   -21.809585    3.1327427   0.46725726    5.4260953   0.80930467    5.1145643            0            0            0   -556148.96   -553613.23   -553609.17   -561224.48 -7.2228273e-12 -4.0361522e-11 -1.5297079e-10   -21.809585 
     270   -22.565347     3.114967   0.48503301    5.3953071    0.8400929    5.0851703            0            0            0   -584747.63   -582845.23   -582841.52   -588556.15 5.0789101e-11 1.4872503e-10 2.0364294e-10   -22.565347 
     280   -23.339592    3.0971243   0.50287566     5.364403   0.87099701    5.0557763            0            0            0    -613234.4   -612044.84   -612041.59   -615616.79 -3.464221e-12 -7.5198943e-12 6.5341404e-11   -23.339592 
     290   -24.130292    3.0792129    0.5207871    5.3333797   0.90202032    5.0263823            0            0            0   -641209.84   -640820.95   -640818.32   -641990.27 -2.8749795e-11 2.1878036e-12 1.1875809e-10   -24.130292 
     300   -24.934817    3.0612326   0.53876745     5.302237     0.933163    4.9969925            0            0            0   -668149.93   -668657.84      -668656   -667135.94 3.1683068e-11 9.8297178e-11 -5.5399407e-11   -24.934817 
     310   -25.747668    3.0432326   0.55676745    5.2710602   0.96433976    4.9676927            0            0            0   -693312.67   -694818.48   -694817.64   -690301.88 1.4715627e-12 4.5906358e-11 -7.3834058e-11   -25.747668 
     320   -26.563922    3.0252326   0.57476745    5.2398834   0.99551656    4.9385212            0            0            0   -715834.89   -718444.09    -718444.5   -710616.07 -9.3102465e-11 9.8516176e-11 1.188343e-10   -26.563922 
     330   -27.379051    3.0072326   0.59276745    5.2087066    1.0266934    4.9094757            0            0            0   -735861.87    -738978.2   -738980.03   -729627.38 -7.6844723e-13 7.1256016e-11 -5.5328201e-11   -27.379051 
     340   -28.191858    2.9892326   0.61076745    5.1775297    1.0578703    4.8803816            0            0            0   -753534.92   -755676.09    -755679.8   -749248.87 -3.2880894e-12 2.9227461e-13 -1.5782829e-10   -28.191858 
     350   -28.997128    2.9712326   0.62876744    5.1463527    1.0890473    4.8511659            0            0            0   -764884.12   -765930.17   -765936.15   -762786.05 3.9771176e-12 4.971397e-12 3.2627661e-10   -28.997128 
     360   -29.786912    2.9532326    0.6467674    5.1151757    1.1202243    4.8218256            0            0            0   -768677.67    -768921.3   -768929.13   -768182.57 -7.3869525e-11 -1.0046896e-10 -1.03193e-10   -29.786912 
     370   -30.552213    2.9352349    0.6647651    5.0840025    1.1513975    4.7924363            0            0            0   -762751.08   -762703.84   -762714.82   -762834.59 -8.0630966e-11 6.408482e-11 8.399059e-11   -30.552213 
     380   -31.281015    2.9172559   0.68274408    5.0528616    1.1825384    4.7630423            0            0            0   -742885.97    -742526.3   -742540.97   -743590.64 3.1015853e-11 -7.2957745e-11 -5.2163025e-11   -31.281015 
     390   -31.959574    2.8993017   0.70069828    5.0217634    1.2136366    4.7336483            0            0            0    -705214.8   -704528.16   -704547.03   -706569.21 2.1091361e-11 1.3505872e-11 8.8805732e-12   -31.959574 
     400     -32.5718    2.8813772   0.71862279    4.9907164    1.2446836    4.7042543            0            0            0    -644959.2   -643944.63   -643968.13   -646964.85 -1.555045e-11 2.1381869e-12 -3.4988513e-12     -32.5718 
     410    -33.09873    2.8634905   0.73650948    4.9597345    1.2756655    4.6748603            0            0            0   -556237.35   -554919.42   -554947.75   -558844.87 -1.471523e-11 1.134299e-10 4.3103361e-10    -33.09873 
     420   -33.531453    2.8456545   0.75434546    4.9288399    1.3065601    4.6454663            0            0            0   -483221.93   -481592.59   -481625.17   -486448.02 -1.3548307e-11 -6.0214698e-12 1.5376253e-10   -33.531453 
     430   -33.897143    2.8278533   0.77214671    4.8980049    1.3373951    4.6160723            0            0            0   -411570.77   -410531.98   -410567.86   -413612.46 2.1491816e-10 -9.5795975e-11 -5.2087646e-11   -33.897143 
     440   -34.182837     2.809935     0.790065    4.8669664    1.3684336    4.5866795            0            0            0   -305361.23   -305635.16   -305672.27   -304776.27 -4.9781734e-11 1.629546e-10 1.295877e-10   -34.182837 
     450   -34.360704    2.7919377   0.80806228    4.8357894    1.3996106    4.5575971            0            0            0   -152488.89   -153889.53   -153921.65   -149655.48 -6.7019423e-11 3.527338e-11 -2.0748306e-10   -34.360704 
     460    -34.40458    2.7781675   0.82183252    4.8119277    1.4234723    4.5369506            0            0            0  0.095451669  -0.33083643  -0.81237432    1.4295658 -1.1836343e-10 -1.6324181e-10 7.9455718e-11    -34.40458 
     470    -34.40458    2.7781651   0.82183495    4.8119316    1.4234684    4.5369509            0            0            0 -1.0483999e-08 6.7154187e-08 7.0888015e-08 -1.694942e-07 -3.2779584e-10 8.8444514e-11 4.4222257e-11    -34.40458 
     474    -34.40458    2.7781651   0.82183495    4.8119316    1.4234684    4.5369509            0            0            0 3.8161927e-10 -1.941777e-09 -5.7698891e-09 8.8565239e-09 -1.2623683e-10 -7.6896862e-11 -1.0156685e-10    -34.40458 
Loop time of 0.019057 on 1 procs for 474 steps with 4 atoms

38.9% CPU use with 1 MPI tasks x no OpenMP threads

Minimization stats:
  Stopping criterion = energy tolerance
  Energy initial, next-to-last, final = 
        -7.56400459446     -34.4045802399     -34.4045802399
  Force two-norm initial, final = 21.4139 2.77337e-13
  Force max component initial, final = 12.3635 2.1542e-13
  Final line search alpha, max atom move = 1 2.1542e-13
  Iterations, force evaluations = 474 491

MPI task timing breakdown:
Section |  min time  |  avg time  |  max time  |%varavg| %total
---------------------------------------------------------------
Pair    | 0.0036006  | 0.0036006  | 0.0036006  |   0.0 | 18.89
Neigh   | 0.00014186 | 0.00014186 | 0.00014186 |   0.0 |  0.74
Comm    | 0.00077319 | 0.00077319 | 0.00077319 |   0.0 |  4.06
Output  | 0.012337   | 0.012337   | 0.012337   |   0.0 | 64.74
Modify  | 0          | 0          | 0          |   0.0 |  0.00
Other   |            | 0.002204   |            |       | 11.57

Nlocal:    4 ave 4 max 4 min
Histogram: 1 0 0 0 0 0 0 0 0 0
Nghost:    492 ave 492 max 492 min
Histogram: 1 0 0 0 0 0 0 0 0 0
Neighs:    268 ave 268 max 268 min
Histogram: 1 0 0 0 0 0 0 0 0 0

Total # of neighbors = 268
Ave neighs/atom = 67
Neighbor list builds = 8
Dangerous builds = 0
# ---- define output variables ----
variable natoms equal "count(all)"
variable tot_energy equal "c_eatoms"
variable a11 equal "xhi-xlo"
variable a22 equal "yhi-ylo"
variable a33 equal "zhi-zlo"
variable tilt_xy equal "xy"
variable tilt_xz equal "xz"
variable tilt_yz equal "yz"
variable tot_press equal "press"
variable press_xx equal "pxx"
variable press_yy equal "pyy"
variable press_zz equal "pzz"
variable press_xy equal "pxy"
variable press_xz equal "pxz"
variable press_yz equal "pyz"

# ---- output ----
print "pypospack:output_section:begin"
pypospack:output_section:begin
print "tot_energy = ${tot_energy}"
tot_energy = -34.4045802398734
print "num_atoms = ${natoms}"
num_atoms = 4
print "a11 = ${a11}"
a11 = 1.95633010662921
print "a22 = ${a22}"
a22 = 3.38846314105844
print "a33 = ${a33}"
a33 = 3.19510185089822
print "a12 = ${tilt_xy}"
a12 = 0
print "a13 = ${tilt_xz}"
a13 = 0
print "a23 = ${tilt_yz}"
a23 = 0
print "tot_press = ${tot_press}"
tot_press = 3.81619268177538e-10
print "pxx = ${press_xx}"
pxx = -1.94177699152632e-09
print "pyy = ${press_yy}"
pyy = -5.76988912433939e-09
print "pzz = ${press_zz}"
pzz = 8.85652392039832e-09
print "pxy = ${press_xy}"
pxy = -1.26236828237764e-10
print "pxz = ${press_xz}"
pxz = -7.68968621074115e-11
print "pyz = ${press_yz}"
pyz = -1.01566845172588e-10
print "pypospack:output_section:done"
pypospack:output_section:done
print "pypospack:lammps_sim:done"
pypospack:lammps_sim:done
Total wall time: 0:00:00
