# ['Al']

4 atoms
1 atom types

    0.0000     4.1400 xlo xhi
    0.0000     7.1707 ylo yhi
    0.0000     6.7606 zlo zhi

    0.0000     0.0000     0.0000 xy xz yz

Atoms

1 1     0.0000     0.0000     0.0000
2 1     2.0700     3.5853     0.0000
3 1     2.0700     1.1951     3.3803
4 1     0.0000     4.7805     3.3803
