    4    4    1    2
  0.1064635E+02  0.3492102E-09  0.3492102E-09  0.3492102E-09  0.5000000E-15
  1.000000000000000E-004
  CAR 
 automatically generated by pyflamestk   
     40      4     32
 
  0.1250000E+00  0.1250000E+00  0.1250000E+00  0.1250000E+00
    1        1.115261      1.127434   1.000000   1.000000
    2        5.509012      5.106337   1.000000   1.000000
    3        5.509012      5.106337   1.000000   1.000000
    4        5.509012      5.106337   1.000000   1.000000
    5        6.195880      5.554446   1.000000   1.000000
    6        6.195880      5.554446   1.000000   1.000000
    7        6.195880      5.554446   1.000000   1.000000
    8        7.790356      7.029052   1.000000   1.000000
    9        8.085504      7.299732   1.000000   1.000000
   10        8.085504      7.299732   1.000000   1.000000
   11        9.010739      8.322562   1.000007   1.000000
   12        9.010739      8.322562   1.000007   1.000000
   13        9.029708      8.347405   1.000013   1.000000
   14        9.029708      8.347405   1.000013   1.000000
   15        9.029708      8.347405   1.000013   1.000000
   16        9.533215      8.796455   0.992966   1.000000
   17        9.533215      8.796455   0.992966   1.000000
   18        9.533215      8.796455   0.992966   1.000000
   19       10.001146      9.147361  -0.026387   1.000369
   20       10.001146      9.147361  -0.026387   1.000369
   21       10.001146      9.147361  -0.026387   1.000369
   22       12.481281     12.217447  -0.000000  -0.000000
   23       12.481281     12.217447  -0.000000  -0.000000
   24       12.481281     12.217447  -0.000000  -0.000000
   25       20.792221     20.566552   0.000000   0.000000
   26       20.792221     20.566552   0.000000   0.000000
   27       20.792221     20.566552   0.000000   0.000000
   28       22.066934     21.942119   0.000000   0.000000
   29       22.066934     21.942119   0.000000   0.000000
   30       22.066934     21.942119   0.000000   0.000000
   31       25.685154     25.631798   0.000000   0.000000
   32       25.685154     25.631798   0.000000   0.000000
 
  0.3750000E+00  0.1250000E+00  0.1250000E+00  0.3750000E+00
    1        2.639649      2.636463   1.000000   1.000000
    2        4.851918      4.690136   1.000000   1.000000
    3        6.195546      5.740344   1.000000   1.000000
    4        6.195546      5.740344   1.000000   1.000000
    5        6.635454      5.986927   1.000000   1.000000
    6        6.635454      6.032033   1.000000   1.000000
    7        6.655112      6.032033   1.000000   1.000000
    8        7.329421      6.610170   1.000000   1.000000
    9        7.686009      7.053327   1.000000   1.000000
   10        7.686009      7.053327   1.000000   1.000000
   11        8.076336      7.481562   1.000000   1.000000
   12        8.205899      7.483842   1.000000   1.000000
   13        8.387280      7.610885   1.000000   1.000000
   14        8.879209      8.159795   1.000000   1.000000
   15        8.967479      8.196967   1.000002   1.000000
   16        9.054695      8.376778   1.000028   1.000000
   17        9.054695      8.376778   1.000028   1.000000
   18        9.335854      8.613875   1.014491   1.000000
   19        9.753315      8.979358   0.266485   1.000003
   20        9.923600      9.049031  -0.034228   1.000024
   21        9.923600      9.049031  -0.034228   1.000024
   22        9.930586      9.270602  -0.035054   1.005235
   23       14.810074     14.522523  -0.000000  -0.000000
   24       14.810074     14.522523  -0.000000  -0.000000
   25       18.082440     17.861937   0.000000   0.000000
   26       18.082440     17.861937   0.000000   0.000000
   27       21.785418     21.600186   0.000000   0.000000
   28       21.785418     21.600186   0.000000   0.000000
   29       23.863842     23.720288   0.000000   0.000000
   30       24.039368     23.911898   0.000000   0.000000
   31       24.039368     23.911898   0.000000   0.000000
   32       26.965861     26.838518   0.000000   0.000000
 
  0.3750000E+00  0.3750000E+00  0.1250000E+00  0.3750000E+00
    1        3.936226      3.869345   1.000000   1.000000
    2        5.666144      5.358557   1.000000   1.000000
    3        5.666144      5.358557   1.000000   1.000000
    4        6.284679      5.751454   1.000000   1.000000
    5        6.840409      6.380523   1.000000   1.000000
    6        7.001552      6.443538   1.000000   1.000000
    7        7.001552      6.443538   1.000000   1.000000
    8        7.322151      6.671174   1.000000   1.000000
    9        7.504357      6.851593   1.000000   1.000000
   10        7.504357      6.851593   1.000000   1.000000
   11        7.617391      6.982316   1.000000   1.000000
   12        7.957391      7.272341   1.000000   1.000000
   13        8.305917      7.586928   1.000000   1.000000
   14        8.639596      7.950919   1.000000   1.000000
   15        8.646862      7.950919   1.000000   1.000000
   16        8.646862      7.956287   1.000000   1.000000
   17        8.987992      8.228549   1.000003   1.000000
   18        9.538628      8.735124   0.985994   1.000000
   19        9.538628      8.735124   0.985994   1.000000
   20        9.623105      8.783865   0.785357   1.000000
   21        9.923923      9.176550  -0.034277   1.000750
   22       11.372637     10.808613  -0.000000  -0.000000
   23       11.372637     10.808613  -0.000000  -0.000000
   24       13.583709     13.237109  -0.000000  -0.000000
   25       17.101592     16.800162   0.000000   0.000000
   26       19.888875     19.662868   0.000000   0.000000
   27       19.888875     19.662868   0.000000   0.000000
   28       22.874650     22.686707   0.000000   0.000000
   29       22.987354     22.829491   0.000000   0.000000
   30       25.445173     25.325884   0.000000   0.000000
   31       25.445173     25.325884   0.000000   0.000000
   32       28.308441     28.214449   0.000000   0.000000
 
  0.3750000E+00  0.3750000E+00  0.3750000E+00  0.1250000E+00
    1        4.639565      4.373911   1.000000   1.000000
    2        5.488587      5.025273   1.000000   1.000000
    3        5.488587      5.025273   1.000000   1.000000
    4        5.488587      5.025273   1.000000   1.000000
    5        7.489357      6.925304   1.000000   1.000000
    6        7.489357      6.925304   1.000000   1.000000
    7        7.489357      6.925304   1.000000   1.000000
    8        7.966571      7.268428   1.000000   1.000000
    9        7.966571      7.268428   1.000000   1.000000
   10        8.018892      7.427771   1.000000   1.000000
   11        8.121155      7.427771   1.000000   1.000000
   12        8.121155      7.427771   1.000000   1.000000
   13        8.121155      7.611379   1.000000   1.000000
   14        8.139559      7.611379   1.000000   1.000000
   15        8.139559      7.611379   1.000000   1.000000
   16        8.139559      7.701792   1.000000   1.000000
   17        9.640594      8.844065   0.723062   1.000000
   18        9.640594      8.844065   0.723062   1.000000
   19        9.890570      9.070466  -0.022351   1.000046
   20        9.890570      9.070466  -0.022351   1.000046
   21        9.890570      9.070466  -0.022351   1.000046
   22       11.317404     10.916419  -0.000000  -0.000000
   23       11.317404     10.916419  -0.000000  -0.000000
   24       11.317404     10.916419  -0.000000  -0.000000
   25       16.490921     16.108263   0.000000   0.000000
   26       16.490921     16.108263   0.000000   0.000000
   27       16.490921     16.108263   0.000000   0.000000
   28       18.880321     18.595690   0.000000   0.000000
   29       29.313803     29.274776   0.000000   0.000000
   30       29.313803     29.274776   0.000000   0.000000
   31       29.313803     29.274776   0.000000   0.000000
   32       31.722841     31.616880   0.000000   0.000000
