# ['Ni']

28 atoms
1 atom types

    0.0000     2.3745 xlo xhi
    0.0000     4.1128 ylo yhi
    0.0000    27.1433 zlo zhi

    0.0000     0.0000     0.0000 xy xz yz

Atoms

1 1     0.0000     0.0000     0.0000
2 1     1.1873     2.0564     0.0000
3 1     1.1873     0.6855     1.9388
4 1     0.0000     2.7419     1.9388
5 1     0.0000     1.3709     3.8776
6 1     1.1873     3.4274     3.8776
7 1     0.0000     0.0000     5.8164
8 1     1.1873     2.0564     5.8164
9 1     1.1873     0.6855     7.7552
10 1     0.0000     2.7419     7.7552
11 1     0.0000     1.3709     9.6940
12 1     1.1873     3.4274     9.6940
13 1     0.0000     0.0000    11.6328
14 1     1.1873     2.0564    11.6328
15 1     0.0000     1.3709    13.5717
16 1     1.1873     3.4274    13.5717
17 1     0.0000     0.0000    15.5105
18 1     1.1873     2.0564    15.5105
19 1     1.1873     0.6855    17.4493
20 1     0.0000     2.7419    17.4493
21 1     0.0000     1.3709    19.3881
22 1     1.1873     3.4274    19.3881
23 1     0.0000     0.0000    21.3269
24 1     1.1873     2.0564    21.3269
25 1     1.1873     0.6855    23.2657
26 1     0.0000     2.7419    23.2657
27 1     0.0000     1.3709    25.2045
28 1     1.1873     3.4274    25.2045
