LAMMPS (11 Aug 2017)
Reading data file ...
  triclinic box = (0 0 0) to (2.8005 2.8005 2.8005) with tilt (0 0 0)
  1 by 1 by 1 MPI processor grid
  reading atoms ...
  2 atoms
2 atoms in group Ni
Neighbor list info ...
  update every 1 steps, delay 0 steps, check yes
  max neighbors/atom: 2000, page size: 100000
  master list distance cutoff = 11
  ghost atom cutoff = 11
  binsize = 5.5, bins = 1 1 1
  1 neighbor lists, perpetual/occasional/extra = 1 0 0
  (1) pair eam/alloy, perpetual
      attributes: half, newton on
      pair build: half/bin/newton/tri
      stencil: half/bin/3d/newton/tri
      bin: standard
Setting up cg style minimization ...
  Unit style    : metal
  Current step  : 0
WARNING: Energy due to 3 extra global DOFs will be included in minimizer energies
Per MPI rank memory allocation (min/avg/max) = 4.286 | 4.286 | 4.286 Mbytes
Step PotEng Xhi Xlo Yhi Ylo Zhi Xy Xz Yz Press Pxx Pyy Pzz Pxy Pxz Pyz c_eatoms 
       0    -8.973159       2.8005            0       2.8005            0       2.8005            0            0            0    22733.955    22733.955    22733.955    22733.955 -0.0015528143 -0.0015528143 -0.0015528143    -8.973159 
      10   -10.613806    2.8083898 -0.0078898324    2.8083898 -0.0078898324    2.8083898            0            0            0    87832.114    87832.114    87832.114    87832.114   -139249.33   -139249.33   -139249.33   -10.613806 
      20   -11.239886    2.8223923 -0.021892332    2.8223923 -0.021892332    2.8223923            0            0            0    64295.313    64295.313    64295.313    64295.313    -177379.5    -177379.5    -177379.5   -11.239886 
      30   -12.394525    2.8363948 -0.035894832    2.8363948 -0.035894832    2.8363948            0            0            0    72726.121    72726.121    72726.121    72726.121   -234795.27   -234795.27   -234795.27   -12.394525 
      40   -13.970181    2.8503973 -0.049897332    2.8503973 -0.049897332    2.8503973            0            0            0    102966.57    102966.57    102966.57    102966.57   -289304.78   -289304.78   -289304.78   -13.970181 
      50   -15.780812    2.8643998 -0.063899832    2.8643998 -0.063899832    2.8643998            0            0            0    142206.46    142206.46    142206.46    142206.46   -327031.32   -327031.32   -327031.32   -15.780812 
      60   -17.736331    2.8784023 -0.077902332    2.8784023 -0.077902332    2.8784023            0            0            0    184998.18    184998.18    184998.18    184998.18   -346432.44   -346432.44   -346432.44   -17.736331 
      70   -19.782707    2.8924048 -0.091904832    2.8924048 -0.091904832    2.8924048            0            0            0    228653.89    228653.89    228653.89    228653.89   -349621.97   -349621.97   -349621.97   -19.782707 
      80   -21.876007    2.9064073  -0.10590733    2.9064073  -0.10590733    2.9064073            0            0            0    270995.75    270995.75    270995.75    270995.75   -339778.86   -339778.86   -339778.86   -21.876007 
      90   -23.977353    2.9204098  -0.11990983    2.9204098  -0.11990983    2.9204098            0            0            0    310581.38    310581.38    310581.38    310581.38   -320123.93   -320123.93   -320123.93   -23.977353 
     100   -26.051843    2.9344123  -0.13391233    2.9344123  -0.13391233    2.9344123            0            0            0    346545.41    346545.41    346545.41    346545.41   -293548.17   -293548.17   -293548.17   -26.051843 
     110   -28.067528    2.9484148  -0.14791483    2.9484148  -0.14791483    2.9484148            0            0            0    378366.57    378366.57    378366.57    378366.57   -262525.25   -262525.25   -262525.25   -28.067528 
     120    -29.99541    2.9624173  -0.16191733    2.9624173  -0.16191733    2.9624173            0            0            0    405499.64    405499.64    405499.64    405499.64   -229238.97   -229238.97   -229238.97    -29.99541 
     130   -31.808238    2.9764198  -0.17591983    2.9764198  -0.17591983    2.9764198            0            0            0    427641.36    427641.36    427641.36    427641.36   -195428.16   -195428.16   -195428.16   -31.808238 
     140   -33.480402    2.9904223  -0.18992233    2.9904223  -0.18992233    2.9904223            0            0            0    444978.41    444978.41    444978.41    444978.41   -162253.28   -162253.28   -162253.28   -33.480402 
     150   -34.986001    3.0044248  -0.20392483    3.0044248  -0.20392483    3.0044248            0            0            0    457406.97    457406.97    457406.97    457406.97   -130755.51   -130755.51   -130755.51   -34.986001 
     160   -36.298474    3.0184273  -0.21792733    3.0184273  -0.21792733    3.0184273            0            0            0    464991.58    464991.58    464991.58    464991.58   -101658.13   -101658.13   -101658.13   -36.298474 
     170   -37.396553    3.0324298  -0.23192983    3.0324298  -0.23192983    3.0324298            0            0            0     467462.6     467462.6     467462.6     467462.6    -75706.26    -75706.26    -75706.26   -37.396553 
     180   -38.266592    3.0464323  -0.24593233    3.0464323  -0.24593233    3.0464323            0            0            0    465007.53    465007.53    465007.53    465007.53   -53286.027   -53286.027   -53286.027   -38.266592 
     190   -38.917484    3.0604348  -0.25993483    3.0604348  -0.25993483    3.0604348            0            0            0    457098.19    457098.19    457098.19    457098.19   -35163.824   -35163.824   -35163.824   -38.917484 
     200   -39.388732    3.0744373  -0.27393733    3.0744373  -0.27393733    3.0744373            0            0            0    443989.93    443989.93    443989.93    443989.93   -21618.753   -21618.753   -21618.753   -39.388732 
     210   -39.740598    3.0884398  -0.28793983    3.0884398  -0.28793983    3.0884398            0            0            0    426462.16    426462.16    426462.16    426462.16   -12467.587   -12467.587   -12467.587   -39.740598 
     220   -40.027627    3.1024423  -0.30194233    3.1024423  -0.30194233    3.1024423            0            0            0    405451.15    405451.15    405451.15    405451.15   -7164.5672   -7164.5672   -7164.5672   -40.027627 
     230   -40.282521    3.1164448  -0.31594483    3.1164448  -0.31594483    3.1164448            0            0            0    383302.96    383302.96    383302.96    383302.96   -4138.4487   -4138.4487   -4138.4487   -40.282521 
     240   -40.519328    3.1304473  -0.32994733    3.1304473  -0.32994733    3.1304473            0            0            0    360897.84    360897.84    360897.84    360897.84    -2606.606    -2606.606    -2606.606   -40.519328 
     250   -40.743211    3.1444498  -0.34394983    3.1444498  -0.34394983    3.1444498            0            0            0    338819.76    338819.76    338819.76    338819.76   -1995.0852   -1995.0852   -1995.0852   -40.743211 
     260   -40.955912    3.1584523  -0.35795233    3.1584523  -0.35795233    3.1584523            0            0            0    317979.99    317979.99    317979.99    317979.99   -1629.1305   -1629.1305   -1629.1305   -40.955912 
     270   -41.158395    3.1724548  -0.37195483    3.1724548  -0.37195483    3.1724548            0            0            0    298355.37    298355.37    298355.37    298355.37   -1403.3826   -1403.3826   -1403.3826   -41.158395 
     280   -41.351209    3.1864573  -0.38595733    3.1864573  -0.38595733    3.1864573            0            0            0    279995.93    279995.93    279995.93    279995.93   -1234.1118   -1234.1118   -1234.1118   -41.351209 
     290   -41.534966    3.2004598  -0.39995983    3.2004598  -0.39995983    3.2004598            0            0            0    262687.55    262687.55    262687.55    262687.55   -1150.7774   -1150.7774   -1150.7774   -41.534966 
     300   -41.710058    3.2144623  -0.41396233    3.2144623  -0.41396233    3.2144623            0            0            0    246582.38    246582.38    246582.38    246582.38   -1023.4462   -1023.4462   -1023.4462   -41.710058 
     310   -41.876939    3.2284648  -0.42796483    3.2284648  -0.42796483    3.2284648            0            0            0    231419.37    231419.37    231419.37    231419.37   -959.39807   -959.39807   -959.39807   -41.876939 
     320   -42.035962    3.2424673  -0.44196733    3.2424673  -0.44196733    3.2424673            0            0            0    217343.94    217343.94    217343.94    217343.94   -833.53143   -833.53143   -833.53143   -42.035962 
     330   -42.187554    3.2564698  -0.45596983    3.2564698  -0.45596983    3.2564698            0            0            0     204002.1     204002.1     204002.1     204002.1   -820.65378   -820.65378   -820.65378   -42.187554 
     340   -42.332058    3.2704723  -0.46997233    3.2704723  -0.46997233    3.2704723            0            0            0     191635.9     191635.9     191635.9     191635.9   -718.92714   -718.92714   -718.92714   -42.332058 
     350   -42.469803    3.2844748  -0.48397483    3.2844748  -0.48397483    3.2844748            0            0            0     179978.4     179978.4     179978.4     179978.4   -678.15988   -678.15988   -678.15988   -42.469803 
     360   -42.601109    3.2984773  -0.49797733    3.2984773  -0.49797733    3.2984773            0            0            0    169118.77    169118.77    169118.77    169118.77   -600.77015   -600.77015   -600.77015   -42.601109 
     370   -42.726294    3.3124798  -0.51197983    3.3124798  -0.51197983    3.3124798            0            0            0    158876.93    158876.93    158876.93    158876.93    -577.4169    -577.4169    -577.4169   -42.726294 
     380   -42.845668    3.3264823  -0.52598233    3.3264823  -0.52598233    3.3264823            0            0            0    149295.08    149295.08    149295.08    149295.08    -535.5716    -535.5716    -535.5716   -42.845668 
     390   -42.959482    3.3404848  -0.53998483    3.3404848  -0.53998483    3.3404848            0            0            0    140303.88    140303.88    140303.88    140303.88   -505.01425   -505.01425   -505.01425   -42.959482 
     400    -43.06801    3.3544873  -0.55398733    3.3544873  -0.55398733    3.3544873            0            0            0    131898.93    131898.93    131898.93    131898.93   -455.34898   -455.34898   -455.34898    -43.06801 
     410   -43.171481    3.3684898  -0.56798983    3.3684898  -0.56798983    3.3684898            0            0            0     124087.8     124087.8     124087.8     124087.8   -362.71838   -362.71838   -362.71838   -43.171481 
     420   -43.270159    3.3824923  -0.58199233    3.3824923  -0.58199233    3.3824923            0            0            0     116593.9     116593.9     116593.9     116593.9   -403.79117   -403.79117   -403.79117   -43.270159 
     430   -43.364284    3.3964948  -0.59599483    3.3964948  -0.59599483    3.3964948            0            0            0    109633.84    109633.84    109633.84    109633.84   -378.83247   -378.83247   -378.83247   -43.364284 
     440   -43.454042    3.4104973  -0.60999733    3.4104973  -0.60999733    3.4104973            0            0            0    103141.51    103141.51    103141.51    103141.51   -326.85033   -326.85033   -326.85033   -43.454042 
     450   -43.539625    3.4244998  -0.62399983    3.4244998  -0.62399983    3.4244998            0            0            0    97015.847    97015.847    97015.847    97015.847    -317.3067    -317.3067    -317.3067   -43.539625 
     460   -43.621279    3.4385023  -0.63800233    3.4385023  -0.63800233    3.4385023            0            0            0    91265.251    91265.251    91265.251    91265.251   -296.50939   -296.50939   -296.50939   -43.621279 
     470   -43.699158    3.4525048  -0.65200483    3.4525048  -0.65200483    3.4525048            0            0            0    85873.472    85873.472    85873.472    85873.472   -273.73309   -273.73309   -273.73309   -43.699158 
     480   -43.773439    3.4665073  -0.66600733    3.4665073  -0.66600733    3.4665073            0            0            0    80823.779    80823.779    80823.779    80823.779   -244.45936   -244.45936   -244.45936   -43.773439 
     490   -43.844287    3.4805098  -0.68000983    3.4805098  -0.68000983    3.4805098            0            0            0    76108.724    76108.724    76108.724    76108.724   -198.82106   -198.82106   -198.82106   -43.844287 
     500   -43.911877    3.4945123  -0.69401233    3.4945123  -0.69401233    3.4945123            0            0            0    71603.178    71603.178    71603.178    71603.178   -220.07263   -220.07263   -220.07263   -43.911877 
     510   -43.976369    3.5085148  -0.70801483    3.5085148  -0.70801483    3.5085148            0            0            0    67407.861    67407.861    67407.861    67407.861   -202.90019   -202.90019   -202.90019   -43.976369 
     520    -44.03789    3.5225173  -0.72201733    3.5225173  -0.72201733    3.5225173            0            0            0    63464.918    63464.918    63464.918    63464.918   -188.23928   -188.23928   -188.23928    -44.03789 
     530   -44.096582    3.5365198  -0.73601983    3.5365198  -0.73601983    3.5365198            0            0            0    59759.886    59759.886    59759.886    59759.886   -174.24625   -174.24625   -174.24625   -44.096582 
     540   -44.152575    3.5505223  -0.75002233    3.5505223  -0.75002233    3.5505223            0            0            0    56277.307    56277.307    56277.307    56277.307   -161.65843   -161.65843   -161.65843   -44.152575 
     550   -44.205997    3.5645248  -0.76402483    3.5645248  -0.76402483    3.5645248            0            0            0    53003.206    53003.206    53003.206    53003.206   -150.24531   -150.24531   -150.24531   -44.205997 
     560   -44.256965    3.5785273  -0.77802733    3.5785273  -0.77802733    3.5785273            0            0            0     49924.86     49924.86     49924.86     49924.86   -139.78587   -139.78587   -139.78587   -44.256965 
     570   -44.305595    3.5925298  -0.79202983    3.5925298  -0.79202983    3.5925298            0            0            0    47028.172    47028.172    47028.172    47028.172   -131.51878   -131.51878   -131.51878   -44.305595 
     580   -44.351995    3.6065323  -0.80603233    3.6065323  -0.80603233    3.6065323            0            0            0    44304.506    44304.506    44304.506    44304.506   -122.98329   -122.98329   -122.98329   -44.351995 
     590   -44.396267    3.6205348  -0.82003483    3.6205348  -0.82003483    3.6205348            0            0            0    41744.486    41744.486    41744.486    41744.486   -113.73157   -113.73157   -113.73157   -44.396267 
     600   -44.438509    3.6345373  -0.83403733    3.6345373  -0.83403733    3.6345373            0            0            0    39337.424    39337.424    39337.424    39337.424   -104.79316   -104.79316   -104.79316   -44.438509 
     610   -44.478817    3.6485398  -0.84803983    3.6485398  -0.84803983    3.6485398            0            0            0    37073.216    37073.216    37073.216    37073.216   -97.957861   -97.957861   -97.957861   -44.478817 
     620   -44.517282    3.6625423  -0.86204233    3.6625423  -0.86204233    3.6625423            0            0            0    34943.337    34943.337    34943.337    34943.337   -91.422073   -91.422073   -91.422073   -44.517282 
     630   -44.553989    3.6765448  -0.87604483    3.6765448  -0.87604483    3.6765448            0            0            0    32938.443    32938.443    32938.443    32938.443   -85.805252   -85.805252   -85.805252   -44.553989 
     640    -44.58902    3.6905473  -0.89004733    3.6905473  -0.89004733    3.6905473            0            0            0    31051.219    31051.219    31051.219    31051.219   -80.475563   -80.475563   -80.475563    -44.58902 
     650    -44.62245    3.7045498  -0.90404983    3.7045498  -0.90404983    3.7045498            0            0            0    29274.756    29274.756    29274.756    29274.756   -75.351377   -75.351377   -75.351377    -44.62245 
     660   -44.654355    3.7185523  -0.91805233    3.7185523  -0.91805233    3.7185523            0            0            0    27601.123    27601.123    27601.123    27601.123   -71.307231   -71.307231   -71.307231   -44.654355 
     670   -44.684803    3.7325548  -0.93205483    3.7325548  -0.93205483    3.7325548            0            0            0    26025.689    26025.689    26025.689    26025.689   -66.945302   -66.945302   -66.945302   -44.684803 
     680   -44.713861    3.7465573  -0.94605733    3.7465573  -0.94605733    3.7465573            0            0            0    24542.231    24542.231    24542.231    24542.231   -62.725383   -62.725383   -62.725383   -44.713861 
     690   -44.741593    3.7605598  -0.96005983    3.7605598  -0.96005983    3.7605598            0            0            0    23145.245    23145.245    23145.245    23145.245   -58.678311   -58.678311   -58.678311   -44.741593 
     700   -44.768058    3.7745623  -0.97406233    3.7745623  -0.97406233    3.7745623            0            0            0     21829.62     21829.62     21829.62     21829.62   -54.798029   -54.798029   -54.798029   -44.768058 
     710   -44.793315    3.7885648  -0.98806483    3.7885648  -0.98806483    3.7885648            0            0            0    20590.394    20590.394    20590.394    20590.394    -51.18359    -51.18359    -51.18359   -44.793315 
     720    -44.81742    3.8025673   -1.0020673    3.8025673   -1.0020673    3.8025673            0            0            0    19423.019    19423.019    19423.019    19423.019   -47.810314   -47.810314   -47.810314    -44.81742 
     730   -44.840425    3.8165698   -1.0160698    3.8165698   -1.0160698    3.8165698            0            0            0    18323.231    18323.231    18323.231    18323.231   -44.656147   -44.656147   -44.656147   -44.840425 
     740    -44.86238    3.8305723   -1.0300723    3.8305723   -1.0300723    3.8305723            0            0            0     17287.03     17287.03     17287.03     17287.03   -41.696956   -41.696956   -41.696956    -44.86238 
     750   -44.883334    3.8445748   -1.0440748    3.8445748   -1.0440748    3.8445748            0            0            0    16310.531    16310.531    16310.531    16310.531   -39.039865   -39.039865   -39.039865   -44.883334 
     760   -44.903332    3.8585773   -1.0580773    3.8585773   -1.0580773    3.8585773            0            0            0    15390.179    15390.179    15390.179    15390.179   -36.588091   -36.588091   -36.588091   -44.903332 
     770   -44.922418    3.8725798   -1.0720798    3.8725798   -1.0720798    3.8725798            0            0            0    14522.863    14522.863    14522.863    14522.863   -34.209658   -34.209658   -34.209658   -44.922418 
     780   -44.940634    3.8865823   -1.0860823    3.8865823   -1.0860823    3.8865823            0            0            0    13705.472    13705.472    13705.472    13705.472   -31.975291   -31.975291   -31.975291   -44.940634 
     790    -44.95802    3.9005848   -1.1000848    3.9005848   -1.1000848    3.9005848            0            0            0    12935.055    12935.055    12935.055    12935.055   -29.864053   -29.864053   -29.864053    -44.95802 
     800   -44.974613    3.9145873   -1.1140873    3.9145873   -1.1140873    3.9145873            0            0            0    12209.087    12209.087    12209.087    12209.087   -27.838212   -27.838212   -27.838212   -44.974613 
     810    -44.99045    3.9285898   -1.1280898    3.9285898   -1.1280898    3.9285898            0            0            0     11524.44     11524.44     11524.44     11524.44   -26.233758   -26.233758   -26.233758    -44.99045 
     820   -45.005567    3.9425923   -1.1420923    3.9425923   -1.1420923    3.9425923            0            0            0    10878.711    10878.711    10878.711    10878.711   -24.777891   -24.777891   -24.777891   -45.005567 
     830   -45.019995    3.9565948   -1.1560948    3.9565948   -1.1560948    3.9565948            0            0            0    10269.839    10269.839    10269.839    10269.839   -23.299334   -23.299334   -23.299334   -45.019995 
     840   -45.033766    3.9705973   -1.1700973    3.9705973   -1.1700973    3.9705973            0            0            0    9695.6261    9695.6261    9695.6261    9695.6261   -21.882543   -21.882543   -21.882543   -45.033766 
     850   -45.046909    3.9845998   -1.1840998    3.9845998   -1.1840998    3.9845998            0            0            0    9154.0484    9154.0484    9154.0484    9154.0484   -20.541857   -20.541857   -20.541857   -45.046909 
     860   -45.059454    3.9986023   -1.1981023    3.9986023   -1.1981023    3.9986023            0            0            0     8643.211     8643.211     8643.211     8643.211   -19.279131   -19.279131   -19.279131   -45.059454 
     870   -45.071427    4.0126048   -1.2121048    4.0126048   -1.2121048    4.0126048            0            0            0    8161.3332    8161.3332    8161.3332    8161.3332   -18.091792   -18.091792   -18.091792   -45.071427 
     880   -45.082855    4.0266073   -1.2261073    4.0266073   -1.2261073    4.0266073            0            0            0    7708.2507    7708.2507    7708.2507    7708.2507   -15.494417   -15.494417   -15.494417   -45.082855 
     890   -45.093758    4.0406098   -1.2401098    4.0406098   -1.2401098    4.0406098            0            0            0      7316.29      7316.29      7316.29      7316.29    22.101059    22.101059    22.101059   -45.093758 
     900   -45.104168    4.0546123   -1.2541123    4.0546123   -1.2541123    4.0546123            0            0            0    6912.1178    6912.1178    6912.1178    6912.1178     23.49808     23.49808     23.49808   -45.104168 
     910   -45.114105    4.0686148   -1.2681148    4.0686148   -1.2681148    4.0686148            0            0            0    6527.5102    6527.5102    6527.5102    6527.5102    21.613806    21.613806    21.613806   -45.114105 
     920   -45.123587    4.0826173   -1.2821173    4.0826173   -1.2821173    4.0826173            0            0            0    6169.2819    6169.2819    6169.2819    6169.2819    24.543576    24.543576    24.543576   -45.123587 
     930    -45.13264    4.0966198   -1.2961198    4.0966198   -1.2961198    4.0966198            0            0            0    5818.8689    5818.8689    5818.8689    5818.8689    15.073087    15.073087    15.073087    -45.13264 
     940    -45.14127    4.1106223   -1.3101223    4.1106223   -1.3101223    4.1106223            0            0            0    5518.5415    5518.5415    5518.5415    5518.5415    36.305252    36.305252    36.305252    -45.14127 
     950   -45.149519    4.1246248   -1.3241248    4.1246248   -1.3241248    4.1246248            0            0            0    5205.8642    5205.8642    5205.8642    5205.8642    27.248054    27.248054    27.248054   -45.149519 
     960   -45.157378    4.1386273   -1.3381273    4.1386273   -1.3381273    4.1386273            0            0            0    4935.2906    4935.2906    4935.2906    4935.2906     43.25202     43.25202     43.25202   -45.157378 
     970     -45.1649    4.1526298   -1.3521298    4.1526298   -1.3521298    4.1526298            0            0            0    4630.9287    4630.9287    4630.9287    4630.9287    9.6171774    9.6171774    9.6171774     -45.1649 
     980   -45.172066    4.1666323   -1.3661323    4.1666323   -1.3661323    4.1666323            0            0            0    4379.5618    4379.5618    4379.5618    4379.5618    13.570628    13.570628    13.570628   -45.172066 
     990   -45.178906    4.1806348   -1.3801348    4.1806348   -1.3801348    4.1806348            0            0            0     4141.304     4141.304     4141.304     4141.304     16.36613     16.36613     16.36613   -45.178906 
    1000   -45.185435    4.1946373   -1.3941373    4.1946373   -1.3941373    4.1946373            0            0            0    3896.9231    3896.9231    3896.9231    3896.9231  -0.22469276  -0.22469276  -0.22469276   -45.185435 
    1010   -45.191664    4.2086398   -1.4081398    4.2086398   -1.4081398    4.2086398            0            0            0    3678.9578    3678.9578    3678.9578    3678.9578   -3.2747899   -3.2747899   -3.2747899   -45.191664 
    1020    -45.19761    4.2226423   -1.4221423    4.2226423   -1.4221423    4.2226423            0            0            0    3473.6161    3473.6161    3473.6161    3473.6161   -5.7043041   -5.7043041   -5.7043041    -45.19761 
    1030   -45.203283    4.2366448   -1.4361448    4.2366448   -1.4361448    4.2366448            0            0            0    3283.2166    3283.2166    3283.2166    3283.2166   -4.5113731   -4.5113731   -4.5113731   -45.203283 
    1040   -45.208698    4.2506473   -1.4501473    4.2506473   -1.4501473    4.2506473            0            0            0    3101.0195    3101.0195    3101.0195    3101.0195   -5.7888476   -5.7888476   -5.7888476   -45.208698 
    1050   -45.213865    4.2646498   -1.4641498    4.2646498   -1.4641498    4.2646498            0            0            0    2930.3147    2930.3147    2930.3147    2930.3147   -5.6545263   -5.6545263   -5.6545263   -45.213865 
    1060   -45.218797    4.2786523   -1.4781523    4.2786523   -1.4781523    4.2786523            0            0            0    2769.3279    2769.3279    2769.3279    2769.3279   -5.3815693   -5.3815693   -5.3815693   -45.218797 
    1070   -45.223503    4.2926548   -1.4921548    4.2926548   -1.4921548    4.2926548            0            0            0     2617.394     2617.394     2617.394     2617.394    -5.079477    -5.079477    -5.079477   -45.223503 
    1080   -45.227994    4.3066573   -1.5061573    4.3066573   -1.5061573    4.3066573            0            0            0    2474.3282    2474.3282    2474.3282    2474.3282   -4.4854499   -4.4854499   -4.4854499   -45.227994 
    1090    -45.23201    4.3198348   -1.5193348    4.3198348   -1.5193348    4.3198348            0            0            0    2296.0164    2296.0164    2296.0164    2296.0164   -54.721597   -54.721597   -54.721597    -45.23201 
    1100   -45.234757    4.3291339   -1.5286339    4.3291339   -1.5286339    4.3291339            0            0            0    2211.1914    2211.1914    2211.1914    2211.1914   -53.337006   -53.337006   -53.337006   -45.234757 
    1110   -45.237614    4.3392474   -1.5387474    4.3392474   -1.5387474    4.3392474            0            0            0    2253.2396    2253.2396    2253.2396    2253.2396    78.499083    78.499083    78.499083   -45.237614 
    1120   -45.240096     4.348233    -1.547733     4.348233    -1.547733     4.348233            0            0            0    2179.4823    2179.4823    2179.4823    2179.4823    81.786348    81.786348    81.786348   -45.240096 
    1130   -45.242708    4.3577953   -1.5572953    4.3577953   -1.5572953    4.3577953            0            0            0    1968.9459    1968.9459    1968.9459    1968.9459   -49.424926   -49.424926   -49.424926   -45.242708 
    1140   -45.244977    4.3665852   -1.5660852    4.3665852   -1.5660852    4.3665852            0            0            0    1886.4612    1886.4612    1886.4612    1886.4612   -62.002687   -62.002687   -62.002687   -45.244977 
    1150   -45.247392    4.3761545   -1.5756545    4.3761545   -1.5756545    4.3761545            0            0            0    1937.5264    1937.5264    1937.5264    1937.5264    62.175651    62.175651    62.175651   -45.247392 
    1160    -45.24946    4.3846133   -1.5841133    4.3846133   -1.5841133    4.3846133            0            0            0    1877.5432    1877.5432    1877.5432    1877.5432    64.724336    64.724336    64.724336    -45.24946 
    1170    -45.25144    4.3928693   -1.5923693    4.3928693   -1.5923693    4.3928693            0            0            0    1810.3824    1810.3824    1810.3824    1810.3824    56.564682    56.564682    56.564682    -45.25144 
    1180   -45.253554    4.4019382   -1.6014382    4.4019382   -1.6014382    4.4019382            0            0            0    1646.1334    1646.1334    1646.1334    1646.1334   -44.855221   -44.855221   -44.855221   -45.253554 
    1190   -45.255362    4.4099761   -1.6094761    4.4099761   -1.6094761    4.4099761            0            0            0    1593.2845    1593.2845    1593.2845    1593.2845   -44.130569   -44.130569   -44.130569   -45.255362 
    1200   -45.257321    4.4189814   -1.6184814    4.4189814   -1.6184814    4.4189814            0            0            0    1634.1845    1634.1845    1634.1845    1634.1845    54.534884    54.534884    54.534884   -45.257321 
    1210   -45.259085    4.4271647   -1.6266647    4.4271647   -1.6266647    4.4271647            0            0            0    1537.9766    1537.9766    1537.9766    1537.9766    9.3956947    9.3956947    9.3956947   -45.259085 
    1220   -45.261301    4.4380296   -1.6375296    4.4380296   -1.6375296    4.4380296            0            0            0      1419.83      1419.83      1419.83      1419.83   -43.663536   -43.663536   -43.663536   -45.261301 
    1230   -45.263502     4.449005    -1.648505     4.449005    -1.648505     4.449005            0            0            0    1404.4199    1404.4199    1404.4199    1404.4199    3.7047431    3.7047431    3.7047431   -45.263502 
    1240   -45.265443     4.459354    -1.658854     4.459354    -1.658854     4.459354            0            0            0     1403.069     1403.069     1403.069     1403.069     59.08675     59.08675     59.08675   -45.265443 
    1250   -45.266948    4.4672541   -1.6667541    4.4672541   -1.6667541    4.4672541            0            0            0    1312.1339    1312.1339    1312.1339    1312.1339    10.059803    10.059803    10.059803   -45.266948 
    1260   -45.269023    4.4787883   -1.6782883    4.4787883   -1.6782883    4.4787883            0            0            0    1250.9589    1250.9589    1250.9589    1250.9589    7.5304833    7.5304833    7.5304833   -45.269023 
    1270   -45.271086    4.4908955   -1.6903955    4.4908955   -1.6903955    4.4908955            0            0            0    1238.4915    1238.4915    1238.4915    1238.4915    53.707657    53.707657    53.707657   -45.271086 
    1280   -45.272406     4.498673    -1.698173     4.498673    -1.698173     4.498673            0            0            0     1180.029     1180.029     1180.029     1180.029    31.547486    31.547486    31.547486   -45.272406 
    1290   -45.274097    4.5091886   -1.7086886    4.5091886   -1.7086886    4.5091886            0            0            0    1060.0199    1060.0199    1060.0199    1060.0199   -41.134829   -41.134829   -41.134829   -45.274097 
    1300   -45.275627    4.5189266   -1.7184266    4.5189266   -1.7184266    4.5189266            0            0            0    1021.1909    1021.1909    1021.1909    1021.1909   -37.961405   -37.961405   -37.961405   -45.275627 
    1310   -45.277307    4.5298873   -1.7293873    4.5298873   -1.7293873    4.5298873            0            0            0    1018.7979    1018.7979    1018.7979    1018.7979     4.931694     4.931694     4.931694   -45.277307 
    1320    -45.27861    4.5388926   -1.7383926    4.5388926   -1.7383926    4.5388926            0            0            0    1015.7566    1015.7566    1015.7566    1015.7566    37.658153    37.658153    37.658153    -45.27861 
    1330    -45.27996    4.5483718   -1.7478718    4.5483718   -1.7478718    4.5483718            0            0            0    969.44526    969.44526    969.44526    969.44526    27.691501    27.691501    27.691501    -45.27996 
    1340    -45.28114    4.5570722   -1.7565722    4.5570722   -1.7565722    4.5570722            0            0            0    867.26515    867.26515    867.26515    867.26515   -42.294007   -42.294007   -42.294007    -45.28114 
    1350   -45.282591    4.5677582   -1.7672582    4.5677582   -1.7672582    4.5677582            0            0            0    879.36561    879.36561    879.36561    879.36561    7.7106836    7.7106836    7.7106836   -45.282591 
    1360   -45.283917    4.5780604   -1.7775604    4.5780604   -1.7775604    4.5780604            0            0            0    840.28899    840.28899    840.28899    840.28899    3.7304424    3.7304424    3.7304424   -45.283917 
    1370   -45.285342    4.5895513   -1.7890513    4.5895513   -1.7890513    4.5895513            0            0            0    800.09928    800.09928    800.09928    800.09928    1.0194643    1.0194643    1.0194643   -45.285342 
    1380   -45.286588    4.6000801   -1.7995801    4.6000801   -1.7995801    4.6000801            0            0            0    735.62706    735.62706    735.62706    735.62706   -30.539531   -30.539531   -30.539531   -45.286588 
    1390   -45.287592    4.6086569   -1.8081569    4.6086569   -1.8081569    4.6086569            0            0            0    747.30808    747.30808    747.30808    747.30808    6.8357378    6.8357378    6.8357378   -45.287592 
    1400     -45.2886    4.6178201   -1.8173201    4.6178201   -1.8173201    4.6178201            0            0            0    679.71411    679.71411    679.71411    679.71411   -34.153227   -34.153227   -34.153227     -45.2886 
    1410   -45.289741    4.6282727   -1.8277727    4.6282727   -1.8277727    4.6282727            0            0            0    654.20336    654.20336    654.20336    654.20336   -30.527411   -30.527411   -30.527411   -45.289741 
    1420   -45.290963    4.6397981   -1.8392981    4.6397981   -1.8392981    4.6397981            0            0            0    663.78519    663.78519    663.78519    663.78519    9.7595323    9.7595323    9.7595323   -45.290963 
    1430   -45.291871    4.6490315   -1.8485315    4.6490315   -1.8485315    4.6490315            0            0            0    591.42625    591.42625    591.42625    591.42625   -38.927974   -38.927974   -38.927974   -45.291871 
    1440   -45.292692    4.6571334   -1.8566334    4.6571334   -1.8566334    4.6571334            0            0            0    620.92521    620.92521    620.92521    620.92521    10.565465    10.565465    10.565465   -45.292692 
    1450   -45.293448    4.6651127   -1.8646127    4.6651127   -1.8646127    4.6651127            0            0            0    564.48626    564.48626    564.48626    564.48626   -26.726351   -26.726351   -26.726351   -45.293448 
    1460   -45.294078    4.6718284   -1.8713284    4.6718284   -1.8713284    4.6718284            0            0            0    551.49418    551.49418    551.49418    551.49418   -24.104867   -24.104867   -24.104867   -45.294078 
    1470   -45.294797    4.6797615   -1.8792615    4.6797615   -1.8792615    4.6797615            0            0            0    576.26116    576.26116    576.26116    576.26116    18.539464    18.539464    18.539464   -45.294797 
    1480   -45.295438    4.6869528   -1.8864528    4.6869528   -1.8864528    4.6869528            0            0            0    554.54906    554.54906    554.54906    554.54906    12.585786    12.585786    12.585786   -45.295438 
    1490   -45.296309    4.6978168   -1.8973168    4.6978168   -1.8973168    4.6978168            0            0            0    580.05062    580.05062    580.05062    580.05062    61.005167    61.005167    61.005167   -45.296309 
    1500   -45.297308     4.709288    -1.908788     4.709288    -1.908788     4.709288            0            0            0    465.86326    465.86326    465.86326    465.86326   -29.940316   -29.940316   -29.940316   -45.297308 
    1510   -45.298308    4.7215952   -1.9210952    4.7215952   -1.9210952    4.7215952            0            0            0    469.40038    469.40038    469.40038    469.40038   -2.6885768   -2.6885768   -2.6885768   -45.298308 
    1520   -45.299137    4.7324348   -1.9319348    4.7324348   -1.9319348    4.7324348            0            0            0    450.00196    450.00196    450.00196    450.00196   -2.1297046   -2.1297046   -2.1297046   -45.299137 
    1530   -45.299873    4.7424009   -1.9419009    4.7424009   -1.9419009    4.7424009            0            0            0     438.7216     438.7216     438.7216     438.7216    4.1867482    4.1867482    4.1867482   -45.299873 
    1540   -45.300582    4.7529565   -1.9524565    4.7529565   -1.9524565    4.7529565            0            0            0    465.13728    465.13728    465.13728    465.13728    48.484253    48.484253    48.484253   -45.300582 
    1550   -45.301203    4.7613137   -1.9608137    4.7613137   -1.9608137    4.7613137            0            0            0    391.21868    391.21868    391.21868    391.21868   -11.741813   -11.741813   -11.741813   -45.301203 
    1560   -45.301896    4.7720416   -1.9715416    4.7720416   -1.9715416    4.7720416            0            0            0    425.93608    425.93608    425.93608    425.93608    39.803061    39.803061    39.803061   -45.301896 
    1570   -45.302486    4.7808616   -1.9803616    4.7808616   -1.9803616    4.7808616            0            0            0     384.9354     384.9354     384.9354     384.9354    12.173223    12.173223    12.173223   -45.302486 
    1580   -45.303209    4.7924669   -1.9919669    4.7924669   -1.9919669    4.7924669            0            0            0    333.17152    333.17152    333.17152    333.17152   -22.717789   -22.717789   -22.717789   -45.303209 
    1590   -45.303756      4.80176     -2.00126      4.80176     -2.00126      4.80176            0            0            0    313.86654    313.86654    313.86654    313.86654   -29.083509   -29.083509   -29.083509   -45.303756 
    1600    -45.30437    4.8120517   -2.0115517    4.8120517   -2.0115517    4.8120517            0            0            0    306.99714    306.99714    306.99714    306.99714   -22.151426   -22.151426   -22.151426    -45.30437 
    1610    -45.30491    4.8214516   -2.0209516    4.8214516   -2.0209516    4.8214516            0            0            0    316.28399    316.28399    316.28399    316.28399  -0.76814113  -0.76814113  -0.76814113    -45.30491 
    1620   -45.305413    4.8306549   -2.0301549    4.8306549   -2.0301549    4.8306549            0            0            0    305.31061    305.31061    305.31061    305.31061  -0.30968506  -0.30968506  -0.30968506   -45.305413 
    1630   -45.305933    4.8408885   -2.0403885    4.8408885   -2.0403885    4.8408885            0            0            0    266.10849    266.10849    266.10849    266.10849   -27.270595   -27.270595   -27.270595   -45.305933 
    1640   -45.306379    4.8492174   -2.0487174    4.8492174   -2.0487174    4.8492174            0            0            0     293.1677     293.1677     293.1677     293.1677    9.3682965    9.3682965    9.3682965   -45.306379 
    1650   -45.306686    4.8555358   -2.0550358    4.8555358   -2.0550358    4.8555358            0            0            0    255.16033    255.16033    255.16033    255.16033   -21.549323   -21.549323   -21.549323   -45.306686 
    1660   -45.307078    4.8633452   -2.0628452    4.8633452   -2.0628452    4.8633452            0            0            0     273.3759     273.3759     273.3759     273.3759    5.1462755    5.1462755    5.1462755   -45.307078 
    1670   -45.307355    4.8693369   -2.0688369    4.8693369   -2.0688369    4.8693369            0            0            0      241.593      241.593      241.593      241.593   -20.272399   -20.272399   -20.272399   -45.307355 
    1680   -45.307719     4.877376    -2.076876     4.877376    -2.076876     4.877376            0            0            0     229.7525     229.7525     229.7525     229.7525   -23.842529   -23.842529   -23.842529   -45.307719 
    1690   -45.307948    4.8820486   -2.0815486    4.8820486   -2.0815486    4.8820486            0            0            0     258.2599     258.2599     258.2599     258.2599    9.3443279    9.3443279    9.3443279   -45.307948 
    1700   -45.308351    4.8914897   -2.0909897    4.8914897   -2.0909897    4.8914897            0            0            0     268.4371     268.4371     268.4371     268.4371    28.736794    28.736794    28.736794   -45.308351 
    1710   -45.308781    4.9010581   -2.1005581    4.9010581   -2.1005581    4.9010581            0            0            0    225.30537    225.30537    225.30537    225.30537   -5.3942619   -5.3942619   -5.3942619   -45.308781 
    1720   -45.309047    4.9074622   -2.1069622    4.9074622   -2.1069622    4.9074622            0            0            0    212.45837    212.45837    212.45837    212.45837   -12.407476   -12.407476   -12.407476   -45.309047 
    1730   -45.309327    4.9144196   -2.1139196    4.9144196   -2.1139196    4.9144196            0            0            0    200.10691    200.10691    200.10691    200.10691   -18.590731   -18.590731   -18.590731   -45.309327 
    1740   -45.309626     4.921764    -2.121264     4.921764    -2.121264     4.921764            0            0            0    220.41754    220.41754    220.41754    220.41754    8.0300215    8.0300215    8.0300215   -45.309626 
    1750    -45.30996    4.9316332   -2.1311332    4.9316332   -2.1311332    4.9316332            0            0            0    247.61254    247.61254    247.61254    247.61254    43.437374    43.437374    43.437374    -45.30996 
    1760   -45.310354    4.9408356   -2.1403356    4.9408356   -2.1403356    4.9408356            0            0            0    203.83663    203.83663    203.83663    203.83663    6.9506864    6.9506864    6.9506864   -45.310354 
    1770   -45.310493    4.9448657   -2.1443657    4.9448657   -2.1443657    4.9448657            0            0            0    174.42484    174.42484    174.42484    174.42484   -19.365828   -19.365828   -19.365828   -45.310493 
    1780   -45.310768    4.9523667   -2.1518667    4.9523667   -2.1518667    4.9523667            0            0            0    198.79562    198.79562    198.79562    198.79562    10.604637    10.604637    10.604637   -45.310768 
    1790   -45.310962     4.958155    -2.157655     4.958155    -2.157655     4.958155            0            0            0    163.94031    163.94031    163.94031    163.94031   -20.028325   -20.028325   -20.028325   -45.310962 
    1800     -45.3112    4.9646439   -2.1641439    4.9646439   -2.1641439    4.9646439            0            0            0    184.03558    184.03558    184.03558    184.03558    4.6738005    4.6738005    4.6738005     -45.3112 
    1810   -45.311366    4.9695619   -2.1690619    4.9695619   -2.1690619    4.9695619            0            0            0    182.44816    182.44816    182.44816    182.44816    6.5065814    6.5065814    6.5065814   -45.311366 
    1820   -45.311622     4.977262    -2.176762     4.977262    -2.176762     4.977262            0            0            0    170.19301    170.19301    170.19301    170.19301  -0.51873244  -0.51873244  -0.51873244   -45.311622 
    1830   -45.311815    4.9833912   -2.1828912    4.9833912   -2.1828912    4.9833912            0            0            0    177.04892    177.04892    177.04892    177.04892    10.380803    10.380803    10.380803   -45.311815 
    1840   -45.312074    4.9914438   -2.1909438    4.9914438   -2.1909438    4.9914438            0            0            0    155.96925    155.96925    155.96925    155.96925   -5.5298691   -5.5298691   -5.5298691   -45.312074 
    1850   -45.312252    4.9977331   -2.1972331    4.9977331   -2.1972331    4.9977331            0            0            0    180.50064    180.50064    180.50064    180.50064    22.917316    22.917316    22.917316   -45.312252 
    1860   -45.312475    5.0047662   -2.2042662    5.0047662   -2.2042662    5.0047662            0            0            0    137.61352    137.61352    137.61352    137.61352   -15.684348   -15.684348   -15.684348   -45.312475 
    1870   -45.312585    5.0088763   -2.2083763    5.0088763   -2.2083763    5.0088763            0            0            0     130.2859     130.2859     130.2859     130.2859   -20.572919   -20.572919   -20.572919   -45.312585 
    1880   -45.312787    5.0156022   -2.2151022    5.0156022   -2.2151022    5.0156022            0            0            0    128.88796    128.88796    128.88796    128.88796   -18.052425   -18.052425   -18.052425   -45.312787 
    1890   -45.312931    5.0203155   -2.2198155    5.0203155   -2.2198155    5.0203155            0            0            0    149.86583    149.86583    149.86583    149.86583    5.5996636    5.5996636    5.5996636   -45.312931 
    1900   -45.313063    5.0250479   -2.2245479    5.0250479   -2.2245479    5.0250479            0            0            0    149.69485    149.69485    149.69485    149.69485     8.073424     8.073424     8.073424   -45.313063 
    1910   -45.313133    5.0275406   -2.2270406    5.0275406   -2.2270406    5.0275406            0            0            0    132.40529    132.40529    132.40529    132.40529   -7.8343482   -7.8343482   -7.8343482   -45.313133 
    1920     -45.3132    5.0301201   -2.2296201    5.0301201   -2.2296201    5.0301201            0            0            0    123.68893    123.68893    123.68893    123.68893   -15.140168   -15.140168   -15.140168     -45.3132 
    1930   -45.313271    5.0326916   -2.2321916    5.0326916   -2.2321916    5.0326916            0            0            0    147.32147    147.32147    147.32147    147.32147    9.8718724    9.8718724    9.8718724   -45.313271 
    1940   -45.313361    5.0361672   -2.2356672    5.0361672   -2.2356672    5.0361672            0            0            0     146.8966     146.8966     146.8966     146.8966    11.306303    11.306303    11.306303   -45.313361 
    1950    -45.31343    5.0384732   -2.2379732    5.0384732   -2.2379732    5.0384732            0            0            0    138.15493    138.15493    138.15493    138.15493    3.7785996    3.7785996    3.7785996    -45.31343 
    1960    -45.31349    5.0407313   -2.2402313    5.0407313   -2.2402313    5.0407313            0            0            0     126.1745     126.1745     126.1745     126.1745    -7.014221    -7.014221    -7.014221    -45.31349 
    1970   -45.313547    5.0429442   -2.2424442    5.0429442   -2.2424442    5.0429442            0            0            0    122.30863    122.30863    122.30863    122.30863   -9.7308301   -9.7308301   -9.7308301   -45.313547 
    1980   -45.313669    5.0476998   -2.2471998    5.0476998   -2.2471998    5.0476998            0            0            0    117.14561    117.14561    117.14561    117.14561   -12.459253   -12.459253   -12.459253   -45.313669 
    1990   -45.313754    5.0508878   -2.2503878    5.0508878   -2.2503878    5.0508878            0            0            0    121.85441    121.85441    121.85441    121.85441   -6.1471704   -6.1471704   -6.1471704   -45.313754 
    2000   -45.313824    5.0539658   -2.2534658    5.0539658   -2.2534658    5.0539658            0            0            0     138.0833     138.0833     138.0833     138.0833    11.611808    11.611808    11.611808   -45.313824 
    2010   -45.313959    5.0592681   -2.2587681    5.0592681   -2.2587681    5.0592681            0            0            0     108.4757     108.4757     108.4757     108.4757   -15.394109   -15.394109   -15.394109   -45.313959 
    2020    -45.31402    5.0615761   -2.2610761    5.0615761   -2.2610761    5.0615761            0            0            0    131.22397    131.22397    131.22397    131.22397    8.4582405    8.4582405    8.4582405    -45.31402 
    2030   -45.314175    5.0680361   -2.2675361    5.0680361   -2.2675361    5.0680361            0            0            0    129.62681    129.62681    129.62681    129.62681    9.9271046    9.9271046    9.9271046   -45.314175 
    2040   -45.314277    5.0723011   -2.2718011    5.0723011   -2.2718011    5.0723011            0            0            0    127.57315    127.57315    127.57315    127.57315    9.8540448    9.8540448    9.8540448   -45.314277 
    2050   -45.314395    5.0771001   -2.2766001    5.0771001   -2.2766001    5.0771001            0            0            0    114.60851    114.60851    114.60851    114.60851  -0.91883044  -0.91883044  -0.91883044   -45.314395 
    2060   -45.314448    5.0796906   -2.2791906    5.0796906   -2.2791906    5.0796906            0            0            0    124.87626    124.87626    124.87626    124.87626    10.514791    10.514791    10.514791   -45.314448 
    2070   -45.314501    5.0817092   -2.2812092    5.0817092   -2.2812092    5.0817092            0            0            0    118.82467    118.82467    118.82467    118.82467    5.3599878    5.3599878    5.3599878   -45.314501 
    2080   -45.314524    5.0826841   -2.2821841    5.0826841   -2.2821841    5.0826841            0            0            0     107.3741     107.3741     107.3741     107.3741   -5.6534346   -5.6534346   -5.6534346   -45.314524 
    2090    -45.31457    5.0847309   -2.2842309    5.0847309   -2.2842309    5.0847309            0            0            0    106.18268    106.18268    106.18268    106.18268   -5.9428195   -5.9428195   -5.9428195    -45.31457 
    2100   -45.314631    5.0875153   -2.2870153    5.0875153   -2.2870153    5.0875153            0            0            0    119.69409    119.69409    119.69409    119.69409    8.7786154    8.7786154    8.7786154   -45.314631 
    2110   -45.314758    5.0931372   -2.2926372    5.0931372   -2.2926372    5.0931372            0            0            0    115.46623    115.46623    115.46623    115.46623    6.9648267    6.9648267    6.9648267   -45.314758 
    2120   -45.314819    5.0958466   -2.2953466    5.0958466   -2.2953466    5.0958466            0            0            0    110.50371    110.50371    110.50371    110.50371    3.1480818    3.1480818    3.1480818   -45.314819 
    2130   -45.314842    5.0971262   -2.2966262    5.0971262   -2.2966262    5.0971262            0            0            0    116.61933    116.61933    116.61933    116.61933    9.8013621    9.8013621    9.8013621   -45.314842 
    2140    -45.31502    5.1055568   -2.3050568    5.1055568   -2.3050568    5.1055568            0            0            0    114.73238    114.73238    114.73238    114.73238     11.38405     11.38405     11.38405    -45.31502 
    2150   -45.315037    5.1059743   -2.3054743    5.1059743   -2.3054743    5.1059743            0            0            0    98.799125    98.799125    98.799125    98.799125   -4.3795644   -4.3795644   -4.3795644   -45.315037 
    2160   -45.315134    5.1105887   -2.3100887    5.1105887   -2.3100887    5.1105887            0            0            0    94.960028    94.960028    94.960028    94.960028   -6.3701329   -6.3701329   -6.3701329   -45.315134 
    2170   -45.315141    5.1109213   -2.3104213    5.1109213   -2.3104213    5.1109213            0            0            0    106.37759    106.37759    106.37759    106.37759    5.1744543    5.1744543    5.1744543   -45.315141 
    2180   -45.315147    5.1112329   -2.3107329    5.1112329   -2.3107329    5.1112329            0            0            0    107.02183    107.02183    107.02183    107.02183    5.9419465    5.9419465    5.9419465   -45.315147 
    2190   -45.315153    5.1115345   -2.3110345    5.1115345   -2.3110345    5.1115345            0            0            0    92.546248    92.546248    92.546248    92.546248   -8.4084533   -8.4084533   -8.4084533   -45.315153 
    2200   -45.315184    5.1131511   -2.3126511    5.1131511   -2.3126511    5.1131511            0            0            0    109.89873    109.89873    109.89873    109.89873    9.5761347    9.5761347    9.5761347   -45.315184 
    2210   -45.315276    5.1174603   -2.3169603    5.1174603   -2.3169603    5.1174603            0            0            0    91.508468    91.508468    91.508468    91.508468   -7.1308001   -7.1308001   -7.1308001   -45.315276 
    2220   -45.315324    5.1198053   -2.3193053    5.1198053   -2.3193053    5.1198053            0            0            0    103.22818    103.22818    103.22818    103.22818     5.485631     5.485631     5.485631   -45.315324 
    2230   -45.315331    5.1202492   -2.3197492    5.1202492   -2.3197492    5.1202492            0            0            0    87.029582    87.029582    87.029582    87.029582    -10.53682    -10.53682    -10.53682   -45.315331 
    2240    -45.31539    5.1231206   -2.3226206    5.1231206   -2.3226206    5.1231206            0            0            0    102.93021    102.93021    102.93021    102.93021    6.4485523    6.4485523    6.4485523    -45.31539 
    2250   -45.315395    5.1233564   -2.3228564    5.1233564   -2.3228564    5.1233564            0            0            0    100.41028    100.41028    100.41028    100.41028     4.018264     4.018264     4.018264   -45.315395 
    2260   -45.315408    5.1240357   -2.3235357    5.1240357   -2.3235357    5.1240357            0            0            0    88.488202    88.488202    88.488202    88.488202   -7.6428053   -7.6428053   -7.6428053   -45.315408 
    2270   -45.315488    5.1280464   -2.3275464    5.1280464   -2.3275464    5.1280464            0            0            0    100.11234    100.11234    100.11234    100.11234    5.4747168    5.4747168    5.4747168   -45.315488 
    2280   -45.315493    5.1283229   -2.3278229    5.1283229   -2.3278229    5.1283229            0            0            0    101.44216    101.44216    101.44216    101.44216    6.9067782    6.9067782    6.9067782   -45.315493 
    2290   -45.315541    5.1307247   -2.3302247    5.1307247   -2.3302247    5.1307247            0            0            0    87.758069    87.758069    87.758069    87.758069   -5.8873482   -5.8873482   -5.8873482   -45.315541 
    2300   -45.315545    5.1309867   -2.3304867    5.1309867   -2.3304867    5.1309867            0            0            0    100.23357    100.23357    100.23357    100.23357    6.6796422    6.6796422    6.6796422   -45.315545 
    2310   -45.315552    5.1313421   -2.3308421    5.1313421   -2.3308421    5.1313421            0            0            0    100.10819    100.10819    100.10819    100.10819    6.6844336    6.6844336    6.6844336   -45.315552 
    2320   -45.315557    5.1316054   -2.3311054    5.1316054   -2.3311054    5.1316054            0            0            0    99.285397    99.285397    99.285397    99.285397    5.9580737    5.9580737    5.9580737   -45.315557 
    2330   -45.315562    5.1318314   -2.3313314    5.1318314   -2.3313314    5.1318314            0            0            0    97.149191    97.149191    97.149191    97.149191    3.9050063    3.9050063    3.9050063   -45.315562 
    2340   -45.315568    5.1321345   -2.3316345    5.1321345   -2.3316345    5.1321345            0            0            0    97.062437    97.062437    97.062437    97.062437     3.928912     3.928912     3.928912   -45.315568 
    2350   -45.315573    5.1323609   -2.3318609    5.1323609   -2.3318609    5.1323609            0            0            0    96.924148    96.924148    96.924148    96.924148    3.8731907    3.8731907    3.8731907   -45.315573 
    2360   -45.315577    5.1326062   -2.3321062    5.1326062   -2.3321062    5.1326062            0            0            0    98.081807    98.081807    98.081807    98.081807    5.1199091    5.1199091    5.1199091   -45.315577 
    2370   -45.315583    5.1329214   -2.3324214    5.1329214   -2.3324214    5.1329214            0            0            0     86.63001     86.63001     86.63001     86.63001   -6.2127423   -6.2127423   -6.2127423   -45.315583 
    2380   -45.315588     5.133163    -2.332663     5.133163    -2.332663     5.133163            0            0            0    85.763984    85.763984    85.763984    85.763984   -6.9906055   -6.9906055   -6.9906055   -45.315588 
    2390   -45.315592    5.1333706   -2.3328706    5.1333706   -2.3328706    5.1333706            0            0            0    98.235877    98.235877    98.235877    98.235877    5.5518794    5.5518794    5.5518794   -45.315592 
    2400   -45.315597     5.133647    -2.333147     5.133647    -2.333147     5.133647            0            0            0    99.213874    99.213874    99.213874    99.213874    6.6300192    6.6300192    6.6300192   -45.315597 
    2410   -45.315602     5.133902    -2.333402     5.133902    -2.333402     5.133902            0            0            0    98.166653    98.166653    98.166653    98.166653    5.6753983    5.6753983    5.6753983   -45.315602 
    2420   -45.315607    5.1341274   -2.3336274    5.1341274   -2.3336274    5.1341274            0            0            0    97.603839    97.603839    97.603839    97.603839    5.1943316    5.1943316    5.1943316   -45.315607 
    2430   -45.315613    5.1344292   -2.3339292    5.1344292   -2.3339292    5.1344292            0            0            0    96.580977    96.580977    96.580977    96.580977    4.2809349    4.2809349    4.2809349   -45.315613 
    2440   -45.315617    5.1346486   -2.3341486    5.1346486   -2.3341486    5.1346486            0            0            0    97.294343    97.294343    97.294343    97.294343    5.0734011    5.0734011    5.0734011   -45.315617 
    2450   -45.315621    5.1348758   -2.3343758    5.1348758   -2.3343758    5.1348758            0            0            0    97.323167    97.323167    97.323167    97.323167    5.1842496    5.1842496    5.1842496   -45.315621 
    2460   -45.315626    5.1351602   -2.3346602    5.1351602   -2.3346602    5.1351602            0            0            0     97.14878     97.14878     97.14878     97.14878    5.1125205    5.1125205    5.1125205   -45.315626 
    2470   -45.315631    5.1354062   -2.3349062    5.1354062   -2.3349062    5.1354062            0            0            0    96.918113    96.918113    96.918113    96.918113    4.9705356    4.9705356    4.9705356   -45.315631 
    2480   -45.315636    5.1356496   -2.3351496    5.1356496   -2.3351496    5.1356496            0            0            0    97.046671    97.046671    97.046671    97.046671    5.1866998    5.1866998    5.1866998   -45.315636 
    2490   -45.315641    5.1359237   -2.3354237    5.1359237   -2.3354237    5.1359237            0            0            0    96.872632    96.872632    96.872632    96.872632    5.1112917    5.1112917    5.1112917   -45.315641 
    2500   -45.315646     5.136154    -2.335654     5.136154    -2.335654     5.136154            0            0            0    85.633264    85.633264    85.633264    85.633264   -6.0410401   -6.0410401   -6.0410401   -45.315646 
    2510    -45.31565    5.1363967   -2.3358967    5.1363967   -2.3358967    5.1363967            0            0            0    95.463865    95.463865    95.463865    95.463865    3.8727666    3.8727666    3.8727666    -45.31565 
    2520   -45.315661    5.1369274   -2.3364274    5.1369274   -2.3364274    5.1369274            0            0            0    95.247434    95.247434    95.247434    95.247434    3.8466157    3.8466157    3.8466157   -45.315661 
    2530   -45.315716    5.1398311   -2.3393311    5.1398311   -2.3393311    5.1398311            0            0            0     85.68611     85.68611     85.68611     85.68611   -4.6772803   -4.6772803   -4.6772803   -45.315716 
    2540    -45.31572    5.1400658   -2.3395658    5.1400658   -2.3395658    5.1400658            0            0            0    84.569915    84.569915    84.569915    84.569915   -5.7099819   -5.7099819   -5.7099819    -45.31572 
    2550   -45.315724      5.14029     -2.33979      5.14029     -2.33979      5.14029            0            0            0    84.152687    84.152687    84.152687    84.152687   -6.0477889   -6.0477889   -6.0477889   -45.315724 
    2560   -45.315729    5.1405314   -2.3400314    5.1405314   -2.3400314    5.1405314            0            0            0    84.136899    84.136899    84.136899    84.136899   -5.9783204   -5.9783204   -5.9783204   -45.315729 
    2570   -45.315734    5.1408054   -2.3403054    5.1408054   -2.3403054    5.1408054            0            0            0    95.213939    95.213939    95.213939    95.213939    5.1912207    5.1912207    5.1912207   -45.315734 
    2580   -45.315739    5.1410613   -2.3405613    5.1410613   -2.3405613    5.1410613            0            0            0    95.135456    95.135456    95.135456    95.135456    5.2029821    5.2029821    5.2029821   -45.315739 
    2590   -45.315743    5.1412818   -2.3407818    5.1412818   -2.3407818    5.1412818            0            0            0    93.593409    93.593409    93.593409    93.593409    3.7389938    3.7389938    3.7389938   -45.315743 
    2600   -45.315747    5.1415095   -2.3410095    5.1415095   -2.3410095    5.1415095            0            0            0    93.592303    93.592303    93.592303    93.592303    3.8179854    3.8179854    3.8179854   -45.315747 
    2610   -45.315791    5.1438296   -2.3433296    5.1438296   -2.3433296    5.1438296            0            0            0    84.307988    84.307988    84.307988    84.307988   -4.6504617   -4.6504617   -4.6504617   -45.315791 
    2620   -45.315794    5.1440151   -2.3435151    5.1440151   -2.3435151    5.1440151            0            0            0    83.833772    83.833772    83.833772    83.833772   -5.0598929   -5.0598929   -5.0598929   -45.315794 
    2630     -45.3158    5.1443311   -2.3438311    5.1443311   -2.3438311    5.1443311            0            0            0    83.123016    83.123016    83.123016    83.123016   -5.6603671   -5.6603671   -5.6603671     -45.3158 
    2640   -45.315804    5.1445433   -2.3440433    5.1445433   -2.3440433    5.1445433            0            0            0    82.955409    82.955409    82.955409    82.955409   -5.7541336   -5.7541336   -5.7541336   -45.315804 
    2650   -45.315809    5.1448086   -2.3443086    5.1448086   -2.3443086    5.1448086            0            0            0    82.529383    82.529383    82.529383    82.529383   -6.0878176   -6.0878176   -6.0878176   -45.315809 
    2660   -45.315854    5.1472368   -2.3467368    5.1472368   -2.3467368    5.1472368            0            0            0    82.730033    82.730033    82.730033    82.730033   -5.0482094   -5.0482094   -5.0482094   -45.315854 
    2670   -45.315857    5.1474373   -2.3469373    5.1474373   -2.3469373    5.1474373            0            0            0    93.051475    93.051475    93.051475    93.051475    5.3384065    5.3384065    5.3384065   -45.315857 
    2680   -45.315861    5.1476419   -2.3471419    5.1476419   -2.3471419    5.1476419            0            0            0    92.675432    92.675432    92.675432    92.675432    5.0327401    5.0327401    5.0327401   -45.315861 
    2690   -45.315865    5.1478329   -2.3473329    5.1478329   -2.3473329    5.1478329            0            0            0    92.375192    92.375192    92.375192    92.375192    4.7981525    4.7981525    4.7981525   -45.315865 
    2700   -45.315869    5.1480232   -2.3475232    5.1480232   -2.3475232    5.1480232            0            0            0    83.200756    83.200756    83.200756    83.200756   -4.3076659   -4.3076659   -4.3076659   -45.315869 
    2710   -45.315872    5.1482262   -2.3477262    5.1482262   -2.3477262    5.1482262            0            0            0    92.275265    92.275265    92.275265    92.275265    4.8331076    4.8331076    4.8331076   -45.315872 
    2720   -45.315876    5.1484159   -2.3479159    5.1484159   -2.3479159    5.1484159            0            0            0    92.205345    92.205345    92.205345    92.205345    4.8281882    4.8281882    4.8281882   -45.315876 
    2730   -45.315879    5.1486192   -2.3481192    5.1486192   -2.3481192    5.1486192            0            0            0    92.830369    92.830369    92.830369    92.830369    5.5226547    5.5226547    5.5226547   -45.315879 
    2740   -45.315883    5.1488344   -2.3483344    5.1488344   -2.3483344    5.1488344            0            0            0    91.513595    91.513595    91.513595    91.513595    4.2797861    4.2797861    4.2797861   -45.315883 
    2750   -45.315887    5.1490169   -2.3485169    5.1490169   -2.3485169    5.1490169            0            0            0    91.450405    91.450405    91.450405    91.450405    4.2789901    4.2789901    4.2789901   -45.315887 
    2760   -45.315891    5.1492718   -2.3487718    5.1492718   -2.3487718    5.1492718            0            0            0    92.870002    92.870002    92.870002    92.870002    5.7852623    5.7852623    5.7852623   -45.315891 
    2770   -45.315896    5.1495115   -2.3490115    5.1495115   -2.3490115    5.1495115            0            0            0    82.378953    82.378953    82.378953    82.378953   -4.6203196   -4.6203196   -4.6203196   -45.315896 
    2780     -45.3159    5.1497122   -2.3492122    5.1497122   -2.3492122    5.1497122            0            0            0    82.098799    82.098799    82.098799    82.098799   -4.8319874   -4.8319874   -4.8319874     -45.3159 
    2790   -45.315903    5.1499081   -2.3494081    5.1499081   -2.3494081    5.1499081            0            0            0    82.353831    82.353831    82.353831    82.353831   -4.5103399   -4.5103399   -4.5103399   -45.315903 
    2800   -45.315906    5.1500831   -2.3495831    5.1500831   -2.3495831    5.1500831            0            0            0    81.910191    81.910191    81.910191    81.910191   -4.8942599   -4.8942599   -4.8942599   -45.315906 
    2810    -45.31591    5.1503111   -2.3498111    5.1503111   -2.3498111    5.1503111            0            0            0    81.301404    81.301404    81.301404    81.301404    -5.425316    -5.425316    -5.425316    -45.31591 
    2820   -45.315914    5.1504904   -2.3499904    5.1504904   -2.3499904    5.1504904            0            0            0    81.165257    81.165257    81.165257    81.165257   -5.5004936   -5.5004936   -5.5004936   -45.315914 
    2830   -45.315917    5.1506765   -2.3501765    5.1506765   -2.3501765    5.1506765            0            0            0    81.396468    81.396468    81.396468    81.396468    -5.206186    -5.206186    -5.206186   -45.315917 
    2840    -45.31592    5.1508491   -2.3503491    5.1508491   -2.3503491    5.1508491            0            0            0    90.968043    90.968043    90.968043    90.968043    4.4203788    4.4203788    4.4203788    -45.31592 
    2850   -45.315923    5.1510288   -2.3505288    5.1510288   -2.3505288    5.1510288            0            0            0    90.954998    90.954998    90.954998    90.954998    4.4682592    4.4682592    4.4682592   -45.315923 
    2860   -45.315927    5.1512288   -2.3507288    5.1512288   -2.3507288    5.1512288            0            0            0     91.51007     91.51007     91.51007     91.51007    5.0909673    5.0909673    5.0909673   -45.315927 
    2870    -45.31593    5.1514105   -2.3509105    5.1514105   -2.3509105    5.1514105            0            0            0    91.111054    91.111054    91.111054    91.111054    4.7535738    4.7535738    4.7535738    -45.31593 
    2880   -45.315934    5.1515913   -2.3510913    5.1515913   -2.3510913    5.1515913            0            0            0    82.055458    82.055458    82.055458    82.055458   -4.2375879   -4.2375879   -4.2375879   -45.315934 
    2890   -45.315937    5.1517777   -2.3512777    5.1517777   -2.3512777    5.1517777            0            0            0    90.949426    90.949426    90.949426    90.949426    4.7161535    4.7161535    4.7161535   -45.315937 
    2900    -45.31594    5.1519602   -2.3514602    5.1519602   -2.3514602    5.1519602            0            0            0    90.889529    90.889529    90.889529    90.889529    4.7179101    4.7179101    4.7179101    -45.31594 
    2910   -45.315943    5.1521431   -2.3516431    5.1521431   -2.3516431    5.1521431            0            0            0    91.411351    91.411351    91.411351    91.411351    5.3013757    5.3013757    5.3013757   -45.315943 
    2920   -45.315947    5.1523426   -2.3518426    5.1523426   -2.3518426    5.1523426            0            0            0    90.315657    90.315657    90.315657    90.315657    4.2732292    4.2732292    4.2732292   -45.315947 
    2930   -45.315951    5.1525159   -2.3520159    5.1525159   -2.3520159    5.1525159            0            0            0    90.111131    90.111131    90.111131    90.111131    4.1271915    4.1271915    4.1271915   -45.315951 
    2940   -45.315953    5.1526674   -2.3521674    5.1526674   -2.3521674    5.1526674            0            0            0    81.433021    81.433021    81.433021    81.433021   -4.4966967   -4.4966967   -4.4966967   -45.315953 
    2950   -45.315956    5.1528341   -2.3523341    5.1528341   -2.3523341    5.1528341            0            0            0    81.382952    81.382952    81.382952    81.382952   -4.4906189   -4.4906189   -4.4906189   -45.315956 
    2960   -45.315959    5.1529994   -2.3524994    5.1529994   -2.3524994    5.1529994            0            0            0    90.557282    90.557282    90.557282    90.557282    4.7360156    4.7360156    4.7360156   -45.315959 
    2970   -45.315963    5.1531801   -2.3526801    5.1531801   -2.3526801    5.1531801            0            0            0    81.538471    81.538471    81.538471    81.538471   -4.2188008   -4.2188008   -4.2188008   -45.315963 
    2980   -45.315966    5.1533654   -2.3528654    5.1533654   -2.3528654    5.1533654            0            0            0    89.945648    89.945648    89.945648    89.945648    4.2475436    4.2475436    4.2475436   -45.315966 
    2990   -45.315969    5.1535478   -2.3530478    5.1535478   -2.3530478    5.1535478            0            0            0    80.597166    80.597166    80.597166    80.597166   -5.0362702   -5.0362702   -5.0362702   -45.315969 
    3000   -45.315972    5.1537178   -2.3532178    5.1537178   -2.3532178    5.1537178            0            0            0    89.338239    89.338239    89.338239    89.338239    3.7585662    3.7585662    3.7585662   -45.315972 
    3010   -45.315975     5.153878    -2.353378     5.153878    -2.353378     5.153878            0            0            0    89.761455    89.761455    89.761455    89.761455    4.2353758    4.2353758    4.2353758   -45.315975 
    3020   -45.315978    5.1540601   -2.3535601    5.1540601   -2.3535601    5.1540601            0            0            0    80.419737    80.419737    80.419737    80.419737   -5.0418832   -5.0418832   -5.0418832   -45.315978 
    3030   -45.315982    5.1542296   -2.3537296    5.1542296   -2.3537296    5.1542296            0            0            0    89.156693    89.156693    89.156693    89.156693    3.7485586    3.7485586    3.7485586   -45.315982 
    3040   -45.315984    5.1543911   -2.3538911    5.1543911   -2.3538911    5.1543911            0            0            0    89.601248    89.601248    89.601248    89.601248    4.2470457    4.2470457    4.2470457   -45.315984 
    3050   -45.315988    5.1545784   -2.3540784    5.1545784   -2.3540784    5.1545784            0            0            0    80.190002    80.190002    80.190002    80.190002   -5.0981416   -5.0981416   -5.0981416   -45.315988 
    3060   -45.315991    5.1547531   -2.3542531    5.1547531   -2.3542531    5.1547531            0            0            0    88.950667    88.950667    88.950667    88.950667    3.7176235    3.7176235    3.7176235   -45.315991 
    3070   -45.315994    5.1549188   -2.3544188    5.1549188   -2.3544188    5.1549188            0            0            0    89.437854    89.437854    89.437854    89.437854    4.2600318    4.2600318    4.2600318   -45.315994 
    3080   -45.315997    5.1551065   -2.3546065    5.1551065   -2.3546065    5.1551065            0            0            0    80.021796    80.021796    80.021796    80.021796   -5.0899319   -5.0899319   -5.0899319   -45.315997 
    3090   -45.316001    5.1552808   -2.3547808    5.1552808   -2.3547808    5.1552808            0            0            0    88.766704    88.766704    88.766704    88.766704    3.7098105    3.7098105    3.7098105   -45.316001 
    3100   -45.316003     5.155446    -2.354946     5.155446    -2.354946     5.155446            0            0            0    89.251599    89.251599    89.251599    89.251599    4.2496542    4.2496542    4.2496542   -45.316003 
    3110   -45.316007    5.1556333   -2.3551333    5.1556333   -2.3551333    5.1556333            0            0            0    79.854644    79.854644    79.854644    79.854644   -5.0815202   -5.0815202   -5.0815202   -45.316007 
    3120    -45.31601     5.155807    -2.355307     5.155807    -2.355307     5.155807            0            0            0    88.583683    88.583683    88.583683    88.583683    3.7020842    3.7020842    3.7020842    -45.31601 
    3130   -45.316013    5.1559718   -2.3554718    5.1559718   -2.3554718    5.1559718            0            0            0    89.066167    89.066167    89.066167    89.066167    4.2392412    4.2392412    4.2392412   -45.316013 
    3140   -45.316016    5.1561585   -2.3556585    5.1561585   -2.3556585    5.1561585            0            0            0    79.688475    79.688475    79.688475    79.688475   -5.0729858   -5.0729858   -5.0729858   -45.316016 
    3150   -45.316019    5.1563317   -2.3558317    5.1563317   -2.3558317    5.1563317            0            0            0     88.40162     88.40162     88.40162     88.40162    3.6944543    3.6944543    3.6944543   -45.316019 
    3160   -45.316022     5.156496    -2.355996     5.156496    -2.355996     5.156496            0            0            0    88.881548    88.881548    88.881548    88.881548    4.2287776    4.2287776    4.2287776   -45.316022 
    3170   -45.316025    5.1566821   -2.3561821    5.1566821   -2.3561821    5.1566821            0            0            0    79.523337    79.523337    79.523337    79.523337   -5.0642887   -5.0642887   -5.0642887   -45.316025 
    3180   -45.316029    5.1568549   -2.3563549    5.1568549   -2.3563549    5.1568549            0            0            0    88.220537    88.220537    88.220537    88.220537    3.6869331    3.6869331    3.6869331   -45.316029 
    3190   -45.316031    5.1570186   -2.3565186    5.1570186   -2.3565186    5.1570186            0            0            0    88.697732    88.697732    88.697732    88.697732    4.2182418    4.2182418    4.2182418   -45.316031 
    3200   -45.316035    5.1572042   -2.3567042    5.1572042   -2.3567042    5.1572042            0            0            0    79.359297    79.359297    79.359297    79.359297   -5.0553727   -5.0553727   -5.0553727   -45.316035 
    3210   -45.316038    5.1573764   -2.3568764    5.1573764   -2.3568764    5.1573764            0            0            0    88.040463    88.040463    88.040463    88.040463    3.6795392    3.6795392    3.6795392   -45.316038 
    3220   -45.316041    5.1575396   -2.3570396    5.1575396   -2.3570396    5.1575396            0            0            0    88.514701    88.514701    88.514701    88.514701    4.2076018    4.2076018    4.2076018   -45.316041 
    3230   -45.316044    5.1577246   -2.3572246    5.1577246   -2.3572246    5.1577246            0            0            0    79.196457    79.196457    79.196457    79.196457   -5.0461524   -5.0461524   -5.0461524   -45.316044 
    3240   -45.316047    5.1578963   -2.3573963    5.1578963   -2.3573963    5.1578963            0            0            0    87.861447    87.861447    87.861447    87.861447    3.6723011    3.6723011    3.6723011   -45.316047 
    3250    -45.31605     5.158059    -2.357559     5.158059    -2.357559     5.158059            0            0            0    88.332422    88.332422    88.332422    88.332422    4.1968053    4.1968053    4.1968053    -45.31605 
    3260   -45.316053    5.1582433   -2.3577433    5.1582433   -2.3577433    5.1582433            0            0            0     79.03498     79.03498     79.03498     79.03498   -5.0364868   -5.0364868   -5.0364868   -45.316053 
    3270   -45.316056    5.1584144   -2.3579144    5.1584144   -2.3579144    5.1584144            0            0            0    87.683563    87.683563    87.683563    87.683563    3.6652693    3.6652693    3.6652693   -45.316056 
    3280   -45.316059    5.1585765   -2.3580765    5.1585765   -2.3580765    5.1585765            0            0            0     88.15083     88.15083     88.15083     88.15083    4.1857562    4.1857562    4.1857562   -45.316059 
    3290   -45.316062    5.1587602   -2.3582602    5.1587602   -2.3582602    5.1587602            0            0            0    78.875173    78.875173    78.875173    78.875173    -5.026106    -5.026106    -5.026106   -45.316062 
    3300   -45.316066    5.1589307   -2.3584307    5.1589307   -2.3584307    5.1589307            0            0            0    87.506958    87.506958    87.506958    87.506958    3.6585471    3.6585471    3.6585471   -45.316066 
    3310   -45.316068     5.159092    -2.358592     5.159092    -2.358592     5.159092            0            0            0     87.96976     87.96976     87.96976     87.96976    4.1742394    4.1742394    4.1742394   -45.316068 
    3320   -45.316072     5.159275    -2.358775     5.159275    -2.358775     5.159275            0            0            0    78.717763    78.717763    78.717763    78.717763   -5.0143485   -5.0143485   -5.0143485   -45.316072 
    3330   -45.316075    5.1594447   -2.3589447    5.1594447   -2.3589447    5.1594447            0            0            0    87.332001    87.332001    87.332001    87.332001    3.6524233    3.6524233    3.6524233   -45.316075 
    3340   -45.316077    5.1596053   -2.3591053    5.1596053   -2.3591053    5.1596053            0            0            0    87.788615    87.788615    87.788615    87.788615    4.1615465    4.1615465    4.1615465   -45.316077 
    3350   -45.316081    5.1597872   -2.3592872    5.1597872   -2.3592872    5.1597872            0            0            0    78.565731    78.565731    78.565731    78.565731   -4.9983954   -4.9983954   -4.9983954   -45.316081 
    3360   -45.316084    5.1599559   -2.3594559    5.1599559   -2.3594559    5.1599559            0            0            0    87.160703    87.160703    87.160703    87.160703    3.6486695    3.6486695    3.6486695   -45.316084 
    3370   -45.316086    5.1601147   -2.3596147    5.1601147   -2.3596147    5.1601147            0            0            0    87.599718    87.599718    87.599718    87.599718    4.1395271    4.1395271    4.1395271   -45.316086 
    3380    -45.31609     5.160293    -2.359793     5.160293    -2.359793     5.160293            0            0            0    78.427217    78.427217    78.427217    78.427217   -4.9713367   -4.9713367   -4.9713367    -45.31609 
    3390   -45.316093    5.1604585   -2.3599585    5.1604585   -2.3599585    5.1604585            0            0            0    86.974915    86.974915    86.974915    86.974915    3.6272809    3.6272809    3.6272809   -45.316093 
    3400   -45.316095    5.1606206   -2.3601206    5.1606206   -2.3601206    5.1606206            0            0            0    87.401636    87.401636    87.401636    87.401636    4.1068444    4.1068444    4.1068444   -45.316095 
    3410   -45.316099    5.1608016   -2.3603016    5.1608016   -2.3603016    5.1608016            0            0            0    78.250021    78.250021    78.250021    78.250021   -4.9823812   -4.9823812   -4.9823812   -45.316099 
[...]
    4220   -45.316327    5.1740556   -2.3735556    5.1740556   -2.3735556    5.1740556            0            0            0    82.887668    82.887668    82.887668    82.887668    3.8680195    3.8680195    3.8680195   -45.316327 
    4230    -45.31633    5.1742224   -2.3737224    5.1742224   -2.3737224    5.1742224            0            0            0    74.842281    74.842281    74.842281    74.842281   -4.1229524   -4.1229524   -4.1229524    -45.31633 
    4240   -45.316333    5.1743857   -2.3738857    5.1743857   -2.3738857    5.1743857            0            0            0    82.307418    82.307418    82.307418    82.307418     3.390145     3.390145     3.390145   -45.316333 
    4250   -45.316335    5.1745438   -2.3740438    5.1745438   -2.3740438    5.1745438            0            0            0    83.036165    83.036165    83.036165    83.036165    4.1676146    4.1676146    4.1676146   -45.316335 
    4260   -45.316338    5.1747237   -2.3742237    5.1747237   -2.3742237    5.1747237            0            0            0    73.998609    73.998609    73.998609    73.998609   -4.8112311   -4.8112311   -4.8112311   -45.316338 
    4270   -45.316341    5.1748852   -2.3743852    5.1748852   -2.3743852    5.1748852            0            0            0    82.188797    82.188797    82.188797    82.188797        3.426        3.426        3.426   -45.316341 
    4280   -45.316343     5.175038    -2.374538     5.175038    -2.374538     5.175038            0            0            0     82.60446     82.60446     82.60446     82.60446    3.8887166    3.8887166    3.8887166   -45.316343 
    4290   -45.316346    5.1752111   -2.3747111    5.1752111   -2.3747111    5.1752111            0            0            0    73.954132    73.954132    73.954132    73.954132   -4.7052012   -4.7052012   -4.7052012   -45.316346 
    4300   -45.316349    5.1753724   -2.3748724    5.1753724   -2.3748724    5.1753724            0            0            0    82.059587    82.059587    82.059587    82.059587    3.4471409    3.4471409    3.4471409   -45.316349 
    4310   -45.316352    5.1755235   -2.3750235    5.1755235   -2.3750235    5.1755235            0            0            0    82.397907    82.397907    82.397907    82.397907    3.8319503    3.8319503    3.8319503   -45.316352 
    4320   -45.316354    5.1756886   -2.3751886    5.1756886   -2.3751886    5.1756886            0            0            0    74.404604    74.404604    74.404604    74.404604   -4.1077619   -4.1077619   -4.1077619   -45.316354 
    4330   -45.316357    5.1758503   -2.3753503    5.1758503   -2.3753503    5.1758503            0            0            0    81.835399    81.835399    81.835399    81.835399    3.3702141    3.3702141    3.3702141   -45.316357 
    4340    -45.31636    5.1760067   -2.3755067    5.1760067   -2.3755067    5.1760067            0            0            0    82.555531    82.555531    82.555531    82.555531    4.1382652    4.1382652    4.1382652    -45.31636 
    4350   -45.316363    5.1761847   -2.3756847    5.1761847   -2.3756847    5.1761847            0            0            0    73.582056    73.582056    73.582056    73.582056    -4.777417    -4.777417    -4.777417   -45.316363 
    4360   -45.316365    5.1763447   -2.3758447    5.1763447   -2.3758447    5.1763447            0            0            0    81.721549    81.721549    81.721549    81.721549    3.4083786    3.4083786    3.4083786   -45.316365 
    4370   -45.316368    5.1764957   -2.3759957    5.1764957   -2.3759957    5.1764957            0            0            0    82.125849    82.125849    82.125849    82.125849     3.858951     3.858951     3.858951   -45.316368 
    4380   -45.316371    5.1766671   -2.3761671    5.1766671   -2.3761671    5.1766671            0            0            0    73.555401    73.555401    73.555401    73.555401   -4.6559896   -4.6559896   -4.6559896   -45.316371 
    4390   -45.316373    5.1768268   -2.3763268    5.1768268   -2.3763268    5.1768268            0            0            0    81.600605    81.600605    81.600605    81.600605    3.4353971    3.4353971    3.4353971   -45.316373 
    4400   -45.316376    5.1769761   -2.3764761    5.1769761   -2.3764761    5.1769761            0            0            0    81.911695    81.911695    81.911695    81.911695    3.7921601    3.7921601    3.7921601   -45.316376 
    4410   -45.316379    5.1771397   -2.3766397    5.1771397   -2.3766397    5.1771397            0            0            0    73.972358    73.972358    73.972358    73.972358    -4.094359    -4.094359    -4.094359   -45.316379 
    4420   -45.316381    5.1772998   -2.3767998    5.1772998   -2.3767998    5.1772998            0            0            0    81.368885    81.368885    81.368885    81.368885    3.3486259    3.3486259    3.3486259   -45.316381 
    4430   -45.316384    5.1774548   -2.3769548    5.1774548   -2.3769548    5.1774548            0            0            0    82.086678    82.086678    82.086678    82.086678     4.113624     4.113624     4.113624   -45.316384 
    4440   -45.316387    5.1776313   -2.3771313    5.1776313   -2.3771313    5.1776313            0            0            0    73.158457    73.158457    73.158457    73.158457   -4.7576009   -4.7576009   -4.7576009   -45.316387 
    4450    -45.31639    5.1777898   -2.3772898    5.1777898   -2.3772898    5.1777898            0            0            0    81.261251    81.261251    81.261251    81.261251    3.3908055    3.3908055    3.3908055    -45.31639 
    4460   -45.316392    5.1779393   -2.3774393    5.1779393   -2.3774393    5.1779393            0            0            0    81.650924    81.650924    81.650924    81.650924    3.8260073    3.8260073    3.8260073   -45.316392 
    4470   -45.316395    5.1781084   -2.3776084    5.1781084   -2.3776084    5.1781084            0            0            0    73.215242    73.215242    73.215242    73.215242   -4.5551874   -4.5551874   -4.5551874   -45.316395 
    4480   -45.316397    5.1782646   -2.3777646    5.1782646   -2.3777646    5.1782646            0            0            0    81.035042    81.035042    81.035042    81.035042    3.3095303    3.3095303    3.3095303   -45.316397 
    4490     -45.3164    5.1784183   -2.3779183    5.1784183   -2.3779183    5.1784183            0            0            0    81.775267    81.775267    81.775267    81.775267    4.0963885    4.0963885    4.0963885     -45.3164 
    4500   -45.316403    5.1785803   -2.3780803    5.1785803   -2.3780803    5.1785803            0            0            0    73.460879    73.460879    73.460879    73.460879   -4.1658698   -4.1658698   -4.1658698   -45.316403 
    4510   -45.316405    5.1787388   -2.3782388    5.1787388   -2.3782388    5.1787388            0            0            0    80.872588    80.872588    80.872588    80.872588     3.291546     3.291546     3.291546   -45.316405 
    4520   -45.316408     5.178894    -2.378394     5.178894    -2.378394     5.178894            0            0            0    81.676853    81.676853    81.676853    81.676853     4.142802     4.142802     4.142802   -45.316408 
    4530   -45.316411    5.1790713   -2.3785713    5.1790713   -2.3785713    5.1790713            0            0            0    72.604123    72.604123    72.604123    72.604123   -4.8729569   -4.8729569   -4.8729569   -45.316411 
    4540   -45.316413    5.1792288   -2.3787288    5.1792288   -2.3787288    5.1792288            0            0            0    80.908228    80.908228    80.908228    80.908228    3.4761147    3.4761147    3.4761147   -45.316413 
    4550   -45.316416    5.1793725   -2.3788725    5.1793725   -2.3788725    5.1793725            0            0            0    80.937536    80.937536    80.937536    80.937536    3.5490566    3.5490566    3.5490566   -45.316416 
    4560   -45.316418    5.1795355   -2.3790355    5.1795355   -2.3790355    5.1795355            0            0            0    73.245257    73.245257    73.245257    73.245257   -4.0911654   -4.0911654   -4.0911654   -45.316418 
    4570   -45.316421    5.1796936   -2.3791936    5.1796936   -2.3791936    5.1796936            0            0            0    80.591619    80.591619    80.591619    80.591619    3.3006195    3.3006195    3.3006195   -45.316421 
    4580   -45.316423    5.1798472   -2.3793472    5.1798472   -2.3793472    5.1798472            0            0            0    81.339744    81.339744    81.339744    81.339744     4.095113     4.095113     4.095113   -45.316423 
    4590   -45.316426    5.1800082   -2.3795082    5.1800082   -2.3795082    5.1800082            0            0            0    73.041054    73.041054    73.041054    73.041054   -4.1520345   -4.1520345   -4.1520345   -45.316426 
    4600   -45.316429    5.1801658   -2.3796658    5.1801658   -2.3796658    5.1801658            0            0            0    80.419237    80.419237    80.419237    80.419237    3.2713035    3.2713035    3.2713035   -45.316429 
    4610   -45.316431    5.1803199   -2.3798199    5.1803199   -2.3798199    5.1803199            0            0            0    81.218867    81.218867    81.218867    81.218867    4.1173404    4.1173404    4.1173404   -45.316431 
    4620   -45.316434     5.180496    -2.379996     5.180496    -2.379996     5.180496            0            0            0     72.19821     72.19821     72.19821     72.19821   -4.8470464   -4.8470464   -4.8470464   -45.316434 
    4630   -45.316437    5.1806523   -2.3801523    5.1806523   -2.3801523    5.1806523            0            0            0    80.460176    80.460176    80.460176    80.460176    3.4593168    3.4593168    3.4593168   -45.316437 
    4640   -45.316439    5.1807949   -2.3802949    5.1807949   -2.3802949    5.1807949            0            0            0    80.477246    80.477246    80.477246    80.477246    3.5194214    3.5194214    3.5194214   -45.316439 
    4650   -45.316442    5.1809566   -2.3804566    5.1809566   -2.3804566    5.1809566            0            0            0    72.825721    72.825721    72.825721    72.825721   -4.0807172   -4.0807172   -4.0807172   -45.316442 
    4660   -45.316445    5.1811135   -2.3806135    5.1811135   -2.3806135    5.1811135            0            0            0    80.139963    80.139963    80.139963    80.139963    3.2783548    3.2783548    3.2783548   -45.316445 
    4670   -45.316447    5.1812661   -2.3807661    5.1812661   -2.3807661    5.1812661            0            0            0    80.889387    80.889387    80.889387    80.889387    4.0735753    4.0735753    4.0735753   -45.316447 
    4680    -45.31645     5.181426    -2.380926     5.181426    -2.380926     5.181426            0            0            0    72.631335    72.631335    72.631335    72.631335   -4.1335747   -4.1335747   -4.1335747    -45.31645 
    4690   -45.316452    5.1815824   -2.3810824    5.1815824   -2.3810824    5.1815824            0            0            0    79.972778    79.972778    79.972778    79.972778    3.2524386    3.2524386    3.2524386   -45.316452 
    4700   -45.316455    5.1817353   -2.3812353    5.1817353   -2.3812353    5.1817353            0            0            0    80.765879    80.765879    80.765879    80.765879    4.0913359    4.0913359    4.0913359   -45.316455 
    4710   -45.316457    5.1819101   -2.3814101    5.1819101   -2.3814101    5.1819101            0            0            0    71.799021    71.799021    71.799021    71.799021   -4.8199678   -4.8199678   -4.8199678   -45.316457 
    4720    -45.31646    5.1820653   -2.3815653    5.1820653   -2.3815653    5.1820653            0            0            0    80.017464    80.017464    80.017464    80.017464    3.4422976    3.4422976    3.4422976    -45.31646 
    4730   -45.316462    5.1822066   -2.3817066    5.1822066   -2.3817066    5.1822066            0            0            0    80.023925    80.023925    80.023925    80.023925    3.4911934    3.4911934    3.4911934   -45.316462 
    4740   -45.316465     5.182367    -2.381867     5.182367    -2.381867     5.182367            0            0            0    72.415783    72.415783    72.415783    72.415783   -4.0662365   -4.0662365   -4.0662365   -45.316465 
    4750   -45.316468    5.1825228   -2.3820228    5.1825228   -2.3820228    5.1825228            0            0            0    79.695765    79.695765    79.695765    79.695765    3.2579862    3.2579862    3.2579862   -45.316468 
    4760    -45.31647    5.1826743   -2.3821743    5.1826743   -2.3821743    5.1826743            0            0            0    80.442712    80.442712    80.442712    80.442712    4.0501373    4.0501373    4.0501373    -45.31647 
    4770   -45.316473    5.1828329   -2.3823329    5.1828329   -2.3823329    5.1828329            0            0            0    72.227788    72.227788    72.227788    72.227788   -4.1145274   -4.1145274   -4.1145274   -45.316473 
    4780   -45.316475    5.1829882   -2.3824882    5.1829882   -2.3824882    5.1829882            0            0            0    79.532401    79.532401    79.532401    79.532401    3.2340711    3.2340711    3.2340711   -45.316475 
    4790   -45.316478    5.1831399   -2.3826399    5.1831399   -2.3826399    5.1831399            0            0            0    80.318507    80.318507    80.318507    80.318507    4.0653608    4.0653608    4.0653608   -45.316478 
    4800    -45.31648    5.1833133   -2.3828133    5.1833133   -2.3828133    5.1833133            0            0            0    71.405883    71.405883    71.405883    71.405883   -4.7924254   -4.7924254   -4.7924254    -45.31648 
    4810   -45.316483    5.1834674   -2.3829674    5.1834674   -2.3829674    5.1834674            0            0            0    79.580324    79.580324    79.580324    79.580324    3.4252629    3.4252629    3.4252629   -45.316483 
    4820   -45.316485    5.1836075   -2.3831075    5.1836075   -2.3831075    5.1836075            0            0            0     79.57716     79.57716     79.57716     79.57716    3.4639396    3.4639396    3.4639396   -45.316485 
    4830   -45.316488    5.1837666   -2.3832666    5.1837666   -2.3832666    5.1837666            0            0            0    72.014252    72.014252    72.014252    72.014252   -4.0489274   -4.0489274   -4.0489274   -45.316488 
    4840    -45.31649    5.1839212   -2.3834212    5.1839212   -2.3834212    5.1839212            0            0            0    79.258519    79.258519    79.258519    79.258519    3.2389935    3.2389935    3.2389935    -45.31649 
    4850   -45.316493    5.1840714   -2.3835714    5.1840714   -2.3835714    5.1840714            0            0            0     80.00043     80.00043     80.00043     80.00043    4.0255091    4.0255091    4.0255091   -45.316493 
    4860   -45.316495    5.1842289   -2.3837289    5.1842289   -2.3837289    5.1842289            0            0            0    71.830141    71.830141    71.830141    71.830141   -4.0951591   -4.0951591   -4.0951591   -45.316495 
    4870   -45.316498     5.184383    -2.383883     5.184383    -2.383883     5.184383            0            0            0    79.098015    79.098015    79.098015    79.098015    3.2161175    3.2161175    3.2161175   -45.316498 
    4880     -45.3165    5.1845334   -2.3840334    5.1845334   -2.3840334    5.1845334            0            0            0    79.876841    79.876841    79.876841    79.876841    4.0395172    4.0395172    4.0395172     -45.3165 
    4890   -45.316503    5.1847055   -2.3842055    5.1847055   -2.3842055    5.1847055            0            0            0     71.01861     71.01861     71.01861     71.01861   -4.7645902   -4.7645902   -4.7645902   -45.316503 
    4900   -45.316506    5.1848584   -2.3843584    5.1848584   -2.3843584    5.1848584            0            0            0    79.148791    79.148791    79.148791    79.148791    3.4082687    3.4082687    3.4082687   -45.316506 
    4910   -45.316508    5.1849973   -2.3844973    5.1849973   -2.3844973    5.1849973            0            0            0    79.136801    79.136801    79.136801    79.136801    3.4375333    3.4375333    3.4375333   -45.316508 
    4920    -45.31651    5.1851551   -2.3846551    5.1851551   -2.3846551    5.1851551            0            0            0     71.62046     71.62046     71.62046     71.62046    -4.029434    -4.029434    -4.029434    -45.31651 
    4930   -45.316513    5.1853085   -2.3848085    5.1853085   -2.3848085    5.1853085            0            0            0    78.827911    78.827911    78.827911    78.827911    3.2210944    3.2210944    3.2210944   -45.316513 
    4940   -45.316515    5.1854575   -2.3849575    5.1854575   -2.3849575    5.1854575            0            0            0    79.562899    79.562899    79.562899    79.562899    4.0000827    4.0000827    4.0000827   -45.316515 
    4950   -45.316518    5.1856138   -2.3851138    5.1856138   -2.3851138    5.1856138            0            0            0    71.438277    71.438277    71.438277    71.438277    -4.075552    -4.075552    -4.075552   -45.316518 
    4960    -45.31652    5.1857667   -2.3852667    5.1857667   -2.3852667    5.1857667            0            0            0    78.669547    78.669547    78.669547    78.669547     3.198546     3.198546     3.198546    -45.31652 
    4970   -45.316523    5.1859159   -2.3854159    5.1859159   -2.3854159    5.1859159            0            0            0    79.440875    79.440875    79.440875    79.440875    4.0138423    4.0138423    4.0138423   -45.316523 
    4980   -45.316525    5.1860867   -2.3855867    5.1860867   -2.3855867    5.1860867            0            0            0    70.637099    70.637099    70.637099    70.637099   -4.7365169   -4.7365169   -4.7365169   -45.316525 
    4990   -45.316528    5.1862383   -2.3857383    5.1862383   -2.3857383    5.1862383            0            0            0    78.722826    78.722826    78.722826    78.722826    3.3913239    3.3913239    3.3913239   -45.316528 
    5000    -45.31653     5.186376    -2.385876     5.186376    -2.385876     5.186376            0            0            0    78.702776    78.702776    78.702776    78.702776    3.4119506    3.4119506    3.4119506    -45.31653 
Loop time of 0.342382 on 1 procs for 5000 steps with 2 atoms

23.6% CPU use with 1 MPI tasks x no OpenMP threads

Minimization stats:
  Stopping criterion = max iterations
  Energy initial, next-to-last, final = 
        -8.97315896222     -45.3165302356     -45.3165302356
  Force two-norm initial, final = 0.539799 0.0293646
  Force max component initial, final = 0.311653 0.0106115
  Final line search alpha, max atom move = 0.0619703 0.000657595
  Iterations, force evaluations = 5000 8464

MPI task timing breakdown:
Section |  min time  |  avg time  |  max time  |%varavg| %total
---------------------------------------------------------------
Pair    | 0.061224   | 0.061224   | 0.061224   |   0.0 | 17.88
Neigh   | 0.00024343 | 0.00024343 | 0.00024343 |   0.0 |  0.07
Comm    | 0.0096335  | 0.0096335  | 0.0096335  |   0.0 |  2.81
Output  | 0.0052299  | 0.0052299  | 0.0052299  |   0.0 |  1.53
Modify  | 0          | 0          | 0          |   0.0 |  0.00
Other   |            | 0.2661     |            |       | 77.71

Nlocal:    2 ave 2 max 2 min
Histogram: 1 0 0 0 0 0 0 0 0 0
Nghost:    126 ave 126 max 126 min
Histogram: 1 0 0 0 0 0 0 0 0 0
Neighs:    37 ave 37 max 37 min
Histogram: 1 0 0 0 0 0 0 0 0 0

Total # of neighbors = 37
Ave neighs/atom = 18.5
Neighbor list builds = 14
Dangerous builds = 0
pypospack:output_section:begin
tot_energy = -45.3165302356203
num_atoms = 2
a11 = 7.57225195708333
a22 = 7.57225195708334
a33 = 7.57225195708334
a12 = 0
a13 = 0
a23 = 0
tot_press = 78.7027764107725
pxx = 78.7027764107721
pyy = 78.702776410772
pzz = 78.7027764107734
pxy = 3.41195056050447
pxz = 3.41195056050485
pyz = 3.41195056050512
pypospack:output_section:done
pypospack:lammps_sim:done
Total wall time: 0:00:00
