# ['Ni']

28 atoms
1 atom types

    0.0000     2.4846 xlo xhi
    0.0000     4.3035 ylo yhi
    0.0000    28.4014 zlo zhi

    0.0000     0.0000     0.0000 xy xz yz

Atoms

1 1     0.0000     0.0000     0.0000
2 1     1.2423     2.1517     0.0000
3 1     1.2423     0.7172     2.0287
4 1     0.0000     2.8690     2.0287
5 1     0.0000     1.4345     4.0573
6 1     1.2423     3.5862     4.0573
7 1     0.0000     0.0000     6.0860
8 1     1.2423     2.1517     6.0860
9 1     1.2423     0.7172     8.1147
10 1     0.0000     2.8690     8.1147
11 1     0.0000     1.4345    10.1434
12 1     1.2423     3.5862    10.1434
13 1     0.0000     0.0000    12.1720
14 1     1.2423     2.1517    12.1720
15 1     0.0000     1.4345    14.2007
16 1     1.2423     3.5862    14.2007
17 1     0.0000     0.0000    16.2294
18 1     1.2423     2.1517    16.2294
19 1     1.2423     0.7172    18.2580
20 1     0.0000     2.8690    18.2580
21 1     0.0000     1.4345    20.2867
22 1     1.2423     3.5862    20.2867
23 1     0.0000     0.0000    22.3154
24 1     1.2423     2.1517    22.3154
25 1     1.2423     0.7172    24.3440
26 1     0.0000     2.8690    24.3440
27 1     0.0000     1.4345    26.3727
28 1     1.2423     3.5862    26.3727
