   4   4   0   0
  0.1064635E+02  0.3492102E-09  0.3492102E-09  0.3492102E-09  0.5000000E-15
  1.000000000000000E-004
  CAR 
 automatically generated by pyflamestk   
     33.67519876     -0.87853746  301      9.53247762      1.00000000
     -0.879  0.0000E+00  0.0000E+00  0.0000E+00  0.0000E+00
     -0.763  0.0000E+00  0.0000E+00  0.0000E+00  0.0000E+00
     -0.648  0.0000E+00  0.0000E+00  0.0000E+00  0.0000E+00
     -0.533 -0.4834E-29 -0.4833E-29 -0.5567E-30 -0.5566E-30
     -0.418 -0.4434E-25 -0.4433E-25 -0.5108E-26 -0.5107E-26
     -0.303 -0.2084E-21 -0.2083E-21 -0.2400E-22 -0.2400E-22
     -0.187 -0.5010E-18 -0.5010E-18 -0.5773E-19 -0.5772E-19
     -0.072 -0.6157E-15 -0.6156E-15 -0.7098E-16 -0.7097E-16
      0.043 -0.3729E-12 -0.3729E-12 -0.4303E-13 -0.4302E-13
      0.158 -0.1180E-09 -0.1179E-09 -0.1363E-10 -0.1363E-10
      0.273 -0.1884E-07 -0.1884E-07 -0.2184E-08 -0.2183E-08
      0.388 -0.1507E-05 -0.1507E-05 -0.1758E-06 -0.1758E-06
      0.504 -0.5948E-04 -0.5947E-04 -0.7026E-05 -0.7026E-05
      0.619 -0.1123E-02 -0.1123E-02 -0.1363E-03 -0.1363E-03
      0.734 -0.9380E-02 -0.9379E-02 -0.1217E-02 -0.1217E-02
      0.849 -0.2534E-01 -0.2534E-01 -0.4135E-02 -0.4135E-02
      0.964  0.5078E-01  0.5077E-01  0.1714E-02  0.1713E-02
      1.080  0.3397E+00  0.3397E+00  0.4084E-01  0.4084E-01
      1.195  0.5006E+00  0.5006E+00  0.9850E-01  0.9850E-01
      1.310  0.2496E+00  0.2496E+00  0.1273E+00  0.1273E+00
      1.425  0.9583E-02  0.9586E-02  0.1284E+00  0.1284E+00
      1.540 -0.2280E-01 -0.2280E-01  0.1257E+00  0.1257E+00
      1.655 -0.5764E-02 -0.5764E-02  0.1251E+00  0.1251E+00
      1.771 -0.5455E-03 -0.5456E-03  0.1250E+00  0.1250E+00
      1.886 -0.2572E-04 -0.2572E-04  0.1250E+00  0.1250E+00
      2.001 -0.9787E-04 -0.9786E-04  0.1250E+00  0.1250E+00
      2.116 -0.2105E-02 -0.2105E-02  0.1247E+00  0.1247E+00
      2.231 -0.2057E-01 -0.2057E-01  0.1224E+00  0.1224E+00
      2.346 -0.7226E-01 -0.7226E-01  0.1141E+00  0.1141E+00
      2.462  0.6436E-01  0.6434E-01  0.1215E+00  0.1215E+00
      2.577  0.8413E+00  0.8412E+00  0.2184E+00  0.2184E+00
      2.692  0.1515E+01  0.1515E+01  0.3928E+00  0.3928E+00
      2.807  0.9283E+00  0.9283E+00  0.4997E+00  0.4997E+00
      2.922  0.1039E+00  0.1039E+00  0.5117E+00  0.5117E+00
      3.038 -0.7482E-01 -0.7482E-01  0.5031E+00  0.5031E+00
      3.153 -0.2404E-01 -0.2404E-01  0.5003E+00  0.5003E+00
      3.268 -0.2741E-02 -0.2742E-02  0.5000E+00  0.5000E+00
      3.383 -0.2089E-02 -0.2089E-02  0.4998E+00  0.4998E+00
      3.498 -0.1958E-01 -0.1958E-01  0.4975E+00  0.4975E+00
      3.613 -0.7125E-01 -0.7125E-01  0.4893E+00  0.4893E+00
      3.729  0.5336E-01  0.5335E-01  0.4954E+00  0.4954E+00
      3.844  0.8144E+00  0.8143E+00  0.5892E+00  0.5892E+00
      3.959  0.1512E+01  0.1512E+01  0.7634E+00  0.7634E+00
      4.074  0.9517E+00  0.9517E+00  0.8730E+00  0.8730E+00
      4.189  0.9944E-01  0.9945E-01  0.8845E+00  0.8845E+00
      4.305 -0.9562E-01 -0.9562E-01  0.8735E+00  0.8735E+00
      4.420  0.9543E-01  0.9544E-01  0.8845E+00  0.8845E+00
      4.535  0.3860E+00  0.3860E+00  0.9289E+00  0.9289E+00
      4.650  0.6970E+00  0.6969E+00  0.1009E+01  0.1009E+01
      4.765  0.1305E+01  0.1305E+01  0.1160E+01  0.1160E+01
      4.880  0.1382E+01  0.1382E+01  0.1319E+01  0.1319E+01
      4.996  0.4224E+00  0.4225E+00  0.1367E+01  0.1367E+01
      5.111 -0.1147E-01 -0.1148E-01  0.1366E+01  0.1366E+01
      5.226  0.1184E+01  0.1184E+01  0.1502E+01  0.1502E+01
      5.341  0.2898E+01  0.2897E+01  0.1836E+01  0.1836E+01
      5.456  0.3509E+01  0.3509E+01  0.2240E+01  0.2240E+01
      5.571  0.3308E+01  0.3308E+01  0.2621E+01  0.2621E+01
      5.687  0.1809E+01  0.1809E+01  0.2830E+01  0.2830E+01
      5.802  0.7699E+00  0.7698E+00  0.2918E+01  0.2918E+01
      5.917  0.2895E+01  0.2895E+01  0.3252E+01  0.3252E+01
      6.032  0.5210E+01  0.5210E+01  0.3852E+01  0.3852E+01
      6.147  0.3798E+01  0.3798E+01  0.4289E+01  0.4289E+01
      6.263  0.2501E+01  0.2502E+01  0.4577E+01  0.4578E+01
      6.378  0.3938E+01  0.3938E+01  0.5031E+01  0.5031E+01
      6.493  0.3492E+01  0.3492E+01  0.5433E+01  0.5433E+01
      6.608  0.2351E+01  0.2350E+01  0.5704E+01  0.5704E+01
      6.723  0.3436E+01  0.3436E+01  0.6100E+01  0.6100E+01
      6.838  0.3513E+01  0.3514E+01  0.6504E+01  0.6504E+01
      6.954  0.2641E+01  0.2641E+01  0.6809E+01  0.6809E+01
      7.069  0.3256E+01  0.3255E+01  0.7184E+01  0.7184E+01
      7.184  0.4900E+01  0.4899E+01  0.7748E+01  0.7748E+01
      7.299  0.6725E+01  0.6725E+01  0.8523E+01  0.8522E+01
      7.414  0.6463E+01  0.6463E+01  0.9267E+01  0.9267E+01
      7.530  0.4011E+01  0.4010E+01  0.9729E+01  0.9729E+01
      7.645  0.3239E+01  0.3239E+01  0.1010E+02  0.1010E+02
      7.760  0.5523E+01  0.5523E+01  0.1074E+02  0.1074E+02
      7.875  0.7856E+01  0.7856E+01  0.1164E+02  0.1164E+02
      7.990  0.7165E+01  0.7166E+01  0.1247E+02  0.1247E+02
      8.105  0.3773E+01  0.3773E+01  0.1290E+02  0.1290E+02
      8.221  0.1980E+01  0.1979E+01  0.1313E+02  0.1313E+02
      8.336  0.3527E+01  0.3526E+01  0.1354E+02  0.1354E+02
      8.451  0.4227E+01  0.4228E+01  0.1402E+02  0.1402E+02
      8.566  0.4621E+01  0.4621E+01  0.1456E+02  0.1456E+02
      8.681  0.7310E+01  0.7309E+01  0.1540E+02  0.1540E+02
      8.797  0.7400E+01  0.7400E+01  0.1625E+02  0.1625E+02
      8.912  0.3535E+01  0.3536E+01  0.1666E+02  0.1666E+02
      9.027  0.1909E+01  0.1909E+01  0.1688E+02  0.1688E+02
      9.142  0.4522E+01  0.4522E+01  0.1740E+02  0.1740E+02
      9.257  0.6735E+01  0.6735E+01  0.1817E+02  0.1817E+02
      9.372  0.5851E+01  0.5851E+01  0.1885E+02  0.1885E+02
      9.488  0.6656E+01  0.6656E+01  0.1961E+02  0.1961E+02
      9.603  0.8720E+01  0.8720E+01  0.2062E+02  0.2062E+02
      9.718  0.5907E+01  0.5908E+01  0.2130E+02  0.2130E+02
      9.833  0.1238E+01  0.1238E+01  0.2144E+02  0.2144E+02
      9.948 -0.3542E+00 -0.3541E+00  0.2140E+02  0.2140E+02
     10.063 -0.1943E+00 -0.1943E+00  0.2138E+02  0.2138E+02
     10.179 -0.3058E-01 -0.3058E-01  0.2138E+02  0.2138E+02
     10.294 -0.2138E-02 -0.2138E-02  0.2138E+02  0.2138E+02
     10.409 -0.1076E-03 -0.1076E-03  0.2137E+02  0.2137E+02
     10.524 -0.1167E-02 -0.1167E-02  0.2137E+02  0.2137E+02
     10.639 -0.1819E-01 -0.1819E-01  0.2137E+02  0.2137E+02
     10.755 -0.1214E+00 -0.1214E+00  0.2136E+02  0.2136E+02
     10.870 -0.2038E+00 -0.2038E+00  0.2134E+02  0.2134E+02
     10.985  0.9261E+00  0.9260E+00  0.2144E+02  0.2144E+02
     11.100  0.3695E+01  0.3695E+01  0.2187E+02  0.2187E+02
     11.215  0.4227E+01  0.4227E+01  0.2235E+02  0.2235E+02
     11.330  0.1568E+01  0.1568E+01  0.2254E+02  0.2254E+02
     11.446 -0.1026E+00 -0.1025E+00  0.2252E+02  0.2252E+02
     11.561 -0.1664E+00 -0.1664E+00  0.2250E+02  0.2250E+02
     11.676 -0.3236E-01 -0.3236E-01  0.2250E+02  0.2250E+02
     11.791 -0.3350E-02 -0.3350E-02  0.2250E+02  0.2250E+02
     11.906 -0.1057E-01 -0.1056E-01  0.2250E+02  0.2250E+02
     12.022 -0.5490E-01 -0.5490E-01  0.2249E+02  0.2249E+02
     12.137 -0.3725E-01 -0.3726E-01  0.2249E+02  0.2249E+02
     12.252  0.5124E+00  0.5124E+00  0.2255E+02  0.2255E+02
     12.367  0.1406E+01  0.1406E+01  0.2271E+02  0.2271E+02
     12.482  0.1242E+01  0.1242E+01  0.2285E+02  0.2285E+02
     12.597  0.3148E+00  0.3149E+00  0.2289E+02  0.2289E+02
     12.713 -0.6792E-01 -0.6792E-01  0.2288E+02  0.2288E+02
     12.828 -0.4131E-01 -0.4132E-01  0.2288E+02  0.2288E+02
     12.943 -0.1180E-01 -0.1180E-01  0.2287E+02  0.2287E+02
     13.058 -0.3931E-01 -0.3930E-01  0.2287E+02  0.2287E+02
     13.173 -0.7041E-01 -0.7041E-01  0.2286E+02  0.2286E+02
     13.288  0.2878E+00  0.2877E+00  0.2289E+02  0.2289E+02
     13.404  0.1211E+01  0.1211E+01  0.2303E+02  0.2303E+02
     13.519  0.1425E+01  0.1425E+01  0.2320E+02  0.2320E+02
     13.634  0.5459E+00  0.5460E+00  0.2326E+02  0.2326E+02
     13.749 -0.2991E-01 -0.2989E-01  0.2326E+02  0.2326E+02
     13.864 -0.5706E-01 -0.5706E-01  0.2325E+02  0.2325E+02
     13.980 -0.1135E-01 -0.1135E-01  0.2325E+02  0.2325E+02
     14.095 -0.1900E-02 -0.1900E-02  0.2325E+02  0.2325E+02
     14.210 -0.1472E-01 -0.1471E-01  0.2325E+02  0.2325E+02
     14.325 -0.9072E-01 -0.9071E-01  0.2324E+02  0.2324E+02
     14.440 -0.1219E+00 -0.1219E+00  0.2322E+02  0.2322E+02
     14.555  0.7487E+00  0.7487E+00  0.2331E+02  0.2331E+02
     14.671  0.2602E+01  0.2602E+01  0.2361E+02  0.2361E+02
     14.786  0.2720E+01  0.2720E+01  0.2392E+02  0.2392E+02
     14.901  0.8899E+00  0.8900E+00  0.2403E+02  0.2403E+02
     15.016 -0.1003E+00 -0.1003E+00  0.2401E+02  0.2401E+02
     15.131 -0.1007E+00 -0.1007E+00  0.2400E+02  0.2400E+02
     15.247 -0.1775E-01 -0.1775E-01  0.2400E+02  0.2400E+02
     15.362 -0.1291E-02 -0.1291E-02  0.2400E+02  0.2400E+02
     15.477 -0.4400E-04 -0.4401E-04  0.2400E+02  0.2400E+02
     15.592 -0.7788E-05 -0.7788E-05  0.2400E+02  0.2400E+02
     15.707 -0.2571E-03 -0.2571E-03  0.2400E+02  0.2400E+02
     15.822 -0.4454E-02 -0.4454E-02  0.2400E+02  0.2400E+02
     15.938 -0.3364E-01 -0.3363E-01  0.2400E+02  0.2400E+02
     16.053 -0.7470E-01 -0.7470E-01  0.2399E+02  0.2399E+02
     16.168  0.2201E+00  0.2201E+00  0.2401E+02  0.2401E+02
     16.283  0.1125E+01  0.1125E+01  0.2414E+02  0.2414E+02
     16.398  0.1468E+01  0.1468E+01  0.2431E+02  0.2431E+02
     16.514  0.6286E+00  0.6286E+00  0.2438E+02  0.2438E+02
     16.629 -0.6081E-01 -0.6081E-01  0.2438E+02  0.2438E+02
     16.744 -0.1005E+00 -0.1005E+00  0.2436E+02  0.2436E+02
     16.859  0.4957E+00  0.4957E+00  0.2442E+02  0.2442E+02
     16.974  0.1403E+01  0.1403E+01  0.2458E+02  0.2458E+02
     17.089  0.1244E+01  0.1244E+01  0.2473E+02  0.2473E+02
     17.205  0.3172E+00  0.3172E+00  0.2476E+02  0.2476E+02
     17.320 -0.6777E-01 -0.6776E-01  0.2476E+02  0.2476E+02
     17.435 -0.4361E-01 -0.4361E-01  0.2475E+02  0.2475E+02
     17.550 -0.3460E-01 -0.3459E-01  0.2475E+02  0.2475E+02
     17.665 -0.1270E+00 -0.1270E+00  0.2473E+02  0.2473E+02
     17.780 -0.5801E-02 -0.5819E-02  0.2473E+02  0.2473E+02
     17.896  0.1300E+01  0.1300E+01  0.2488E+02  0.2488E+02
     18.011  0.2947E+01  0.2947E+01  0.2522E+02  0.2522E+02
     18.126  0.2228E+01  0.2228E+01  0.2548E+02  0.2548E+02
     18.241  0.4242E+00  0.4242E+00  0.2553E+02  0.2553E+02
     18.356 -0.1589E+00 -0.1589E+00  0.2551E+02  0.2551E+02
     18.472 -0.9134E-01 -0.9135E-01  0.2550E+02  0.2550E+02
     18.587  0.3593E-01  0.3592E-01  0.2550E+02  0.2550E+02
     18.702  0.3282E+00  0.3282E+00  0.2554E+02  0.2554E+02
     18.817  0.5027E+00  0.5027E+00  0.2560E+02  0.2560E+02
     18.932  0.2609E+00  0.2609E+00  0.2563E+02  0.2563E+02
     19.047  0.1369E-01  0.1369E-01  0.2563E+02  0.2563E+02
     19.163 -0.2363E-01 -0.2363E-01  0.2563E+02  0.2563E+02
     19.278 -0.1233E-01 -0.1233E-01  0.2562E+02  0.2562E+02
     19.393 -0.5381E-01 -0.5381E-01  0.2562E+02  0.2562E+02
     19.508 -0.1516E+00 -0.1516E+00  0.2560E+02  0.2560E+02
     19.623  0.2679E+00  0.2679E+00  0.2563E+02  0.2563E+02
     19.739  0.1973E+01  0.1973E+01  0.2586E+02  0.2586E+02
     19.854  0.3016E+01  0.3016E+01  0.2621E+02  0.2621E+02
     19.969  0.1565E+01  0.1565E+01  0.2639E+02  0.2639E+02
     20.084  0.8160E-01  0.8162E-01  0.2640E+02  0.2640E+02
     20.199 -0.1442E+00 -0.1442E+00  0.2638E+02  0.2638E+02
     20.314 -0.7002E-01 -0.7002E-01  0.2637E+02  0.2637E+02
     20.430 -0.7853E-01 -0.7853E-01  0.2636E+02  0.2636E+02
     20.545  0.2139E+00  0.2139E+00  0.2639E+02  0.2639E+02
     20.660  0.1116E+01  0.1116E+01  0.2652E+02  0.2652E+02
     20.775  0.1472E+01  0.1473E+01  0.2668E+02  0.2668E+02
     20.890  0.6479E+00  0.6481E+00  0.2676E+02  0.2676E+02
     21.005 -0.3580E-02 -0.3546E-02  0.2676E+02  0.2676E+02
     21.121 -0.6418E-01 -0.6419E-01  0.2675E+02  0.2675E+02
     21.236 -0.2887E-01 -0.2887E-01  0.2675E+02  0.2675E+02
     21.351 -0.9219E-01 -0.9218E-01  0.2674E+02  0.2674E+02
     21.466 -0.1229E+00 -0.1229E+00  0.2672E+02  0.2672E+02
     21.581  0.7368E+00  0.7366E+00  0.2681E+02  0.2681E+02
     21.697  0.2540E+01  0.2540E+01  0.2710E+02  0.2710E+02
     21.812  0.2719E+01  0.2719E+01  0.2741E+02  0.2741E+02
     21.927  0.1553E+01  0.1553E+01  0.2759E+02  0.2759E+02
     22.042  0.1378E+01  0.1378E+01  0.2775E+02  0.2775E+02
     22.157  0.9984E+00  0.9984E+00  0.2787E+02  0.2787E+02
     22.272  0.1821E+00  0.1821E+00  0.2789E+02  0.2789E+02
     22.388 -0.1016E+00 -0.1016E+00  0.2788E+02  0.2788E+02
     22.503 -0.1257E+00 -0.1257E+00  0.2786E+02  0.2786E+02
     22.618  0.1820E-01  0.1819E-01  0.2786E+02  0.2786E+02
     22.733  0.9544E+00  0.9543E+00  0.2797E+02  0.2797E+02
     22.848  0.2318E+01  0.2318E+01  0.2824E+02  0.2824E+02
     22.964  0.2375E+01  0.2375E+01  0.2851E+02  0.2851E+02
     23.079  0.1041E+01  0.1041E+01  0.2863E+02  0.2863E+02
     23.194  0.5006E-01  0.5009E-01  0.2864E+02  0.2864E+02
     23.309 -0.1015E+00 -0.1015E+00  0.2863E+02  0.2863E+02
     23.424 -0.6362E-01 -0.6362E-01  0.2862E+02  0.2862E+02
     23.539 -0.1007E+00 -0.1007E+00  0.2861E+02  0.2861E+02
     23.655  0.1070E+00  0.1070E+00  0.2862E+02  0.2862E+02
     23.770  0.1072E+01  0.1072E+01  0.2874E+02  0.2874E+02
     23.885  0.2578E+01  0.2578E+01  0.2904E+02  0.2904E+02
     24.000  0.3496E+01  0.3496E+01  0.2944E+02  0.2944E+02
     24.115  0.2399E+01  0.2399E+01  0.2972E+02  0.2972E+02
     24.231  0.4990E+00  0.4991E+00  0.2978E+02  0.2978E+02
     24.346 -0.1557E+00 -0.1557E+00  0.2976E+02  0.2976E+02
     24.461 -0.7793E-01 -0.7793E-01  0.2975E+02  0.2975E+02
     24.576 -0.1108E-01 -0.1108E-01  0.2975E+02  0.2975E+02
     24.691 -0.7110E-03 -0.7110E-03  0.2975E+02  0.2975E+02
     24.806 -0.9164E-03 -0.9163E-03  0.2975E+02  0.2975E+02
     24.922 -0.1355E-01 -0.1355E-01  0.2975E+02  0.2975E+02
     25.037 -0.8673E-01 -0.8672E-01  0.2974E+02  0.2974E+02
     25.152 -0.1309E+00 -0.1309E+00  0.2972E+02  0.2972E+02
     25.267  0.6759E+00  0.6758E+00  0.2980E+02  0.2980E+02
     25.382  0.2498E+01  0.2498E+01  0.3009E+02  0.3009E+02
     25.497  0.2844E+01  0.2844E+01  0.3042E+02  0.3042E+02
     25.613  0.1592E+01  0.1592E+01  0.3060E+02  0.3060E+02
     25.728  0.9186E+00  0.9186E+00  0.3071E+02  0.3071E+02
     25.843  0.4343E+00  0.4343E+00  0.3076E+02  0.3076E+02
     25.958  0.1493E-01  0.1493E-01  0.3076E+02  0.3076E+02
     26.073 -0.4878E-01 -0.4879E-01  0.3075E+02  0.3075E+02
     26.189 -0.1297E-01 -0.1297E-01  0.3075E+02  0.3075E+02
     26.304 -0.1546E-02 -0.1546E-02  0.3075E+02  0.3075E+02
     26.419 -0.4537E-02 -0.4537E-02  0.3075E+02  0.3075E+02
     26.534 -0.3376E-01 -0.3375E-01  0.3075E+02  0.3075E+02
     26.649 -0.7464E-01 -0.7464E-01  0.3074E+02  0.3074E+02
     26.764  0.2216E+00  0.2215E+00  0.3076E+02  0.3076E+02
     26.880  0.1127E+01  0.1127E+01  0.3089E+02  0.3089E+02
     26.995  0.1468E+01  0.1468E+01  0.3106E+02  0.3106E+02
     27.110  0.6368E+00  0.6368E+00  0.3113E+02  0.3113E+02
     27.225 -0.6733E-02 -0.6716E-02  0.3113E+02  0.3113E+02
     27.340 -0.6254E-01 -0.6255E-01  0.3113E+02  0.3113E+02
     27.456 -0.1380E-01 -0.1381E-01  0.3113E+02  0.3113E+02
     27.571 -0.1205E-02 -0.1205E-02  0.3113E+02  0.3113E+02
     27.686 -0.5498E-03 -0.5498E-03  0.3112E+02  0.3112E+02
     27.801 -0.7379E-02 -0.7378E-02  0.3112E+02  0.3112E+02
     27.916 -0.4548E-01 -0.4548E-01  0.3112E+02  0.3112E+02
     28.031 -0.6072E-01 -0.6073E-01  0.3111E+02  0.3111E+02
     28.147  0.3761E+00  0.3761E+00  0.3116E+02  0.3116E+02
     28.262  0.1302E+01  0.1302E+01  0.3131E+02  0.3131E+02
     28.377  0.1358E+01  0.1358E+01  0.3146E+02  0.3146E+02
     28.492  0.4431E+00  0.4432E+00  0.3151E+02  0.3151E+02
     28.607 -0.5049E-01 -0.5048E-01  0.3151E+02  0.3151E+02
     28.722 -0.5081E-01 -0.5081E-01  0.3150E+02  0.3150E+02
     28.838 -0.1702E-01 -0.1702E-01  0.3150E+02  0.3150E+02
     28.953 -0.4886E-01 -0.4886E-01  0.3149E+02  0.3149E+02
     29.068 -0.5520E-01 -0.5520E-01  0.3149E+02  0.3149E+02
     29.183  0.4144E+00  0.4143E+00  0.3153E+02  0.3153E+02
     29.298  0.1336E+01  0.1336E+01  0.3169E+02  0.3169E+02
     29.414  0.1327E+01  0.1327E+01  0.3184E+02  0.3184E+02
     29.529  0.4038E+00  0.4039E+00  0.3189E+02  0.3189E+02
     29.644 -0.5678E-01 -0.5678E-01  0.3188E+02  0.3188E+02
     29.759 -0.4748E-01 -0.4748E-01  0.3188E+02  0.3188E+02
     29.874 -0.7964E-02 -0.7965E-02  0.3188E+02  0.3188E+02
     29.989 -0.5573E-03 -0.5574E-03  0.3188E+02  0.3188E+02
     30.105 -0.1830E-04 -0.1830E-04  0.3188E+02  0.3188E+02
     30.220 -0.2939E-06 -0.2940E-06  0.3188E+02  0.3188E+02
     30.335 -0.2354E-08 -0.2355E-08  0.3188E+02  0.3188E+02
     30.450 -0.9499E-11 -0.9502E-11  0.3188E+02  0.3188E+02
     30.565 -0.8905E-13 -0.8904E-13  0.3187E+02  0.3187E+02
     30.681 -0.2644E-10 -0.2644E-10  0.3187E+02  0.3187E+02
     30.796 -0.5087E-08 -0.5086E-08  0.3187E+02  0.3187E+02
     30.911 -0.4915E-06 -0.4915E-06  0.3187E+02  0.3187E+02
     31.026 -0.2355E-04 -0.2355E-04  0.3187E+02  0.3187E+02
     31.141 -0.5456E-03 -0.5455E-03  0.3187E+02  0.3187E+02
     31.256 -0.5764E-02 -0.5764E-02  0.3187E+02  0.3187E+02
     31.372 -0.2280E-01 -0.2280E-01  0.3187E+02  0.3187E+02
     31.487  0.9586E-02  0.9583E-02  0.3187E+02  0.3187E+02
     31.602  0.2496E+00  0.2496E+00  0.3190E+02  0.3190E+02
     31.717  0.5006E+00  0.5006E+00  0.3196E+02  0.3196E+02
     31.832  0.3397E+00  0.3397E+00  0.3200E+02  0.3200E+02
     31.948  0.5077E-01  0.5078E-01  0.3200E+02  0.3200E+02
     32.063 -0.2534E-01 -0.2534E-01  0.3200E+02  0.3200E+02
     32.178 -0.9379E-02 -0.9380E-02  0.3200E+02  0.3200E+02
     32.293 -0.1123E-02 -0.1123E-02  0.3200E+02  0.3200E+02
     32.408 -0.5947E-04 -0.5948E-04  0.3200E+02  0.3200E+02
     32.523 -0.1507E-05 -0.1507E-05  0.3200E+02  0.3200E+02
     32.639 -0.1884E-07 -0.1884E-07  0.3200E+02  0.3200E+02
     32.754 -0.1179E-09 -0.1180E-09  0.3200E+02  0.3200E+02
     32.869 -0.3728E-12 -0.3728E-12  0.3200E+02  0.3200E+02
     32.984 -0.7229E-15 -0.7229E-15  0.3200E+02  0.3200E+02
     33.099  0.0000E+00  0.0000E+00  0.3200E+02  0.3200E+02
     33.214  0.0000E+00  0.0000E+00  0.3200E+02  0.3200E+02
     33.330  0.0000E+00  0.0000E+00  0.3200E+02  0.3200E+02
     33.445  0.0000E+00  0.0000E+00  0.3200E+02  0.3200E+02
     33.560  0.0000E+00  0.0000E+00  0.3200E+02  0.3200E+02
     33.675  0.0000E+00  0.0000E+00  0.3200E+02  0.3200E+02
