# ['Ni']

107 atoms
1 atom types

    0.0000    10.5418 xlo xhi
    0.0000    10.5418 ylo yhi
    0.0000    10.5418 zlo zhi

    0.0000    -0.0000    -0.0000 xy xz yz

Atoms

1 1     1.7570     1.7570     0.0000
2 1     1.7570     0.0000     1.7570
3 1     0.0000     1.7570     1.7570
4 1     0.0000     0.0000     3.5139
5 1     1.7570     1.7570     3.5139
6 1     1.7570     0.0000     5.2709
7 1     0.0000     1.7570     5.2709
8 1     0.0000     0.0000     7.0279
9 1     1.7570     1.7570     7.0279
10 1     1.7570     0.0000     8.7849
11 1     0.0000     1.7570     8.7849
12 1     0.0000     3.5139     0.0000
13 1     1.7570     5.2709     0.0000
14 1     1.7570     3.5139     1.7570
15 1     0.0000     5.2709     1.7570
16 1     0.0000     3.5139     3.5139
17 1     1.7570     5.2709     3.5139
18 1     1.7570     3.5139     5.2709
19 1     0.0000     5.2709     5.2709
20 1     0.0000     3.5139     7.0279
21 1     1.7570     5.2709     7.0279
22 1     1.7570     3.5139     8.7849
23 1     0.0000     5.2709     8.7849
24 1     0.0000     7.0279     0.0000
25 1     1.7570     8.7849     0.0000
26 1     1.7570     7.0279     1.7570
27 1     0.0000     8.7849     1.7570
28 1     0.0000     7.0279     3.5139
29 1     1.7570     8.7849     3.5139
30 1     1.7570     7.0279     5.2709
31 1     0.0000     8.7849     5.2709
32 1     0.0000     7.0279     7.0279
33 1     1.7570     8.7849     7.0279
34 1     1.7570     7.0279     8.7849
35 1     0.0000     8.7849     8.7849
36 1     3.5139     0.0000     0.0000
37 1     5.2709     1.7570     0.0000
38 1     5.2709     0.0000     1.7570
39 1     3.5139     1.7570     1.7570
40 1     3.5139     0.0000     3.5139
41 1     5.2709     1.7570     3.5139
42 1     5.2709     0.0000     5.2709
43 1     3.5139     1.7570     5.2709
44 1     3.5139     0.0000     7.0279
45 1     5.2709     1.7570     7.0279
46 1     5.2709     0.0000     8.7849
47 1     3.5139     1.7570     8.7849
48 1     3.5139     3.5139     0.0000
49 1     5.2709     5.2709     0.0000
50 1     5.2709     3.5139     1.7570
51 1     3.5139     5.2709     1.7570
52 1     3.5139     3.5139     3.5139
53 1     5.2709     5.2709     3.5139
54 1     5.2709     3.5139     5.2709
55 1     3.5139     5.2709     5.2709
56 1     3.5139     3.5139     7.0279
57 1     5.2709     5.2709     7.0279
58 1     5.2709     3.5139     8.7849
59 1     3.5139     5.2709     8.7849
60 1     3.5139     7.0279     0.0000
61 1     5.2709     8.7849     0.0000
62 1     5.2709     7.0279     1.7570
63 1     3.5139     8.7849     1.7570
64 1     3.5139     7.0279     3.5139
65 1     5.2709     8.7849     3.5139
66 1     5.2709     7.0279     5.2709
67 1     3.5139     8.7849     5.2709
68 1     3.5139     7.0279     7.0279
69 1     5.2709     8.7849     7.0279
70 1     5.2709     7.0279     8.7849
71 1     3.5139     8.7849     8.7849
72 1     7.0279     0.0000     0.0000
73 1     8.7849     1.7570     0.0000
74 1     8.7849     0.0000     1.7570
75 1     7.0279     1.7570     1.7570
76 1     7.0279     0.0000     3.5139
77 1     8.7849     1.7570     3.5139
78 1     8.7849     0.0000     5.2709
79 1     7.0279     1.7570     5.2709
80 1     7.0279     0.0000     7.0279
81 1     8.7849     1.7570     7.0279
82 1     8.7849     0.0000     8.7849
83 1     7.0279     1.7570     8.7849
84 1     7.0279     3.5139     0.0000
85 1     8.7849     5.2709     0.0000
86 1     8.7849     3.5139     1.7570
87 1     7.0279     5.2709     1.7570
88 1     7.0279     3.5139     3.5139
89 1     8.7849     5.2709     3.5139
90 1     8.7849     3.5139     5.2709
91 1     7.0279     5.2709     5.2709
92 1     7.0279     3.5139     7.0279
93 1     8.7849     5.2709     7.0279
94 1     8.7849     3.5139     8.7849
95 1     7.0279     5.2709     8.7849
96 1     7.0279     7.0279     0.0000
97 1     8.7849     8.7849     0.0000
98 1     8.7849     7.0279     1.7570
99 1     7.0279     8.7849     1.7570
100 1     7.0279     7.0279     3.5139
101 1     8.7849     8.7849     3.5139
102 1     8.7849     7.0279     5.2709
103 1     7.0279     8.7849     5.2709
104 1     7.0279     7.0279     7.0279
105 1     8.7849     8.7849     7.0279
106 1     8.7849     7.0279     8.7849
107 1     7.0279     8.7849     8.7849
