LAMMPS (10 Feb 2015)
# ---- initialize simulations
clear
units metal
dimension 3
boundary p p p
atom_style charge
atom_modify map array
# ---- create atoms
read_data /Users/eugeneragasa/pyflamestk_git/pypospack/tests/tests_integration/workflow/WorkflowLammpsThermalExpansion/param_3101/MgO_NaCl_unit.npt.T400/lammps.structure
  triclinic box = (0 0 0) to (4.2565 4.2565 4.2565) with tilt (0 0 0)
  1 by 1 by 1 MPI processor grid
  reading atoms ...
  8 atoms
# ---- define interatomic potential
include potential.mod
mass 1 24.305
mass 2 15.999

group Mg type 1
4 atoms in group Mg
group O type 2
4 atoms in group O

set group Mg charge 1.61886676565
  4 settings made for charge
set group O charge -1.61886676565
  4 settings made for charge

variable R_cut equal 10.0

pair_style buck/coul/long ${R_cut}
pair_style buck/coul/long 10
pair_coeff 1 1 0.0 0.5 0.0 ${R_cut}
pair_coeff 1 1 0.0 0.5 0.0 10
pair_coeff 1 2 1642.32869573 0.278339228763 0.0 ${R_cut}
pair_coeff 1 2 1642.32869573 0.278339228763 0.0 10
pair_coeff 2 2 10249.6145692 0.172187509684 14.0611166933 ${R_cut}
pair_coeff 2 2 10249.6145692 0.172187509684 14.0611166933 10

kspace_style pppm 1.0e-5

neighbor 1.0 bin
neigh_modify every 1 delay 0 check yes
# ---- define settings
compute eng all pe/atom
compute eatoms all reduce sum c_eng
# ---- run minimization
reset_timestep 0
fix 1 all box/relax iso 0.0 vmax 0.001
thermo 10
thermo_style custom step pe lx ly lz xy xz yz press pxx pyy pzz pxy pxz pyz c_eatoms
min_style cg
minimize 1e-25 1e-25 5000 10000
PPPM initialization ...
  G vector (1/distance) = 0.352512
  grid = 8 8 8
  stencil order = 5
  estimated absolute RMS force accuracy = 3.81673e-05
  estimated relative force accuracy = 2.65057e-06
  using double precision FFTs
  3d grid and FFT values/proc = 3375 512
Neighbor list info ...
  1 neighbor list requests
  update every 1 steps, delay 0 steps, check yes
  master list distance cutoff = 11
Memory usage per processor = 4.06549 Mbytes
Step PotEng Lx Ly Lz Xy Xz Yz Press Pxx Pyy Pzz Pxy Pxz Pyz eatoms 
       0   -105.55076       4.2565       4.2565       4.2565            0            0            0    126453.59    126453.59    126453.59    126453.59 4.0363335e-11 4.044677e-11 1.0723156e-10   -105.55076 
      10   -105.69165     4.299065     4.299065     4.299065            0            0            0    68786.015    68786.015    68786.015    68786.015 -1.0242962e-10 -4.708445e-11 -3.569371e-11   -105.69165 
      20   -105.75532      4.34163      4.34163      4.34163            0            0            0    18126.479    18126.479    18126.479    18126.479 7.5197513e-11 1.703257e-11 -3.0007315e-11   -105.75532 
      27   -105.76066    4.3583247    4.3583247    4.3583247            0            0            0    1.3863117    1.3863117    1.3863117    1.3863117 -6.2572681e-11 -1.3142723e-10 -3.2118437e-11   -105.76066 
Loop time of 0.018816 on 1 procs for 27 steps with 8 atoms

Minimization stats:
  Stopping criterion = linesearch alpha is zero
  Energy initial, next-to-last, final = 
        -105.550764672     -105.760658065     -105.760658065
  Force two-norm initial, final = 18.26 0.000217628
  Force max component initial, final = 18.26 0.000209876
  Final line search alpha, max atom move = 0.25 5.24691e-05
  Iterations, force evaluations = 27 40

Pair  time (%) = 0.00495219 (26.3191)
Kspce time (%) = 0.00296283 (15.7463)
Neigh time (%) = 0 (0)
Comm  time (%) = 0.000535727 (2.84719)
Outpt time (%) = 4.91142e-05 (0.261024)
Other time (%) = 0.0103161 (54.8264)

Nlocal:    8 ave 8 max 8 min
Histogram: 1 0 0 0 0 0 0 0 0 0
Nghost:    2189 ave 2189 max 2189 min
Histogram: 1 0 0 0 0 0 0 0 0 0
Neighs:    2344 ave 2344 max 2344 min
Histogram: 1 0 0 0 0 0 0 0 0 0

Total # of neighbors = 2344
Ave neighs/atom = 293
Neighbor list builds = 0
Dangerous builds = 0
unfix 1
# ---- define output variables ----
variable natoms equal "count(all)"
variable tot_energy equal "c_eatoms"
variable length_x equal "lx"
variable length_y equal "ly"
variable length_z equal "lz"
variable tilt_xy equal "xy"
variable tilt_xz equal "xz"
variable tilt_yz equal "yz"
variable tot_press equal "press"
variable press_xx equal "pxx"
variable press_yy equal "pyy"
variable press_zz equal "pzz"
variable press_xy equal "pxy"
variable press_xz equal "pxz"
variable press_yz equal "pyz"

# ---- output ----
print "pypospack:output_section:begin"
pypospack:output_section:begin
print "tot_energy = ${tot_energy}"
tot_energy = -105.760658064539
print "num_atoms = ${natoms}"
num_atoms = 8
print "xx = ${length_x}"
xx = 4.35832471527479
print "yy = ${length_y}"
yy = 4.35832471527479
print "zz = ${length_z}"
zz = 4.35832471527479
print "xy = ${tilt_xy}"
xy = 0
print "xz = ${tilt_xz}"
xz = 0
print "yz = ${tilt_yz}"
yz = 0
print "tot_press = ${tot_press}"
tot_press = 1.38631174704167
print "pxx = ${press_xx}"
pxx = 1.38631174709188
print "pyy = ${press_yy}"
pyy = 1.38631174731354
print "pzz = ${press_zz}"
pzz = 1.3863117467196
print "pxy = ${press_xy}"
pxy = -6.25726806975275e-11
print "pxz = ${press_xz}"
pxz = -1.31427228854923e-10
print "pyz = ${press_yz}"
pyz = -3.21184365171528e-11
print "pypospack:output_section:done"
pypospack:output_section:done
print "pypospack:lammps_sim:done"
pypospack:lammps_sim:done
#------------------------------------------------------------------------------
# RUN THERMOSTAT
# running using an NPT Nose-Hoover style thermostat
#------------------------------------------------------------------------------
variable tempdamp equal 0.1
variable pressdamp equal 1.0
# set initial velocities
velocity all create 400 6039546 mom yes dist gaussian loop all
# fix for Nose-Hoover style thermostat
fix 20 all npt temp 400 400 0.1 aniso 0.0 0.0 1.0 drag 1.0 couple xyz
variable boxx equal lx
variable boxy equal ly
variable boxz equal lz
variable boxp equal press
variable boxt equal temp
# calculate averages every 10000 steps
reset_timestep 0
fix 21 all ave/time 10 10 100 v_boxx v_boxy v_boxz v_boxp v_boxt file lattice.out
thermo_style custom step temp pe ke etotal press lx ly lz press pxx pyy pzz pxy pxz pyz vol
thermo_modify flush yes
thermo 100
run 100000
PPPM initialization ...
  G vector (1/distance) = 0.351503
  grid = 8 8 8
  stencil order = 5
  estimated absolute RMS force accuracy = 3.99806e-05
  estimated relative force accuracy = 2.7765e-06
  using double precision FFTs
  3d grid and FFT values/proc = 3375 512
Memory usage per processor = 3.06549 Mbytes
Step Temp PotEng KinEng TotEng Press Lx Ly Lz Press Pxx Pyy Pzz Pxy Pxz Pyz Volume 
       0          400   -105.76067   0.36192841   -105.39874    4668.8794    4.3583247    4.3583247    4.3583247    4668.8794    5291.0213     6558.503     2157.114    1317.9404    595.93111   -700.61458    82.786353 
     100    88.585813   -105.42544  0.080154305   -105.34529   -612.71374    4.3818723    4.3818723    4.3818723   -612.71374    2639.3753    6534.9217   -11012.438    1020.8629   -34.913226    3144.9277    84.135474 
     200    307.08444   -105.52878   0.27785646   -105.25092    5786.8816    4.3707745    4.3707745    4.3707745    5786.8816     1824.885    21549.156    -6013.396   -2610.5027   -354.06141   -3943.0153    83.497831 
     300    307.54718   -105.44764   0.27827515   -105.16937    6209.9166    4.3774754    4.3774754    4.3774754    6209.9166    15867.666    12613.503   -9851.4193   -2335.3805   -1629.9773    2150.2858    83.882458 
     400    431.52942   -105.48891   0.39045689   -105.09846   -13400.059    4.3870623    4.3870623    4.3870623   -13400.059   -12334.638   -16542.106   -11323.434    8737.4375     814.7475    1989.4076    84.434786 
     500    410.73099   -105.42649   0.37163804   -105.05485    11607.883    4.3743402    4.3743402    4.3743402    11607.883    6346.6454    42071.949   -13594.945   -3610.8293    554.44515    1260.5912    83.702356 
     600    285.50658   -105.29616   0.25833236   -105.03783   -4645.0937    4.3922752    4.3922752    4.3922752   -4645.0937    9400.5172    -3498.502   -19837.296   -1636.8622   -577.66919    447.55078    84.736129 
     700    444.70821   -105.43042   0.40238134   -105.02804    5722.9448    4.3760992    4.3760992    4.3760992    5722.9448    13068.742    8256.7287   -4156.6366    1866.9096   -2249.5152    -5862.647    83.803369 
     800    527.13657   -105.50795   0.47696424   -105.03099   -7031.8077    4.3865239    4.3865239    4.3865239   -7031.8077    2261.3371    -3252.389   -20104.371    5075.1765    -1966.817    4267.3108    84.403704 
     900    236.07387   -105.25214    0.2136046   -105.03854    1368.3975    4.3827926    4.3827926    4.3827926    1368.3975   -2961.3386    12532.972   -5466.4405    3047.9917    816.00026    1948.6972    84.188495 
    1000    462.50939   -105.45542   0.41848822   -105.03693    3057.9809    4.3819237    4.3819237    4.3819237    3057.9809    16252.078    8045.0357   -15123.171   -8883.2695    4036.2851     4522.782    84.138438 
    1100    322.24949   -105.32797   0.29157811   -105.03639    -8545.684    4.3880241    4.3880241    4.3880241    -8545.684    10679.847   -12649.741   -23667.159    5376.2256    1859.6396    1489.8387    84.490334 
    1200    498.00626   -105.48322   0.45060653   -105.03261     1309.158    4.3751777    4.3751777    4.3751777     1309.158    7453.0508    -836.7757    -2688.801    4290.2322   -1792.3647   -1605.9007    83.750438 
    1300    368.05091   -105.36674    0.3330202   -105.03372   -9973.7246    4.3947017    4.3947017    4.3947017   -9973.7246    3151.9575    2776.1375   -35849.269   -2827.6412   -3166.5836    2000.5248    84.876644 
    1400    343.04903   -105.34255   0.31039797   -105.03215    10758.531    4.3690398    4.3690398    4.3690398    10758.531    30988.146    5101.6424   -3814.1946   -1257.4973     1599.044    932.33631    83.398455 
    1500    450.77462   -105.44013   0.40787035   -105.03226   -15514.091    4.3993578    4.3993578    4.3993578   -15514.091   -1570.5785   -11854.861   -33116.834    854.37306    1735.2908    6280.9219    85.146709 
    1600    503.01838   -105.48806    0.4551416   -105.03292    4860.6845    4.3662625    4.3662625    4.3662625    4860.6845    9906.3396    3240.2868    1435.4271    5123.9277    2440.3444    2366.4715    83.239509 
    1700    345.66367   -105.35174   0.31276375   -105.03897   -9913.8984    4.3963348    4.3963348    4.3963348   -9913.8984    6733.3191   -14211.331   -22263.683    1680.6182   -5867.2494   -541.31598    84.971303 
    1800    292.25128   -105.30091    0.2644351   -105.03647    20310.637    4.3695966    4.3695966    4.3695966    20310.637     36878.87    21971.589     2081.454   -8102.9304   -4070.1006   -1601.7431    83.430347 
    1900     410.7469   -105.41278   0.37165242   -105.04112   -11384.388    4.3919312    4.3919312    4.3919312   -11384.388   -13646.953   -1462.8261   -19043.384     9619.175   -2593.7247   -556.79766    84.716222 
    2000     553.6297   -105.53602   0.50093578   -105.03508    -3320.157    4.3795578    4.3795578    4.3795578    -3320.157    3402.8166   -5737.0113   -7626.2763    914.76106    3431.1502    1791.9049    84.002226 
    2100    345.54594   -105.35076   0.31265723    -105.0381    7653.3537    4.3777287    4.3777287    4.3777287    7653.3537    16018.277    22062.365   -15120.581    2146.8582    2343.1591    4337.8328    83.897017 
    2200     347.5694   -105.35126    0.3144881   -105.03677   -11277.555    4.3930474    4.3930474    4.3930474   -11277.555    3477.7797   -8339.0711   -28971.373   -3198.3726    881.28695     82.40119    84.780833 
    2300    492.79149   -105.47847   0.44588809   -105.03258    17561.779    4.3617423    4.3617423    4.3617423    17561.779    20523.382    31366.471    795.48279   -210.11409   -660.03441   -400.26562    82.981259 
    2400     454.5051   -105.44024   0.41124577   -105.02899   -35497.833    4.4058295    4.4058295    4.4058295   -35497.833    -33690.29   -36403.003   -36400.205    10388.826   -3694.8162    -670.2413    85.523026 
    2500    430.20167   -105.41065   0.38925551    -105.0214      28934.3    4.3538548    4.3538548    4.3538548      28934.3     29174.03    42570.698    15058.172   -1418.3542    3978.6513    1635.8007    82.531895 
    2600    274.65703    -105.2735   0.24851545   -105.02499   -21953.087     4.408094     4.408094     4.408094   -21953.087   -8181.5589   -22387.269   -35290.435   -3378.3676    2730.8862    6406.6807    85.654966 
    2700    266.92707   -105.26357   0.24152122   -105.02205    28284.862    4.3564036    4.3564036    4.3564036    28284.862    40451.666    29808.893    14594.026     49.08746    4949.5369    1426.7533    82.676926 
    2800    487.59422   -105.46863    0.4411855   -105.02745   -21310.526    4.4000459    4.4000459    4.4000459   -21310.526   -20734.664   -16824.453   -26372.461    1902.1993     272.6579    4426.7628    85.186668 
    2900    433.79972   -105.42113    0.3925111   -105.02862    5366.4111    4.3662483    4.3662483    4.3662483    5366.4111    5888.8322    1791.5574    8418.8438    10210.287     -3755.56    -4095.787    83.238698 
    3000    413.04986   -105.40578    0.3737362   -105.03205   -9571.2098    4.3923467    4.3923467    4.3923467   -9571.2098   -874.63242    637.31116   -28476.308   -2462.4283   -2783.5425    3322.7751    84.740271 
    3100    322.60454   -105.32462   0.29189937   -105.03272    8552.7417    4.3729642    4.3729642    4.3729642    8552.7417    28538.064   -1023.4971   -1856.3415   -281.33867   -1157.7172    3753.3902    83.623392 
    3200     385.8777   -105.38532   0.34915025   -105.03617   -5925.4734    4.3816474    4.3816474    4.3816474   -5925.4734   -2349.3443   -4434.2525   -10992.824    9967.9539     4281.198    460.20293    84.122519 
    3300    487.94785   -105.47271   0.44150547    -105.0312   -6442.3447    4.3843159    4.3843159    4.3843159   -6442.3447   -3740.1234   -8029.8335   -7557.0772   -2583.9472    805.12407    6163.0221    84.276312 
    3400    353.82763   -105.35206   0.32015068   -105.03191    3630.4078    4.3724098    4.3724098    4.3724098    3630.4078    10292.596    -3986.119    4584.7464    9051.5666   -4201.6005   -3923.7287     83.59159 
    3500    286.98897   -105.29075   0.25967365   -105.03108   -3518.8114    4.3918656    4.3918656    4.3918656   -3518.8114    23135.174   -7302.9322   -26388.676    -3291.554   -5718.2573    4243.3114    84.712424 
    3600    456.28963   -105.44117   0.41286045   -105.02831    7779.6131    4.3660554    4.3660554    4.3660554    7779.6131    14946.164    666.72262    7725.9525    6954.3919    1857.3987   -169.39559    83.227669 
    3700    413.38926   -105.40357   0.37404329   -105.02952   -24452.466    4.3944434    4.3944434    4.3944434   -24452.466   -25986.305   -16239.621   -31131.472    8822.1468    1945.0196    2378.1327    84.861681 
    3800    547.32844   -105.52154   0.49523428    -105.0263    9842.5756    4.3668159    4.3668159    4.3668159    9842.5756    19031.608    7601.0553    2895.0631   -1270.9778    2160.8974    2148.2523    83.271169 
    3900    209.13996    -105.2215   0.18923423   -105.03227   -10541.346    4.3923766    4.3923766    4.3923766   -10541.346    5840.4473    -16757.16   -20707.324    9735.7603   -5547.1647   -2187.6985    84.741998 
    4000    395.60955   -105.38658   0.35795584   -105.02863    13579.445    4.3700155    4.3700155    4.3700155    13579.445    26181.216     11602.84    2954.2781   -2304.9665   -4844.2102    2200.9412     83.45434 
    4100    462.83595   -105.44849   0.41878369   -105.02971   -15684.404    4.3902198    4.3902198    4.3902198   -15684.404   -22504.422   -18056.874   -6491.9168    10770.512   -1530.3077   -1111.7846     84.61723 
    4200    364.34255    -105.3601   0.32966479   -105.03044    5888.2452    4.3707543    4.3707543    4.3707543    5888.2452    7875.0269    14481.804   -4692.0951     3662.923    3826.8867    6203.5322    83.496673 
    4300    392.26517   -105.38608   0.35492977   -105.03115   -2818.0657    4.3875368    4.3875368    4.3875368   -2818.0657    14625.563   -6681.1868   -16398.573   -4575.7627    1454.2627    1363.7896    84.462187 
    4400    380.78798    -105.3766   0.34454497   -105.03206    3048.7439    4.3731908    4.3731908    4.3731908    3048.7439    18910.352   -360.73434   -9403.3858    7031.6229   -2586.1326   -1961.1649    83.636392 
    4500    493.39452   -105.47801   0.44643373   -105.03158   -9450.6002    4.3879604    4.3879604    4.3879604   -9450.6002   -5286.0142   -7891.3585   -15174.428    3242.0801   -4440.2067    2083.7458    84.486651 
    4600     473.3107      -105.46   0.42826147   -105.03173    4719.8703      4.37277      4.37277      4.37277    4719.8703    2490.7483    6699.6377     4969.225    4413.1603    2426.9171     94.27601    83.612249 
    4700    253.88954   -105.26702   0.22972459   -105.03729   -471.16377    4.3852585    4.3852585    4.3852585   -471.16377    18781.946   -8961.5898   -11233.847   -40.723891    3841.8771    5474.3588    84.330676 
    4800     417.1613   -105.41053   0.37745631   -105.03308    15291.273    4.3729031    4.3729031    4.3729031    15291.273    24703.625    15328.596     5841.597   -3068.3744    5042.8125   -1019.4211    83.619885 
    4900    443.42321   -105.43814   0.40121864   -105.03693    -15543.37    4.3873388    4.3873388    4.3873388    -15543.37   -11197.203   -16382.885   -19050.023    11191.506   -1691.2853    402.78064    84.450751 
    5000    518.85893   -105.50319   0.46947446   -105.03371    2061.7667    4.3726656    4.3726656    4.3726656    2061.7667    1348.7011    8744.4714   -3907.8726    196.10084   -4168.8411   -1274.0244     83.60626 
    5100    374.41443   -105.37565   0.33877805   -105.03688   -2430.1915    4.3852247    4.3852247    4.3852247   -2430.1915    12225.808   -2309.1515   -17207.231    619.50475    1274.2358    691.49165    84.328727 
    5200    274.57007   -105.28535   0.24843677   -105.03691     2009.561    4.3785004    4.3785004    4.3785004     2009.561    16499.582   -6305.4581   -4165.4405    1915.8818    3924.8087    3350.7538    83.941394 
    5300    531.70061   -105.51543   0.48109389   -105.03434    5787.1304    4.3735059    4.3735059    4.3735059    5787.1304    4835.6817    5218.6446     7307.065   -2448.4231    1760.1169    752.28096    83.654467 
    5400    351.63904   -105.35376   0.31817039   -105.03559   -20825.231    4.3903837    4.3903837    4.3903837   -20825.231   -27534.576   -23501.155   -11439.961    13304.166   -2260.6953   -1142.9115    84.626702 
    5500    443.89049   -105.43202   0.40164145   -105.03037    20393.629    4.3609704    4.3609704    4.3609704    20393.629    30684.098    24084.977    6411.8116   -7156.3289    -3902.735    -3238.818    82.937208 
    5600    335.27607   -105.33208   0.30336484   -105.02872    -21944.36    4.4019196    4.4019196    4.4019196    -21944.36   -8736.3244   -21766.666   -35330.088     236.0571    742.27277   -27.154168    85.295537 
    5700    346.54742   -105.33602   0.31356339   -105.02246    24087.191    4.3528796    4.3528796    4.3528796    24087.191    23758.194     30164.21     18339.17    2162.5788    4075.2925    1635.5551    82.476448 
    5800    550.51408   -105.52157   0.49811671   -105.02346   -28157.626    4.4032151    4.4032151    4.4032151   -28157.626   -34796.804    -25058.07   -24618.005    1094.0183    776.92015    1717.2368    85.370868 
    5900    352.20729   -105.34497   0.31868456   -105.02628     14998.95       4.3568       4.3568       4.3568     14998.95    12748.608    13908.144    18340.098    10965.846   -3627.3918   -3811.1925    82.699497 
    6000    356.64452   -105.35321   0.32269945   -105.03051   -7406.4522    4.3939251    4.3939251    4.3939251   -7406.4522    8.7266743    1896.9236   -24125.007    -6457.375    -3695.846   -2158.1921    84.831654 
    6100    334.61613   -105.33354    0.3027677   -105.03077    9652.2437    4.3684337    4.3684337    4.3684337    9652.2437    22125.136    11562.754   -4731.1588    1028.7287   -1685.2121   -2159.5408    83.363752 
    6200    508.93653   -105.49537   0.46049647   -105.03488    -11176.48    4.3791601    4.3791601    4.3791601    -11176.48   -10788.959   -7953.8974   -14786.585    9668.7114     688.7307    2228.2934    83.979342 
    6300    542.75339   -105.52159   0.49109468    -105.0305   -8006.6728    4.3836376    4.3836376    4.3836376   -8006.6728   -9434.9236   -364.87811   -14220.217    804.54038    1503.8101    2231.6507    84.237199 
    6400    344.27358   -105.34209   0.31150597   -105.03058    2348.4222    4.3696713    4.3696713    4.3696713    2348.4222    6638.4645    4346.0934   -3939.2912    7068.5269   -1666.1308   -3559.7896    83.434621 
    6500    272.91963   -105.27724   0.24694341    -105.0303    4914.6679    4.3865287    4.3865287    4.3865287    4914.6679    19636.761     6902.773   -11795.531   -10540.516   -5615.4262    464.90004    84.403978 
    6600    384.46167   -105.37784     0.347869   -105.02997    9366.3498    4.3691198    4.3691198    4.3691198    9366.3498    15638.545    8999.7514    3460.7531   -35.906616    -2753.727   -5766.7247    83.403033 
    6700    438.45909   -105.42633     0.396727    -105.0296    -15217.45    4.3877924    4.3877924    4.3877924    -15217.45   -13692.801   -20978.804   -10980.745    8914.9871    -2291.607    3739.1782    84.476945 
    6800    515.24628    -105.4939   0.46620566    -105.0277    9663.2886    4.3678343    4.3678343    4.3678343    9663.2886    6233.3357    17503.338    5253.1918   -4123.9434    4352.3804    1742.9567     83.32944 
    6900    340.03008   -105.34064   0.30766636   -105.03297   -14638.925    4.3889568    4.3889568    4.3889568   -14638.925   -4410.0277   -14480.067    -25026.68    6252.8059    1268.5923    1384.8641     84.54422 
    7000    290.89622   -105.29346   0.26320901   -105.03025    24721.495    4.3653143    4.3653143    4.3653143    24721.495    38251.832    26907.072    9005.5809   -9372.4613   -2933.8645    602.64012    83.185294 
    7100    456.10399    -105.4441   0.41269248   -105.03141   -18383.323    4.3911839    4.3911839    4.3911839   -18383.323    -12099.37   -24364.789   -18685.811    6021.2455   -3019.8331   -4940.0683    84.672985 
    7200    446.64717   -105.43214   0.40413574     -105.028    6505.1497    4.3672242    4.3672242    4.3672242    6505.1497    3774.1423    7107.7173    8633.5896    8628.4536   -1422.2373    3857.2893    83.294529 
    7300    493.65421   -105.47673    0.4466687   -105.03006   -7733.6309    4.3846561    4.3846561    4.3846561   -7733.6309   -3717.5388   -10092.108   -9391.2464   -2147.5199     3681.753   -1109.6567    84.295932 
    7400    215.35345    -105.2286   0.19485633   -105.03375      7351.85    4.3758261    4.3758261    4.3758261      7351.85    20474.542    11962.443   -10381.434    570.07006    1863.8197      4932.23    83.787681 
    7500    410.98281   -105.40613   0.37186588   -105.03426    7816.6383    4.3739405    4.3739405    4.3739405    7816.6383    19147.739    7641.0781   -3338.9022   -5058.3135   -1202.6194   -3242.7452    83.679409 
    7600    466.93822   -105.45414   0.42249552   -105.03164   -14062.702    4.3857927    4.3857927    4.3857927   -14062.702   -9597.6586   -17714.378   -14876.071    1972.1932   -3107.2579   -3206.7485      84.3615 
    7700    481.01554   -105.46588   0.43523297   -105.03065    6775.5607     4.365854     4.365854     4.365854    6775.5607     3914.387    10016.563    6395.7322    9205.9824   -1751.1058    336.09795     83.21615 
    7800    356.87717   -105.35388   0.32290996   -105.03097   -9494.8704    4.3921984    4.3921984    4.3921984   -9494.8704    2752.9311   -14139.521   -17098.021   -11307.071    3844.3221   -3802.1955    84.731684 
    7900    239.71745   -105.24626   0.21690139   -105.02936    21676.244    4.3629349    4.3629349    4.3629349    21676.244    39983.225    19535.407    5510.0997    681.35918    2216.7607    5316.6857    83.049343 
    8000    419.96863   -105.41073   0.37999644   -105.03074   -11927.784    4.3897475    4.3897475    4.3897475   -11927.784   -7265.5912   -10500.203   -18017.558    -4658.323    1166.6853   -5203.7376    84.589923 
    8100     531.1062   -105.50981   0.48055605   -105.02925   -1146.4159    4.3700517    4.3700517    4.3700517   -1146.4159   -3524.3632   -3855.4986     3940.614    6003.7676   -2481.7059    308.70411    83.456413 
    8200    418.60747   -105.41193   0.37876484   -105.03317   -5932.7673    4.3794543    4.3794543    4.3794543   -5932.7673     806.6225   -3762.2651   -14842.659    6544.2327   -2589.3405   -4019.5296    83.996267 
    8300    291.13635   -105.29688   0.26342629   -105.03345    4185.4964    4.3821131    4.3821131    4.3821131    4185.4964    17611.419    4390.0133   -9444.9428    -12196.54    271.81401   -2412.3106    84.149346 
    8400     354.8568   -105.35231   0.32108189   -105.03123    9250.4763    4.3686894    4.3686894    4.3686894    9250.4763    12271.769     12503.73      2975.93    5664.9371    3239.9756    5120.0836     83.37839 
    8500    478.93507   -105.46372   0.43335051   -105.03037   -13434.337    4.3881723    4.3881723    4.3881723   -13434.337   -15783.479   -10115.054   -14404.478    922.47416    333.39374   -3658.9149     84.49889 
    8600    523.49168     -105.503   0.47366628   -105.02933     2720.807    4.3697502    4.3697502    4.3697502     2720.807   -1289.3528   -127.07127    9578.8451    4930.9631   -2164.6791    813.55351    83.439143 
    8700     315.7091   -105.31904   0.28566023   -105.03338    20.662024    4.3814905    4.3814905    4.3814905    20.662024    8779.0007    5208.8062   -13925.821    1241.9489    -3687.118    -5953.304    84.113483 
    8800    294.30036   -105.29891   0.26628915   -105.03262    10975.665    4.3773316    4.3773316    4.3773316    10975.665    22223.989    13922.974   -3219.9691   -14415.497   -466.84145   -1277.0487    83.874193 
    8900    423.14153   -105.41553   0.38286734   -105.03266    3298.6841    4.3732409    4.3732409    4.3732409    3298.6841    12454.345    3810.4182   -6368.7108    5811.5958    1695.8524    1442.9944    83.639264 
    9000    495.29121   -105.47952    0.4481499   -105.03137   -15206.033    4.3851285    4.3851285    4.3851285   -15206.033   -14033.085   -17231.487   -14353.527    2297.3685    913.25926    -5393.307    84.323182 
    9100    487.45457   -105.47109   0.44105914   -105.03003    10580.455    4.3681354    4.3681354    4.3681354    10580.455    10119.924    16212.646    5408.7946   -650.70787   -563.08771    982.88587    83.346674 
    9200    232.03757   -105.24472   0.20995247   -105.03476   -7856.2231    4.3882071    4.3882071    4.3882071   -7856.2231    14142.307   -11518.199   -26192.778    81.249638   -3908.2517   -10013.181    84.500904 
    9300    336.50751   -105.33519   0.30447906   -105.03071    22865.346    4.3639936    4.3639936    4.3639936    22865.346    36765.131    23545.089     8285.819   -9973.9263    910.35442   -681.33867    83.109814 
    9400    499.78139   -105.48424    0.4522127   -105.03203   -23240.649    4.3914182    4.3914182    4.3914182   -23240.649   -16383.551   -24893.879   -28444.518    8915.2504   -578.10814   -1763.5724     84.68654 
    9500    467.62284   -105.45384   0.42311497   -105.03073    3777.1404    4.3634754    4.3634754    4.3634754    3777.1404    4867.7094    3487.3597    2976.3521     4916.919    2349.3302   -6209.1479    83.080214 
    9600    449.48301   -105.43843   0.40670167   -105.03173   -9115.9314    4.3892479    4.3892479    4.3892479   -9115.9314    6232.0661   -10476.473   -23103.387   -5656.4141   -217.53144    2961.7287     84.56104 
    9700    137.56033   -105.16009   0.12446748   -105.03562    12489.791    4.3687777    4.3687777    4.3687777    12489.791    38062.755    10578.169    -11171.55   -1769.7441   -3979.5905   -10648.915    83.383445 
    9800    473.31765   -105.46289   0.42826775   -105.03462   -1664.1821    4.3813498    4.3813498    4.3813498   -1664.1821   -195.52781   -1290.1323   -3506.8862   -7085.0704    -3460.067   -728.26307    84.105379 
    9900    430.41409   -105.42421   0.38944772   -105.03476   -9542.4376    4.3772118    4.3772118    4.3772118   -9542.4376   -5176.2162   -10561.338   -12889.759    8003.8643   -1501.0444   -6063.9125    83.867307 
   10000    442.08527   -105.43444   0.40000804   -105.03443    980.09667    4.3707574    4.3707574    4.3707574    980.09667    2087.7265   -1562.1219    2414.6854    2564.9837    2042.7143   -2172.8762    83.496853 
   10100    410.12393   -105.40227   0.37108875   -105.03118   -7060.6384     4.388848     4.388848     4.388848   -7060.6384    7187.2222   -6463.4313   -21905.706   -6050.4718    2477.8059    2601.6512    84.537933 
   10200    189.60786   -105.20164   0.17156118   -105.03008    17589.638    4.3589962    4.3589962    4.3589962    17589.638    36186.621    18708.417   -2126.1246   -405.34481   -3062.2408    -11094.21    82.824621 
   10300    500.26519   -105.47807   0.45265046   -105.02542   -16495.545    4.3967369    4.3967369    4.3967369   -16495.545   -16493.364   -14039.682    -18953.59   -3565.8427   -3750.9174   -1444.1508    84.994619 
   10400    441.02282   -105.42503   0.39904671   -105.02598    10243.573      4.35596      4.35596      4.35596    10243.573    12017.053    6204.6163     12509.05    7454.4618   -924.99459    -9015.507    82.651674 
   10500    425.75234   -105.41548   0.38522967   -105.03025   -21341.278     4.394813     4.394813     4.394813   -21341.278   -22465.567   -24481.023   -17077.244    6309.5186    2566.9006   -79.871254    84.883097 
   10600    394.65501   -105.38644   0.35709215   -105.02934    19690.204    4.3625789    4.3625789    4.3625789    19690.204    29822.808    25716.294    3531.5112   -7853.7816    5343.3376    2636.5546    83.029014 
   10700    253.63054   -105.26522   0.22949024   -105.03573   -8219.3866    4.3828839    4.3828839    4.3828839   -8219.3866    6955.8779   -8958.2329   -22655.805    4419.1871   -3751.1031   -10448.559    84.193758 
   10800    498.38481   -105.47963   0.45094905   -105.02868    4954.3038     4.375565     4.375565     4.375565    4954.3038    6294.9783    6358.8092    2209.1239    -1717.565   -4432.3976   -486.87697    83.772684 
   10900    436.77174   -105.42636   0.39520025   -105.03116   -5310.6522    4.3714352    4.3714352    4.3714352   -5310.6522    -4997.118   -11307.674    372.83476    7389.2897   -547.37594      -9028.4    83.535704 
   11000      398.525   -105.39168   0.36059379   -105.03108   -9326.0324     4.385515     4.385515     4.385515   -9326.0324   -16367.654   -9919.6119   -1690.8313    6162.4102    2123.9694    3408.0538    84.345476 
   11100    397.83079   -105.38772   0.35996566   -105.02775    17055.244    4.3647664    4.3647664    4.3647664    17055.244    30366.076    23385.427   -2585.7713   -9605.5802    6328.7913      501.848    83.153975 
   11200    247.52655   -105.25702   0.22396723   -105.03306   -10774.582    4.3877543    4.3877543    4.3877543   -10774.582    5778.7849   -13096.595   -25005.935    2216.3614   -3596.5464    -7607.285     84.47475 
   11300    507.55397   -105.48699    0.4592455   -105.02775    11188.203    4.3668909    4.3668909    4.3668909    11188.203    15026.445    12258.183     6279.982    739.23013   -1256.4034   -1296.1468    83.275457 
   11400    482.91385   -105.46807    0.4369506   -105.03112   -15864.927    4.3816622    4.3816622    4.3816622   -15864.927    -14060.72   -20836.605   -12697.455    4842.6467   -1599.6148    -7181.602    84.123371 
   11500    349.75794   -105.34941   0.31646833   -105.03294    3315.1881    4.3755859    4.3755859    4.3755859    3315.1881    598.43837    3963.7407    5383.3852    7592.4817    4595.1336    3196.2136     83.77388 
   11600    375.49028     -105.371    0.3397515   -105.03125    10823.819    4.3716745    4.3716745    4.3716745    10823.819     31691.18    11765.372   -10985.095    -10363.24    7345.5454   -821.03748    83.549425 
   11700     262.9229    -105.2723   0.23789817    -105.0344   -4557.4028    4.3835733    4.3835733    4.3835733   -4557.4028    11093.868   -4830.6846   -19935.392     5419.287   -1066.5755   -3556.1717    84.233497 
   11800     561.2572   -105.53671   0.50783731   -105.02887    409.54211    4.3695743    4.3695743    4.3695743    409.54211     2264.764    4150.8197   -5186.9574    4080.8937    1297.6032   -1691.0258    83.429069 
   11900     505.8488   -105.48958   0.45770263   -105.03188   -12766.143    4.3802497    4.3802497    4.3802497   -12766.143   -5811.6647   -10084.376   -22402.388    5366.6278   -2640.8002    -7230.024    84.042042 
   12000    330.63401   -105.33351    0.2991646   -105.03435    303.18318    4.3770899    4.3770899    4.3770899    303.18318    8192.1456     87.20889   -7369.8049    6022.6312    3187.3228    1731.4652    83.860298 
   12100    318.93223   -105.32041   0.28857659   -105.03184    14345.138    4.3692979    4.3692979    4.3692979    14345.138    34008.735    15712.138   -6685.4575   -9528.4438    6280.9488   -2059.9193    83.413238 
   12200    304.52927   -105.30764   0.27554448    -105.0321   -8938.5776    4.3854886    4.3854886    4.3854886   -8938.5776   -5357.5202   -6871.1922    -14587.02    6094.4649    1936.7504    770.41205    84.343956 
   12300    563.73548   -105.53793   0.51007971   -105.02785    2941.7991    4.3652268    4.3652268    4.3652268    2941.7991   -2992.3204     3624.913    8192.8048    6886.3429    1477.4976    366.85866    83.180292 
   12400    458.67618   -105.44615   0.41501985   -105.03113    -14464.92    4.3862966    4.3862966    4.3862966    -14464.92   -8600.3714   -10193.845   -24600.544    2382.8126   -4500.9264   -9430.1086     84.39058 
   12500    328.64747   -105.32997   0.29736713    -105.0326    8626.1946    4.3678835    4.3678835    4.3678835    8626.1946    18406.045    5899.5853    1572.9537    4590.5638    109.07911    2664.7077    83.332257 
   12600    341.06196   -105.34123   0.30860003   -105.03263    3076.8883    4.3805652    4.3805652    4.3805652    3076.8883    15891.474    9464.7492   -16125.559    -9583.702    6518.4597    -3001.893    84.060203 
   12700    363.80285   -105.36139   0.32917647   -105.03221   -1010.8173    4.3732557    4.3732557    4.3732557   -1010.8173    254.91651   -7327.6925    4040.3241    7764.1894    4203.1818    3296.0698    83.640111 
   12800    488.22039   -105.47334   0.44175207   -105.03158   -5781.7856    4.3765504    4.3765504    4.3765504   -5781.7856   -14596.959   -8443.9812    5695.5837    7025.2213    2006.4859   -2095.2815    83.829295 
   12900    481.16235   -105.46603    0.4353658   -105.03066   -6537.7246    4.3789598    4.3789598    4.3789598   -6537.7246   -3862.1568   -6912.4851   -8838.5319    1462.7248   -4476.7809   -8675.7386    83.967822 
   13000    298.40028   -105.30121   0.26999885   -105.03121    4781.1814    4.3717161    4.3717161    4.3717161    4781.1814    8687.0963    5062.8017    593.64635    5442.3169    -740.0737    469.11116    83.551806 
   13100    397.61578   -105.38933   0.35977112   -105.02955    1272.4162    4.3799453    4.3799453    4.3799453    1272.4162      11862.9    11026.516   -19072.167   -9125.8199    6523.0874   -3184.1255    84.024525 
   13200    350.00899   -105.34848   0.31669549   -105.03178    -378.9591    4.3717851    4.3717851    4.3717851    -378.9591   -3605.7832   -10714.636    13183.542    10629.812    3240.3517    4352.6025    83.555765 
   13300    474.07393   -105.46045   0.42895205    -105.0315   -6340.4445    4.3783188    4.3783188    4.3783188   -6340.4445   -17346.298   -6507.2861    4832.2506    4580.5935    3279.4688   -1536.1808    83.930949 
   13400    477.05628   -105.46231   0.43165055   -105.03066   -3006.8605     4.376126     4.376126     4.376126   -3006.8605   -4414.6965   -7219.3238     2613.439    3639.2477   -6340.2247   -6673.3934     83.80491 
   13500    259.88592    -105.2673   0.23515024   -105.03215   -348.97187    4.3757656    4.3757656    4.3757656   -348.97187    1705.1266    431.93964   -3183.9818    3900.9223   -616.55401    554.95455    83.784207 
   13600    484.86078   -105.46802   0.43871222    -105.0293    2925.6366    4.3761272    4.3761272    4.3761272    2925.6366    14143.071    7108.6118   -12474.773   -6562.9943    4547.6292   -355.41154    83.804978 
   13700    289.94226   -105.29518   0.26234585   -105.03284   -4262.0411    4.3770222    4.3770222    4.3770222   -4262.0411   -12415.188   -13685.568    13314.632    9139.7868    4601.6413    6212.4553    83.856407 
   13800    506.97777   -105.49063   0.45872414   -105.03191    48.318037    4.3718963    4.3718963    4.3718963    48.318037   -11216.479    1650.2746    9711.1582    4840.6867    2139.5048   -1918.0239     83.56214 
   13900    422.91001   -105.41508   0.38265787   -105.03242   -5310.1844       4.3809       4.3809       4.3809   -5310.1844   -11195.692   -10336.195    5601.3338    1711.4812    -5871.263   -5797.2116    84.079479 
   14000    313.81712   -105.31721   0.28394833   -105.03326    4412.8697    4.3704138    4.3704138    4.3704138    4412.8697    7861.8609    9036.8317   -3660.0834    3257.8782   -926.06708    1412.3422    83.477162 
   14100    474.62548   -105.45947   0.42945111   -105.03002   -1016.2239    4.3821621    4.3821621    4.3821621   -1016.2239    6538.6484   -3583.7481    -6003.572   -7806.2837    5948.8855   -40.622779    84.152167 
   14200    269.49036   -105.27642   0.24384054   -105.03258    2908.4848      4.37009      4.37009      4.37009    2908.4848   -4883.4705   -8778.8518    22387.777    11264.492    5616.0022    4882.1673    83.458607 
   14300    504.90288   -105.48714   0.45684673   -105.03029   -4803.6805       4.3795       4.3795       4.3795   -4803.6805   -18432.589   -10022.636    14044.183    362.32765    786.69256   -3572.9034    83.998896 
   14400     421.7283   -105.41368   0.38158863   -105.03209    874.19267    4.3734283    4.3734283    4.3734283    874.19267   -3444.8971   -2957.4303    9024.9054     5708.518   -5360.5266   -5299.6661    83.650016 
   14500      357.408   -105.35855   0.32339026   -105.03516   -3825.4497    4.3758168    4.3758168    4.3758168   -3825.4497   -4090.0145   -1620.6602   -5765.6743    1488.4018   -1603.0369      1758.64    83.787143 
   14600    452.88553   -105.44001   0.40978034   -105.03022    4294.4611    4.3790732    4.3790732    4.3790732    4294.4611    6849.6202    2893.3082    3140.4549   -3920.1987    7452.9523    2903.6785    83.974345 
   14700    252.70529   -105.26129   0.22865306   -105.03263    1724.1764    4.3713448    4.3713448    4.3713448    1724.1764   -12791.489   -13319.264    31283.282    11272.545    1955.4275    4654.2927    83.530522 
   14800    496.20954   -105.47859   0.44898082   -105.02961   -1656.3508    4.3798129    4.3798129    4.3798129   -1656.3508   -12585.025   -5570.2421    13186.215   -959.98391    602.42784   -192.78802    84.016906 
   14900    447.19481   -105.43646   0.40463126   -105.03183   -5857.4921    4.3737671    4.3737671    4.3737671   -5857.4921   -5916.2653    -13126.42     1470.209    9832.4455   -7653.9895   -4763.9144    83.669459 
   15000    388.15826   -105.38511   0.35121375    -105.0339   -2294.9135    4.3744722    4.3744722    4.3744722   -2294.9135   -2324.5993   -1130.1641   -3429.9769    -1807.684    1129.4751    4643.0802    83.709928 
   15100    424.26761   -105.41545   0.38388625   -105.03156    1697.5711    4.3798998    4.3798998    4.3798998    1697.5711    657.55116   -8138.3074     12573.47    1169.2884    6374.5786    2921.1541    84.021903 
   15200    203.87715   -105.21858   0.18447233   -105.03411    5241.9997    4.3703161    4.3703161    4.3703161    5241.9997   -14746.718   -10416.955    40889.672    7236.1922    1426.8359    5437.1238    83.471567 
   15300    537.58305   -105.51661   0.48641644    -105.0302    -4492.002    4.3809887    4.3809887    4.3809887    -4492.002   -7696.1231   -8668.9475    2889.0646   -669.09777   -2584.0459    530.82433    84.084587 
   15400    459.48332   -105.44763   0.41575016   -105.03188   -7638.4392    4.3727585    4.3727585    4.3727585   -7638.4392   -8666.1938   -12645.603   -1603.5209    10513.048    -4348.893   -3267.0279    83.611589 
   15500    373.83936   -105.37252   0.33825771   -105.03426    3102.4908    4.3758364    4.3758364    4.3758364    3102.4908    5136.7834   -4053.8953    8224.5844   -4116.6339    3857.3103    3878.5744     83.78827 
   15600     339.4687   -105.34019   0.30715841   -105.03303    5557.9556    4.3780587    4.3780587    4.3780587    5557.9556   -8695.8248   -8486.6432    33856.335    2889.4863    8069.1199    3640.2342    83.915991 
   15700    286.43092   -105.29308   0.25916872   -105.03391    8029.5869    4.3701368    4.3701368    4.3701368    8029.5869    -10110.35    1540.9847    32658.126    2034.0841   -800.44027    4974.3546    83.461289 
   15800    576.17764   -105.55009   0.52133764   -105.02875   -11319.992    4.3837326    4.3837326    4.3837326   -11319.992   -15805.094   -7298.2008   -10856.681   -320.75187   -2405.9477    2875.9519    84.242678 
   15900    412.84595   -105.40416   0.37355169   -105.03061    945.37535    4.3670041    4.3670041    4.3670041    945.37535   -10472.254   -7056.2552    20364.635    10792.987    -1737.252    -4904.377    83.281935 
   16000    392.02089   -105.38631   0.35470874   -105.03161   -2185.4921    4.3823919    4.3823919    4.3823919   -2185.4921    -13433.77   -13961.725    20839.019   -3215.5223    1029.3745    5205.6743     84.16541 
   16100    286.17175   -105.29152   0.25893421   -105.03258    8697.4517    4.3713767    4.3713767    4.3713767    8697.4517    -6041.687   -4892.3766    37026.419     8252.174    6466.6173    4675.3068    83.532351 
   16200    426.62332   -105.41894   0.38601774   -105.03292   -1555.4745    4.3748773    4.3748773    4.3748773   -1555.4745   -4782.8372    647.63473    -531.2209   -3069.4515   -2078.0255    3707.2363     83.73319 
   16300    465.03708    -105.4513   0.42077532   -105.03052   -6640.3254    4.3804557    4.3804557    4.3804557   -6640.3254    -8997.127    1439.3212    -12363.17    3254.3085   -2585.1467   -926.52059    84.053903 
   16400    417.26364   -105.40822   0.37754891   -105.03067    1155.8905    4.3697204    4.3697204    4.3697204    1155.8905    -13623.69   -9475.5915    26566.953    9897.5813   -3735.7546   -4301.7415    83.437434 
   16500    385.34705   -105.37931   0.34867011   -105.03064     276.2213    4.3814189    4.3814189    4.3814189     276.2213   -9410.7814   -5100.9663    15340.412   -2545.4035    2319.8169    5637.5997    84.109362 
   16600    332.02785   -105.33151   0.30042578   -105.03108    1471.8055    4.3739774    4.3739774    4.3739774    1471.8055    -5433.099   -4351.2464    14199.762    10239.257    4614.8796    6651.6301    83.681528 
   16700     400.2356   -105.39306   0.36214158   -105.03092     5699.588    4.3724348    4.3724348    4.3724348     5699.588    3113.7411    20475.781   -6490.7577   -10934.046   -239.78217     1767.318    83.593023 
   16800    460.50097   -105.44751   0.41667095   -105.03084   -13489.419    4.3828608    4.3828608    4.3828608   -13489.419   -10621.942   -10944.732   -18901.583    7751.5701   -3563.6864     727.2188    84.192428 
   16900    449.12838   -105.43643    0.4063808   -105.03005    3328.3134    4.3661769    4.3661769    4.3661769    3328.3134   -7169.6657   -2523.0121    19677.618    4086.9335   -2996.1203   -3877.2724    83.234615 
   17000    393.03168   -105.38748   0.35562333   -105.03186   -4125.2873    4.3841681    4.3841681    4.3841681   -4125.2873    -13247.71    2631.7241   -1759.8762   -1924.5251   -449.98557    9307.0074    84.267789 
   17100    254.69002    -105.2636   0.23044888   -105.03315    10587.316    4.3694539    4.3694539    4.3694539    10587.316    -2160.251    16132.181    17790.018    4161.0734    5784.7313    6309.5006     83.42217 
   17200    343.13843   -105.34341   0.31047886   -105.03293    4485.8356    4.3785954    4.3785954    4.3785954    4485.8356    7730.2245    13269.246   -7541.9632   -13023.337    2707.4375    3871.7752    83.946858 
   17300    467.06646   -105.45334   0.42261154   -105.03072   -8228.7639    4.3774217    4.3774217    4.3774217   -8228.7639   -233.33623   -13668.211   -10784.744    8843.8705    321.08983   -464.42401    83.879368 
   17400    499.74541   -105.48297   0.45218015   -105.03079   -1932.0437    4.3699709    4.3699709    4.3699709   -1932.0437    -4709.112    1775.5572   -2862.5762    5431.7663   -3945.5352   -3371.3943    83.451786 
   17500    472.48197   -105.45812   0.42751162   -105.03061   -12408.887    4.3850411    4.3850411    4.3850411   -12408.887   -15182.738   -87.226499   -21956.697   -2028.1255   -4030.8391    3853.4462    84.318137 
   17600    319.45408   -105.31933   0.28904877   -105.03029     13273.08    4.3632264    4.3632264    4.3632264     13273.08    11739.311    12996.818    15083.112    5186.6247     3161.165     4598.048    83.065992 
   17700    312.10422   -105.31292   0.28239846   -105.03052   -4073.0205    4.3879296    4.3879296    4.3879296   -4073.0205    3781.6596   -12207.715   -3793.0061   -10780.843     5028.972     4136.441    84.484871 
   17800    422.56429   -105.41177   0.38234505   -105.02943    9344.4893    4.3620726    4.3620726    4.3620726    9344.4893     6894.281   -2566.5271    23705.714    13353.074     3117.695    502.62589    83.000111 
   17900    384.30503   -105.38067   0.34772727   -105.03294   -9853.5027    4.3849502    4.3849502    4.3849502   -9853.5027   -19747.084   -4388.0367   -5425.3872   -494.21457   -2277.6702   -5218.2807    84.312895 
   18000    502.83479   -105.48548   0.45497548    -105.0305    349.04852     4.370814     4.370814     4.370814    349.04852   -1306.4163    9062.7626   -6709.2008   -4330.8045   -6655.6913    843.61343    83.500097 
   18100    313.26902   -105.31631    0.2834524   -105.03285    2089.9263    4.3739341    4.3739341    4.3739341    2089.9263    11592.007    171.07958   -5493.3077    3546.6239    2426.0346    2396.9055    83.679045 
   18200     461.3863   -105.44707   0.41747202    -105.0296   -8758.8226    4.3822811    4.3822811    4.3822811   -8758.8226   -4612.7678   -14149.322   -7514.3777   -10156.524     3935.914    4260.6812    84.159023 
   18300    391.23672   -105.38187   0.35399921   -105.02787    8339.2644    4.3643274    4.3643274    4.3643274    8339.2644   -630.19583    658.50888     24989.48     14217.87    3060.2094    791.07083    83.128887 
   18400    353.12219   -105.34977   0.31951238   -105.03026   -8922.4985    4.3856862    4.3856862    4.3856862   -8922.4985   -24003.687   -8648.6728    5884.8642   -6507.4736   -2929.2054    -6081.631    84.355354 
   18500    378.24725   -105.37145   0.34224606   -105.02921    13460.874    4.3652031    4.3652031    4.3652031    13460.874    17185.539    15852.534    7344.5497   -3534.8647   -7863.0724   -207.36282    83.178935 
   18600    315.29587   -105.31837   0.28528633   -105.03308    -5915.367    4.3813791    4.3813791    4.3813791    -5915.367    4234.3383   -9867.4558   -12112.983    2337.8565   -828.30568    -984.2097    84.107066 
   18700     545.7597   -105.52309   0.49381485   -105.02928   -3758.6319    4.3733279    4.3733279    4.3733279   -3758.6319   -476.11772   -1502.3479   -9297.4301   -5835.1363    1624.0475    4693.4477    83.644256 
   18800    524.25282   -105.50384   0.47435497   -105.02949   -6962.5474    4.3745857    4.3745857    4.3745857   -6962.5474    -11076.62   -2563.5796    -7247.442    12820.442    1342.4296    1606.8369    83.716446 
   18900    336.63278   -105.33806   0.30459241   -105.03347   -1494.1736    4.3771134    4.3771134    4.3771134   -1494.1736    1075.9621    -4599.087   -959.39601   -7677.2718   -1614.5345   -1370.2312    83.861649 
   19000    329.96904   -105.32998   0.29856292   -105.03141    14038.208    4.3707177    4.3707177    4.3707177    14038.208    23953.058    12743.032    5418.5345   -5438.3905   -9838.1978   -3077.2046    83.494576 
   19100    291.84598   -105.29765   0.26406838   -105.03358   -594.16698    4.3787088    4.3787088    4.3787088   -594.16698      -2743.8   -8277.8131    9239.1122     4130.254   -4041.8683   -3056.2893    83.953384 
   19200    510.24501   -105.49162    0.4616804   -105.02994   -1038.5227    4.3718408    4.3718408    4.3718408   -1038.5227   -9436.2683   -3410.2031    9730.9033   -6386.4191   -858.33905   -158.59735    83.558958 
   19300      457.465   -105.44554   0.41392395   -105.03162   -3608.8184    4.3770336    4.3770336    4.3770336   -3608.8184    2153.3154   -7795.3663   -5184.4043    11577.151    4636.7375    3991.7861    83.857063 
   19400    365.79406   -105.36378   0.33097815    -105.0328   -1058.8768    4.3743179    4.3743179    4.3743179   -1058.8768    6689.6174    -4084.695   -5781.5528    -11724.21    1294.6663   -96.352529    83.701071 
   19500    446.08964   -105.43492   0.40363128   -105.03129    5149.4156    4.3735617    4.3735617    4.3735617    5149.4156    7933.9097    10198.639   -2684.3023   -1259.7212   -7424.6863   -1488.0856     83.65767 
   19600    306.18202   -105.31084   0.27703993    -105.0338   -1195.7552    4.3762118    4.3762118    4.3762118   -1195.7552   -17251.692   -2304.9782    15969.404    3333.2557   -2167.4686   -5637.1868    83.809837 
   19700    460.03525   -105.44778   0.41624956   -105.03153    1258.8206    4.3746283    4.3746283    4.3746283    1258.8206    -4985.907   -5833.6102    14595.979   -4269.1622    2650.8007   -1060.5827     83.71889 
   19800    359.49943   -105.35709   0.32528264   -105.03181    3606.5665    4.3742307    4.3742307    4.3742307    3606.5665    8913.3318   -6325.2805    8231.6482    8305.1648    5120.0678    2836.5157    83.696066 
   19900    338.59642   -105.33916   0.30636915   -105.03279    -2284.192    4.3758759    4.3758759    4.3758759    -2284.192    5499.8758   -6496.7121   -5855.7396   -14400.638    1225.6645    1956.9771    83.790542 
   20000    548.85782   -105.52641   0.49661809   -105.02979   -3512.7811    4.3745309    4.3745309    4.3745309   -3512.7811   -7588.3879    8776.2483   -11726.204    1562.5062   -7310.6612   -228.19309    83.713303 
   20100    365.91792   -105.36385   0.33109022   -105.03276   -5069.5214    4.3741871    4.3741871    4.3741871   -5069.5214   -14621.285   -3615.6966    3028.4173      2829.52   -2126.0547   -4203.7559    83.693567 
   20200    441.38665   -105.43104   0.39937592   -105.03166   -3190.9148    4.3781698    4.3781698    4.3781698   -3190.9148    77.095318   -13322.197    3672.3578   -3703.4324    2546.3041   -1995.0206    83.922384 
   20300    294.48151   -105.29867   0.26645306   -105.03222    10993.914    4.3693013    4.3693013    4.3693013    10993.914    12585.506    4128.2794    16267.957    4130.8479    3284.4822    2179.7494     83.41343 
   20400    335.67699   -105.33659   0.30372759   -105.03286   -8703.1615    4.3824095    4.3824095    4.3824095   -8703.1615   -17725.641   -8196.0742   -187.76911   -13512.647     3616.514    4863.2106    84.166424 
   20500     474.4569    -105.4584   0.42929857    -105.0291    9743.2902    4.3659587    4.3659587    4.3659587    9743.2902   -4851.1804    31028.055    3052.9959    5328.3359   -7721.7418    1801.8368    83.222138 
   20600    408.84116   -105.40235   0.36992807   -105.03242   -18918.467    4.3832111    4.3832111    4.3832111   -18918.467   -24128.622   -19788.307   -12838.472    2672.0713   -988.97091   -1512.0818    84.212615 
   20700    469.97419     -105.456   0.42524252   -105.03076    3804.3582    4.3680389    4.3680389    4.3680389    3804.3582    9464.2893    2252.6512   -303.86583   -6279.6015   -1655.0128   -4414.4225    83.341148 
   20800    381.11119   -105.37658   0.34483741   -105.03175   -2781.1332    4.3785383    4.3785383    4.3785383   -2781.1332   -9665.1448    4878.4629   -3556.7175    1074.3864    2336.4949    2340.0614    83.943574 
   20900    232.98917    -105.2446   0.21081349   -105.03379    2330.9254    4.3742908    4.3742908    4.3742908    2330.9254   -16090.946    8369.0635    14714.659   -15912.783     3610.519    3145.9022    83.699516 
   21000    478.03229   -105.46308   0.43253367   -105.03055    7594.0118    4.3698783    4.3698783    4.3698783    7594.0118   -11241.781    24346.028    9677.7883    6730.3021    -4909.135     3716.801    83.446481 
   21100    414.47573   -105.40785   0.37502635   -105.03283   -16991.118    4.3823903    4.3823903    4.3823903   -16991.118   -28784.292   -22749.955    560.89237   -5383.5968   -1541.0544   -3970.5757    84.165316 
   21200    483.97617   -105.46876   0.43791181   -105.03085    6961.9356     4.364649     4.364649     4.364649    6961.9356    1938.8646    20680.947   -1734.0053    -5807.852   -4947.9204   -3234.1998    83.147266 
   21300    356.47801   -105.35456    0.3225488   -105.03201   -6231.9922    4.3839102    4.3839102    4.3839102   -6231.9922   -19742.831    8259.1739   -7212.3197   -4406.7229    1077.9992    2006.6341    84.252917 
   21400    266.62604   -105.27398   0.24124884   -105.03273    9491.3089    4.3668094    4.3668094    4.3668094    9491.3089   -9756.9997    11807.111    26423.815   -11769.713    3065.6971    7149.7096    83.270797 
   21500     469.7613   -105.45512   0.42504989   -105.03007   -566.15683    4.3782116    4.3782116    4.3782116   -566.15683   -16867.362   -880.63383    16049.526    3856.0325   -2140.0606    595.72066    83.924784 
   21600    393.40036    -105.3877   0.35595691   -105.03174   -10178.411    4.3760586    4.3760586    4.3760586   -10178.411   -25858.651   -17383.004    12706.422   -6006.4586   -1030.2792   -3689.0959    83.801037 
   21700     526.1993    -105.5062   0.47611619   -105.03009    2704.1585    4.3693787    4.3693787    4.3693787    2704.1585   -8677.2967    18826.403   -2036.6306   -884.34191   -6065.7246    -2832.211    83.417863 
   21800     365.1268    -105.3622    0.3303744   -105.03183   -7065.9537    4.3822636    4.3822636    4.3822636   -7065.9537   -23572.394   -2766.2479    5140.7809   -5395.9313    158.93008    4565.4021    84.158016 
   21900    282.69358   -105.28803   0.25578709   -105.03224    13312.823     4.365766     4.365766     4.365766    13312.823   -6381.8736    5592.0854    40728.258    -7782.139    4112.5633    2807.5633     83.21112 
   22000    424.95047   -105.41597   0.38450411   -105.03146   -1257.5772    4.3802272    4.3802272    4.3802272   -1257.5772    -11925.21   -7821.3017     15973.78    1107.6722    1027.3722   -1288.7242    84.040746 
   22100    390.50884   -105.38579   0.35334061   -105.03245   -6223.3726     4.372386     4.372386     4.372386   -6223.3726   -16900.935   -9046.5905    7277.4078   -6841.2126   -25.359391   -4737.3684    83.590226 
   22200    584.78678   -105.55878   0.52912737   -105.02966    -1203.264    4.3731163    4.3731163    4.3731163    -1203.264   -9794.2871    6590.1881   -405.69288    3372.7534   -6450.6485    146.79534    83.632116 
   22300    264.94002   -105.27312    0.2397233   -105.03339   -4404.2705    4.3789142    4.3789142    4.3789142   -4404.2705   -27561.719   -7939.7151    22288.623   -9300.6971   -1565.2106    4242.4956    83.965196 
   22400    376.32056   -105.37198   0.34050275   -105.03148    10857.944     4.369319     4.369319     4.369319    10857.944   -1975.7687   -940.61475    35490.215   -3229.2991    6419.7725    3222.4057    83.414443 
   22500    388.03569   -105.38332   0.35110284   -105.03222   -2884.8222    4.3788427    4.3788427    4.3788427   -2884.8222   -4824.6645   -7789.7797    3959.9774   -4933.3993    917.09016   -1341.8125    83.961084 
   22600    389.69204   -105.38472   0.35260155   -105.03212   -4959.9842    4.3724455    4.3724455    4.3724455   -4959.9842   -3567.9531   -10728.959   -583.04088   -4765.8911   -351.14818   -2233.4956    83.593636 
   22700     577.0736   -105.55181   0.52214832   -105.02966    -549.1724    4.3745261    4.3745261    4.3745261    -549.1724   -11084.516      3660.41    5776.5886    3204.0513   -8435.2553    533.37924    83.713027 
   22800    234.99714   -105.24778   0.21263035   -105.03515   -1971.9415    4.3761393    4.3761393    4.3761393   -1971.9415   -22038.661   -10910.457    27033.293   -11398.559    565.29808    2225.3322    83.805674 
   22900    410.87111   -105.40358   0.37176481   -105.03182    9392.3111    4.3720918    4.3720918    4.3720918    9392.3111     7062.598   -1764.3361    22878.672    1586.7972    7379.9351    1533.5442     83.57335 
   23000    342.22458   -105.34394   0.30965199   -105.03429   -570.58984    4.3761794    4.3761794    4.3761794   -570.58984    7099.5553   -7025.6858   -1785.6391   -10150.212    835.50981   -280.88614    83.807976 
   23100    439.88614   -105.43044   0.39801823   -105.03242   -7940.4567    4.3760098    4.3760098    4.3760098   -7940.4567   -4988.4944   -15250.858    -3582.018    490.99952   -3608.7571   -2004.4922    83.798234 
   23200    618.01386     -105.588   0.55919193   -105.02881   -1297.9027    4.3714276    4.3714276    4.3714276   -1297.9027   -8097.8486     2891.698    1312.4424    1655.8415   -5166.7066   -674.91955     83.53527 
   23300    229.50936   -105.24255   0.20766489   -105.03489   -7079.2996    4.3805646    4.3805646    4.3805646   -7079.2996   -9598.0759    -22833.64    11193.817   -8829.2495    1468.6341    1282.0014    84.060172 
   23400    389.21993   -105.38352   0.35217437   -105.03134    18651.444    4.3665027    4.3665027    4.3665027    18651.444    29452.905    4554.9161    21946.511    4494.5553    10699.728    2312.7845    83.253251 
   23500     305.5956   -105.31242   0.27650932   -105.03591   -3904.1137    4.3812818    4.3812818    4.3812818   -3904.1137   -1867.0417   -12808.612    2963.3121    -12301.59    1407.0297    1608.0581    84.101464 
   23600    447.82444   -105.43668   0.40520096   -105.03148   -1431.5516    4.3710962    4.3710962    4.3710962   -1431.5516   -7156.3836   -2194.0922    5055.8211    3855.7013    -2270.962    195.04644     83.51627 
   23700    615.71724   -105.58704    0.5571139   -105.02992   -4538.9216    4.3740297    4.3740297    4.3740297   -4538.9216    185.91116   -3026.4521   -10776.224   -1981.4386   -3024.0812   -1973.7845     83.68453 
   23800    249.91881   -105.26064   0.22613179   -105.03451   -4129.1761    4.3789259    4.3789259    4.3789259   -4129.1761    4675.1054   -14923.255   -2139.3788   -7227.6212    357.71529   -2173.1126     83.96587 
   23900    452.83205   -105.43937   0.40973196   -105.02964     11356.27    4.3683384    4.3683384    4.3683384     11356.27    16547.537    326.75336     17194.52    1401.3536    10436.985     1032.653    83.358295 
   24000    270.25594   -105.27732   0.24453325   -105.03279      -3684.9    4.3810337    4.3810337    4.3810337      -3684.9   -23081.656   -9764.7632    21791.719   -12507.081    1165.4319    3161.9786     84.08718 
   24100    453.50544   -105.44105   0.41034125   -105.03071    2872.1732     4.368899     4.368899     4.368899    2872.1732    -4152.592   -1691.6117    14460.723    6072.3109   -5021.4284    2853.2321    83.390395 
   24200    459.87467   -105.44678   0.41610427   -105.03068   -5803.7293    4.3784733    4.3784733    4.3784733   -5803.7293   -4294.3162   -4458.8728   -8657.9988   -2498.2243    -556.3245   -1869.8111    83.939839 
   24300    375.66558   -105.37175   0.33991011   -105.03184   -3048.7019    4.3731239    4.3731239    4.3731239   -3048.7019    5174.5328   -14141.762   -178.87667   -4083.7952    494.81154   -1490.5671    83.632551 
   24400    453.83917   -105.44112   0.41064322   -105.03048    2685.0259    4.3743912    4.3743912    4.3743912    2685.0259   -7055.5172   -2116.2603    17226.855    2455.9371    9239.6335     966.3602     83.70528 
   24500    296.17141   -105.30078   0.26798211    -105.0328    520.22465    4.3761666    4.3761666    4.3761666    520.22465   -19488.714   -4297.5273    25346.915   -11174.774   -1124.6707    5628.2867    83.807239 
   24600    413.28788   -105.40449   0.37395156   -105.03054    2594.8963    4.3729833    4.3729833    4.3729833    2594.8963   -4743.5212    2621.4692    9906.7408    9592.6819   -5931.3203    4499.8081    83.624485 
   24700    436.28651   -105.42558   0.39476121   -105.03082   -2204.5349    4.3748595    4.3748595    4.3748595   -2204.5349    3216.3427   -1.3369055   -9828.6105   -4800.1987    2708.0579   -306.04328    83.732164 
   24800     395.0058   -105.38941   0.35740955     -105.032   -4066.2738    4.3766014    4.3766014    4.3766014   -4066.2738   -4376.8425   -8984.7382    1162.7594    546.51151    1520.4843    -2886.348    83.832224 
   24900    449.44244    -105.4372   0.40666497   -105.03054    3130.8693    4.3705048    4.3705048    4.3705048    3130.8693   -5666.6043   -3327.5124    18386.724   -863.51529    8922.2347    543.33272    83.482378 
   25000    310.04211   -105.31371   0.28053261   -105.03318   -4251.5912    4.3799606    4.3799606    4.3799606   -4251.5912   -23537.489   -5675.8076    16458.523    -8146.954   -3124.2608    3911.3627    84.025403 
   25100    441.95348   -105.43036    0.3998888   -105.03047    5522.2873    4.3689583    4.3689583    4.3689583    5522.2873    5779.1709    6932.6837    3855.0071    11528.189    -5711.771    3627.8966    83.393785 
   25200    358.87388   -105.35741   0.32471663   -105.03269   -5171.4722    4.3783945    4.3783945    4.3783945   -5171.4722    330.37473   -1219.5316    -14625.26   -5831.6389    5753.1049   -3339.9472    83.935307 
   25300    457.89754   -105.44517   0.41431532   -105.03085   -2875.8488    4.3736969    4.3736969    4.3736969   -2875.8488   -2616.1384   -9349.0395    3337.6315    4649.2841    1799.2434   -3534.8136    83.665433 
   25400    426.44943   -105.41603   0.38586041   -105.03017    509.75315    4.3735417    4.3735417    4.3735417    509.75315   -8242.9757   -3057.7071    12829.942   -5678.6386    7617.0885   -1314.6085    83.656527 
   25500    340.77118   -105.34014   0.30833693    -105.0318   -2947.5639    4.3771097    4.3771097    4.3771097   -2947.5639    -19378.27   -3239.3362    13774.914   -2958.9623   -4707.6482    4243.8358    83.861437 
   25600    391.48032   -105.38531   0.35421962   -105.03109    8397.2383    4.3700853    4.3700853    4.3700853    8397.2383    16966.285    10904.779   -2679.3496    7507.1303   -4243.3797    3455.5784    83.458338 
   25700    342.76184   -105.34275   0.31013812   -105.03261   -7175.6125    4.3798223    4.3798223    4.3798223   -7175.6125   -5089.8033    397.43067   -16834.465   -2751.7666    5529.8094   -1754.5936    84.017446 
   25800     504.2809   -105.48673   0.45628396   -105.03045   -87.348389    4.3684416    4.3684416    4.3684416   -87.348389    3862.7181   -4750.1952    625.43187    476.57691    795.49387   -919.63802    83.364204 
   25900    467.89346    -105.4544   0.42335984   -105.03104   -11470.433    4.3803705    4.3803705    4.3803705   -11470.433   -18519.767   -10425.243   -5466.2886   -5038.0363    7052.8413   -1119.9879    84.048998 
   26000    317.35365   -105.31988   0.28714826   -105.03273    6542.8456    4.3699837    4.3699837    4.3699837    6542.8456    3792.4249    4372.3728    11463.739   -3128.6081   -5477.7479    6078.3417    83.452521 
   26100    326.42658   -105.32701   0.29535763   -105.03165    6696.1292    4.3765917    4.3765917    4.3765917    6696.1292    12384.987    12070.573   -4367.1721    11289.612   -4656.7792    4476.0277    83.831664 
   26200    306.71201   -105.31003   0.27751947   -105.03251    3400.0946     4.373715     4.373715     4.373715    3400.0946    4920.6406    11144.329   -5864.6857   -4762.0725    3222.7948    2646.6411    83.666469 
   26300    538.62606   -105.51737   0.48736018   -105.03001   -7073.6581    4.3741856    4.3741856    4.3741856   -7073.6581   -9781.6893   -2171.3824   -9267.9027    3263.2092   -2222.5249    -2203.703    83.693478 
   26400    511.18092   -105.49327   0.46252724   -105.03075   -5146.7515    4.3754515    4.3754515    4.3754515   -5146.7515   -3666.5102    2639.1727   -14412.917   -5561.5075    9864.7023   -2816.8997    83.766165 
   26500    369.71345   -105.36686    0.3345245   -105.03233   -4596.3487    4.3757091    4.3757091    4.3757091   -4596.3487   -1367.6825   -1665.8783   -10755.485    2372.3736   -4003.4912   -1487.5848     83.78096 
   26600     305.1832    -105.3075   0.27613618   -105.03137    15112.015    4.3691347    4.3691347    4.3691347    15112.015    20604.656    22909.455    1821.9341    10882.623   -2266.3853    3728.2409    83.403891 
   26700    336.49541   -105.33818   0.30446812   -105.03372   -6398.9301    4.3806786    4.3806786    4.3806786   -6398.9301   -15683.123    1655.8813   -5169.5482   -2931.1044    282.18127    1672.1507    84.066733 
   26800    468.33121   -105.45429   0.42375592   -105.03053    5951.8812    4.3663661    4.3663661    4.3663661    5951.8812   -2310.8824    6963.7389    13202.787    38.709419   -3793.0839    573.05424    83.245438 
   26900    499.09651   -105.48275   0.45159301   -105.03116   -13709.111    4.3827336    4.3827336    4.3827336   -13709.111   -14031.779   -7368.0927    -19727.46   -4643.5225     12516.35    -5372.488      84.1851 
   27000     357.4705   -105.35531   0.32344682   -105.03187    5178.4671    4.3675609    4.3675609    4.3675609    5178.4671    7886.0578    11380.478   -3731.1343      554.282   -3948.2701   -1445.1932    83.313795 
   27100    411.94401   -105.40419    0.3727356   -105.03145    1063.3021    4.3784515    4.3784515    4.3784515    1063.3021   -3200.9362    13155.683   -6764.8406    5540.0526   -264.12265     3778.493    83.938584 
   27200     283.6447   -105.28924   0.25664769    -105.0326    1668.8302    4.3728424    4.3728424    4.3728424    1668.8302   -16480.713    10253.467    11233.736    -4277.061    -301.9633    6414.1347      83.6164 
   27300    453.39138   -105.44113   0.41023805   -105.03089    835.34014    4.3721628    4.3721628    4.3721628    835.34014   -11068.618   -3547.6411    17122.279   -1555.7582   -2463.4406    1145.9927     83.57742 
   27400    453.09729   -105.44047   0.40997195    -105.0305   -10157.267    4.3788082    4.3788082    4.3788082   -10157.267   -12268.547   -7365.3775   -10837.875   -2433.9053    15627.942   -3301.2464    83.959098 
   27500    404.40574   -105.39715   0.36591482   -105.03124    2630.4576    4.3687093    4.3687093    4.3687093    2630.4576    5120.4504    5713.3059   -2942.3834    1294.8438   -6702.9962   -2179.5893    83.379529 
   27600    417.69248   -105.40834   0.37793693    -105.0304   -4164.7661    4.3805973    4.3805973    4.3805973   -4164.7661   -9203.8853    402.63705   -3693.0502    7949.5773    3101.4464    3270.3027    84.062052 
   27700    217.30313   -105.22939   0.19662044   -105.03277    10593.082    4.3675855    4.3675855    4.3675855    10593.082   -12007.821     17837.38    25949.686   -2615.2979    913.42741    4941.5616      83.3152 
   27800     496.0767   -105.47889   0.44886062   -105.03003   -5968.4022    4.3793092    4.3793092    4.3793092   -5968.4022   -19577.235    -7717.001    9389.0298    3228.8661   -310.93595     909.0172    83.987919 
   27900    442.42637   -105.43171   0.40031667    -105.0314   -4104.7985    4.3710138    4.3710138    4.3710138   -4104.7985    -7791.046    5626.7496   -10150.099   -5003.2871    15569.044   -4617.8124    83.511548 
   28000    460.96335   -105.44948   0.41708932   -105.03239    -10039.06    4.3771098    4.3771098    4.3771098    -10039.06   -12457.551   -16225.803   -1433.8245    2201.0819   -9603.6296   -4521.7783    83.861443 
   28100    361.06833    -105.3581   0.32670221    -105.0314    7289.4589    4.3713967    4.3713967    4.3713967    7289.4589   -6117.9044    9781.5146    18204.767    1927.4576    5359.5966    3769.4428    83.533498 
   28200    250.96268   -105.26053    0.2270763   -105.03345   -2681.3176    4.3781773    4.3781773    4.3781773   -2681.3176   -26076.375    1354.0725     16678.35    24.039368   -191.50988    3900.9953    83.922811 
   28300      514.784   -105.49517   0.46578738   -105.02938    3993.5554    4.3676631    4.3676631    4.3676631    3993.5554   -6429.8456    15073.038    3337.4734   -2683.5391     1599.766    2605.5987    83.319644 
   28400    414.68748   -105.40766   0.37521794   -105.03244   -16148.863     4.382296     4.382296     4.382296   -16148.863   -25522.851   -2905.2161   -20018.522      -4981.7    14204.099   -4955.5595    84.159883 
   28500    470.26056   -105.45684   0.42550164   -105.03134    5046.0425    4.3658449    4.3658449    4.3658449    5046.0425    80.944121    -3870.694    18927.877   -3242.5693   -9906.8699   -1968.1604    83.215631 
   28600    296.55653   -105.30172   0.26833058   -105.03338   -815.11535    4.3808819    4.3808819    4.3808819   -815.11535   -20092.668    7004.0271    10643.295    2555.2481    8376.3197    5931.3355    84.078438 
   28700    296.92339   -105.30147   0.26866252    -105.0328    4625.6523     4.370186     4.370186     4.370186    4625.6523   -13507.522    16563.211    10821.268    -1226.111   -3177.4504    7960.1957    83.464109 
   28800    463.19816   -105.45125   0.41911143   -105.03214   -1375.1615    4.3736417    4.3736417    4.3736417   -1375.1615   -14492.181    21966.915   -11600.218    1867.8487    4987.1268   -1543.4174    83.662265 
   28900    469.67784     -105.456   0.42497438   -105.03103   -17026.601    4.3793607    4.3793607    4.3793607   -17026.601   -27965.211   -4093.6972   -19020.894   -5274.7178    11962.909   -2360.2891    83.990884 
   29000    480.35501   -105.46331   0.43463531   -105.02868    5619.0102       4.3642       4.3642       4.3642    5619.0102   -2945.8911    4678.2502    15124.672    852.73394   -6880.9901     -3541.85    83.121605 
   29100    221.16626    -105.2331   0.20011588   -105.03299   -2958.8377    4.3833739    4.3833739    4.3833739   -2958.8377   -25661.577    27342.038   -10556.974    4107.3681    12663.758    7478.0867    84.222003 
   29200    368.34831    -105.3638   0.33328929   -105.03051    16480.788    4.3630786    4.3630786    4.3630786    16480.788    1645.0216     34480.58    13316.763     4691.256   -8540.7172    1372.2032    83.057552 
   29300    403.53683   -105.39714   0.36512861   -105.03201    -12049.15    4.3840709    4.3840709    4.3840709    -12049.15   -19088.226    7540.1554   -24599.379    1905.4832    9965.6196    -1271.872    84.262185 
   29400    547.21349   -105.52356   0.49513026   -105.02843   -2615.3831    4.3670429    4.3670429    4.3670429   -2615.3831   -5100.9245    3188.2297   -5933.4544   -3411.3991    6014.5909   -5909.2097    83.284151 
   29500    445.20478   -105.43231   0.40283064   -105.02948   -5268.9264    4.3781413    4.3781413    4.3781413   -5268.9264   -18904.747    13174.725   -10076.757   -5628.9319    2354.0427    1166.8302    83.920745 
   29600    280.10374   -105.28562   0.25344375   -105.03218    4903.5545    4.3732854    4.3732854    4.3732854    4903.5545   -18081.475    34042.955   -1250.8166    2319.3459    13611.897    7266.9874    83.641816 
   29700     422.7199   -105.41263   0.38248585   -105.03015    10158.471    4.3694834    4.3694834    4.3694834    10158.471   -3166.5511    18208.382    15433.582   -2186.5568   -10820.957    6519.9138     83.42386 
   29800    288.27889   -105.29391    0.2608408   -105.03307   -5957.8263    4.3796188    4.3796188    4.3796188   -5957.8263    -10814.11    2401.0899   -9460.4587    3248.9929    12542.438   -1312.8411    84.005732 
   29900    583.23137   -105.55717      0.52772   -105.02945    2600.8347    4.3670262    4.3670262    4.3670262    2600.8347    448.02214    9368.4112   -2013.9294   -7648.4623   -774.17032   -1392.6901      83.2832 
   30000    386.10475   -105.38178   0.34935569   -105.03243   -6158.5487    4.3790189    4.3790189    4.3790189   -6158.5487   -20061.703    14329.662   -12743.605   -1591.2024    8617.0516   -1027.5568    83.971217 
   30100     317.5354   -105.32073    0.2873127   -105.03342    4469.6624    4.3708443    4.3708443    4.3708443    4469.6624   -14630.643    22483.544    5556.0863    2235.1392    11379.902    7877.0631    83.501832 
   30200    430.03979   -105.42049   0.38910904   -105.03138    6999.4173    4.3735419    4.3735419    4.3735419    6999.4173   -923.66843    1980.0336    19941.887    4134.5857   -10392.576    1950.7265    83.656535 
   30300    282.39855   -105.28922   0.25552014    -105.0337   -6575.7045     4.376692     4.376692     4.376692   -6575.7045   -8131.0572    -4531.401   -7064.6554    2305.4956    12886.243   -1202.0429    83.837431 
   30400    617.04178   -105.58688   0.55831237   -105.02857   -500.06137    4.3703156    4.3703156    4.3703156   -500.06137    5289.2857   -4040.1787   -2749.2911   -2416.8831   -2116.2496   -5735.9886    83.471533 
   30500    369.22189   -105.36611   0.33407973   -105.03203    -8308.723    4.3780455    4.3780455    4.3780455    -8308.723   -21504.815    4280.3148   -7701.6687   -4076.8349    13203.171   -361.21232    83.915236 
   30600    380.00607   -105.37689   0.34383748   -105.03306    3150.7615    4.3708283    4.3708283    4.3708283    3150.7615   -13216.499    9311.7769    13357.006    2951.5015    7939.1171    3278.1768    83.500918 
   30700     371.9629   -105.36846   0.33655985    -105.0319    8312.4683    4.3738851    4.3738851    4.3738851    8312.4683     2226.823    9997.2474    12713.334     1536.159   -9673.2325    5821.3722     83.67623 
   30800    244.68594   -105.25758   0.22139698   -105.03618   -6132.8091    4.3747678    4.3747678    4.3747678   -6132.8091   -850.97858    -1447.547   -16099.902     4041.546    16162.328   -1219.4529    83.726904 
   30900    624.34345   -105.59515   0.56491908   -105.03023   -127.63687    4.3712385    4.3712385    4.3712385   -127.63687    5494.6386   -4834.1688   -1043.3805   -3301.9042   -463.26481      44.8569    83.524427 
   31000    389.24277   -105.38615   0.35219504   -105.03395   -13879.083    4.3783757    4.3783757    4.3783757   -13879.083   -26271.098   -10119.118   -5247.0322   -5786.2717    15428.378    -1791.886    83.934222 
   31100    380.51965   -105.37795   0.34430218   -105.03364    3285.5621    4.3695514    4.3695514    4.3695514    3285.5621   -2430.4092    1678.0391    10609.056     1537.966    4137.0717    5902.7614    83.427755 
   31200    399.27047   -105.39264   0.36126831   -105.03137    2761.9848    4.3777041    4.3777041    4.3777041    2761.9848    5723.0835     3909.074   -1346.2032    702.93153    -5916.994    5387.3417    83.895603 
   31300    191.19599   -105.20785   0.17299815   -105.03485    60.917859    4.3716039    4.3716039    4.3716039    60.917859    1633.0114     16289.38   -17739.638    8073.2416    16669.954    3077.6896    83.545373 
   31400    602.53079     -105.575   0.54518252   -105.02981    405.28131    4.3737322    4.3737322    4.3737322    405.28131   -2899.5143    8596.0849   -4480.7268   -926.43782   -1774.6399   -1357.0696    83.667454 
   31500    371.43394   -105.37036   0.33608124   -105.03428   -13267.386    4.3765515    4.3765515    4.3765515   -13267.386   -25062.177   -1956.7223   -12783.258   -3498.1188     16326.88   -4039.8178    83.829355 
   31600    421.81857   -105.41555    0.3816703   -105.03388    5175.8206    4.3691441    4.3691441    4.3691441    5175.8206    7773.1278    674.82209     7079.512    1511.3381   -856.62451    1899.0197    83.404428 
   31700    387.38755   -105.38276    0.3505164   -105.03225    707.09366    4.3784236    4.3784236    4.3784236    707.09366    6791.6874    2415.4867   -7085.8931    5738.3261   -1350.4033    1774.0733    83.936978 
   31800    208.82793   -105.22421    0.1889519   -105.03525    4541.4399    4.3696185    4.3696185    4.3696185    4541.4399   -785.97667    28382.161   -13971.865    8536.0663    13639.973     1911.667    83.431599 
   31900    572.60738   -105.54717   0.51810719   -105.02906   -1149.9905    4.3777892    4.3777892    4.3777892   -1149.9905   -10555.139    14826.623    -7721.455    3113.3308   -1636.9851   -4597.8601    83.900499 
   32000    364.06757   -105.36218   0.32941598   -105.03276   -7463.6118    4.3713717    4.3713717    4.3713717   -7463.6118    -19679.15    7843.0871   -10554.772   -6108.8587    16674.127    -2518.048    83.532065 
   32100    488.38009   -105.47388   0.44189657   -105.03199   -2405.5405    4.3755845    4.3755845    4.3755845   -2405.5405   -1636.9147   -4864.3319   -715.37474    3930.6403   -3822.7025    188.05192    83.773803 
   32200    336.44454   -105.33693   0.30442209   -105.03251    5857.7393    4.3722631    4.3722631    4.3722631    5857.7393   -3352.5871    25876.983   -4951.1781    3161.8825    5467.9506    7282.9132    83.583176 
   32300    220.87418   -105.23409    0.1998516   -105.03424    4051.6997    4.3748522    4.3748522    4.3748522    4051.6997   -8694.1127    34288.998   -13439.786    7726.3371    6883.0921    3510.8519    83.731749 
   32400    521.28946   -105.50194   0.47167366   -105.03027     1096.359    4.3728191    4.3728191    4.3728191     1096.359   -8279.5411    18629.209   -7060.5913    628.16857    604.49952    1699.8744    83.615064 
   32500    468.59957   -105.45582   0.42399874   -105.03182   -13457.931    4.3756915    4.3756915    4.3756915   -13457.931   -22106.876   -235.59492   -18031.322   -5054.8027    16622.907   -2598.7196    83.779946 
   32600    494.56386   -105.47794   0.44749177   -105.03045    3256.9035    4.3723742    4.3723742    4.3723742    3256.9035    -7169.936    19682.037   -2741.3903    3140.7325   -3748.4383    1282.7053    83.589549 
   32700     233.0181   -105.24458   0.21083968   -105.03374    4729.1988    4.3748409    4.3748409    4.3748409    4729.1988   -9907.5394    38484.106   -14388.971    6903.5729    12400.153    2255.3021      83.7311 
   32800    377.05691   -105.37242   0.34116901   -105.03125    8388.5535    4.3720744    4.3720744    4.3720744    8388.5535    8980.5649    20109.772   -3924.6761    8979.4074   -3005.3501    747.84594    83.572356 
   32900    421.13577   -105.41387    0.3810525   -105.03282   -5414.0344    4.3747273    4.3747273    4.3747273   -5414.0344   -3492.9578   -4166.5651   -8582.5803    1998.8724    6116.5594   -1908.9393    83.724574 
   33000    497.33992    -105.4813   0.45000361   -105.03129   -7428.2822    4.3747453    4.3747453    4.3747453   -7428.2822   -13526.643    5529.7554    -14287.96   -4731.2521    11009.115    -5144.486    83.725607 
   33100    488.33841   -105.47158   0.44185886   -105.02972   -454.67401    4.3738801    4.3738801    4.3738801   -454.67401   -8623.0808    14944.253   -7685.1941    4400.5988   -29.272479   -703.94194    83.675944 
   33200     214.2125    -105.2278   0.19382398   -105.03398    3473.1749    4.3744697    4.3744697    4.3744697    3473.1749    1814.6503    23268.059   -14663.185    6860.2195    14591.764    1748.8048    83.709786 
   33300    435.07882   -105.42356   0.39366846   -105.02989    9413.6173     4.372662     4.372662     4.372662    9413.6173    20428.162    8694.4777   -881.78748    6727.0717   -8211.7963    4708.2869    83.606055 
   33400    327.49202   -105.33014   0.29632166   -105.03382   -3480.9765    4.3742971    4.3742971    4.3742971   -3480.9765    -2506.645    -4864.368   -3071.9164     141.0824    9700.4467    1445.1516    83.699879 
   33500    567.03694   -105.54363   0.51306694   -105.03056    -7909.633    4.3756001    4.3756001    4.3756001    -7909.633   -14760.026   -1200.1221   -7768.7509   -6010.2529    6577.5574   -663.70617    83.774699 
   33600    478.78158   -105.46421   0.43321164     -105.031    1933.6938    4.3712273    4.3712273    4.3712273    1933.6938    9348.3845   -1670.2768   -1877.0262    2527.2415    3228.1563    215.59303    83.523783 
[...]
   91300    424.68614   -105.41599   0.38426495   -105.03172   -8933.3299    4.3787922    4.3787922    4.3787922   -8933.3299    -622.3813   -14844.182   -11333.427    11914.544   -115.63653   -5479.0767    83.958177 
   91400    410.74632   -105.40362    0.3716519   -105.03197    3294.6748    4.3656554    4.3656554    4.3656554    3294.6748    11425.644   -6823.5194    5281.9002   -2960.5289   -3468.7336    330.45181    83.204796 
   91500    391.16686   -105.38631   0.35393599   -105.03237   -3496.2754    4.3798247    4.3798247    4.3798247   -3496.2754    7731.9577   -4998.7491   -13222.035   -5393.8807     6590.846   -1702.1286    84.017582 
   91600    311.26743   -105.31461   0.28164131   -105.03297    6091.0804    4.3683543    4.3683543    4.3683543    6091.0804   -6805.9761    10338.526    14740.691    4788.1722    2045.3007    4696.0862    83.359206 
   91700    449.51532   -105.43853   0.40673091   -105.03179   -3044.1083    4.3757573    4.3757573    4.3757573   -3044.1083   -7397.9102    919.61243   -2654.0272    -1807.204   -1866.3533    2157.6256    83.783725 
   91800    400.98377   -105.39472   0.36281854    -105.0319   -1736.7383    4.3729707    4.3729707    4.3729707   -1736.7383    7037.6242   -9707.9555   -2539.8836    10421.552    754.99242   -4444.7039    83.623762 
   91900      462.741   -105.45085   0.41869778   -105.03215    -3963.221    4.3718238    4.3718238    4.3718238    -3963.221   -253.88833   -6360.3956   -5275.3792   -1638.6845   -340.42049    -2655.918    83.557986 
   92000    376.67521    -105.3739   0.34082365   -105.03307    2487.1084     4.373611     4.373611     4.373611    2487.1084    7026.5665    6771.9281   -6337.1694   -4589.4944    5174.3587    1193.5565    83.660502 
   92100    356.78446   -105.35736   0.32282607   -105.03453   -335.60372    4.3723588    4.3723588    4.3723588   -335.60372   -14230.506    5156.8671    8066.8275    11155.332    1629.9114     2780.844    83.588661 
   92200     438.6023   -105.42856   0.39685658    -105.0317    910.64118    4.3744191    4.3744191    4.3744191    910.64118    1123.1103   -4700.5419    6309.3551   -3263.4215   -4843.8271    5240.6689    83.706885 
   92300    366.18618   -105.36414   0.33133295   -105.03281   -2149.2763    4.3724005    4.3724005    4.3724005   -2149.2763    5417.1796   -10330.114    -1534.894    10530.775   -1879.8255   -5811.7736    83.591052 
   92400    421.76086   -105.41324   0.38161809   -105.03162   -1496.5861    4.3742799    4.3742799    4.3742799   -1496.5861     4329.788   -3951.1514   -4868.3949   -6696.7739   -1808.3881   -826.61423    83.698892 
   92500    409.78715   -105.40277   0.37078403   -105.03198     2922.841    4.3711604    4.3711604    4.3711604     2922.841    1630.6914    14258.806    -7120.974   -2383.9015    3615.4488    2795.6024    83.519951 
   92600     336.2313   -105.33909   0.30422915   -105.03486   -5635.8354    4.3743351    4.3743351    4.3743351   -5635.8354   -17946.331   -3593.9087    4632.7334    8142.8275    3698.1882    2233.1014    83.702058 
   92700     481.3071   -105.46781   0.43549678   -105.03231     3207.899     4.371072     4.371072     4.371072     3207.899    5660.8218   -5179.9427    9142.8179   -2510.1641   -5554.1937    4982.3385    83.514881 
   92800    309.06304   -105.31452   0.27964674   -105.03487   -6310.5559    4.3761949    4.3761949    4.3761949   -6310.5559   -1850.3938   -10556.375   -6524.8992    6161.1675    3010.9203   -5589.8797    83.808864 
   92900     426.6742   -105.41813   0.38606378   -105.03207    2337.5283     4.370122     4.370122     4.370122    2337.5283    6017.1164    2832.2163   -1836.7479    -4745.667   -2270.1225   -1498.5206    83.460441 
   93000    417.04498   -105.40941   0.37735106   -105.03206   -5317.6258    4.3759455    4.3759455    4.3759455   -5317.6258   -8359.9085    8941.7377   -16534.706   -107.47164    9532.4094    4520.5182    83.794539 
   93100    383.88383   -105.38098   0.34734616   -105.03363   -5156.9829    4.3703731    4.3703731    4.3703731   -5156.9829   -14254.649    -9922.128    8705.8282    13359.331    1997.2732    44.140415    83.474827 
   93200    514.54223   -105.49734   0.46556862   -105.03177   -1040.8102     4.375361     4.375361     4.375361   -1040.8102   -1984.1746   -5723.9607    4585.7046   -2398.7651    224.96555    1993.0321    83.760967 
   93300    237.76277   -105.25031   0.21513275   -105.03518    520.58828    4.3722922    4.3722922    4.3722922    520.58828    757.47888   -1709.5586    2513.8446    6807.8463   -844.11931   -6873.1614    83.584844 
   93400    399.51612    -105.3946   0.36149058   -105.03311    3823.2268    4.3723018    4.3723018    4.3723018    3823.2268    318.08845    16131.971   -4980.3786   -2952.0361    162.64724    -3058.885    83.585396 
   93500    468.77865   -105.45743   0.42416078   -105.03327   -6119.2216    4.3746025    4.3746025    4.3746025   -6119.2216   -5132.9834    849.36708   -14074.048    273.95013    3433.1593    6993.3392     83.71741 
   93600    394.03014   -105.39176   0.35652675   -105.03523   -6884.6296     4.370728     4.370728     4.370728   -6884.6296   -11398.458   -11678.547    2423.1167     14837.11    2483.0304   -2115.2782    83.495166 
   93700    513.84923   -105.49766   0.46494158   -105.03272    751.73172    4.3747269    4.3747269    4.3747269    751.73172    140.40659    5529.2475   -3414.4589   -7763.0677   -3513.9463    2821.1668    83.724556 
   93800    175.27627   -105.19527   0.15859365   -105.03668    4360.2766    4.3724284    4.3724284    4.3724284    4360.2766    4479.0427     6607.641     1994.146    5993.8453   -1208.9791    -5212.278    83.592657 
   93900    406.97148   -105.40132   0.36823635   -105.03308    5904.9578    4.3717659    4.3717659    4.3717659    5904.9578    5585.2841    11381.425    748.16463   -4296.8292    -3877.128   -3347.1856    83.554664 
   94000    467.70857    -105.4557   0.42319254    -105.0325   -7921.4696    4.3771436    4.3771436    4.3771436   -7921.4696   -400.73278    -10594.46   -12769.216    4648.5989    1396.6759    6988.4819    83.863385 
   94100    431.39077   -105.42303   0.39033144   -105.03269   -5792.7758    4.3685972    4.3685972    4.3685972   -5792.7758   -10770.608   -4979.1694   -1628.5499    13670.278    4495.3756   -2344.4357     83.37311 
   94200    482.10652   -105.46785   0.43622011   -105.03163     1103.051     4.377104     4.377104     4.377104     1103.051    2396.6587     13013.95   -12101.456   -5412.2711   -2129.4696    3137.8661    83.861106 
   94300    234.44025   -105.24821   0.21212647   -105.03608    2751.2696     4.369284     4.369284     4.369284    2751.2696    6846.2862    2557.0825     -1149.56    6009.7814    2679.1536    -5215.514    83.412437 
   94400    405.49392   -105.40157   0.36689942   -105.03467    2936.5727    4.3735231    4.3735231    4.3735231    2936.5727    9011.0681   -3545.1691     3343.819    3400.1527   -5629.3562   -3907.7322    83.655457 
   94500     485.5798   -105.47313    0.4393628   -105.03377   -5884.1223    4.3749553    4.3749553    4.3749553   -5884.1223    -963.5659   -12348.955    -4339.846    3621.2146    2733.9589     6795.023    83.737666 
   94600    329.30385   -105.33314   0.29796104   -105.03518    1829.2655    4.3685917    4.3685917    4.3685917    1829.2655   -6844.8664    11474.344    858.31849    13397.782    3509.8221   -1338.3929    83.372799 
   94700     508.7595   -105.49174   0.46033629    -105.0314   -4204.6339    4.3799871    4.3799871    4.3799871   -4204.6339    3272.7952    4079.6884   -19966.385   -8559.8398    1597.3284    3748.9174    84.026932 
   94800    307.12788   -105.31092   0.27789576   -105.03303    4917.4263    4.3644791    4.3644791    4.3644791    4917.4263    11275.637    631.58926    2845.0528     8510.353   -133.62858   -4075.8057    83.137557 
   94900     451.4824    -105.4411   0.40851076   -105.03259   -6541.5952    4.3806279    4.3806279    4.3806279   -6541.5952   -18.521346   -15517.499   -4088.7654    5301.6174   -4549.9848   -2925.7158    84.063817 
   95000    421.34438   -105.41367   0.38124125   -105.03243    8132.7652    4.3659011    4.3659011    4.3659011    8132.7652   -329.35005     11524.66    13202.985     3921.143   -1289.8694    9545.3486    83.218846 
   95100    257.73162   -105.26943   0.23320098   -105.03623   -4563.8469    4.3781132    4.3781132    4.3781132   -4563.8469   -13358.115    4889.4506    -5222.876    9946.9889    4544.9619   -1361.8318    83.919128 
   95200    551.55553   -105.52958   0.49905904   -105.03052    4059.4999    4.3701284    4.3701284    4.3701284    4059.4999    6549.4686     9071.479   -3442.4479    -8551.528   -662.39731    3254.4028    83.460812 
   95300     342.2771    -105.3443   0.30969951    -105.0346    -4676.595    4.3726493    4.3726493    4.3726493    -4676.595    4848.8368   -10363.034   -8515.5881    12169.412    2217.9544   -2821.3908    83.605326 
   95400    449.12103   -105.43954   0.40637414   -105.03316   -2728.5077    4.3760859    4.3760859    4.3760859   -2728.5077   -4738.3171    1187.8879   -4635.0939    6574.0073   -5337.6541    -3287.657    83.802604 
   95500    393.17664   -105.38815   0.35575449   -105.03239    9172.0102    4.3675209    4.3675209    4.3675209    9172.0102    -2813.948    25419.106     4910.873    2645.9087   -493.25487    11418.425    83.311502 
   95600    256.96318   -105.26816   0.23250569   -105.03565   -4653.8118    4.3786168    4.3786168    4.3786168   -4653.8118   -12926.442     -5830.62    4795.6263    8363.4626    3530.8641   -2390.0872    83.948089 
   95700     598.8829   -105.57172   0.54188184   -105.02984    5073.6631    4.3673187    4.3673187    4.3673187    5073.6631    8264.0387    2063.7077     4893.243   -4949.6969    535.90075     2673.909    83.299933 
   95800    274.07364   -105.28326   0.24798759   -105.03527    -3785.881    4.3763102    4.3763102    4.3763102    -3785.881   -1744.9048   -1883.5744   -7729.1639    15094.655    4156.7181   -3962.1929    83.815489 
   95900    447.44611   -105.43779   0.40485865   -105.03293    3268.9147    4.3721515    4.3721515    4.3721515    3268.9147   -5108.9452    17806.823   -2891.1333     5570.814   -4650.0511    -334.2994    83.576776 
   96000    419.83318    -105.4124   0.37987389   -105.03252    4932.4714    4.3709204    4.3709204    4.3709204    4932.4714   -4376.4783    16952.772    2221.1201    2422.0977    1249.6024    8098.9837    83.506196 
   96100    340.74354   -105.34321   0.30831191    -105.0349   -7364.7617    4.3754806    4.3754806    4.3754806   -7364.7617   -13963.243   -15492.569    7361.5276     8118.807    1603.4139   -3454.6187    83.767835 
   96200    512.09875   -105.49482   0.46335771   -105.03146    6113.7711    4.3706811    4.3706811    4.3706811    6113.7711    4485.6269    12809.327    1046.3592   -2406.2975    2106.8656   -5837.8775    83.492477 
   96300    237.87725   -105.25097   0.21523634   -105.03573    706.57348    4.3738617    4.3738617    4.3738617    706.57348   -8875.1313    15005.189   -4010.3368      17231.5    3229.6705   -2157.4717    83.674887 
   96400    451.96862     -105.442    0.4089507   -105.03304    642.26033    4.3729041    4.3729041    4.3729041    642.26033   -87.115874    12857.554   -10843.657    2486.6293   -1885.4872   -4938.0495    83.619942 
   96500    494.02216    -105.4796   0.44700163    -105.0326   -2375.0375    4.3722588    4.3722588    4.3722588   -2375.0375    -5681.128   -707.93763   -736.04689    2026.2363   -2040.7123    6682.2542    83.582926 
   96600    347.74495   -105.34964   0.31464694     -105.035   -6859.7476    4.3741991    4.3741991    4.3741991   -6859.7476   -16173.618   -3899.0913   -506.53375    7605.8019    1548.0493   -7163.3615    83.694253 
   96700    453.66546   -105.44329   0.41048604    -105.0328    9384.8189    4.3713635    4.3713635    4.3713635    9384.8189    440.79347    27733.177   -19.513349    -3451.083   -1358.2633   -4869.9162    83.531594 
   96800    248.08313   -105.26041   0.22447083   -105.03594     1807.374    4.3726951    4.3726951    4.3726951     1807.374   -4251.9387    8939.7099     734.3509    18935.619    7370.8514   -1279.2052    83.607954 
   96900    470.62046   -105.45935   0.42582728   -105.03352   -3008.6393    4.3742913    4.3742913    4.3742913   -3008.6393    11262.643   -8173.7773   -12114.784   -2405.5643   -2396.2485   -2554.7667    83.699544 
   97000    524.22642   -105.50621   0.47433108   -105.03188   -1489.9105    4.3713821    4.3713821    4.3713821   -1489.9105    -684.9083    1904.0794   -5688.9026    2517.6721    860.72896    6420.4616     83.53266 
   97100    318.14842   -105.32283   0.28786738   -105.03497     -3246.38    4.3744826    4.3744826    4.3744826     -3246.38   -6944.7862    5511.1204   -8305.4742    7048.9922   -2233.5137   -5137.9775     83.71053 
   97200     465.7948   -105.45272   0.42146093   -105.03126    3591.7541    4.3732952    4.3732952    4.3732952    3591.7541     4583.954     14751.24   -8559.9315    1844.0447   -1190.0275   -3596.2119    83.642378 
   97300    295.49007   -105.30122   0.26736563   -105.03385    7305.8258     4.369256     4.369256     4.369256    7305.8258    15607.211   -1861.9166    8172.1834    15587.943    6549.6856   -2437.6397    83.410839 
   97400    403.86048   -105.39816   0.36542145   -105.03273   -5357.8697    4.3789355    4.3789355    4.3789355   -5357.8697    7205.2767    -14819.73   -8459.1553   -3992.7642   -340.32806   -5504.1537    83.966419 
   97500    496.92796   -105.48077   0.44963086   -105.03114    7170.8471    4.3639285    4.3639285    4.3639285    7170.8471     2939.883    11787.543    6785.1152    781.74495   -683.20907    3752.5656    83.106094 
   97600    354.63742   -105.35491   0.32088339   -105.03402   -12812.908    4.3825088    4.3825088    4.3825088   -12812.908     -8975.47   -11021.466   -18441.788    9046.7566   -3139.1231   -5934.3406    84.172145 
   97700    456.66165   -105.44419   0.41319706   -105.03099    11148.999    4.3640731    4.3640731    4.3640731    11148.999    23888.276    11827.588   -2268.8672   -1216.0561   -2231.7338   -4886.0758    83.114357 
   97800    299.74802   -105.30504   0.27121831   -105.03382   -2296.6404    4.3789554    4.3789554    4.3789554   -2296.6404    8823.4744   -15799.783    86.387533    11110.548    7526.3621   -4342.7194    83.967565 
   97900    428.67051   -105.41913   0.38787009   -105.03126   -1352.9519     4.370784     4.370784     4.370784   -1352.9519    1125.2356   -7383.4792     2199.388   -6763.2393   -16.849717   -6676.2096    83.498375 
   98000    465.71307    -105.4523   0.42138697   -105.03091    1738.6255    4.3699358    4.3699358    4.3699358    1738.6255   -5915.3754   -1360.9468    12492.199    3169.2326   -1834.6554     4465.411    83.449775 
   98100    355.90071   -105.35517   0.32202644   -105.03315    -7459.034    4.3785189    4.3785189    4.3785189    -7459.034    3736.8764   -8016.5639   -18097.415    8788.0888   -1907.0621   -5400.8819    83.942458 
   98200    398.94711    -105.3924   0.36097573   -105.03143    9578.9822    4.3655079    4.3655079    4.3655079    9578.9822    23135.261    4895.1998    706.48537   -471.17575   -1606.1957   -841.74447    83.196362 
   98300    370.29574    -105.3676   0.33505137   -105.03255   -6046.5894    4.3791903    4.3791903    4.3791903   -6046.5894   -4772.0815   -14120.137    752.45039    11141.387    9032.5651   -4736.5807    83.981081 
   98400    414.91844   -105.40744   0.37542692   -105.03202    369.65741    4.3680695    4.3680695    4.3680695    369.65741   -1783.2524   -7525.4949     10417.72   -6882.2749   -6537.8206   -4081.1077    83.342904 
   98500    424.90264   -105.41618   0.38446084   -105.03172   -3105.9362    4.3757619    4.3757619    4.3757619   -3105.9362   -615.26294   -11912.119    3209.5734    4014.5096   -4624.9238    4770.6158    83.783993 
   98600    371.16691   -105.36821   0.33583962   -105.03237    -2497.458    4.3725704    4.3725704    4.3725704    -2497.458    17566.701   -9947.3694   -15111.705    5970.6652   -3323.3244   -5017.3353    83.600802 
   98700    409.04473   -105.40232   0.37011226    -105.0322    1817.8741    4.3699838    4.3699838    4.3699838    1817.8741    6741.6107    1659.8248   -2947.8132   -1666.2442   -1582.9307   -6.7600101    83.452526 
   98800    443.17682   -105.43322    0.4009957   -105.03223   -6732.8437    4.3774636    4.3774636    4.3774636   -6732.8437   -8619.1594   -10434.022   -1145.3496    7968.5948    3134.9395   -6772.7342    83.881777 
   98900    346.52538   -105.34622   0.31354345   -105.03267    3646.0028     4.368567     4.368567     4.368567    3646.0028    6297.4918   -3716.2108    8356.7274   -8212.2569   -10845.885   -5656.2699    83.371383 
   99000    395.78596   -105.39055   0.35811546   -105.03244    2386.0677    4.3740648    4.3740648    4.3740648    2386.0677    20914.322   -12523.544   -1232.5751    4349.8229   -5585.4797    2465.7542    83.686548 
   99100    358.94102   -105.35794   0.32477738   -105.03317   -1431.6513    4.3745235    4.3745235    4.3745235   -1431.6513    18347.842   -9648.8116   -12993.985    6136.3725   -1688.7633    -6903.346    83.712873 
   99200    499.70663   -105.48278   0.45214506   -105.03064   -1373.8081    4.3694531    4.3694531    4.3694531   -1373.8081    677.01701    2321.1677   -7119.6091   -1143.6116    541.41549    1658.6921    83.422126 
   99300     416.1952   -105.40849   0.37658217   -105.03191   -6064.1192     4.376829     4.376829     4.376829   -6064.1192   -3728.7853    -8880.316   -5583.2561    5865.8174    2256.9793   -9003.6481    83.845304 
   99400     352.5126   -105.35182   0.31896081   -105.03286    5983.1277    4.3685458    4.3685458    4.3685458    5983.1277    22659.487   -4494.3539   -215.74966   -6136.7493   -7219.0808   -5401.3879     83.37017 
   99500    336.32299   -105.33736   0.30431211   -105.03305    2729.0231    4.3745062    4.3745062    4.3745062    2729.0231    20507.931   -13652.764    1331.9017    3843.3125   -5061.4708    1713.7395     83.71188 
   99600    448.38001   -105.43927   0.40570366   -105.03357   -4034.5832    4.3710508    4.3710508    4.3710508   -4034.5832    3763.7285   -8387.6714   -7479.8068     5577.008    2943.2654   -8147.7176    83.513667 
   99700    511.95684   -105.49591    0.4632293   -105.03268   -5552.9607    4.3735008    4.3735008    4.3735008   -5552.9607   -3599.9567   -4427.6456   -8631.2797   -5837.5298   -3646.2804    4996.2518    83.654177 
   99800    329.19403   -105.33205   0.29786168   -105.03418    1570.2984    4.3731594    4.3731594    4.3731594    1570.2984    19868.172   -9892.6543   -5264.6223    1876.6821    1469.5206   -10148.459    83.634586 
   99900    337.58221   -105.33808   0.30545147   -105.03263    4838.4758    4.3726436    4.3726436    4.3726436    4838.4758    22788.139   -9769.3063    1496.5946   -5917.4688   -14416.701   -2402.4522       83.605 
  100000     351.4348   -105.35048    0.3179856   -105.03249    2451.3428     4.371991     4.371991     4.371991    2451.3428    4877.8263    -11551.69    14027.893    1202.7883   -5001.0946   -2034.5768     83.56757 
Loop time of 21.6798 on 1 procs for 100000 steps with 8 atoms

Pair  time (%) = 6.56204 (30.268)
Kspce time (%) = 5.31666 (24.5236)
Neigh time (%) = 0 (0)
Comm  time (%) = 1.0728 (4.94841)
Outpt time (%) = 0.0377555 (0.174151)
Other time (%) = 8.6905 (40.0858)

Nlocal:    8 ave 8 max 8 min
Histogram: 1 0 0 0 0 0 0 0 0 0
Nghost:    2189 ave 2189 max 2189 min
Histogram: 1 0 0 0 0 0 0 0 0 0
Neighs:    2056 ave 2056 max 2056 min
Histogram: 1 0 0 0 0 0 0 0 0 0

Total # of neighbors = 2056
Ave neighs/atom = 257
Neighbor list builds = 0
Dangerous builds = 0
unfix 20
unfix 21
print "seeds:6039546"
seeds:6039546
