   2   2   0   0
  0.1090254E+02  0.2793739E-09  0.2793739E-09  0.2793739E-09  0.5000000E-15
  1.000000000000000E-004
  CAR 
 automatically generated by pyflamestk   
     29.87493002     -0.72237032  301      9.24071645      1.00000000
     -0.722  0.0000E+00  0.0000E+00  0.0000E+00  0.0000E+00
     -0.620  0.0000E+00  0.0000E+00  0.0000E+00  0.0000E+00
     -0.518  0.0000E+00  0.0000E+00  0.0000E+00  0.0000E+00
     -0.416  0.0000E+00 -0.2037E-30  0.0000E+00 -0.2077E-31
     -0.314 -0.1746E-27 -0.8331E-27 -0.1781E-28 -0.8499E-28
     -0.212 -0.4678E-24 -0.2018E-23 -0.4773E-25 -0.2059E-24
     -0.110 -0.7416E-21 -0.2891E-20 -0.7569E-22 -0.2950E-21
     -0.008 -0.6952E-18 -0.2448E-17 -0.7098E-19 -0.2500E-18
      0.094 -0.3849E-15 -0.1156E-14 -0.3932E-16 -0.1182E-15
      0.196 -0.1216E-12 -0.3490E-12 -0.1244E-13 -0.3571E-13
      0.298 -0.2322E-10 -0.6012E-10 -0.2381E-11 -0.6168E-11
      0.400 -0.2598E-08 -0.6064E-08 -0.2673E-09 -0.6246E-09
      0.502 -0.1694E-06 -0.3560E-06 -0.1754E-07 -0.3693E-07
      0.604 -0.6385E-05 -0.1206E-04 -0.6687E-06 -0.1267E-05
      0.706 -0.1372E-03 -0.2318E-03 -0.1466E-04 -0.2491E-04
      0.807 -0.1633E-02 -0.2450E-02 -0.1812E-03 -0.2748E-03
      0.909 -0.1009E-01 -0.1314E-01 -0.1211E-02 -0.1614E-02
      1.011 -0.2571E-01 -0.2580E-01 -0.3833E-02 -0.4246E-02
      1.113  0.1972E-01  0.4753E-01 -0.1822E-02  0.6023E-03
      1.215  0.2431E+00  0.3011E+00  0.2297E-01  0.3131E-01
      1.317  0.4915E+00  0.5078E+00  0.7310E-01  0.8311E-01
      1.419  0.4167E+00  0.3654E+00  0.1156E+00  0.1204E+00
      1.521  0.1333E+00  0.8880E-01  0.1292E+00  0.1294E+00
      1.623 -0.1457E-01 -0.2224E-01  0.1277E+00  0.1272E+00
      1.725 -0.2048E-01 -0.1700E-01  0.1256E+00  0.1254E+00
      1.827 -0.5355E-02 -0.3769E-02  0.1251E+00  0.1250E+00
      1.929 -0.6603E-03 -0.4098E-03  0.1250E+00  0.1250E+00
      2.031 -0.4371E-04 -0.2421E-04  0.1250E+00  0.1250E+00
      2.133 -0.1625E-05 -0.8079E-06  0.1250E+00  0.1250E+00
      2.235 -0.3468E-07 -0.1551E-07  0.1250E+00  0.1250E+00
      2.337 -0.4294E-09 -0.1730E-09  0.1250E+00  0.1250E+00
      2.439 -0.1420E-10 -0.6018E-11  0.1250E+00  0.1250E+00
      2.541 -0.1506E-08 -0.7220E-09  0.1250E+00  0.1250E+00
      2.643 -0.1195E-06 -0.6233E-07  0.1250E+00  0.1250E+00
      2.745 -0.5497E-05 -0.3126E-05  0.1250E+00  0.1250E+00
      2.847 -0.1450E-03 -0.9009E-04  0.1250E+00  0.1250E+00
      2.949 -0.2148E-02 -0.1464E-02  0.1248E+00  0.1248E+00
      3.051 -0.1704E-01 -0.1287E-01  0.1230E+00  0.1235E+00
      3.153 -0.6319E-01 -0.5481E-01  0.1166E+00  0.1179E+00
      3.255 -0.3809E-01 -0.6012E-01  0.1127E+00  0.1118E+00
      3.357  0.4254E+00  0.3120E+00  0.1561E+00  0.1436E+00
      3.459  0.1274E+01  0.1154E+01  0.2861E+00  0.2613E+00
      3.561  0.1461E+01  0.1511E+01  0.4351E+00  0.4154E+00
      3.663  0.6993E+00  0.8404E+00  0.5064E+00  0.5012E+00
      3.765  0.4697E-01  0.1098E+00  0.5112E+00  0.5123E+00
      3.867 -0.7642E-01 -0.7814E-01  0.5034E+00  0.5044E+00
      3.969 -0.2909E-01 -0.3597E-01  0.5005E+00  0.5007E+00
      4.071 -0.8019E-02 -0.6381E-02  0.4997E+00  0.5001E+00
      4.173 -0.2429E-01 -0.8745E-03  0.4972E+00  0.5000E+00
      4.275 -0.7259E-01 -0.3829E-02  0.4898E+00  0.4996E+00
      4.377  0.8295E-02 -0.2549E-01  0.4906E+00  0.4970E+00
      4.479  0.5923E+00 -0.7404E-01  0.5510E+00  0.4894E+00
      4.581  0.1403E+01  0.2022E-01  0.6942E+00  0.4915E+00
      4.683  0.1351E+01  0.6275E+00  0.8320E+00  0.5555E+00
      4.785  0.4924E+00  0.1425E+01  0.8822E+00  0.7008E+00
      4.887 -0.9193E-01  0.1330E+01  0.8728E+00  0.8365E+00
      4.989 -0.2420E-01  0.4872E+00  0.8703E+00  0.8861E+00
      5.091  0.6512E+00 -0.4050E-01  0.9368E+00  0.8820E+00
      5.193  0.1400E+01 -0.1350E+00  0.1080E+01  0.8682E+00
      5.295  0.1500E+01 -0.7404E-01  0.1232E+01  0.8607E+00
      5.397  0.1558E+01  0.3595E+00  0.1391E+01  0.8974E+00
      5.499  0.2058E+01  0.1215E+01  0.1601E+01  0.1021E+01
      5.601  0.2064E+01  0.1987E+01  0.1812E+01  0.1224E+01
      5.703  0.1219E+01  0.2560E+01  0.1936E+01  0.1485E+01
      5.805  0.4539E+00  0.2480E+01  0.1982E+01  0.1738E+01
      5.907  0.8468E+00  0.1278E+01  0.2069E+01  0.1868E+01
      6.009  0.2538E+01  0.2426E+00  0.2328E+01  0.1893E+01
      6.111  0.4062E+01  0.3451E+00  0.2742E+01  0.1928E+01
      6.213  0.4134E+01  0.8392E+00  0.3164E+01  0.2014E+01
      6.315  0.3220E+01  0.1219E+01  0.3492E+01  0.2138E+01
      6.417  0.1879E+01  0.1932E+01  0.3684E+01  0.2335E+01
      6.519  0.1111E+01  0.2570E+01  0.3797E+01  0.2597E+01
      6.621  0.2104E+01  0.2875E+01  0.4011E+01  0.2891E+01
      6.723  0.3305E+01  0.3385E+01  0.4349E+01  0.3236E+01
      6.825  0.2663E+01  0.3136E+01  0.4620E+01  0.3556E+01
      6.927  0.1682E+01  0.1646E+01  0.4792E+01  0.3724E+01
      7.029  0.2625E+01  0.7729E+00  0.5059E+01  0.3802E+01
      7.131  0.3930E+01  0.1585E+01  0.5460E+01  0.3964E+01
      7.233  0.3110E+01  0.3002E+01  0.5777E+01  0.4270E+01
      7.335  0.1261E+01  0.3995E+01  0.5906E+01  0.4678E+01
      7.437  0.3826E+00  0.4270E+01  0.5945E+01  0.5113E+01
      7.539  0.2090E+00  0.3807E+01  0.5966E+01  0.5501E+01
      7.641  0.1492E+00  0.2648E+01  0.5982E+01  0.5771E+01
      7.743  0.9293E+00  0.1094E+01  0.6076E+01  0.5883E+01
      7.845  0.2525E+01  0.7484E-01  0.6334E+01  0.5891E+01
      7.947  0.3136E+01 -0.1670E-01  0.6654E+01  0.5889E+01
      8.049  0.2640E+01  0.2887E+00  0.6923E+01  0.5918E+01
      8.151  0.3144E+01  0.5732E+00  0.7244E+01  0.5977E+01
      8.253  0.4398E+01  0.1084E+01  0.7692E+01  0.6087E+01
      8.355  0.4593E+01  0.1853E+01  0.8161E+01  0.6276E+01
      8.457  0.4202E+01  0.2426E+01  0.8589E+01  0.6524E+01
      8.559  0.3981E+01  0.2768E+01  0.8995E+01  0.6806E+01
      8.661  0.4065E+01  0.3351E+01  0.9410E+01  0.7148E+01
      8.763  0.4537E+01  0.4494E+01  0.9873E+01  0.7606E+01
      8.865  0.3990E+01  0.5436E+01  0.1028E+02  0.8161E+01
      8.967  0.2056E+01  0.5182E+01  0.1049E+02  0.8689E+01
      9.069  0.3769E+00  0.3744E+01  0.1053E+02  0.9071E+01
      9.171 -0.1957E+00  0.2528E+01  0.1051E+02  0.9329E+01
      9.273 -0.1773E+00  0.2649E+01  0.1049E+02  0.9599E+01
      9.375  0.1804E+00  0.3356E+01  0.1051E+02  0.9941E+01
      9.477  0.1006E+01  0.3318E+01  0.1061E+02  0.1028E+02
      9.579  0.1531E+01  0.1969E+01  0.1077E+02  0.1048E+02
      9.681  0.9940E+00  0.4147E+00  0.1087E+02  0.1052E+02
      9.783  0.1960E+00 -0.2091E+00  0.1089E+02  0.1050E+02
      9.885 -0.7420E-01 -0.4748E-01  0.1088E+02  0.1050E+02
      9.987 -0.4466E-01  0.6894E+00  0.1088E+02  0.1057E+02
     10.089 -0.9005E-02  0.1465E+01  0.1088E+02  0.1072E+02
     10.191 -0.9082E-03  0.1263E+01  0.1088E+02  0.1085E+02
     10.293 -0.5010E-04  0.4139E+00  0.1088E+02  0.1089E+02
     10.395 -0.1565E-05 -0.4067E-01  0.1088E+02  0.1088E+02
     10.497 -0.2826E-07 -0.6241E-01  0.1088E+02  0.1088E+02
     10.599 -0.9752E-08 -0.1660E-01  0.1087E+02  0.1088E+02
     10.701 -0.6022E-06 -0.2072E-02  0.1087E+02  0.1088E+02
     10.803 -0.2216E-04 -0.1386E-03  0.1087E+02  0.1088E+02
     10.905 -0.4643E-03 -0.5291E-05  0.1087E+02  0.1088E+02
     11.007 -0.5382E-02 -0.4037E-05  0.1087E+02  0.1087E+02
     11.109 -0.3223E-01 -0.1092E-03  0.1087E+02  0.1087E+02
     11.211 -0.7779E-01 -0.1710E-02  0.1086E+02  0.1087E+02
     11.313  0.7597E-01 -0.1443E-01  0.1087E+02  0.1087E+02
     11.415  0.7683E+00 -0.5822E-01  0.1095E+02  0.1087E+02
     11.517  0.1487E+01 -0.5255E-01  0.1110E+02  0.1086E+02
     11.619  0.1199E+01  0.3557E+00  0.1122E+02  0.1090E+02
     11.721  0.3019E+00  0.1203E+01  0.1125E+02  0.1102E+02
     11.823 -0.1075E+00  0.1486E+01  0.1124E+02  0.1117E+02
     11.925  0.3349E+00  0.7379E+00  0.1128E+02  0.1125E+02
     12.027  0.1395E+01 -0.6938E-02  0.1142E+02  0.1125E+02
     12.128  0.1940E+01  0.7479E-01  0.1162E+02  0.1125E+02
     12.230  0.1216E+01  0.9900E+00  0.1174E+02  0.1136E+02
     12.332  0.2417E+00  0.1844E+01  0.1177E+02  0.1154E+02
     12.434 -0.8847E-01  0.1547E+01  0.1176E+02  0.1170E+02
     12.536 -0.5548E-01  0.5720E+00  0.1175E+02  0.1176E+02
     12.638 -0.1163E-01  0.4500E-02  0.1175E+02  0.1176E+02
     12.740 -0.1224E-02 -0.7102E-01  0.1175E+02  0.1175E+02
     12.842 -0.7070E-04 -0.2580E-01  0.1175E+02  0.1175E+02
     12.944 -0.2319E-05 -0.4380E-02  0.1175E+02  0.1175E+02
     13.046 -0.4390E-07 -0.4085E-03  0.1175E+02  0.1175E+02
     13.148 -0.4839E-09 -0.2182E-04  0.1175E+02  0.1175E+02
     13.250 -0.3124E-11 -0.6774E-06  0.1175E+02  0.1175E+02
     13.352 -0.1143E-13 -0.1230E-07  0.1175E+02  0.1175E+02
     13.454  0.0000E+00 -0.1310E-09  0.1175E+02  0.1175E+02
     13.556  0.0000E+00 -0.8213E-12  0.1175E+02  0.1175E+02
     13.658  0.0000E+00 -0.2994E-14  0.1175E+02  0.1175E+02
     13.760  0.0000E+00  0.0000E+00  0.1175E+02  0.1175E+02
     13.862  0.0000E+00  0.0000E+00  0.1175E+02  0.1175E+02
     13.964  0.0000E+00  0.0000E+00  0.1175E+02  0.1175E+02
     14.066 -0.2933E-28  0.0000E+00  0.1175E+02  0.1175E+02
     14.168 -0.9201E-25  0.0000E+00  0.1175E+02  0.1175E+02
     14.270 -0.1708E-21 -0.5931E-28  0.1175E+02  0.1175E+02
     14.372 -0.1876E-18 -0.1779E-24  0.1175E+02  0.1175E+02
     14.474 -0.1217E-15 -0.3159E-21  0.1175E+02  0.1175E+02
     14.576 -0.4509E-13 -0.3317E-18  0.1175E+02  0.1175E+02
     14.678 -0.1012E-10 -0.2058E-15  0.1175E+02  0.1175E+02
     14.780 -0.1330E-08 -0.7302E-13  0.1175E+02  0.1175E+02
     14.882 -0.1021E-06 -0.1563E-10  0.1175E+02  0.1175E+02
     14.984 -0.4544E-05 -0.1964E-08  0.1175E+02  0.1175E+02
     15.086 -0.1159E-03 -0.1439E-06  0.1175E+02  0.1175E+02
     15.188 -0.1658E-02 -0.6113E-05  0.1175E+02  0.1175E+02
     15.290 -0.1269E-01 -0.1485E-03  0.1175E+02  0.1175E+02
     15.392 -0.4569E-01 -0.2016E-02  0.1174E+02  0.1175E+02
     15.494 -0.3107E-01 -0.1451E-01  0.1174E+02  0.1175E+02
     15.596  0.2593E+00 -0.4708E-01  0.1177E+02  0.1174E+02
     15.698  0.8197E+00 -0.8992E-02  0.1185E+02  0.1174E+02
     15.800  0.1282E+01  0.3348E+00  0.1198E+02  0.1178E+02
     15.902  0.1600E+01  0.8385E+00  0.1214E+02  0.1186E+02
     16.004  0.1524E+01  0.9556E+00  0.1230E+02  0.1196E+02
     16.106  0.7729E+00  0.1032E+01  0.1238E+02  0.1206E+02
     16.208  0.8355E-01  0.1438E+01  0.1239E+02  0.1221E+02
     16.310 -0.8082E-01  0.1265E+01  0.1238E+02  0.1234E+02
     16.412 -0.3524E-01  0.4536E+00  0.1238E+02  0.1239E+02
     16.514 -0.6121E-02 -0.2976E-01  0.1238E+02  0.1238E+02
     16.616 -0.5474E-03 -0.6616E-01  0.1238E+02  0.1238E+02
     16.718 -0.2731E-04 -0.1875E-01  0.1238E+02  0.1238E+02
     16.820 -0.1132E-04 -0.2454E-02  0.1237E+02  0.1238E+02
     16.922 -0.2343E-03 -0.1865E-03  0.1237E+02  0.1237E+02
     17.024 -0.2888E-02 -0.3237E-03  0.1237E+02  0.1237E+02
     17.126 -0.1858E-01 -0.3655E-02  0.1237E+02  0.1237E+02
     17.228 -0.5056E-01 -0.2175E-01  0.1237E+02  0.1237E+02
     17.330  0.2602E-01 -0.5192E-01  0.1237E+02  0.1237E+02
     17.432  0.4519E+00  0.5297E-01  0.1242E+02  0.1237E+02
     17.534  0.9617E+00  0.5174E+00  0.1251E+02  0.1243E+02
     17.636  0.8383E+00  0.9932E+00  0.1260E+02  0.1253E+02
     17.738  0.2863E+00  0.7973E+00  0.1263E+02  0.1261E+02
     17.840  0.1344E+00  0.2156E+00  0.1264E+02  0.1263E+02
     17.942  0.3953E+00 -0.1806E-01  0.1268E+02  0.1263E+02
     18.044  0.4647E+00  0.1953E+00  0.1273E+02  0.1265E+02
     18.146  0.2026E+00  0.4760E+00  0.1275E+02  0.1270E+02
     18.248 -0.1703E-01  0.4105E+00  0.1275E+02  0.1274E+02
     18.350  0.9164E-02  0.1144E+00  0.1275E+02  0.1275E+02
     18.452  0.2662E+00  0.2324E-01  0.1278E+02  0.1275E+02
     18.554  0.5008E+00  0.2584E+00  0.1283E+02  0.1278E+02
     18.656  0.3859E+00  0.4978E+00  0.1287E+02  0.1283E+02
     18.758  0.8513E-01  0.3840E+00  0.1288E+02  0.1287E+02
     18.860 -0.9069E-01  0.9763E-01  0.1287E+02  0.1288E+02
     18.962 -0.1915E-01 -0.5775E-01  0.1287E+02  0.1287E+02
     19.064  0.5601E+00 -0.9619E-01  0.1292E+02  0.1286E+02
     19.166  0.1385E+01  0.1227E+00  0.1306E+02  0.1288E+02
     19.268  0.1376E+01  0.8737E+00  0.1320E+02  0.1296E+02
     19.370  0.5500E+00  0.1518E+01  0.1326E+02  0.1312E+02
     19.472 -0.5042E-02  0.1123E+01  0.1326E+02  0.1323E+02
     19.574 -0.7055E-01  0.2872E+00  0.1325E+02  0.1326E+02
     19.676 -0.2208E-01 -0.6389E-01  0.1325E+02  0.1326E+02
     19.778 -0.3092E-02 -0.5277E-01  0.1325E+02  0.1325E+02
     19.880 -0.2305E-03 -0.1201E-01  0.1325E+02  0.1325E+02
     19.982 -0.5597E-04 -0.1334E-02  0.1325E+02  0.1325E+02
     20.084 -0.8688E-03 -0.1032E-03  0.1325E+02  0.1325E+02
     20.186 -0.8998E-02 -0.4885E-03  0.1325E+02  0.1325E+02
     20.288 -0.4825E-01 -0.5748E-02  0.1324E+02  0.1325E+02
     20.390 -0.1023E+00 -0.3600E-01  0.1323E+02  0.1325E+02
     20.492  0.1289E+00 -0.9902E-01  0.1325E+02  0.1324E+02
     20.594  0.1069E+01  0.2643E-01  0.1336E+02  0.1324E+02
     20.696  0.2134E+01  0.8207E+00  0.1357E+02  0.1332E+02
     20.798  0.2003E+01  0.1990E+01  0.1378E+02  0.1352E+02
     20.900  0.8704E+00  0.2163E+01  0.1387E+02  0.1375E+02
     21.002  0.3282E+00  0.1104E+01  0.1390E+02  0.1386E+02
     21.104  0.9542E+00  0.3528E+00  0.1400E+02  0.1389E+02
     21.206  0.1486E+01  0.8316E+00  0.1415E+02  0.1398E+02
     21.308  0.9468E+00  0.1472E+01  0.1425E+02  0.1413E+02
     21.410  0.1713E+00  0.1066E+01  0.1426E+02  0.1424E+02
     21.512 -0.7595E-01  0.2514E+00  0.1426E+02  0.1426E+02
     21.614 -0.4236E-01 -0.6853E-01  0.1425E+02  0.1426E+02
     21.716 -0.8257E-02 -0.4983E-01  0.1425E+02  0.1425E+02
     21.818 -0.8101E-03 -0.1085E-01  0.1425E+02  0.1425E+02
     21.920 -0.4357E-04 -0.1163E-02  0.1425E+02  0.1425E+02
     22.022 -0.1328E-05 -0.6786E-04  0.1425E+02  0.1425E+02
     22.124 -0.2354E-07 -0.2237E-05  0.1425E+02  0.1425E+02
     22.226 -0.2009E-07 -0.4288E-07  0.1425E+02  0.1425E+02
     22.328 -0.1153E-05 -0.4057E-07  0.1425E+02  0.1425E+02
     22.430 -0.3861E-04 -0.2130E-05  0.1425E+02  0.1425E+02
     22.532 -0.7338E-03 -0.6509E-04  0.1425E+02  0.1425E+02
     22.634 -0.7657E-02 -0.1124E-02  0.1425E+02  0.1425E+02
     22.736 -0.4043E-01 -0.1058E-01  0.1425E+02  0.1425E+02
     22.838 -0.7697E-01 -0.4910E-01  0.1424E+02  0.1424E+02
     22.940  0.1527E+00 -0.6942E-01  0.1425E+02  0.1424E+02
     23.042  0.9215E+00  0.2446E+00  0.1435E+02  0.1426E+02
     23.144  0.1526E+01  0.1066E+01  0.1450E+02  0.1437E+02
     23.246  0.1079E+01  0.1528E+01  0.1461E+02  0.1453E+02
     23.348  0.2537E+00  0.9349E+00  0.1464E+02  0.1462E+02
     23.449 -0.6833E-01  0.1603E+00  0.1463E+02  0.1464E+02
     23.551 -0.4991E-01 -0.7659E-01  0.1463E+02  0.1463E+02
     23.653 -0.1088E-01 -0.4119E-01  0.1463E+02  0.1463E+02
     23.755 -0.1168E-02 -0.7891E-02  0.1463E+02  0.1463E+02
     23.857 -0.6820E-04 -0.7633E-03  0.1463E+02  0.1463E+02
     23.959 -0.2250E-05 -0.4051E-04  0.1463E+02  0.1463E+02
     24.061 -0.4272E-07 -0.1220E-05  0.1463E+02  0.1463E+02
     24.163 -0.4716E-09 -0.2118E-07  0.1463E+02  0.1463E+02
     24.265 -0.2325E-10 -0.2144E-09  0.1462E+02  0.1463E+02
     24.367 -0.2577E-08 -0.8254E-10  0.1462E+02  0.1462E+02
     24.469 -0.1920E-06 -0.8942E-08  0.1462E+02  0.1462E+02
     24.571 -0.8284E-05 -0.5733E-06  0.1462E+02  0.1462E+02
     24.673 -0.2046E-03 -0.2125E-04  0.1462E+02  0.1462E+02
     24.775 -0.2827E-02 -0.4484E-03  0.1462E+02  0.1462E+02
     24.877 -0.2073E-01 -0.5238E-02  0.1462E+02  0.1462E+02
     24.979 -0.6885E-01 -0.3166E-01  0.1462E+02  0.1462E+02
     25.081 -0.1445E-01 -0.7763E-01  0.1461E+02  0.1461E+02
     25.183  0.5178E+00  0.7098E-01  0.1467E+02  0.1462E+02
     25.285  0.1352E+01  0.7571E+00  0.1480E+02  0.1470E+02
     25.387  0.1407E+01  0.1485E+01  0.1495E+02  0.1485E+02
     25.489  0.5967E+00  0.1227E+01  0.1501E+02  0.1497E+02
     25.591  0.1485E-02  0.3759E+00  0.1501E+02  0.1501E+02
     25.693 -0.1160E+00 -0.5917E-01  0.1500E+02  0.1501E+02
     25.795 -0.9948E-01 -0.1093E+00  0.1499E+02  0.1500E+02
     25.897  0.1773E+00 -0.8406E-01  0.1501E+02  0.1499E+02
     25.999  0.9692E+00  0.2476E+00  0.1510E+02  0.1501E+02
     26.101  0.1530E+01  0.1073E+01  0.1526E+02  0.1512E+02
     26.203  0.1033E+01  0.1527E+01  0.1537E+02  0.1528E+02
     26.305  0.2210E+00  0.9275E+00  0.1539E+02  0.1537E+02
     26.407 -0.7562E-01  0.1532E+00  0.1538E+02  0.1539E+02
     26.509 -0.7207E-01 -0.9883E-01  0.1537E+02  0.1538E+02
     26.611 -0.8348E-01 -0.1113E+00  0.1536E+02  0.1537E+02
     26.713  0.1593E-01 -0.1315E-01  0.1537E+02  0.1536E+02
     26.815  0.6180E+00  0.5481E+00  0.1543E+02  0.1542E+02
     26.917  0.1419E+01  0.1375E+01  0.1557E+02  0.1556E+02
     27.019  0.1337E+01  0.1386E+01  0.1571E+02  0.1570E+02
     27.121  0.4984E+00  0.5657E+00  0.1576E+02  0.1576E+02
     27.223 -0.2000E-01 -0.2737E-03  0.1576E+02  0.1576E+02
     27.325 -0.6983E-01 -0.7215E-01  0.1575E+02  0.1575E+02
     27.427 -0.3476E-01 -0.3029E-01  0.1575E+02  0.1575E+02
     27.529 -0.4984E-01 -0.3723E-01  0.1574E+02  0.1575E+02
     27.631 -0.2788E-02 -0.4473E-01  0.1574E+02  0.1574E+02
     27.733  0.3692E+00  0.1776E+00  0.1578E+02  0.1576E+02
     27.835  0.9189E+00  0.7308E+00  0.1587E+02  0.1583E+02
     27.937  0.9221E+00  0.1016E+01  0.1597E+02  0.1594E+02
     28.039  0.3738E+00  0.6022E+00  0.1601E+02  0.1600E+02
     28.141 -0.1169E-02  0.9506E-01  0.1601E+02  0.1601E+02
     28.243 -0.4739E-01 -0.5159E-01  0.1600E+02  0.1600E+02
     28.345 -0.1503E-01 -0.2627E-01  0.1600E+02  0.1600E+02
     28.447 -0.2123E-02 -0.4900E-02  0.1600E+02  0.1600E+02
     28.549 -0.1585E-03 -0.4637E-03  0.1600E+02  0.1600E+02
     28.651 -0.6608E-05 -0.2412E-04  0.1600E+02  0.1600E+02
     28.753 -0.1575E-06 -0.7120E-06  0.1600E+02  0.1600E+02
     28.855 -0.2175E-08 -0.1213E-07  0.1600E+02  0.1600E+02
     28.957 -0.1753E-10 -0.1202E-09  0.1600E+02  0.1600E+02
     29.059 -0.8327E-13 -0.6972E-12  0.1600E+02  0.1600E+02
     29.161  0.0000E+00 -0.2721E-14  0.1600E+02  0.1600E+02
     29.263  0.0000E+00  0.0000E+00  0.1600E+02  0.1600E+02
     29.365  0.0000E+00  0.0000E+00  0.1600E+02  0.1600E+02
     29.467  0.0000E+00  0.0000E+00  0.1600E+02  0.1600E+02
     29.569  0.0000E+00  0.0000E+00  0.1600E+02  0.1600E+02
     29.671  0.0000E+00  0.0000E+00  0.1600E+02  0.1600E+02
     29.773  0.0000E+00  0.0000E+00  0.1600E+02  0.1600E+02
     29.875  0.0000E+00  0.0000E+00  0.1600E+02  0.1600E+02
