# ['Ni']

18 atoms
1 atom types

    0.0000     2.4875 xlo xhi
    0.0000     4.3086 ylo yhi
    0.0000    36.5534 zlo zhi

    0.0000     0.0000    -0.0004 xy xz yz

Atoms

1 1     0.0000     0.0000     0.0000
2 1     1.2438     0.7181     2.0308
3 1     0.0000     1.4362     4.0615
4 1     1.2438     2.1543     0.0000
5 1     0.0000     2.8724     2.0308
6 1     1.2438     3.5905     4.0615
7 1     0.0000     0.0000     6.0922
8 1     1.2438     0.7181     8.1230
9 1     0.0000     1.4362    10.1537
10 1     1.2438     2.1543     6.0922
11 1     0.0000     2.8724     8.1230
12 1     1.2438     3.5905    10.1537
13 1     0.0000     0.0000    12.1845
14 1     1.2438     0.7181    14.2152
15 1     0.0000     1.4362    16.2459
16 1     1.2438     2.1543    12.1845
17 1     0.0000     2.8724    14.2152
18 1     1.2438     3.5905    16.2459
