# ['Mg', 'O']

216 atoms
2 atom types

    0.0000    11.0731 xlo xhi
    0.0000    11.0731 ylo yhi
    0.0000    11.0731 zlo zhi

    0.0000     0.0000     0.0000 xy xz yz

Atoms

1 1     1.0000     1.8455     1.8455     0.0000
2 1     1.0000     1.8455     0.0000     1.8455
3 1     1.0000     0.0000     0.0000     0.0000
4 1     1.0000     0.0000     1.8455     1.8455
5 1     1.0000     1.8455     1.8455     3.6910
6 1     1.0000     1.8455     0.0000     5.5365
7 1     1.0000     0.0000     0.0000     3.6910
8 1     1.0000     0.0000     1.8455     5.5365
9 1     1.0000     1.8455     1.8455     7.3821
10 1     1.0000     1.8455     0.0000     9.2276
11 1     1.0000     0.0000     0.0000     7.3821
12 1     1.0000     0.0000     1.8455     9.2276
13 1     1.0000     1.8455     5.5365     0.0000
14 1     1.0000     1.8455     3.6910     1.8455
15 1     1.0000     0.0000     3.6910     0.0000
16 1     1.0000     0.0000     5.5365     1.8455
17 1     1.0000     1.8455     5.5365     3.6910
18 1     1.0000     1.8455     3.6910     5.5365
19 1     1.0000     0.0000     3.6910     3.6910
20 1     1.0000     0.0000     5.5365     5.5365
21 1     1.0000     1.8455     5.5365     7.3821
22 1     1.0000     1.8455     3.6910     9.2276
23 1     1.0000     0.0000     3.6910     7.3821
24 1     1.0000     0.0000     5.5365     9.2276
25 1     1.0000     1.8455     9.2276     0.0000
26 1     1.0000     1.8455     7.3821     1.8455
27 1     1.0000     0.0000     7.3821     0.0000
28 1     1.0000     0.0000     9.2276     1.8455
29 1     1.0000     1.8455     9.2276     3.6910
30 1     1.0000     1.8455     7.3821     5.5365
31 1     1.0000     0.0000     7.3821     3.6910
32 1     1.0000     0.0000     9.2276     5.5365
33 1     1.0000     1.8455     9.2276     7.3821
34 1     1.0000     1.8455     7.3821     9.2276
35 1     1.0000     0.0000     7.3821     7.3821
36 1     1.0000     0.0000     9.2276     9.2276
37 1     1.0000     5.5365     1.8455     0.0000
38 1     1.0000     5.5365     0.0000     1.8455
39 1     1.0000     3.6910     0.0000     0.0000
40 1     1.0000     3.6910     1.8455     1.8455
41 1     1.0000     5.5365     1.8455     3.6910
42 1     1.0000     5.5365     0.0000     5.5365
43 1     1.0000     3.6910     0.0000     3.6910
44 1     1.0000     3.6910     1.8455     5.5365
45 1     1.0000     5.5365     1.8455     7.3821
46 1     1.0000     5.5365     0.0000     9.2276
47 1     1.0000     3.6910     0.0000     7.3821
48 1     1.0000     3.6910     1.8455     9.2276
49 1     1.0000     5.5365     5.5365     0.0000
50 1     1.0000     5.5365     3.6910     1.8455
51 1     1.0000     3.6910     3.6910     0.0000
52 1     1.0000     3.6910     5.5365     1.8455
53 1     1.0000     5.5365     5.5365     3.6910
54 1     1.0000     5.5365     3.6910     5.5365
55 1     1.0000     3.6910     3.6910     3.6910
56 1     1.0000     3.6910     5.5365     5.5365
57 1     1.0000     5.5365     5.5365     7.3821
58 1     1.0000     5.5365     3.6910     9.2276
59 1     1.0000     3.6910     3.6910     7.3821
60 1     1.0000     3.6910     5.5365     9.2276
61 1     1.0000     5.5365     9.2276     0.0000
62 1     1.0000     5.5365     7.3821     1.8455
63 1     1.0000     3.6910     7.3821     0.0000
64 1     1.0000     3.6910     9.2276     1.8455
65 1     1.0000     5.5365     9.2276     3.6910
66 1     1.0000     5.5365     7.3821     5.5365
67 1     1.0000     3.6910     7.3821     3.6910
68 1     1.0000     3.6910     9.2276     5.5365
69 1     1.0000     5.5365     9.2276     7.3821
70 1     1.0000     5.5365     7.3821     9.2276
71 1     1.0000     3.6910     7.3821     7.3821
72 1     1.0000     3.6910     9.2276     9.2276
73 1     1.0000     9.2276     1.8455     0.0000
74 1     1.0000     9.2276     0.0000     1.8455
75 1     1.0000     7.3821     0.0000     0.0000
76 1     1.0000     7.3821     1.8455     1.8455
77 1     1.0000     9.2276     1.8455     3.6910
78 1     1.0000     9.2276     0.0000     5.5365
79 1     1.0000     7.3821     0.0000     3.6910
80 1     1.0000     7.3821     1.8455     5.5365
81 1     1.0000     9.2276     1.8455     7.3821
82 1     1.0000     9.2276     0.0000     9.2276
83 1     1.0000     7.3821     0.0000     7.3821
84 1     1.0000     7.3821     1.8455     9.2276
85 1     1.0000     9.2276     5.5365     0.0000
86 1     1.0000     9.2276     3.6910     1.8455
87 1     1.0000     7.3821     3.6910     0.0000
88 1     1.0000     7.3821     5.5365     1.8455
89 1     1.0000     9.2276     5.5365     3.6910
90 1     1.0000     9.2276     3.6910     5.5365
91 1     1.0000     7.3821     3.6910     3.6910
92 1     1.0000     7.3821     5.5365     5.5365
93 1     1.0000     9.2276     5.5365     7.3821
94 1     1.0000     9.2276     3.6910     9.2276
95 1     1.0000     7.3821     3.6910     7.3821
96 1     1.0000     7.3821     5.5365     9.2276
97 1     1.0000     9.2276     9.2276     0.0000
98 1     1.0000     9.2276     7.3821     1.8455
99 1     1.0000     7.3821     7.3821     0.0000
100 1     1.0000     7.3821     9.2276     1.8455
101 1     1.0000     9.2276     9.2276     3.6910
102 1     1.0000     9.2276     7.3821     5.5365
103 1     1.0000     7.3821     7.3821     3.6910
104 1     1.0000     7.3821     9.2276     5.5365
105 1     1.0000     9.2276     9.2276     7.3821
106 1     1.0000     9.2276     7.3821     9.2276
107 1     1.0000     7.3821     7.3821     7.3821
108 1     1.0000     7.3821     9.2276     9.2276
109 2     1.0000     0.0000     1.8455     0.0000
110 2     1.0000     1.8455     0.0000     0.0000
111 2     1.0000     1.8455     1.8455     1.8455
112 2     1.0000     0.0000     0.0000     1.8455
113 2     1.0000     0.0000     1.8455     3.6910
114 2     1.0000     1.8455     0.0000     3.6910
115 2     1.0000     1.8455     1.8455     5.5365
116 2     1.0000     0.0000     0.0000     5.5365
117 2     1.0000     0.0000     1.8455     7.3821
118 2     1.0000     1.8455     0.0000     7.3821
119 2     1.0000     1.8455     1.8455     9.2276
120 2     1.0000     0.0000     0.0000     9.2276
121 2     1.0000     0.0000     5.5365     0.0000
122 2     1.0000     1.8455     3.6910     0.0000
123 2     1.0000     1.8455     5.5365     1.8455
124 2     1.0000     0.0000     3.6910     1.8455
125 2     1.0000     0.0000     5.5365     3.6910
126 2     1.0000     1.8455     3.6910     3.6910
127 2     1.0000     1.8455     5.5365     5.5365
128 2     1.0000     0.0000     3.6910     5.5365
129 2     1.0000     0.0000     5.5365     7.3821
130 2     1.0000     1.8455     3.6910     7.3821
131 2     1.0000     1.8455     5.5365     9.2276
132 2     1.0000     0.0000     3.6910     9.2276
133 2     1.0000     0.0000     9.2276     0.0000
134 2     1.0000     1.8455     7.3821     0.0000
135 2     1.0000     1.8455     9.2276     1.8455
136 2     1.0000     0.0000     7.3821     1.8455
137 2     1.0000     0.0000     9.2276     3.6910
138 2     1.0000     1.8455     7.3821     3.6910
139 2     1.0000     1.8455     9.2276     5.5365
140 2     1.0000     0.0000     7.3821     5.5365
141 2     1.0000     0.0000     9.2276     7.3821
142 2     1.0000     1.8455     7.3821     7.3821
143 2     1.0000     1.8455     9.2276     9.2276
144 2     1.0000     0.0000     7.3821     9.2276
145 2     1.0000     3.6910     1.8455     0.0000
146 2     1.0000     5.5365     0.0000     0.0000
147 2     1.0000     5.5365     1.8455     1.8455
148 2     1.0000     3.6910     0.0000     1.8455
149 2     1.0000     3.6910     1.8455     3.6910
150 2     1.0000     5.5365     0.0000     3.6910
151 2     1.0000     5.5365     1.8455     5.5365
152 2     1.0000     3.6910     0.0000     5.5365
153 2     1.0000     3.6910     1.8455     7.3821
154 2     1.0000     5.5365     0.0000     7.3821
155 2     1.0000     5.5365     1.8455     9.2276
156 2     1.0000     3.6910     0.0000     9.2276
157 2     1.0000     3.6910     5.5365     0.0000
158 2     1.0000     5.5365     3.6910     0.0000
159 2     1.0000     5.5365     5.5365     1.8455
160 2     1.0000     3.6910     3.6910     1.8455
161 2     1.0000     3.6910     5.5365     3.6910
162 2     1.0000     5.5365     3.6910     3.6910
163 2     1.0000     3.6910     3.6910     5.5365
164 2     1.0000     3.6910     5.5365     7.3821
165 2     1.0000     5.5365     3.6910     7.3821
166 2     1.0000     5.5365     5.5365     9.2276
167 2     1.0000     3.6910     3.6910     9.2276
168 2     1.0000     3.6910     9.2276     0.0000
169 2     1.0000     5.5365     7.3821     0.0000
170 2     1.0000     5.5365     9.2276     1.8455
171 2     1.0000     3.6910     7.3821     1.8455
172 2     1.0000     3.6910     9.2276     3.6910
173 2     1.0000     5.5365     7.3821     3.6910
174 2     1.0000     5.5365     9.2276     5.5365
175 2     1.0000     3.6910     7.3821     5.5365
176 2     1.0000     3.6910     9.2276     7.3821
177 2     1.0000     5.5365     7.3821     7.3821
178 2     1.0000     5.5365     9.2276     9.2276
179 2     1.0000     3.6910     7.3821     9.2276
180 2     1.0000     7.3821     1.8455     0.0000
181 2     1.0000     9.2276     0.0000     0.0000
182 2     1.0000     9.2276     1.8455     1.8455
183 2     1.0000     7.3821     0.0000     1.8455
184 2     1.0000     7.3821     1.8455     3.6910
185 2     1.0000     9.2276     0.0000     3.6910
186 2     1.0000     9.2276     1.8455     5.5365
187 2     1.0000     7.3821     0.0000     5.5365
188 2     1.0000     7.3821     1.8455     7.3821
189 2     1.0000     9.2276     0.0000     7.3821
190 2     1.0000     9.2276     1.8455     9.2276
191 2     1.0000     7.3821     0.0000     9.2276
192 2     1.0000     7.3821     5.5365     0.0000
193 2     1.0000     9.2276     3.6910     0.0000
194 2     1.0000     9.2276     5.5365     1.8455
195 2     1.0000     7.3821     3.6910     1.8455
196 2     1.0000     7.3821     5.5365     3.6910
197 2     1.0000     9.2276     3.6910     3.6910
198 2     1.0000     9.2276     5.5365     5.5365
199 2     1.0000     7.3821     3.6910     5.5365
200 2     1.0000     7.3821     5.5365     7.3821
201 2     1.0000     9.2276     3.6910     7.3821
202 2     1.0000     9.2276     5.5365     9.2276
203 2     1.0000     7.3821     3.6910     9.2276
204 2     1.0000     7.3821     9.2276     0.0000
205 2     1.0000     9.2276     7.3821     0.0000
206 2     1.0000     9.2276     9.2276     1.8455
207 2     1.0000     7.3821     7.3821     1.8455
208 2     1.0000     7.3821     9.2276     3.6910
209 2     1.0000     9.2276     7.3821     3.6910
210 2     1.0000     9.2276     9.2276     5.5365
211 2     1.0000     7.3821     7.3821     5.5365
212 2     1.0000     7.3821     9.2276     7.3821
213 2     1.0000     9.2276     7.3821     7.3821
214 2     1.0000     9.2276     9.2276     9.2276
215 2     1.0000     7.3821     7.3821     9.2276
216 2     1.0000     8.3048     8.3048     8.3048
