LAMMPS (11 Aug 2017)
Reading data file ...
  triclinic box = (0 0 0) to (3.5167 3.5167 3.5167) with tilt (0 -0 0)
  1 by 1 by 1 MPI processor grid
  reading atoms ...
  4 atoms
4 atoms in group Ni
Neighbor list info ...
  update every 1 steps, delay 0 steps, check yes
  max neighbors/atom: 2000, page size: 100000
  master list distance cutoff = 5.64464
  ghost atom cutoff = 5.64464
  binsize = 2.82232, bins = 2 2 2
  1 neighbor lists, perpetual/occasional/extra = 1 0 0
  (1) pair eam/alloy, perpetual
      attributes: half, newton on
      pair build: half/bin/newton/tri
      stencil: half/bin/3d/newton/tri
      bin: standard
Setting up cg style minimization ...
  Unit style    : metal
  Current step  : 0
WARNING: Energy due to 3 extra global DOFs will be included in minimizer energies
Per MPI rank memory allocation (min/avg/max) = 4.211 | 4.211 | 4.211 Mbytes
Step PotEng Xhi Xlo Yhi Ylo Zhi Xy Xz Yz Press Pxx Pyy Pzz Pxy Pxz Pyz c_eatoms 
       0   -24.186326       3.5167            0       3.5167            0       3.5167            0           -0            0   -552068.32   -552068.32   -552068.32   -552068.32 1.7254342e-11 6.4544022e-11 5.0484928e-11   -24.186326 
      10   -24.623261    3.4991165    0.0175835    3.4991165    0.0175835    3.4991165            0           -0            0   -530442.73   -530442.73   -530442.73   -530442.73 1.2908778e-11 -1.1670589e-10 -3.7936001e-11   -24.623261 
      20   -25.031133     3.481533     0.035167     3.481533     0.035167     3.481533            0           -0            0   -500355.79   -500355.79   -500355.79   -500355.79 1.0863666e-11 -3.449214e-11 2.9331898e-11   -25.031133 
      30   -25.403726    3.4639495    0.0527505    3.4639495    0.0527505    3.4639495            0           -0            0   -460276.37   -460276.37   -460276.37   -460276.37 1.7364854e-11 2.2406263e-11 4.3692212e-11   -25.403726 
      40   -25.733994     3.446366     0.070334     3.446366     0.070334     3.446366            0           -0            0    -408426.2    -408426.2    -408426.2    -408426.2 -3.7270966e-11 -7.1941632e-11 -3.8715577e-11   -25.733994 
      50   -26.013961    3.4287825    0.0879175    3.4287825    0.0879175    3.4287825            0           -0            0   -342740.81   -342740.81   -342740.81   -342740.81 6.559134e-12 5.6647067e-12 1.3416411e-11   -26.013961 
      60   -26.234601     3.411199     0.105501     3.411199     0.105501     3.411199            0           -0            0   -260824.33   -260824.33   -260824.33   -260824.33 1.4156924e-11 6.1244086e-11 3.6623348e-11   -26.234601 
      70   -26.385767    3.3936155    0.1230845    3.3936155    0.1230845    3.3936155            0           -0            0   -160323.95   -160323.95   -160323.95   -160323.95 3.1779407e-13 -2.8919261e-11 1.3347351e-11   -26.385767 
      80   -26.456536     3.376032     0.140668     3.376032     0.140668     3.376032            0           -0            0   -38377.774   -38377.774   -38377.774   -38377.774 -1.3130799e-12 -1.0832909e-11 -1.3918647e-10   -26.456536 
      90   -26.460243    3.3711374   0.14556258    3.3711374   0.14556258    3.3711374            0           -0            0 2.0295107e-06 2.0295043e-06 2.0294996e-06 2.0295281e-06 1.0434936e-10 -7.1222579e-11 -6.6253562e-11   -26.460243 
      92   -26.460243    3.3711374   0.14556258    3.3711374   0.14556258    3.3711374            0           -0            0 6.126246e-10 6.1682066e-10 6.0622009e-10 6.1483306e-10 1.9876069e-12 9.9380343e-12 -1.9876069e-12   -26.460243 
Loop time of 0.00184703 on 1 procs for 92 steps with 4 atoms

100.1% CPU use with 1 MPI tasks x no OpenMP threads

Minimization stats:
  Stopping criterion = energy tolerance
  Energy initial, next-to-last, final = 
        -24.1863259978     -26.4602427069     -26.4602427069
  Force two-norm initial, final = 25.9567 3.79258e-14
  Force max component initial, final = 14.9861 1.40863e-14
  Final line search alpha, max atom move = 1 1.40863e-14
  Iterations, force evaluations = 92 102

MPI task timing breakdown:
Section |  min time  |  avg time  |  max time  |%varavg| %total
---------------------------------------------------------------
Pair    | 0.00095487 | 0.00095487 | 0.00095487 |   0.0 | 51.70
Neigh   | 2.0981e-05 | 2.0981e-05 | 2.0981e-05 |   0.0 |  1.14
Comm    | 0.00018239 | 0.00018239 | 0.00018239 |   0.0 |  9.87
Output  | 9.4891e-05 | 9.4891e-05 | 9.4891e-05 |   0.0 |  5.14
Modify  | 0          | 0          | 0          |   0.0 |  0.00
Other   |            | 0.0005939  |            |       | 32.15

Nlocal:    4 ave 4 max 4 min
Histogram: 1 0 0 0 0 0 0 0 0 0
Nghost:    360 ave 360 max 360 min
Histogram: 1 0 0 0 0 0 0 0 0 0
Neighs:    172 ave 172 max 172 min
Histogram: 1 0 0 0 0 0 0 0 0 0

Total # of neighbors = 172
Ave neighs/atom = 43
Neighbor list builds = 1
Dangerous builds = 0
pypospack:output_section:begin
tot_energy = -26.4602427068976
num_atoms = 4
a11 = 3.22557483871586
a22 = 3.22557483871586
a33 = 3.22557483871586
a12 = 0
a13 = -0
a23 = 0
tot_press = 6.12624603074497e-10
pxx = 6.16820661999665e-10
pyy = 6.06220092083451e-10
pzz = 6.14833055140375e-10
pxy = 1.98760685929e-12
pxz = 9.93803429645002e-12
pyz = -1.98760685929e-12
pypospack:output_section:done
pypospack:lammps_sim:done
Total wall time: 0:00:00
