LAMMPS (11 Aug 2017)
Reading data file ...
  triclinic box = (0 0 0) to (3.5167 3.5167 3.5167) with tilt (0 -0 0)
  1 by 1 by 1 MPI processor grid
  reading atoms ...
  4 atoms
4 atoms in group Ni
Neighbor list info ...
  update every 1 steps, delay 0 steps, check yes
  max neighbors/atom: 2000, page size: 100000
  master list distance cutoff = 11
  ghost atom cutoff = 11
  binsize = 5.5, bins = 1 1 1
  1 neighbor lists, perpetual/occasional/extra = 1 0 0
  (1) pair eam/alloy, perpetual
      attributes: half, newton on
      pair build: half/bin/newton/tri
      stencil: half/bin/3d/newton/tri
      bin: standard
Setting up cg style minimization ...
  Unit style    : metal
  Current step  : 0
WARNING: Energy due to 3 extra global DOFs will be included in minimizer energies
Per MPI rank memory allocation (min/avg/max) = 4.307 | 4.307 | 4.307 Mbytes
Step PotEng Xhi Xlo Yhi Ylo Zhi Xy Xz Yz Press Pxx Pyy Pzz Pxy Pxz Pyz c_eatoms 
       0   -17.915257       3.5167            0       3.5167            0       3.5167            0           -0            0    15557.245    15557.245    15557.245    15557.245 6.8455237e-13 6.4260537e-12 1.1698854e-12   -17.915257 
      10   -17.948106    3.5143359 0.0023641228    3.5143359 0.0023641228    3.5143359            0           -0            0    39321.998    39321.998    39321.998    39321.998 -1.0042616e-08 -1.7378711e-08 -1.3235117e-08   -17.948106 
      20   -18.148891    3.5232455 -0.0065454827    3.5232455 -0.0065454827    3.5232455            0           -0            0    117889.25    117889.25    117889.25    117889.25 -2.0825736e-08 -3.5916513e-08 -2.6237121e-08   -18.148891 
      30   -18.223608     3.540829 -0.024128983     3.540829 -0.024128983     3.540829            0           -0            0    59678.143    59678.143    59678.143    59678.143 -3.3444226e-08 -5.8254474e-08 -4.2134426e-08   -18.223608 
      40   -18.265504    3.5584125 -0.041712483    3.5584125 -0.041712483    3.5584125            0           -0            0    12600.669    12600.669    12600.669    12600.669 -4.5910918e-08 -7.9404188e-08 -5.780432e-08   -18.265504 
      50   -18.386391     3.575996 -0.059295983     3.575996 -0.059295983     3.575996            0           -0            0    5276.0393    5276.0393    5276.0393    5276.0393 -3.9704189e-08 -6.868523e-08 -4.9840446e-08   -18.386391 
      60    -18.52754    3.5935795 -0.076879483    3.5935795 -0.076879483    3.5935795            0           -0            0    6868.6398    6868.6398    6868.6398    6868.6398 -2.5433208e-08 -4.4235514e-08 -3.2059691e-08    -18.52754 
      70    -18.66322     3.611163 -0.094462983     3.611163 -0.094462983     3.611163            0           -0            0    8391.0815    8391.0815    8391.0815    8391.0815 -6.5803683e-09 -1.1656104e-08 -8.4371305e-09    -18.66322 
      80   -18.793134    3.6287465  -0.11204648    3.6287465  -0.11204648    3.6287465            0           -0            0    9803.0138    9803.0138    9803.0138    9803.0138 1.2871418e-08 2.2586498e-08 1.6322789e-08   -18.793134 
      90   -18.917278      3.64633  -0.12962998      3.64633  -0.12962998      3.64633            0           -0            0    11026.578    11026.578    11026.578    11026.578 3.0675265e-08 5.2946058e-08 3.8542954e-08   -18.917278 
     100    -19.03575    3.6639135  -0.14721348    3.6639135  -0.14721348    3.6639135            0           -0            0    12112.369    12112.369    12112.369    12112.369 5.1003912e-08 8.8358806e-08 6.4049377e-08    -19.03575 
     110    -19.14847     3.681497  -0.16479698     3.681497  -0.16479698     3.681497            0           -0            0    13059.966    13059.966    13059.966    13059.966 5.6480766e-08 9.7427867e-08 7.1161944e-08    -19.14847 
     120   -19.255706    3.6990805  -0.18238048    3.6990805  -0.18238048    3.6990805            0           -0            0     13826.52     13826.52     13826.52     13826.52 8.4496426e-08 1.4587661e-07 1.0615956e-07   -19.255706 
     130   -19.357506     3.716664  -0.19996398     3.716664  -0.19996398     3.716664            0           -0            0    14504.296    14504.296    14504.296    14504.296 1.0333173e-07 1.7873654e-07 1.3004732e-07   -19.357506 
     140    -19.45402    3.7342475  -0.21754748    3.7342475  -0.21754748    3.7342475            0           -0            0    15001.254    15001.254    15001.254    15001.254 1.0382406e-07 1.8039968e-07 1.3118055e-07    -19.45402 
     150   -19.545473     3.751831  -0.23513098     3.751831  -0.23513098     3.751831            0           -0            0    15348.998    15348.998    15348.998    15348.998 1.0963782e-07 1.8944099e-07 1.3772466e-07   -19.545473 
     160   -19.632069    3.7694145  -0.25271448    3.7694145  -0.25271448    3.7694145            0           -0            0    15583.544    15583.544    15583.544    15583.544 1.1728017e-07 2.0294242e-07 1.4771311e-07   -19.632069 
     170   -19.714001     3.786998  -0.27029798     3.786998  -0.27029798     3.786998            0           -0            0    15727.539    15727.539    15727.539    15727.539 1.2186758e-07 2.1155546e-07 1.5393601e-07   -19.714001 
     180   -19.791471    3.8045815  -0.28788148    3.8045815  -0.28788148    3.8045815            0           -0            0    15747.065    15747.065    15747.065    15747.065 1.2033837e-07 2.0859717e-07 1.5229896e-07   -19.791471 
     190   -19.864704     3.822165  -0.30546498     3.822165  -0.30546498     3.822165            0           -0            0    15678.303    15678.303    15678.303    15678.303 1.2096021e-07 2.0888139e-07 1.5217423e-07   -19.864704 
     200   -19.933916    3.8397485  -0.32304848    3.8397485  -0.32304848    3.8397485            0           -0            0    15531.302    15531.302    15531.302    15531.302 1.2102122e-07 2.097872e-07 1.5266196e-07   -19.933916 
     210   -19.999301     3.857332  -0.34063198     3.857332  -0.34063198     3.857332            0           -0            0    15315.829    15315.829    15315.829    15315.829 1.1782227e-07 2.0410003e-07 1.4886391e-07   -19.999301 
     220    -20.06107    3.8749155  -0.35821548    3.8749155  -0.35821548    3.8749155            0           -0            0    15045.084    15045.084    15045.084    15045.084 1.1620997e-07 2.0104245e-07 1.4663124e-07    -20.06107 
     230   -20.119408     3.892499  -0.37579898     3.892499  -0.37579898     3.892499            0           -0            0    14723.619    14723.619    14723.619    14723.619 1.1225176e-07 1.946421e-07 1.421033e-07   -20.119408 
     240   -20.174511    3.9100825  -0.39338248    3.9100825  -0.39338248    3.9100825            0           -0            0    14357.163    14357.163    14357.163    14357.163 1.0786604e-07 1.862105e-07 1.3591848e-07   -20.174511 
     250   -20.226555     3.927666  -0.41096598     3.927666  -0.41096598     3.927666            0           -0            0     13957.78     13957.78     13957.78     13957.78 1.022826e-07 1.7685271e-07 1.2867007e-07   -20.226555 
     260   -20.275713    3.9452495  -0.42854948    3.9452495  -0.42854948    3.9452495            0           -0            0    13534.326    13534.326    13534.326    13534.326 9.6565034e-08 1.6710624e-07 1.2170387e-07   -20.275713 
     270    -20.32215     3.962833  -0.44613298     3.962833  -0.44613298     3.962833            0           -0            0    13087.946    13087.946    13087.946    13087.946 9.0985977e-08 1.5795963e-07  1.14917e-07    -20.32215 
     280   -20.366015    3.9804165  -0.46371648    3.9804165  -0.46371648    3.9804165            0           -0            0    12626.999    12626.999    12626.999    12626.999 8.4710602e-08 1.4693063e-07 1.0687219e-07   -20.366015 
     290   -20.407455        3.998  -0.48129998        3.998  -0.48129998        3.998            0           -0            0     12156.95     12156.95     12156.95     12156.95 7.8335348e-08 1.3584951e-07 9.8749846e-08   -20.407455 
     300   -20.446611    4.0155835  -0.49888348    4.0155835  -0.49888348    4.0155835            0           -0            0    11683.332    11683.332    11683.332    11683.332 7.2764274e-08 1.2589218e-07 9.1296793e-08   -20.446611 
     310   -20.483614     4.033167  -0.51646698     4.033167  -0.51646698     4.033167            0           -0            0    11202.622    11202.622    11202.622    11202.622 6.558724e-08 1.1386048e-07 8.2781662e-08   -20.483614 
     320   -20.518588    4.0507505  -0.53405048    4.0507505  -0.53405048    4.0507505            0           -0            0    10729.661    10729.661    10729.661    10729.661 6.0264455e-08 1.0424502e-07 7.5952865e-08   -20.518588 
     330   -20.551641     4.068334  -0.55163398     4.068334  -0.55163398     4.068334            0           -0            0    10258.488    10258.488    10258.488    10258.488 5.445685e-08 9.3573749e-08 6.8557886e-08   -20.551641 
     340   -20.582887    4.0859175  -0.56921748    4.0859175  -0.56921748    4.0859175            0           -0            0    9795.7729    9795.7729    9795.7729    9795.7729 4.8432069e-08 8.3292115e-08 6.0819256e-08   -20.582887 
     350   -20.612429     4.103501  -0.58680098     4.103501  -0.58680098     4.103501            0           -0            0    9341.9669    9341.9669    9341.9669    9341.9669 4.3574465e-08 7.5043044e-08 5.4902228e-08   -20.612429 
     360   -20.640359    4.1210845  -0.60438448    4.1210845  -0.60438448    4.1210845            0           -0            0    8898.9372    8898.9372    8898.9372    8898.9372 3.8335237e-08 6.5923621e-08 4.8301042e-08   -20.640359 
     370   -20.666776     4.138668  -0.62196798     4.138668  -0.62196798     4.138668            0           -0            0    8465.7893    8465.7893    8465.7893    8465.7893 3.3681182e-08 5.8456951e-08 4.2642773e-08   -20.666776 
     380   -20.691757    4.1562515  -0.63955148    4.1562515  -0.63955148    4.1562515            0           -0            0    8048.0633    8048.0633    8048.0633    8048.0633 2.9546397e-08 5.0827518e-08 3.7304781e-08   -20.691757 
     390   -20.715382     4.173835  -0.65713498     4.173835  -0.65713498     4.173835            0           -0            0    7643.6606    7643.6606    7643.6606    7643.6606 2.5441469e-08 4.4473089e-08 3.2366081e-08   -20.715382 
     400    -20.73773    4.1914185  -0.67471848    4.1914185  -0.67471848    4.1914185            0           -0            0    7250.2544    7250.2544    7250.2544    7250.2544 2.1467443e-08 3.7259243e-08 2.6885897e-08    -20.73773 
     410   -20.758873     4.209002  -0.69230198     4.209002  -0.69230198     4.209002            0           -0            0    6876.6196    6876.6196    6876.6196    6876.6196 1.8874931e-08 3.2344508e-08 2.3645433e-08   -20.758873 
     420   -20.778867    4.2265855  -0.70988548    4.2265855  -0.70988548    4.2265855            0           -0            0    6516.3209    6516.3209    6516.3209    6516.3209 1.5912887e-08 2.7497143e-08 2.0203138e-08   -20.778867 
     430   -20.797782     4.244169  -0.72746898     4.244169  -0.72746898     4.244169            0           -0            0    6167.3388    6167.3388    6167.3388    6167.3388 1.2899155e-08 2.2203375e-08 1.6108718e-08   -20.797782 
     440   -20.815689    4.2617525  -0.74505248    4.2617525  -0.74505248    4.2617525            0           -0            0    5834.7573    5834.7573    5834.7573    5834.7573 1.0961208e-08 1.9016939e-08 1.3776678e-08   -20.815689 
     450   -20.832625     4.279336  -0.76263598     4.279336  -0.76263598     4.279336            0           -0            0    5520.4624    5520.4624    5520.4624    5520.4624 9.1891208e-09 1.5575291e-08 1.1420632e-08   -20.832625 
     460   -20.848648    4.2969195  -0.78021948    4.2969195  -0.78021948    4.2969195            0           -0            0    5216.7413    5216.7413    5216.7413    5216.7413 7.1775388e-09 1.2602246e-08 8.9204983e-09   -20.848648 
     470   -20.863812     4.314503  -0.79780298     4.314503  -0.79780298     4.314503            0           -0            0    4928.6911    4928.6911    4928.6911    4928.6911 6.0755557e-09 1.0108727e-08 7.3564359e-09   -20.863812 
     480   -20.878157    4.3320865  -0.81538648    4.3320865  -0.81538648    4.3320865            0           -0            0    4654.7653    4654.7653    4654.7653    4654.7653 4.8179169e-09 8.2051918e-09 5.9308086e-09   -20.878157 
     490   -20.891734      4.34967  -0.83296998      4.34967  -0.83296998      4.34967            0           -0            0    4390.9596    4390.9596    4390.9596    4390.9596 3.7130413e-09 6.1501355e-09 4.2654253e-09   -20.891734 
     500   -20.904589    4.3672535  -0.85055348    4.3672535  -0.85055348    4.3672535            0           -0            0    4142.3622    4142.3622    4142.3622    4142.3622 2.9006122e-09 5.0080166e-09 3.4322083e-09   -20.904589 
     510   -20.916748     4.384837  -0.86813698     4.384837  -0.86813698     4.384837            0           -0            0    3909.8143    3909.8143    3909.8143    3909.8143 2.3115703e-09 4.1020668e-09 2.7664421e-09   -20.916748 
     520   -20.928248    4.4024205  -0.88572048    4.4024205  -0.88572048    4.4024205            0           -0            0    3686.3453    3686.3453    3686.3453    3686.3453 1.6398046e-09 2.7690183e-09 2.0179453e-09   -20.928248 
     530   -20.939133     4.420004  -0.90330398     4.420004  -0.90330398     4.420004            0           -0            0    3472.7154    3472.7154    3472.7154    3472.7154 1.4687885e-09 1.9147746e-09 1.5427882e-09   -20.939133 
     540   -20.949437    4.4375875  -0.92088748    4.4375875  -0.92088748    4.4375875            0           -0            0    3271.3092    3271.3092    3271.3092    3271.3092 9.0304852e-10 1.505462e-09 1.1994531e-09   -20.949437 
     550   -20.959188     4.455171  -0.93847098     4.455171  -0.93847098     4.455171            0           -0            0    3081.6473    3081.6473    3081.6473    3081.6473 5.3398859e-10 1.1204305e-09 7.7040448e-10   -20.959188 
     560   -20.968414    4.4727545  -0.95605448    4.4727545  -0.95605448    4.4727545            0           -0            0    2902.1082    2902.1082    2902.1082    2902.1082 4.6091866e-10 8.0957865e-10 6.3897923e-10   -20.968414 
     570   -20.977144     4.490338  -0.97363798     4.490338  -0.97363798     4.490338            0           -0            0    2732.0816    2732.0816    2732.0816    2732.0816 3.397585e-10 6.1743887e-10 6.1615108e-10   -20.977144 
     580   -20.985404    4.5079215  -0.99122148    4.5079215  -0.99122148    4.5079215            0           -0            0    2571.8992    2571.8992    2571.8992    2571.8992 2.230243e-10 4.4084582e-10 4.9601261e-10   -20.985404 
     590   -20.993218     4.525505    -1.008805     4.525505    -1.008805     4.525505            0           -0            0    2420.4744    2420.4744    2420.4744    2420.4744 2.6728272e-10 1.1259265e-10 2.1529357e-10   -20.993218 
     600    -21.00061    4.5430885   -1.0263885    4.5430885   -1.0263885    4.5430885            0           -0            0    2277.2746    2277.2746    2277.2746    2277.2747 1.6010822e-10 2.1288892e-10 2.1130248e-10    -21.00061 
     610   -21.007606     4.560672    -1.043972     4.560672    -1.043972     4.560672            0           -0            0    2141.6255    2141.6255    2141.6255    2141.6255 2.0637011e-10 2.6054575e-10 5.5645635e-11   -21.007606 
     620   -21.014226    4.5782555   -1.0615555    4.5782555   -1.0615555    4.5782555            0           -0            0    2013.7096    2013.7096    2013.7096    2013.7096 -6.3063014e-14 4.9562264e-11 -9.9981688e-11   -21.014226 
     630    -21.02049     4.595839    -1.079139     4.595839    -1.079139     4.595839            0           -0            0    1893.1305    1893.1305    1893.1305    1893.1305 5.0164347e-11 5.0495845e-11 5.164856e-11    -21.02049 
     640   -21.026417    4.6134225   -1.0967225    4.6134225   -1.0967225    4.6134225            0           -0            0    1779.7844    1779.7844    1779.7844    1779.7844 -4.6712193e-11 4.6202676e-11 4.9063048e-11   -21.026417 
     650   -21.032024     4.631006    -1.114306     4.631006    -1.114306     4.631006            0           -0            0    1673.0854    1673.0854    1673.0854    1673.0854 8.5176335e-13 9.505302e-11 1.9013535e-10   -21.032024 
     660   -21.037328    4.6485895   -1.1318895    4.6485895   -1.1318895    4.6485895            0           -0            0    1572.5351    1572.5351    1572.5351    1572.5351 -1.3501505e-12 2.4531622e-12 -1.8310354e-10   -21.037328 
     670   -21.042346     4.666173    -1.149473     4.666173    -1.149473     4.666173            0           -0            0    1477.8321    1477.8321    1477.8321    1477.8321 -9.1304177e-11 -4.7154928e-11 8.9656345e-11   -21.042346 
     680   -21.047092    4.6837565   -1.1670565    4.6837565   -1.1670565    4.6837565            0           -0            0    1388.6302    1388.6302    1388.6302    1388.6302 -2.0206858e-13 -8.9392355e-11 -4.647729e-11   -21.047092 
     690   -21.051582      4.70134     -1.18464      4.70134     -1.18464      4.70134            0           -0            0    1304.5302    1304.5302    1304.5302    1304.5302 -6.3726537e-13 -4.4814232e-11 -8.8824421e-11   -21.051582 
     700    -21.05583    4.7189235   -1.2022235    4.7189235   -1.2022235    4.7189235            0           -0            0    1225.4823    1225.4823    1225.4823    1225.4823 -2.2192556e-13 -1.2985721e-10 -4.3698561e-11    -21.05583 
     710   -21.059847     4.736507    -1.219807     4.736507    -1.219807     4.736507            0           -0            0    1151.0948    1151.0948    1151.0948    1151.0948 1.2579105e-10 -4.2964691e-11 -4.2457896e-11   -21.059847 
     720   -21.063646    4.7540905   -1.2373905    4.7540905   -1.2373905    4.7540905            0           -0            0    1081.0981    1081.0981     1081.098    1081.0981 -4.2256002e-11 3.5638398e-13 -1.240372e-10   -21.063646 
     730   -21.067239     4.771674    -1.254974     4.771674    -1.254974     4.771674            0           -0            0    1015.2388    1015.2388    1015.2388    1015.2388 -8.1747768e-11 1.2275502e-10 -4.1127986e-11   -21.067239 
     740   -21.070637    4.7892575   -1.2725575    4.7892575   -1.2725575    4.7892575            0           -0            0    953.28488    953.28488    953.28487    953.28488 -7.9240265e-11 7.9697075e-11 -4.013447e-11   -21.070637 
     750   -21.073851     4.806841    -1.290141     4.806841    -1.290141     4.806841            0           -0            0    895.01608    895.01608    895.01607    895.01608 -2.123866e-13 -3.9396853e-11 -1.1815526e-10   -21.073851 
     760    -21.07689    4.8244245   -1.3077245    4.8244245   -1.3077245    4.8244245            0           -0            0    840.22308    840.22308    840.22307    840.22308 -6.2719626e-13 -8.3007029e-14 7.7234863e-11    -21.07689 
     770   -21.079763     4.842008    -1.325308     4.842008    -1.325308     4.842008            0           -0            0    788.70722    788.70722    788.70721    788.70723 7.5920654e-11 3.8636497e-11 2.1342363e-13   -21.079763 
     780    -21.08248    4.8595915   -1.3428915    4.8595915   -1.3428915    4.8595915            0           -0            0    740.27957    740.27957    740.27956    740.27959 -3.7528987e-11 -1.1278803e-10 3.7434292e-11    -21.08248 
     790   -21.085049     4.877175    -1.360475     4.877175    -1.360475     4.877175            0           -0            0    694.73928    694.73928    694.73926    694.73929 -3.7185947e-11 1.2082371e-13 -3.5987657e-11   -21.085049 
     800   -21.087478    4.8947585   -1.3780585    4.8947585   -1.3780585    4.8947585            0           -0            0    651.94687    651.94687    651.94686    651.94689 1.0839988e-10 3.664986e-11 1.0898444e-10   -21.087478 
     810   -21.089774     4.912342    -1.395642     4.912342    -1.395642     4.912342            0           -0            0    611.74107    611.74106    611.74104    611.74109 1.6671815e-13 7.0920922e-11 1.5747525e-13   -21.089774 
     820   -21.091945    4.9299255   -1.4132255    4.9299255   -1.4132255    4.9299255            0           -0            0    573.96954    573.96954    573.96951    573.96957 -3.4906088e-11 -7.046805e-11 1.399919e-10   -21.091945 
     830   -21.093996     4.947509    -1.430809     4.947509    -1.430809     4.947509            0           -0            0    538.48854    538.48854    538.48851    538.48858 -1.3728123e-10 6.8903388e-11 -5.3013256e-13   -21.093996 
     840   -21.095936    4.9650925   -1.4483925    4.9650925   -1.4483925    4.9650925            0           -0            0    505.16244    505.16244     505.1624    505.16249 3.4002881e-11 1.354099e-10 1.2464636e-13   -21.095936 
     850   -21.097769     4.982676    -1.465976     4.982676    -1.465976     4.982676            0           -0            0    473.86331    473.86331    473.86325    473.86337 -3.3052618e-11 6.6522001e-11 -9.9637868e-11   -21.097769 
     860   -21.099502    5.0002595   -1.4835595    5.0002595   -1.4835595    5.0002595            0           -0            0    444.50773    444.50773    444.50765    444.50782 3.2990689e-11 -3.3008032e-11  -1.0947e-13   -21.099502 
     870   -21.101139     5.017843    -1.501143     5.017843    -1.501143     5.017843            0           -0            0    416.97059    416.97058    416.97048    416.97071 3.1889544e-11 -6.4527044e-11 3.2363414e-11   -21.101139 
     880   -21.102687    5.0354265   -1.5187265    5.0354264   -1.5187264    5.0354265            0           -0            0    391.11413    391.11412    391.11398    391.11429 -3.1473989e-11 -3.1780319e-11 2.6441439e-13   -21.102687 
     890   -21.104149      5.05301     -1.53631    5.0530099   -1.5363099      5.05301            0           -0            0    366.83606    366.83605    366.83585    366.83629 1.2479637e-10 8.538103e-14 3.093404e-11   -21.104149 
     900   -21.105532    5.0705934   -1.5538934    5.0705934   -1.5538934    5.0705935            0           -0            0    344.04186    344.04185    344.04156    344.04219 8.0293867e-14 1.6574148e-13 6.1452482e-11   -21.105532 
     910   -21.106838    5.0881769   -1.5714769    5.0881769   -1.5714769     5.088177            0           -0            0    322.64249    322.64246    322.64204    322.64296 3.0187481e-11 9.0370166e-11 -2.9810313e-14   -21.106838 
     920   -21.108072    5.1057604   -1.5890604    5.1057603   -1.5890603    5.1057605            0           -0            0    302.55407    302.55403    302.55341    302.55478 2.969621e-11 -9.8774861e-15  5.93964e-11   -21.108072 
     930   -21.109238    5.1233438   -1.6066438    5.1233437   -1.6066437     5.123344            0           -0            0    283.69767     283.6976    283.69665    283.69874 2.9348691e-11 2.9115471e-11 1.9728279e-13   -21.109238 
     940    -21.11034    5.1409272   -1.6242272     5.140927    -1.624227    5.1409275            0           -0            0    265.99895    265.99885    265.99738    266.00061 -1.3366582e-13 -6.6640057e-14 2.870179e-11    -21.11034 
     950    -21.11138    5.1585106   -1.6418106    5.1585103   -1.6418103     5.158511            0           -0            0    249.38797    249.38781    249.38547    249.39062 2.8318466e-11 -1.0477823e-14 2.8427162e-11    -21.11138 
     960   -21.112363    5.1760938   -1.6593938    5.1760933   -1.6593933    5.1760945            0           -0            0     233.8014    233.80115    233.79733    233.80573 -6.2275552e-14 2.7992861e-11 -2.7895436e-11   -21.112363 
     970   -21.113292    5.1936769   -1.6769769     5.193676    -1.676976     5.193678            0           -0            0    219.18621    219.18579    219.17939    219.19345 2.7456087e-11 2.7491318e-11 -5.477724e-11   -21.113292 
     980   -21.114169    5.2112596   -1.6945596     5.211258    -1.694558    5.2112615            0           -0            0    207.11701    207.11629    207.10527    207.12947 -5.4274739e-11 1.7290219e-14 -2.6871028e-11   -21.114169 
     990   -21.115001    5.2288416   -1.7121416    5.2288387   -1.7121387     5.228845            0           -0            0     261.0891     261.0878    261.06794    261.11154 -2.6639528e-11 -1.0643117e-10 -2.6513119e-11   -21.115001 
    1000   -21.115782    5.2464222   -1.7297222     5.246417    -1.729717    5.2464285            0           -0            0    215.37695    215.37463      215.339    215.41723 -1.1625678e-13 5.2448787e-11 2.7859415e-13   -21.115782 
    1010   -21.116521    5.2640001   -1.7473001    5.2639902   -1.7472902     5.264012            0           -0            0    228.17177     228.1674     228.1003    228.24762 -5.1769082e-11 -2.5715869e-11 -2.5379154e-11   -21.116521 
    1020   -21.117217    5.2815723   -1.7648723    5.2815529   -1.7648529    5.2815955            0           -0            0    195.54462    195.53623    195.40767    195.68997 -2.1788905e-13 -2.5311824e-11 -5.0196256e-11   -21.117217 
    1030   -21.117875    5.2991323   -1.7824323    5.2990932   -1.7823932     5.299179            0           -0            0     196.8212     196.8044     196.5479    197.11129 -5.7959116e-13 -4.976216e-11 5.1545598e-11   -21.117875 
    1040   -21.118419    5.3151712   -1.7984712    5.3150959   -1.7983959    5.3152612            0           -0            0    48.262355    48.231136    47.757034    48.798895 -2.591229e-11 6.8329148e-13 -2.2211663e-11   -21.118419 
    1050   -21.118855    5.3280579   -1.8113579    5.3279248   -1.8112248    5.3282172            0           -0            0    38.993489    38.938346    38.108046    39.934076 4.6876213e-11 1.0956783e-12 -1.9892498e-11   -21.118855 
    1060   -21.119298    5.3410428   -1.8243428    5.3407952   -1.8240952    5.3413396            0           -0            0     207.6129    207.50579    205.91816    209.41474 -2.7592376e-11 -2.1899753e-11 8.8532672e-12   -21.119298 
    1070     -21.1197    5.3542685   -1.8375685    5.3538125   -1.8371125    5.3548163            0           -0            0    65.909158    65.713773     62.90438    69.109321 -2.9994895e-11 3.9435822e-12 3.9417559e-11     -21.1197 
    1080    -21.12005     5.365995    -1.849295    5.3651792   -1.8484792    5.3669791            0           -0            0    56.249055    55.885954    50.917849    61.943363 -3.4243754e-11 7.1291399e-12 2.7556892e-11    -21.12005 
    1090   -21.120407    5.3777724   -1.8610724    5.3762539   -1.8595539    5.3796189            0           -0            0    156.64578    155.89964    146.55208    167.48563 -4.3296712e-11 -3.3397648e-11 9.9320958e-11   -21.120407 
    1100   -21.120761    5.3905787   -1.8738787    5.3876544   -1.8709544    5.3941909            0           -0            0    30.935165    29.306606    12.117402    51.381487 -3.6659152e-11 2.5766889e-11 1.2149133e-10   -21.120761 
    1110   -21.121081    5.4006747   -1.8839747    5.3955536   -1.8788536    5.4071656            0           -0            0    33.200801     29.68612   0.23571779    69.680565 -8.5373368e-11 6.9936003e-11 1.5054945e-10   -21.121081 
    1120   -21.121469    5.4095379   -1.8928379    5.4007368   -1.8840368    5.4212062            0           -0            0    186.31008    178.05009    127.25909    253.62106 -1.3002351e-10 1.5685085e-10 4.2907316e-10   -21.121469 
    1130   -21.122028    5.4173471   -1.9006471    5.4034788   -1.8867788    5.4369916            0           -0            0    46.744143    28.891171   -44.620597    155.96185 -2.0029633e-10 1.9390101e-10 5.9072288e-10   -21.122028 
    1140   -21.123023    5.4225702   -1.9058702     5.402084    -1.885384    5.4545751            0           -0            0    90.507461    52.080452   -49.996616    269.43855 -2.3797996e-10 2.7547959e-10 9.9760335e-10   -21.123023 
    1150   -21.124547    5.4251048   -1.9084048    5.3981677   -1.8814677    5.4721586            0           -0            0    95.879728    25.526094   -97.274679    359.38777 -2.5998667e-10 4.7959092e-10 1.4037372e-09   -21.124547 
    1160   -21.126731    5.4254941   -1.9087941    5.3928065   -1.8761065    5.4897421            0           -0            0     98.42953   -15.560334   -149.43904    460.28797 -3.2714132e-10 7.3591631e-10 1.8476726e-09   -21.126731 
    1170   -21.129667    5.4242121   -1.9075121    5.3866974   -1.8699974    5.5073256            0           -0            0    103.05857   -65.605917   -201.11819    575.89982 -3.9475933e-10 8.3577099e-10 2.3699188e-09   -21.129667 
    1180    -21.13343    5.4216429   -1.9049429    5.3802492   -1.8635492    5.5249091            0           -0            0    110.03534   -123.19421   -252.20282    705.50306 -3.3848948e-10 1.1446938e-09 2.8796428e-09    -21.13343 
    1190   -21.138079    5.4180883   -1.9013883    5.3736889   -1.8569889    5.5424926            0           -0            0    119.67279   -186.75761   -302.84134    848.61731 -3.1061084e-10 1.4043914e-09 3.4401657e-09   -21.138079 
    1200   -21.143666     5.413787    -1.897087    5.3671413   -1.8504413    5.5600761            0           -0            0    132.29909   -254.76166     -353.193    1004.8519 -3.1520978e-10 1.7081007e-09 4.0744758e-09   -21.143666 
    1210   -21.150234    5.4089262   -1.8922262     5.360673    -1.843973    5.5776596            0           -0            0    148.02991   -326.00225   -403.52018    1173.6121 -2.3013671e-10 2.0067921e-09 4.6239498e-09   -21.150234 
    1220   -21.157816    5.4036527   -1.8869527    5.3543183   -1.8376183    5.5952431            0           -0            0    167.26188   -399.12935   -453.70559    1354.6206 -2.2145121e-10 2.3874734e-09 5.2418124e-09   -21.157816 
    1230   -21.166438    5.3980842   -1.8813842    5.3480958   -1.8313958    5.6128266            0           -0            0    190.19175   -473.09566     -503.673    1547.3439 -1.5173883e-10 2.6865524e-09 5.8862109e-09   -21.166438 
    1240   -21.176118    5.3923141   -1.8756141    5.3420146   -1.8253146    5.6304101            0           -0            0    217.15683   -546.81115   -553.10435     1751.386 -1.0101712e-10 3.0914667e-09 6.5949987e-09   -21.176118 
    1250   -21.186861    5.3864197   -1.8697197    5.3360817   -1.8193817    5.6479936            0           -0            0    248.31245    -619.4168   -601.72423    1966.0784 -4.8413509e-11 3.3675384e-09 7.2609083e-09   -21.186861 
    1260   -21.198668    5.3804598   -1.8637598    5.3302983   -1.8135983    5.6655771            0           -0            0    283.66116   -690.27656   -649.31471    2190.5747 -3.8220143e-11 3.808878e-09 8.030714e-09   -21.198668 
    1270   -21.211533    5.3744825   -1.8577825    5.3246649   -1.8079649    5.6831606            0           -0            0    323.70468   -758.30044   -695.15749     2424.572 4.7219303e-11 4.2628572e-09 8.7762689e-09   -21.211533 
    1280   -21.225437    5.3685323   -1.8518323    5.3191873   -1.8024873    5.7007441            0           -0            0    368.66036   -822.65621    -738.6871    2667.3244 2.0475428e-10 4.5852511e-09 9.5223573e-09   -21.225437 
    1290   -21.240361    5.3626358   -1.8459358    5.3138614   -1.7971614    5.7183276            0           -0            0    416.46276   -884.83981   -781.30069    2915.5288 2.451958e-10 4.9966143e-09 1.0063389e-08   -21.240361 
    1300   -21.256288     5.356806    -1.840106    5.3086764   -1.7919764    5.7359111            0           -0            0    468.64764   -942.92403   -821.35025    3170.2172 2.8227504e-10 5.331028e-09 1.0841052e-08   -21.256288 
    1310   -21.273177    5.3510753   -1.8343753    5.3036431   -1.7869431    5.7534946            0           -0            0    526.75743   -994.77824   -857.00596    3432.0565 4.2270244e-10 5.7162452e-09 1.1556899e-08   -21.273177 
    1320   -21.290992    5.3454579   -1.8287579    5.2987598   -1.7820598    5.7710781            0           -0            0    586.84652   -1043.7735   -891.17984    3695.4929 3.4676832e-10 6.0752766e-09 1.2189173e-08   -21.290992 
    1330   -21.309698    5.3399588   -1.8232588    5.2940192   -1.7773192    5.7886616            0           -0            0    651.62084   -1086.8465   -921.17744    3962.8865 4.8139658e-10 6.4629435e-09 1.2869612e-08   -21.309698 
    1340   -21.329243    5.3345942   -1.8178942    5.2894264   -1.7727264    5.8062451            0           -0            0    720.40945   -1124.1217   -947.06727    4232.4174 5.0422202e-10 6.7795367e-09 1.3589216e-08   -21.329243 
    1350    -21.34958    5.3293727   -1.8126727    5.2849817   -1.7682817    5.8238286            0           -0            0    791.16035   -1157.1616   -970.14385    4500.7865 4.8873294e-10 7.0754687e-09 1.4176192e-08    -21.34958 
    1360   -21.370668    5.3242878   -1.8075878    5.2806733   -1.7639733    5.8414121            0           -0            0    864.66238   -1184.8928   -989.41623    4768.2962 4.7055033e-10 7.3883657e-09 1.4878772e-08   -21.370668 
    1370   -21.392446     5.319354    -1.802654    5.2765092   -1.7598092    5.8589956            0           -0            0    941.88209    -1205.842   -1003.5589    5035.0472 5.1699089e-10 7.7141197e-09 1.5485698e-08   -21.392446 
    1380   -21.414861    5.3145714   -1.7978714    5.2724859   -1.7557859    5.8765791            0           -0            0    1018.5897   -1223.8809   -1015.8406    5295.4907 4.9403112e-10 7.9269965e-09 1.5975268e-08   -21.414861 
    1390   -21.437866    5.3099347   -1.7932347    5.2685956   -1.7518956    5.8941626            0           -0            0    1099.8237   -1233.7028   -1021.6346    5554.8085 5.6826399e-10 8.2263997e-09 1.6586332e-08   -21.437866 
    1400   -21.461398    5.3054516   -1.7887516     5.264843    -1.748143    5.9117461            0           -0            0    1178.8046    -1241.735   -1026.4076    5804.5563 4.4525864e-10 8.4959404e-09 1.7110084e-08   -21.461398 
    1410   -21.485408    5.3011166   -1.7844166    5.2612212   -1.7445212    5.9293296            0           -0            0    1261.2064   -1242.0415   -1025.0036    6050.6644 5.4364004e-10 8.7316168e-09 1.7647809e-08   -21.485408 
    1420   -21.509832    5.2969356   -1.7802356     5.257734    -1.741034    5.9469131            0           -0            0    1341.5306   -1239.8716   -1021.8781    6286.3416 6.1089546e-10 8.9103411e-09 1.8031506e-08   -21.509832 
    1430    -21.53463    5.2928967   -1.7761967      5.25437     -1.73767    5.9644966            0           -0            0    1424.2554   -1230.5747   -1012.9899    6516.3309 6.080237e-10 9.1708131e-09 1.8577472e-08    -21.53463 
    1440   -21.559737    5.2890078   -1.7723078    5.2511351   -1.7344351    5.9820801            0           -0            0    1502.9701    -1220.444   -1003.6929     6733.047 4.4981835e-10 9.3480914e-09 1.8950727e-08   -21.559737 
    1450   -21.585109    5.2852603   -1.7685603    5.2480213   -1.7313213    5.9996636            0           -0            0    1583.2391   -1203.6903   -988.97985    6942.3874 5.7048282e-10 9.4953502e-09 1.9327507e-08   -21.585109 
    1460   -21.610691    5.2816556   -1.7649556    5.2450292   -1.7283292    6.0172471            0           -0            0       1658.2   -1187.2949   -974.79895    7136.6939 6.2709554e-10 9.6244813e-09 1.9599018e-08   -21.610691 
    1470   -21.636442    5.2781867   -1.7614867    5.2421527   -1.7254527    6.0348306            0           -0            0    1736.5614   -1162.1433   -953.30224    7325.1297 4.6274027e-10 9.769554e-09 1.9879172e-08   -21.636442 
    1480   -21.662311     5.274854    -1.758154    5.2393916   -1.7226916    6.0524141            0           -0            0     1808.393   -1138.5788   -933.32579    7497.0836 3.9154244e-10 9.8887894e-09 2.0162593e-08   -21.662311 
    1490   -21.688253    5.2716547   -1.7549547    5.2367435   -1.7200435    6.0699976            0           -0            0    1881.0845   -1108.7944    -908.1502    7660.1983 4.7382415e-10 9.9818375e-09 2.0379564e-08   -21.688253 
    1500   -21.714235    5.2685811   -1.7518811    5.2342016   -1.7175016    6.0875811            0           -0            0    1945.7495   -1082.3436   -885.94054    7805.5326 6.6958307e-10 1.0067706e-08 2.0588524e-08   -21.714235 
    1510   -21.740209    5.2656354   -1.7489354    5.2317677   -1.7150677    6.1051646            0           -0            0     2011.385   -1049.5941   -858.41869    7942.1679 6.8951385e-10 1.0103576e-08 2.0651241e-08   -21.740209 
    1520   -21.766145    5.2628092   -1.7461092    5.2294347   -1.7127347    6.1227481            0           -0            0    2072.8614   -1016.1801   -830.39567      8065.16 7.0680988e-10 1.0188891e-08 2.0794393e-08   -21.766145 
    1530   -21.792001    5.2601056   -1.7434056    5.2272052   -1.7105052    6.1403316            0           -0            0    2131.0482   -981.18683    -801.0709    8175.4023 4.5728856e-10 1.0167856e-08 2.0799037e-08   -21.792001 
    1540   -21.817757    5.2575121   -1.7408121    5.2250686   -1.7083686    6.1579151            0           -0            0    2185.3848    -945.4625   -771.15809    8272.7751 4.7309838e-10 1.0246758e-08 2.093397e-08   -21.817757 
    1550   -21.843373    5.2550339   -1.7383339    5.2230294   -1.7063294    6.1754986            0           -0            0     2233.395   -911.79514   -743.03604    8355.0162 1.1688033e-10 1.0222334e-08 2.0911507e-08   -21.843373 
    1560   -21.868829    5.2526606   -1.7359606    5.2210786   -1.7043786    6.1930821            0           -0            0    2281.6082   -873.18342   -710.69055    8428.6984 1.8900125e-10 1.0225659e-08 2.0926824e-08   -21.868829 
    1570   -21.894093    5.2503958   -1.7336958    5.2192196   -1.7025196    6.2106656            0           -0            0    2323.3213   -837.16437   -680.57682     8487.705 2.6393238e-10 1.0167255e-08 2.083812e-08   -21.894093 
    1580   -21.919151    5.2482279   -1.7315279    5.2174423   -1.7007423    6.2282491            0           -0            0    2362.9437   -799.08306   -648.69533    8536.6095 1.6986634e-10 1.014765e-08 2.0826388e-08   -21.919151 
    1590   -21.943972     5.246162    -1.729462    5.2157515   -1.6990515    6.2458326            0           -0            0     2395.162   -765.04959   -620.28216    8570.8179 3.2214207e-10 1.0064007e-08 2.0684226e-08   -21.943972 
    1600   -21.968548    5.2441864   -1.7274864    5.2141369   -1.6974369    6.2634161            0           -0            0    2427.3448   -726.97771   -588.39435    8597.4065 3.9245184e-10 1.0020463e-08 2.0590053e-08   -21.968548 
    1610   -21.992854     5.242305    -1.725605    5.2126021   -1.6959021    6.2809996            0           -0            0    2453.6051   -691.70774   -558.89767    8611.4207 3.8484064e-10 9.9538608e-09 2.0452579e-08   -21.992854 
    1620   -22.016879     5.240509    -1.723809    5.2111396   -1.6944396    6.2985831            0           -0            0    2476.3475   -656.76188   -529.66304    8615.4676 3.1462816e-10 9.8641385e-09 2.0337713e-08   -22.016879 
    1630   -22.040602    5.2388036   -1.7221036    5.2097541   -1.6930541    6.3161666            0           -0            0    2496.3554   -621.32993   -499.99178     8610.388 3.3078319e-10 9.7703724e-09 2.0104173e-08   -22.040602 
    1640   -22.064026     5.237171    -1.720471    5.2084303   -1.6917303    6.3337501            0           -0            0    2509.9125   -590.15824   -473.95899    8593.8549 2.9232825e-10 9.7024323e-09 1.998627e-08   -22.064026 
    1650   -22.087124    5.2356243   -1.7189243    5.2071795   -1.6904795    6.3513336            0           -0            0    2523.9078   -555.15569   -444.61359    8571.4927 4.659784e-10 9.5594586e-09 1.9728736e-08   -22.087124 
    1660   -22.109897    5.2341495   -1.7174495    5.2059899   -1.6892899    6.3689171            0           -0            0    2530.9777   -525.37325   -419.72971    8538.0361 1.916123e-10 9.4855656e-09 1.9541458e-08   -22.109897 
    1670   -22.132333    5.2327487   -1.7160487    5.2048632   -1.6881632    6.3865006            0           -0            0    2537.5595   -493.29797   -392.85243    8498.8289 3.1018878e-10 9.3684622e-09 1.9323795e-08   -22.132333 
    1680   -22.154423    5.2314222   -1.7147222    5.2037999   -1.6870999    6.4040841            0           -0            0    2540.1427   -463.28944     -367.727    8451.4444 2.4771586e-10 9.2457759e-09 1.9062688e-08   -22.154423 
    1690   -22.176167    5.2301584   -1.7134584    5.2027901   -1.6860901    6.4216676            0           -0            0    2537.3543   -437.33862   -346.06592    8395.4673 2.8868833e-10 9.1223386e-09 1.8815167e-08   -22.176167 
    1700   -22.197556    5.2289607   -1.7122607    5.2018367   -1.6851367    6.4392511            0           -0            0    2535.9433   -407.35685   -320.91608    8336.1029 1.770676e-10 8.985786e-09 1.8552144e-08   -22.197556 
    1710   -22.218586    5.2278284   -1.7111284    5.2009393   -1.6842393    6.4568346            0           -0            0    2528.5781   -382.46412   -300.11813    8268.3165 1.6871726e-10 8.8268452e-09 1.8275563e-08   -22.218586 
    1720   -22.239257    5.2267539   -1.7100539    5.2000913   -1.6833913    6.4744181            0           -0            0     2520.383   -356.61363   -278.47396    8196.2367 1.0987957e-10 8.7235603e-09 1.8006786e-08   -22.239257 
    1730   -22.259562    5.2257405   -1.7090405    5.1992958   -1.6825958    6.4920016            0           -0            0    2509.4302   -332.29516   -258.12489    8118.7107 1.5238187e-10 8.6075822e-09 1.7720129e-08   -22.259562 
    1740   -22.279504    5.2247816   -1.7080816    5.1985469   -1.6818469    6.5095851            0           -0            0     2495.446   -310.07744   -239.56136    8035.9769 1.9443742e-10 8.4653711e-09 1.7423895e-08   -22.279504 
    1750    -22.29908    5.2238752   -1.7071752    5.1978432   -1.6811432    6.5271686            0           -0            0    2479.7265   -288.50304   -221.53048    7949.2131 8.7739605e-11 8.342294e-09 1.7141834e-08    -22.29908 
    1760    -22.31829    5.2230212   -1.7063212    5.1971846   -1.6804846    6.5447521            0           -0            0    2463.3169   -266.37665   -203.00415    7859.3314 2.2776755e-10 8.1935292e-09 1.6860715e-08    -22.31829 
    1770   -22.337132    5.2222229   -1.7055229    5.1965741   -1.6798741    6.5623356            0           -0            0    2444.8779   -245.48433   -185.51978    7765.6377 1.2124736e-10 8.0325714e-09 1.6547199e-08   -22.337132 
    1780    -22.35561    5.2214695   -1.7047695    5.1960022   -1.6793022    6.5799191            0           -0            0    2421.5126   -229.78096   -172.48338    7666.8022 1.8823378e-11 7.8920281e-09 1.6237914e-08    -22.35561 
    1790   -22.373728    5.2207552   -1.7040552    5.1954641   -1.6787641    6.5975026            0           -0            0    2399.1654    -211.8325   -157.49791    7566.8266 1.284347e-11 7.7601464e-09 1.5948348e-08   -22.373728 
    1800   -22.391483    5.2200906   -1.7033906    5.1949692   -1.6782692    6.6150861            0           -0            0    2376.8664   -192.86161   -141.61455    7465.0753 -8.8495935e-11 7.6188061e-09 1.5637426e-08   -22.391483 
    1810   -22.408875    5.2194731   -1.7027731     5.194515    -1.677815    6.6326696            0           -0            0    2351.8391   -176.59816   -128.04562    7360.1609 9.853447e-11 7.4700296e-09 1.5344896e-08   -22.408875 
    1820   -22.425911    5.2188973   -1.7021973     5.194097    -1.677397    6.6502531            0           -0            0     2325.387   -161.51566   -115.47659    7253.1534 9.3153793e-11 7.3282315e-09 1.5047576e-08   -22.425911 
    1830   -22.442592    5.2183615   -1.7016615    5.1937138   -1.6770138    6.6678366            0           -0            0    2297.8411   -147.29529   -103.63436    7144.4529 -6.6234011e-12 7.1672029e-09 1.4747302e-08   -22.442592 
    1840   -22.458922    5.2178643   -1.7011643    5.1933642   -1.6766642    6.6854201            0           -0            0     2269.331   -133.87217   -92.464426    7034.3295 8.281253e-11 7.0233988e-09 1.4453897e-08   -22.458922 
    1850   -22.474904    5.2174042   -1.7007042    5.1930472   -1.6763472    6.7030036            0           -0            0    2239.9574   -121.21108   -81.937206    6923.0206 7.9271555e-11 6.8777289e-09 1.4149414e-08   -22.474904 
    1860   -22.490541    5.2169802   -1.7002802    5.1927616   -1.6760616    6.7205871            0           -0            0    2209.8779   -109.19469   -71.952279    6810.7805 4.022969e-10 6.7435768e-09 1.3860571e-08   -22.490541 
    1870   -22.505839    5.2165913   -1.6998913    5.1925069   -1.6758069    6.7381706            0           -0            0    2179.1028   -97.894892   -62.572272    6697.7754 2.0964319e-10 6.588317e-09 1.3560427e-08   -22.505839 
    1880     -22.5208    5.2162362   -1.6995362    5.1922819   -1.6755819    6.7557541            0           -0            0    2147.6481   -87.377995   -53.855023    6584.1772 6.7202664e-11 6.4473101e-09 1.3260781e-08     -22.5208 
    1890   -22.535428    5.2159139   -1.6992139    5.1920858   -1.6753858    6.7733376            0           -0            0    2116.0638   -76.977942    -45.22692    6470.3962 -2.8311986e-11 6.3059511e-09 1.2961267e-08   -22.535428 
    1900   -22.549729    5.2156263   -1.6989263    5.1919202   -1.6752202    6.7909211            0           -0            0    2084.4144   -66.647032   -36.647239    6356.5376 1.5125022e-10 6.1650553e-09 1.268084e-08   -22.549729 
    1910   -22.563704    5.2153735   -1.6986735    5.1917853   -1.6750853    6.8085046            0           -0            0    2052.2426    -57.06527   -28.702843     6242.496 1.0924265e-11 6.0266038e-09 1.2392475e-08   -22.563704 
    1920   -22.577361     5.215151    -1.698451    5.1916774   -1.6749774    6.8260881            0           -0            0    2018.6899   -49.503158   -22.490212    6128.0631 9.8419682e-11 5.8814839e-09 1.2107306e-08   -22.577361 
    1930   -22.590705    5.2149535   -1.6982535    5.1915917   -1.6748917    6.8436716            0           -0            0    1984.5396   -42.990414   -17.173355    6013.7825 9.5991372e-11 5.7417023e-09 1.1828306e-08   -22.590705 
    1940   -22.603741    5.2147787   -1.6980787    5.1915264   -1.6748264    6.8612551            0           -0            0    1950.5181   -36.589268   -11.943878    5900.0873 4.846498e-11 5.6192762e-09 1.1560552e-08   -22.603741 
    1950   -22.616473     5.214632    -1.697932    5.1914862   -1.6747862    6.8788386            0           -0            0    1917.9071   -28.522678   -5.2688245    5787.5127 -1.3266383e-10 5.4958661e-09 1.1299185e-08   -22.616473 
    1960   -22.628904    5.2145189   -1.6978189     5.191476    -1.674776    6.8964221            0           -0            0     1885.438   -20.543544    1.3393878    5675.5182 1.7630962e-10 5.3783095e-09 1.103605e-08   -22.628904 
    1970    -22.64104    5.2144387   -1.6977387    5.1914951   -1.6747951    6.9140056            0           -0            0    1852.5181    -13.52579    7.1262016    5563.9538 2.1758626e-10 5.2464834e-09 1.0765728e-08    -22.64104 
    1980   -22.652885     5.214386    -1.697686    5.1915389   -1.6748389    6.9315891            0           -0            0    1818.6311    -8.272852    11.397594    5452.7685 2.1449742e-10 5.1205269e-09 1.0511339e-08   -22.652885 
    1990   -22.664447    5.2143557   -1.6976557    5.1916031   -1.6749031    6.9491726            0           -0            0    1784.5545   -3.7679951    15.030444    5342.4009 8.0609446e-11 4.9887277e-09 1.0247883e-08   -22.664447 
    2000    -22.67573    5.2143463   -1.6976463    5.1916863   -1.6749863    6.9667561            0           -0            0    1750.5464   0.31103545    18.302497    5233.0256 3.5283317e-11 4.8652153e-09 1.000084e-08    -22.67573 
    2010    -22.68674    5.2143567   -1.6976567    5.1917877   -1.6750877    6.9843396            0           -0            0    1716.8312    4.2510146    21.460998    5124.7815 3.3430851e-11 4.7402044e-09 9.7591733e-09    -22.68674 
    2020   -22.697481      5.21439     -1.69769    5.1919101   -1.6752101    7.0019231            0           -0            0    1684.0338    8.9365636    25.269504    5017.8954 3.162848e-11 4.6287318e-09 9.514088e-09   -22.697481 
    2030   -22.707958    5.2144494   -1.6977494    5.1920561   -1.6753561    7.0195066            0           -0            0    1651.5726    13.540927    29.014038    4912.1629 2.9963019e-11 4.5118933e-09 9.2739843e-09   -22.707958 
    2040   -22.718175    5.2145348   -1.6978348    5.1922257   -1.6755257    7.0370901            0           -0            0    1619.2656    17.782356    32.451029    4807.5635 2.820993e-11 4.3950564e-09 9.0393481e-09   -22.718175 
    2050   -22.728138    5.2146452   -1.6979452    5.1924184   -1.6757184    7.0546736            0           -0            0    1587.1172    21.641254    35.563249     4704.147 2.6648907e-11 4.2829178e-09 8.8201426e-09   -22.728138 
    2060   -22.737853    5.2147792   -1.6980792    5.1926327   -1.6759327    7.0722571            0           -0            0    1554.9419     24.82251    38.095498    4601.9076 -1.708276e-11 4.1683085e-09 8.5925286e-09   -22.737853 
    2070   -22.747323    5.2149346   -1.6982346    5.1928668   -1.6761668    7.0898406            0           -0            0    1523.0526    27.749841    40.413464    4500.9945 -1.8170743e-11 4.0582125e-09 8.3701201e-09   -22.747323 
    2080   -22.756555    5.2151114   -1.6984114    5.1931208   -1.6764208    7.1074241            0           -0            0    1491.4953    30.475413    42.561976    4401.4484 -6.1535402e-11 3.9534265e-09 8.1504246e-09   -22.756555 
    2090   -22.765553    5.2153093   -1.6986093    5.1933944   -1.6766944    7.1250076            0           -0            0     1460.284     33.00741    44.547886    4303.2966 2.169588e-11 3.8514406e-09 7.9419443e-09   -22.765553 
    2100   -22.774322     5.215528    -1.698828    5.1936876   -1.6769876    7.1425911            0           -0            0    1429.4333    35.356207    46.379951    4206.5636 -2.1085365e-11 3.7547022e-09 7.7349662e-09   -22.774322 
    2110   -22.782866    5.2157675   -1.6990675    5.1940001   -1.6773001    7.1601746            0           -0            0    1398.9565    37.532148    48.066911    4111.2704 1.9736648e-11 3.6491907e-09 7.5267302e-09   -22.782866 
    2120   -22.791191     5.216028    -1.699328    5.1943325   -1.6776325    7.1777581            0           -0            0    1368.9474    39.667062    49.722504    4017.4527 1.8480899e-10 3.553213e-09 7.3302361e-09   -22.791191 
    2130   -22.799302    5.2163093   -1.6996093    5.1946844   -1.6779844    7.1953416            0           -0            0    1339.2477    41.522043     51.14009    3925.0809 1.8138945e-11 3.4568694e-09 7.1352024e-09   -22.799302 
    2140   -22.807203    5.2166108   -1.6999108    5.1950555   -1.6783555    7.2129251            0           -0            0    1309.9439      43.2168    52.422948    3834.1919 -2.4003023e-11 3.3630449e-09 6.9481515e-09   -22.807203 
    2150   -22.814898    5.2169324   -1.7002324    5.1954456   -1.6787456    7.2305086            0           -0            0    1281.0552    44.775727    53.591999     3744.798 -1.4738483e-10 3.274308e-09 6.7626007e-09   -22.814898 
    2160   -22.822392    5.2172741   -1.7005741    5.1958548   -1.6791548    7.2480921            0           -0            0    1252.5897    46.208057    54.655071    3656.9061 -2.5085665e-11 3.189707e-09 6.5860517e-09   -22.822392 
    2170   -22.829691    5.2176357   -1.7009357    5.1962831   -1.6795831    7.2656756            0           -0            0    1224.5535    47.521419    55.618611    3570.5204 -2.2884804e-10 3.1039826e-09 6.4076034e-09   -22.829691 
    2180   -22.836797    5.2180172   -1.7013172    5.1967305   -1.6800305    7.2832591            0           -0            0    1196.9515     48.72287    56.488582     3485.643 -6.6678461e-11 3.0212927e-09 6.2325739e-09   -22.836797 
    2190   -22.843716    5.2184187   -1.7017187    5.1971969   -1.6804969    7.3008426            0           -0            0    1169.7662    49.786581    57.242514    3402.2696 1.372674e-11 2.9345091e-09 6.0631924e-09   -22.843716 
    2200   -22.850452      5.21884     -1.70214    5.1976825   -1.6809825    7.3184261            0           -0            0    1143.0847    50.843512    57.993667    3320.4168 5.3087176e-11 2.8562988e-09 5.9031017e-09   -22.850452 
    2210   -22.857009    5.2192819   -1.7025819     5.198188    -1.681488    7.3360096            0           -0            0    1116.8619    51.830657    58.687347    3240.0676 1.3246535e-10 2.7799719e-09 5.7447384e-09   -22.857009 
    2220   -22.863391    5.2197445   -1.7030445    5.1987134   -1.6820134    7.3535931            0           -0            0     1091.074    52.716263    59.295837    3161.2098 5.1799014e-11 2.6998656e-09 5.5839454e-09   -22.863391 
    2230   -22.869602    5.2202278   -1.7035278    5.1992588   -1.6825588    7.3711766            0           -0            0    1065.7218     53.50474    59.822923    3083.8377 -2.8225249e-11 2.6254172e-09 5.4320479e-09   -22.869602 
    2240   -22.875647    5.2207317   -1.7040317    5.1998242   -1.6831242    7.3887601            0           -0            0    1040.8078    54.203565    60.274962    3007.9448 -6.8104627e-11 2.5499021e-09 5.2840495e-09   -22.875647 
    2250    -22.88153    5.2212562   -1.7045562    5.2004097   -1.6837097    7.4063436            0           -0            0    1016.3333    54.819222    60.657463    2933.5231 4.9727169e-11 2.4829761e-09 5.1362635e-09    -22.88153 
    2260   -22.887253    5.2218015   -1.7051015    5.2010154   -1.6843154    7.4239271            0           -0            0    992.29892     55.35791    60.975686    2860.5632 -6.826243e-11 2.4118656e-09 4.9936284e-09   -22.887253 
    2270   -22.892822    5.2223674   -1.7056674    5.2016414   -1.6849414    7.4415106            0           -0            0    968.70462    55.825219    61.234376    2789.0543 -2.9397168e-11 2.3424903e-09 4.8540209e-09   -22.892822 
    2280   -22.898239    5.2229543   -1.7062543    5.2022878   -1.6855878    7.4590941            0           -0            0    945.54949    56.226088    61.437714    2718.9847 -1.075307e-10 2.2776704e-09 4.7169154e-09   -22.898239 
    2290   -22.903509     5.223562    -1.706862    5.2029547   -1.6862547    7.4766776            0           -0            0    922.83227    56.565392    61.589833    2650.3416 -1.4607066e-10 2.2138491e-09 4.583163e-09   -22.903509 
    2300   -22.908635    5.2241908   -1.7074908    5.2036424   -1.6869424    7.4942611            0           -0            0      900.558    56.858072    61.703579    2583.1123 -3.0095309e-11 2.1489393e-09 4.4515944e-09   -22.908635 
    2310   -22.913621    5.2248408   -1.7081408    5.2043511   -1.6876511    7.5118446            0           -0            0    878.69418    57.062184    61.742575    2517.2778 4.6629425e-11 2.0866318e-09 4.3257307e-09   -22.913621 
    2320    -22.91847    5.2255118   -1.7088118    5.2050805   -1.6883805    7.5294281            0           -0            0    857.25949    57.213275    61.737509    2452.8277 4.6277892e-11 2.0293205e-09 4.2029802e-09    -22.91847 
    2330   -22.923185    5.2262041   -1.7095041    5.2058311   -1.6891311    7.5470116            0           -0            0    836.25598    57.322871    61.698262    2389.7468 7.5339677e-12 1.9665136e-09 4.0824795e-09   -22.923185 
    2340   -22.927771    5.2269179   -1.7102179     5.206603    -1.689903    7.5645951            0           -0            0    815.68008    57.394227    61.627553    2328.0185 7.2860275e-12 1.9119487e-09 3.9670435e-09   -22.927771 
    2350    -22.93223    5.2276533   -1.7109533    5.2073966   -1.6906966    7.5821786            0           -0            0    795.52686    57.428867    61.526687     2267.625 -6.8771459e-11 1.8557338e-09 3.8513598e-09    -22.93223 
    2360   -22.936565    5.2284108   -1.7117108    5.2082121   -1.6915121    7.5997621            0           -0            0    775.79177    57.429035    61.397541    2208.5487 6.7397158e-12 1.8026158e-09 3.7386591e-09   -22.936565 
    2370    -22.94078    5.2291906   -1.7124906    5.2090498   -1.6923498    7.6173456            0           -0            0    756.47087    57.397764    61.243028    2150.7718 -3.0923173e-11 1.7488531e-09 3.6313423e-09    -22.94078 
    2380   -22.944877    5.2299929   -1.7132929    5.2099102   -1.6932102    7.6349291            0           -0            0    737.55862    57.336363     61.06394    2094.2756 -6.8433646e-11 1.6996096e-09 3.5252906e-09   -22.944877 
    2390    -22.94886    5.2308181   -1.7141181    5.2107935   -1.6940935    7.6525126            0           -0            0    719.04977    57.246545    60.861629    2039.0411 6.2615464e-12 1.6495986e-09 3.4217974e-09    -22.94886 
    2400   -22.952732    5.2316666   -1.7149666       5.2117       -1.695    7.6700961            0           -0            0    700.93907     57.13004    60.637538    1985.0496 6.0424449e-12 1.6014743e-09 3.3213187e-09   -22.952732 
    2410   -22.956495    5.2325386   -1.7158386    5.2126302   -1.6959302    7.6876796            0           -0            0    683.22116    56.988512    60.393054    1932.2819 5.8318601e-12 1.5548099e-09 3.2245686e-09   -22.956495 
    2420   -22.960152    5.2334344   -1.7167344    5.2135844   -1.6968844    7.7052631            0           -0            0     665.8906    56.823576    60.129527    1880.7187 5.6511357e-12 1.5098323e-09 3.1305959e-09   -22.960152 
    2430   -22.963707    5.2343546   -1.7176546    5.2145631   -1.6978631    7.7228466            0           -0            0     648.9418    56.636701    59.848179    1830.3405 -6.8019884e-11 1.4652747e-09 3.0366446e-09   -22.963707 
    2440   -22.967161    5.2352993   -1.7185993    5.2155665   -1.6988665    7.7404301            0           -0            0    632.36909    56.429255    59.550147    1781.1279 5.3225101e-12 1.4214545e-09 2.9460648e-09   -22.967161 
    2450   -22.970518    5.2362691   -1.7195691    5.2165951   -1.6998951    7.7580136            0           -0            0    616.16672     56.20249     59.23647    1733.0612 -1.0427522e-10 1.378701e-09 2.8579544e-09   -22.970518 
    2460    -22.97378    5.2372643   -1.7205643    5.2176494   -1.7009494    7.7755971            0           -0            0    600.32892    55.957671    58.908201    1686.1209 -3.1325867e-11 1.3367174e-09 2.7718005e-09    -22.97378 
    2470   -22.976949    5.2382853   -1.7215853    5.2187298   -1.7020298    7.7931806            0           -0            0    584.84985     55.69594    58.566287    1640.2873 4.8729146e-12 1.2973438e-09 2.688952e-09   -22.976949 
    2480   -22.980028    5.2393326   -1.7226326    5.2198367   -1.7031367    7.8107641            0           -0            0    569.72362    55.418362     58.21161    1595.5409 4.0853651e-11 1.2583576e-09 2.6079333e-09   -22.980028 
    2490    -22.98302    5.2404065   -1.7237065    5.2209706   -1.7042706    7.8283476            0           -0            0    554.94432    55.125936    57.844997     1551.862 4.0572587e-11 1.2208214e-09 2.5298314e-09    -22.98302 
    2500   -22.985926    5.2415076   -1.7248076     5.222132    -1.705432    7.8459311            0           -0            0    540.50586    54.819339    57.466997    1509.2313 4.4973717e-12 1.1843096e-09 2.4518735e-09   -22.985926 
    2510   -22.988749    5.2426365   -1.7259365    5.2233214   -1.7066214    7.8635146            0           -0            0    526.40865    54.509534    57.087072    1467.6294 1.1142757e-10 1.1492396e-09  2.37801e-09   -22.988749 
    2520   -22.991491    5.2437936   -1.7270936    5.2245395   -1.7078395    7.8810981            0           -0            0    512.63937    54.185947    56.696025    1427.0361 4.2728286e-12 1.1126512e-09 2.3066492e-09   -22.991491 
    2530   -22.994155    5.2449795   -1.7282795    5.2257867   -1.7090867    7.8986816            0           -0            0    499.19217    53.849445    56.294573    1387.4325 7.5005617e-11 1.0791252e-09 2.2358324e-09   -22.994155 
    2540   -22.996742    5.2461946   -1.7294946    5.2270635   -1.7103635    7.9162651            0           -0            0    486.06128    53.500957    55.883493    1348.7994 4.0424752e-12 1.0466148e-09 2.1671643e-09   -22.996742 
    2550   -22.999255    5.2474394   -1.7307394    5.2283705   -1.7116705    7.9338486            0           -0            0    473.24095    53.141342    55.463496     1311.118 3.9845267e-12 1.0141926e-09 2.1019727e-09   -22.999255 
    2560   -23.001696    5.2487145   -1.7320145    5.2297082   -1.7130082    7.9514321            0           -0            0    460.72539    52.771376    55.035226    1274.3696 3.8616977e-12 9.8295334e-10 2.0359374e-09   -23.001696 
    2570   -23.004066    5.2500204   -1.7333204    5.2310771   -1.7143771    7.9690156            0           -0            0    448.50886    52.391793    54.599291    1238.5355 -3.1096618e-11 9.5335237e-10 1.9728945e-09   -23.004066 
    2580   -23.006368    5.2513576   -1.7346576    5.2324777   -1.7157777    7.9865991            0           -0            0    436.58563    52.003272    54.156255    1203.5974 3.8438956e-11 9.2306376e-10 1.9127903e-09   -23.006368 
    2590   -23.008603    5.2527267   -1.7360267    5.2339108   -1.7172108    8.0041826            0           -0            0       424.95    51.606431    53.706627    1169.5369 -3.1026473e-11 8.9401527e-10 1.8527236e-09   -23.008603 
    2600   -23.010774    5.2541282   -1.7374282    5.2353768   -1.7186768    8.0217661            0           -0            0     413.5963    51.201846    53.250882    1136.3362 -3.0986713e-11 8.6624989e-10 1.795646e-09   -23.010774 
    2610   -23.012881    5.2555627   -1.7388627    5.2368763   -1.7201763    8.0393496            0           -0            0    402.51889    50.790046    52.789457    1103.9772 3.4260167e-12 8.3955383e-10 1.7409942e-09   -23.012881 
    2620   -23.014928    5.2570308   -1.7403308    5.2384099   -1.7217099    8.0569331            0           -0            0    391.71219    50.371523    52.322757    1072.4423 3.378354e-12 8.1404237e-10 1.6876646e-09   -23.014928 
    2630   -23.016915    5.2585331   -1.7418331    5.2399783   -1.7232783    8.0745166            0           -0            0    381.17067    49.946735    51.851156    1041.7141 -3.0815463e-11 7.893129e-10 1.634513e-09   -23.016915 
    2640   -23.018844    5.2600702   -1.7433702    5.2415821   -1.7248821    8.0921001            0           -0            0    370.88883    49.516104    51.375002    1011.7754 3.220693e-12 7.6515458e-10 1.5842059e-09   -23.018844 
    2650   -23.020717    5.2616427   -1.7449427    5.2432219   -1.7265219    8.1096836            0           -0            0    360.86124     49.08002    50.894616    982.60909 3.1553891e-12 7.4061488e-10 1.5341333e-09   -23.020717 
    2660   -23.022535    5.2632513   -1.7465513    5.2448984   -1.7281984    8.1272671            0           -0            0    351.08255    48.638856    50.410303    954.19848 3.6811586e-11  7.18168e-10 1.4859861e-09   -23.022535 
    2670   -23.024301    5.2648967   -1.7481967    5.2466122   -1.7299122    8.1448506            0           -0            0    341.54743    48.192954    49.922343      926.527 7.0232408e-11 6.9608428e-10 1.4398927e-09   -23.024301 
    2680   -23.026014    5.2665794   -1.7498794     5.248364    -1.731664    8.1624341            0           -0            0    332.25066    47.742632    49.430997    899.57836 1.703532e-10 6.7435863e-10 1.3949652e-09   -23.026014 
    2690   -23.027678    5.2683001   -1.7516001    5.2501545   -1.7334545    8.1800176            0           -0            0    323.18706    47.288185    48.936508    873.33648 -9.7118437e-11 6.5255889e-10 1.3518667e-09   -23.027678 
    2700   -23.029293    5.2700595   -1.7533595    5.2519843   -1.7352843    8.1976011            0           -0            0    314.35152    46.829893    48.439105    847.78555 -9.679855e-11 6.3212322e-10 1.3093249e-09   -23.029293 
    2710    -23.03086    5.2718583   -1.7551583    5.2538541   -1.7371541    8.2151846            0           -0            0      305.739    46.368014    47.939001       822.91 6.8971242e-11 6.1192563e-10 1.2677117e-09    -23.03086 
    2720   -23.032382    5.2736972   -1.7569972    5.2557647   -1.7390647    8.2327681            0           -0            0    297.34456    45.902793    47.436397    798.69449 2.7541638e-12 5.9299412e-10 1.2277477e-09   -23.032382 
    2730   -23.033859    5.2755769   -1.7588769    5.2577167   -1.7410167    8.2503516            0           -0            0     289.1634    45.434645    46.931605    775.12395 -9.5972798e-11 5.7387418e-10 1.1882546e-09   -23.033859 
    2740   -23.035292    5.2774981   -1.7607981    5.2597109   -1.7430109    8.2679351            0           -0            0    281.19073     44.96382    46.424827    752.18355 -3.0192494e-11 5.5587119e-10 1.1506159e-09   -23.035292 
    2750   -23.036683    5.2794615   -1.7627615     5.261748    -1.745048    8.2855186            0           -0            0    273.42169    44.490299    45.916082     729.8587 1.0019239e-10 5.3824764e-10 1.1143246e-09   -23.036683 
    2760   -23.038034    5.2814678   -1.7647678    5.2638287   -1.7471287    8.3031021            0           -0            0    265.85163    44.014272    45.405531    708.13509 9.9741048e-11 5.2093855e-10 1.0784671e-09   -23.038034 
    2770   -23.039345    5.2835179   -1.7668179    5.2659537   -1.7492537    8.3206856            0           -0            0    258.47596    43.535919    44.893325    686.99863 -2.9968029e-11 5.0472602e-10 1.0443674e-09   -23.039345 
    2780   -23.040617    5.2856123   -1.7689123    5.2681238   -1.7514238    8.3382691            0           -0            0    251.29017    43.055416    44.379609     666.4355 9.8888693e-11 4.8847243e-10 1.0111526e-09   -23.040617 
    2790   -23.041851    5.2877519   -1.7710519    5.2703398   -1.7536398    8.3558526            0           -0            0    244.28986    42.572925    43.864524    646.43212 1.3053644e-10 4.7306002e-10 9.7855955e-10   -23.041851 
    2800    -23.04305    5.2899373   -1.7732373    5.2726023   -1.7559023    8.3734361            0           -0            0    237.47066    42.088604    43.348203    626.97517 -2.9744314e-11 4.5802325e-10 9.4720163e-10    -23.04305 
    2810   -23.044213    5.2921694   -1.7754694    5.2749121   -1.7582121    8.3910196            0           -0            0    230.82832    41.602603    42.830774    608.05157 -9.3247974e-11 4.4370418e-10 9.1660441e-10   -23.044213 
    2820   -23.045341    5.2944489   -1.7777489    5.2772699   -1.7605699    8.4086031            0           -0            0    224.35864    41.115066    42.312364    589.64848 -2.9544098e-11 4.2914192e-10 8.866045e-10   -23.045341 
    2830   -23.046436    5.2967765   -1.7800765    5.2796765   -1.7629765    8.4261866            0           -0            0    218.05751    40.626134    41.793093    571.75331 -2.944752e-11 4.1549311e-10 8.5810996e-10   -23.046436 
    2840   -23.047499     5.299153    -1.782453    5.2821327   -1.7654327    8.4437701            0           -0            0    211.92091    40.135941     41.27308    554.35372 2.1860925e-12 4.0209958e-10 8.3038798e-10   -23.047499 
    2850   -23.048531    5.3015792   -1.7848792    5.2846392   -1.7679392    8.4613536            0           -0            0    205.94518    39.644965    40.752968     537.4376 1.2736784e-10 3.8901302e-10 8.0325366e-10   -23.048531 
    2860   -23.049532    5.3040558   -1.7873558    5.2871969   -1.7704969    8.4789371            0           -0            0    200.12718    39.154554    40.233911    520.99306 3.3277951e-11 3.7624705e-10 7.7710933e-10   -23.049532 
    2870   -23.050503    5.3065837   -1.7898837    5.2898064   -1.7731064    8.4965206            0           -0            0    194.46215    38.663402    39.714591    505.00846 1.8836375e-10 3.6371595e-10 7.5177927e-10   -23.050503 
    2880   -23.051446    5.3091637   -1.7924637    5.2924687   -1.7757687    8.5141041            0           -0            0    188.94628     38.17148    39.194968     489.4724 1.875434e-10 3.518967e-10 7.2746006e-10   -23.051446 
    2890   -23.052361    5.3117966   -1.7950966    5.2951844   -1.7784844    8.5316876            0           -0            0    183.57593     37.67891    38.675152    474.37371 1.2516027e-10 3.4036933e-10 7.0392983e-10   -23.052361 
    2900   -23.053249     5.314483    -1.797783    5.2979543   -1.7812543    8.5492711            0           -0            0    178.34751    37.185809    38.155252    459.70148 6.3288983e-11 3.289666e-10 6.8059085e-10   -23.053249 
    2910   -23.054111    5.3172237   -1.8005237    5.3007791   -1.7840791    8.5668546            0           -0            0    173.25755    36.692297    37.635379    445.44499 1.9237031e-12 3.1833775e-10 6.5833617e-10   -23.054111 
    2920   -23.054947    5.3200196   -1.8033196    5.3036597   -1.7869597    8.5844381            0           -0            0    168.30263    36.198489    37.115642    431.59376 -5.8929012e-11 3.079311e-10 6.3669241e-10   -23.054947 
    2930   -23.055758    5.3228713   -1.8061713    5.3065966   -1.7898966    8.6020216            0           -0            0    163.47939    35.704504    36.596151    418.13752 1.8426986e-12 2.9793353e-10 6.1559776e-10   -23.055758 
    2940   -23.056545    5.3257795   -1.8090795    5.3095906   -1.7928906    8.6196051            0           -0            0    158.78457    35.210457    36.077019    405.06624 -3.2983922e-10 2.8834791e-10 5.9551978e-10   -23.056545 
    2950    -23.05731    5.3287451   -1.8120451    5.3126425   -1.7959425    8.6371886            0           -0            0    154.21497    34.716465    35.558356    392.37009 -1.1830097e-10 2.7888148e-10 5.7583641e-10    -23.05731 
    2960   -23.058051    5.3317688   -1.8150688     5.315753    -1.799053    8.6547721            0           -0            0    149.76746    34.222645    35.040276    380.03944 9.1422387e-11 2.6965342e-10 5.5706932e-10   -23.058051 
    2970   -23.058771    5.3348512   -1.8181512    5.3189227   -1.8022227    8.6723556            0           -0            0    145.43897    33.729115    34.522893    368.06491 1.7167112e-12 2.6115452e-10 5.3891354e-10   -23.058771 
    2980   -23.059469     5.337993    -1.821293    5.3221524   -1.8054524    8.6899391            0           -0            0    141.22653    33.235994    34.006323    356.43727 5.6471078e-10 2.5218496e-10 5.2104551e-10   -23.059469 
    2990   -23.060147    5.3411951   -1.8244951    5.3254426   -1.8087426    8.7075226            0           -0            0    137.12721    32.743407    33.490687    345.14753 1.5948651e-09 2.4358213e-10 5.0349574e-10   -23.060147 
    3000   -23.060805     5.344458    -1.827758    5.3287942   -1.8120942    8.7251061            0           -0            0    133.13831    32.251707    32.976306    334.18691 1.0223992e-08 2.3526841e-10 4.8684683e-10   -23.060805 
    3010   -23.061443    5.3477824   -1.8310824    5.3322076   -1.8155076    8.7426896            0           -0            0    129.26588    31.775124     32.47556    323.54697 1.0952358e-07 2.2732915e-10 4.7058201e-10   -23.061443 
    3020   -23.062062     5.351163    -1.834463    5.3356784   -1.8189784    8.7602731            0           -0            0    126.40154    32.739755    33.227781     313.2371 2.0633086e-06 2.1808962e-10 4.5153508e-10   -23.062062 
    3030   -23.062661     5.354528    -1.837828    5.3391438   -1.8224438    8.7778566            0           -0            0    135.67419    52.899157    50.662492    303.46093 2.4479496e-06 1.8447453e-10 3.9098306e-10   -23.062661 
    3040   -23.063246    5.3580727   -1.8413727    5.3427744   -1.8260744    8.7954401            0           -0            0    127.00291    44.286376    43.093025    293.62934 4.4976732e-09 1.8762519e-10 3.9413837e-10   -23.063246 
    3050   -23.063812    5.3616427   -1.8449427    5.3464354   -1.8297354    8.8130236            0           -0            0    124.37983    45.166183    43.774107    284.19919 -2.8985349e-10 1.7892809e-10 3.7681007e-10   -23.063812 
    3060   -23.064359    5.3652303   -1.8485303    5.3501203   -1.8334203    8.8306071            0           -0            0    128.76812    57.084194    54.050745    275.16942 2.5109927e-10 1.5659034e-10 3.3592066e-10   -23.064359 
    3070   -23.064895    5.3689979   -1.8522979    5.3539708   -1.8372708    8.8481906            0           -0            0    116.16538    41.745512    40.635296    266.11532 8.3267831e-11  1.69167e-10 3.5487851e-10   -23.064895 
    3080   -23.065413    5.3727643   -1.8560643    5.3578289   -1.8411289    8.8657741            0           -0            0    113.67816    42.405942    41.127598    257.50095 8.2526259e-11 1.6132882e-10 3.3948694e-10   -23.065413 
    3090   -23.065911    5.3765325   -1.8598325     5.361697    -1.844997    8.8833576            0           -0            0     120.6075    57.960705    54.569664    249.29213 2.186989e-10 1.3481697e-10 2.9215065e-10   -23.065911 
    3100   -23.066403    5.3805195   -1.8638195    5.3657647   -1.8490647    8.9009411            0           -0            0    105.41831    38.072211    37.198139    240.98459 1.3872898e-10 1.5366851e-10 3.2238104e-10   -23.066403 
    3110   -23.066877     5.384493    -1.867793    5.3698293   -1.8531293    8.9185246            0           -0            0    102.15342    37.088262    36.262664    233.10933 5.439925e-11 1.4857579e-10 3.116704e-10   -23.066877 
    3120    -23.06733    5.3884312   -1.8717312    5.3738717   -1.8571717    8.9361081            0           -0            0    113.76941    59.741884    55.881742    225.68461 -3.967365e-10 1.1378515e-10 2.5006487e-10    -23.06733 
    3130   -23.067782    5.3927143   -1.8760143     5.378224    -1.861524    8.9536916            0           -0            0    85.592255    18.719641    20.131782    217.92534 -7.9853266e-11 1.6012406e-10 3.2741646e-10   -23.067782 
    3140   -23.068215    5.3968619   -1.8801619    5.3824667   -1.8657667    8.9712751            0           -0            0    87.155441    25.074815    25.579732    210.81177 -1.088518e-10 1.4648136e-10 3.0181485e-10   -23.068215 
    3150   -23.068632    5.4012113   -1.8845113    5.3868943   -1.8701943    8.9888586            0           -0            0    70.393806    2.0393361    5.4685839     203.6735 3.6387399e-10 1.7026662e-10 3.4013448e-10   -23.068632 
    3160   -23.069042    5.4054592   -1.8887592    5.3912418   -1.8745418    9.0064421            0           -0            0    76.818862     15.93132    17.472871    197.05239 -7.8379719e-11 1.4706374e-10 2.9904239e-10   -23.069042 
    3170   -23.069438    5.4098017   -1.8931017    5.3956807   -1.8789807    9.0240256            0           -0            0    80.360496    25.108948    25.378964    190.59358 2.1799717e-10 1.3031909e-10 2.685777e-10   -23.069438 
    3180   -23.069821     5.414189    -1.897489    5.4001676   -1.8834676    9.0416091            0           -0            0    87.946722    40.645257    38.817916    184.37699 7.4759094e-09 1.0533961e-10 2.2491773e-10   -23.069821 
    3190   -23.070195    5.4187684   -1.9020684    5.4048308   -1.8881308    9.0591926            0           -0            0    77.754673     27.66449    27.452448    178.14708 -4.8968724e-08 1.1707769e-10 2.4303773e-10   -23.070195 
    3200   -23.070496    5.4225355   -1.9058355    5.4086948   -1.8919948    9.0742103            0           -0            0    96.956826    61.102525    56.478985    173.28897 -7.8114339e-07 7.0380963e-11 1.6291045e-10   -23.070496 
    3210    -23.07077     5.426133    -1.909433    5.4123522   -1.8956522    9.0875652            0           -0            0    86.105412    46.139429    43.407304     168.7695 -1.681385e-07 8.5900307e-11 1.8785147e-10    -23.07077 
    3220   -23.071041    5.4301002   -1.9134002    5.4163595   -1.8996595    9.1014809            0           -0            0    50.867717   -7.7711509   -3.5517793    163.92608 3.1514306e-07 1.5109648e-10 2.9653469e-10   -23.071041 
    3230     -23.0713    5.4334658   -1.9167658    5.4198316   -1.9031316    9.1150078            0           -0            0    88.921906     55.36221    51.321307     160.0822 -6.8676086e-07 6.7092888e-11 1.5405947e-10     -23.0713 
    3240   -23.071555    5.4371683   -1.9204683    5.4235945   -1.9068945    9.1283257            0           -0            0    79.462026    42.446563    40.030878    155.90864 -1.3364193e-07 8.0195838e-11 1.7510863e-10   -23.071555 
    3250   -23.071807    5.4412412   -1.9245412    5.4277088   -1.9110088    9.1422113            0           -0            0    46.835958   -7.4746675   -3.4616633     151.4442 2.7043691e-07 1.4030097e-10 2.7508483e-10   -23.071807 
    3260   -23.072046     5.444714    -1.928014    5.4312856   -1.9145856    9.1556344            0           -0            0     83.52169    53.304848    49.372621     147.8876 -6.5126541e-07 5.9928146e-11 1.3904054e-10   -23.072046 
    3270   -23.072285    5.4485552   -1.9318552    5.4351857   -1.9184857    9.1689788            0           -0            0    73.382135    39.147904    37.001913    143.99659 -1.0315875e-07 7.4836919e-11 1.629944e-10   -23.072285 
    3280    -23.07252    5.4527455   -1.9360455    5.4394185   -1.9227185    9.1828716            0           -0            0    43.140418   -7.1272879   -3.3219652    139.87051 2.1979306e-07 1.3038619e-10 2.5478948e-10    -23.07252 
    3290   -23.072742    5.4563287   -1.9396287    5.4431035   -1.9264035    9.1962137            0           -0            0    78.685639    51.677197    47.802539    136.57718 -5.8911676e-07 5.2865153e-11 1.2435038e-10   -23.072742 
    3300   -23.072966    5.4603168   -1.9436168    5.4471489   -1.9304489    9.2096086            0           -0            0     67.79686    36.180604    34.265651    132.94433 -7.5208739e-08 6.9671183e-11 1.5132869e-10   -23.072966 
    3310   -23.073186    5.4646341   -1.9479341    5.4515098   -1.9348098    9.2235365            0           -0            0    39.764588   -6.7121476   -3.1181537    129.12407 1.6432746e-07 1.2142281e-10 2.3587865e-10   -23.073186 
    3320   -23.073392    5.4683324   -1.9516324    5.4553078   -1.9386078    9.2368232            0           -0            0    74.370842    50.452816    46.588034    126.07168 -4.8804355e-07 4.5726702e-11 1.1008396e-10   -23.073392 
    3330   -23.073603    5.4724773   -1.9557773    5.4595084   -1.9428084    9.2502953            0           -0            0    62.651949     33.49889    31.782202    122.67475 -4.8785355e-08 6.4695133e-11 1.4033803e-10   -23.073603 
    3340   -23.073809    5.4769332   -1.9602332    5.4640085   -1.9473085    9.2642891            0           -0            0    36.616943   -6.3363452   -2.9436075    119.13078 1.0620781e-07 1.1310921e-10 2.1909494e-10   -23.073809 
    3350      -23.074    5.4807531   -1.9640531    5.4679262   -1.9512262    9.2775501            0           -0            0    70.491846    49.533459    45.643545    116.29853 -3.4164393e-07 3.8686529e-11 9.5688527e-11      -23.074 
    3360   -23.074199    5.4850628   -1.9683628    5.4722898   -1.9555898    9.2911183            0           -0            0    57.903384    31.068375    29.521588    113.12019 -2.5867405e-08 5.993786e-11 1.2978622e-10   -23.074199 
[...]
    4230   -23.081161    5.9552124   -2.4385124    5.9454416   -2.4287416     10.40232            0           -0            0    5.6992542    3.1342466    3.0736202    10.889896   0.65031923 5.495376e-12 1.371069e-11   -23.081161 
    4240   -23.081189    5.9629834   -2.4462834    5.9532254   -2.4365254    10.417694            0           -0            0    6.1457512     4.047619    3.8604906    10.529144    8.2823181 -1.2287492e-11 3.1910862e-12   -23.081189 
    4250   -23.081215    5.9696879   -2.4529879    5.9599382   -2.4432382    10.430891            0           -0            0    4.6065534     1.748113    1.8442128    10.227334   0.97880219 5.6635024e-12 1.4754052e-11   -23.081215 
    4260   -23.081238     5.976096    -2.459396    5.9663554   -2.4496554    10.443509            0           -0            0    4.4970987    1.7265181    1.8171449    9.9476331   0.79699387 5.8288176e-12 1.4475619e-11   -23.081238 
    4270   -23.081258    5.9819348   -2.4652348    5.9722067   -2.4555067    10.455045            0           -0            0    8.1408902    7.6981813    7.0234149    9.7010745     -8.07062 1.8241221e-11 1.2396274e-11   -23.081258 
    4280   -23.081279     5.987856    -2.471156    5.9781325   -2.4614325    10.466606            0           -0            0    5.8471719    4.1591788    3.9264925    9.4558443    3.1107496 -2.215587e-12 6.5015046e-12   -23.081279 
    4290   -23.081297    5.9931075   -2.4764075    5.9833888   -2.4666888    10.476857            0           -0            0    4.4876475    2.0981854    2.1208402     9.243917   0.98859119 4.3733759e-12 1.2282915e-11   -23.081297 
    4300   -23.081318    5.9993769   -2.4826769    5.9896661   -2.4729661    10.489115            0           -0            0    4.9189757    2.9242397    2.8347623    8.9979251    3.3811246 -1.9117897e-12 7.7320424e-12   -23.081318 
    4310   -23.081335    6.0050061   -2.4883061    5.9952971   -2.4785971    10.500026            0           -0            0    1.3355855   -2.6961361   -2.0788691    8.7817618   -6.7360339   2.5865e-11 2.8835956e-11   -23.081335 
    4320   -23.081353    6.0104758   -2.4937758    6.0007772   -2.4840772    10.510752            0           -0            0    4.9634193    3.2258669    3.0856556    8.5787354   0.45978917 3.6852116e-12 9.4966352e-12   -23.081353 
    4330   -23.081376    6.0185737   -2.5018737    6.0088851   -2.4921851     10.52653            0           -0            0    6.4741505    5.8063579    5.3300845     8.286009    8.8224932 -1.7408088e-11 -4.8485028e-12   -23.081376 
    4340   -23.081393    6.0238794   -2.5071794    6.0141952   -2.4974952    10.536821            0           -0            0    5.9270465    5.0326977     4.649006    8.0994359   -6.9854489 1.7381858e-11 1.3161402e-11   -23.081393 
    4350   -23.081409    6.0291977   -2.5124977    6.0195158   -2.5028158    10.547095            0           -0            0    4.0559942    2.1366966    2.1148136    7.9164724     1.732732 1.4984499e-12 8.9727075e-12   -23.081409 
    4360    -23.08143    6.0363827   -2.5196827    6.0267069   -2.5100069    10.561005            0           -0            0     4.085075    2.3151656    2.2634222    7.6766373   0.15922582 4.4764568e-12 9.8734236e-12    -23.08143 
    4370   -23.081443    6.0416056   -2.5249056    6.0319284   -2.5152284    10.571019            0           -0            0 -0.085865443   -4.2708838   -3.4927473    7.5060347  -0.79538802 1.3360963e-11 2.2845178e-11   -23.081443 
    4380    -23.08146    6.0474745   -2.5307745    6.0378061   -2.5211061    10.582419            0           -0            0     3.372361    1.3694636     1.426846    7.3207735   0.84237139 3.7040469e-12  1.02413e-11    -23.08146 
    4390    -23.08148    6.0551653   -2.5384653    6.0454991   -2.5287991    10.597202            0           -0            0    1.0973013   -2.1435678   -1.6481201    7.0835919   0.47821212 8.0576439e-12 1.6706907e-11    -23.08148 
    4400   -23.081495    6.0613567   -2.5446567    6.0517043   -2.5350043    10.609278            0           -0            0    8.9510293    10.534813    9.4178525    6.9004227  -0.44264067 -3.9126381e-12 -6.1681345e-12   -23.081495 
    4410   -23.081512    6.0674668   -2.5507668    6.0578109   -2.5411109     10.62092            0           -0            0     3.428183    1.7884512    1.7744673    6.7216306  -0.71609195 6.0169537e-12 1.0040341e-11   -23.081512 
    4420   -23.081529    6.0747566   -2.5580566    6.0651042   -2.5484042    10.634918            0           -0            0    3.3227547    1.7328389    1.7195996    6.5158255    4.3254177 -4.8269926e-12 4.2475088e-12   -23.081529 
    4430   -23.081548    6.0827437   -2.5660437    6.0730981   -2.5563981    10.650288            0           -0            0    5.8027412    5.8241368    5.2859357     6.298151   -2.8572098  5.72387e-12 4.1450187e-12   -23.081548 
    4440   -23.081561    6.0880508   -2.5713508    6.0784044   -2.5617044    10.660412            0           -0            0    3.4640207    2.1565963    2.0786489    6.1568171  -0.92791864 5.5200467e-12 8.5496969e-12   -23.081561 
    4450   -23.081576    6.0948288   -2.5781288    6.0851841   -2.5684841    10.673375            0           -0            0    2.9536973    1.4358345    1.4437713    5.9814862   0.61264553 2.8832223e-12 7.8670738e-12   -23.081576 
    4460    -23.08159    6.1010467   -2.5843467    6.0914056   -2.5747056    10.685288            0           -0            0    4.2898588    3.6614236    3.3826979    5.8254548  -0.27811539 2.1673881e-12 4.4277903e-12    -23.08159 
    4470   -23.081603    6.1072921   -2.5905921    6.0976509   -2.5809509    10.697192            0           -0            0    2.9934559    1.6696115    1.6383747    5.6723816   0.57022317 2.4194888e-12 6.9046477e-12   -23.081603 
    4480   -23.081617    6.1142386   -2.5975386    6.1045975   -2.5878975    10.710429            0           -0            0    2.0125433   0.18984984   0.34082092     5.506959    2.9027385 -1.0229826e-12 6.7501773e-12   -23.081617 
    4490   -23.081627    6.1191828   -2.6024828    6.1095439   -2.5928439    10.719878            0           -0            0    3.0851183    1.9704354    1.8924216    5.3924978   -4.1649643 1.1830798e-11 1.1058671e-11   -23.081627 
    4500   -23.081639    6.1246836   -2.6079836    6.1150452   -2.5983452    10.730357            0           -0            0    2.9017219    1.7454356    1.6920188    5.2677111  -0.29727716 3.7843424e-12 6.9692036e-12   -23.081639 
    4510   -23.081649     6.129987    -2.613287    6.1203476   -2.6036476    10.740436            0           -0            0    1.8381569   0.10709249    0.2573638    5.1500143    -2.248885 9.5740282e-12 1.1904109e-11   -23.081649 
    4520   -23.081659    6.1364752   -2.6197752    6.1268293   -2.6101293    10.752681            0           -0            0   -3.0725321   -7.6789323   -6.5477272    5.0090633   -6.8402885 2.7704392e-11 3.1033482e-11   -23.081659 
    4530   -23.081671     6.141725    -2.625025     6.132087    -2.615387    10.762787            0           -0            0    2.6022723    1.4687474    1.4388291    4.8992403   -0.4518865 4.0525254e-12 6.9552861e-12   -23.081671 
    4540   -23.081681    6.1474101   -2.6307101    6.1377699   -2.6210699    10.773565            0           -0            0    1.1831455  -0.73914327  -0.49338243    4.7819623    5.6459813 -6.4387928e-12 4.1374792e-12   -23.081681 
    4550   -23.081693    6.1537495   -2.6370495    6.1441094   -2.6274094    10.785619            0           -0            0    1.6042661 0.0052413397   0.15279702      4.65476   -4.9651243 1.4921035e-11 1.4133023e-11   -23.081693 
    4560   -23.081702    6.1589932   -2.6422932    6.1493531   -2.6326531    10.795587            0           -0            0    2.0023759   0.69926367   0.75577466    4.5520894   0.72724036 2.0855305e-12 6.4367344e-12   -23.081702 
    4570   -23.081711    6.1642553   -2.6475553    6.1546147   -2.6379147    10.805581            0           -0            0    2.2308757    1.1206476    1.1206709    4.4513086   -4.9193113 1.3422034e-11 1.1641418e-11   -23.081711 
    4580   -23.081719    6.1689157   -2.6522157    6.1592753   -2.6425753    10.814442            0           -0            0    2.9695503    2.3515535    2.1931311    4.3639662    2.7017504 -4.0487499e-12 9.2592625e-13   -23.081719 
    4590   -23.081727    6.1735643   -2.6568643    6.1639219   -2.6472219    10.823245            0           -0            0    2.1133313     1.027681    1.0339902    4.2783226  -0.72711201 4.5186829e-12 6.9014316e-12   -23.081727 
    4600   -23.081737    6.1800735   -2.6633735    6.1704244   -2.6537244    10.835514            0           -0            0   -1.7462648   -5.0877773   -4.3118404    4.1608233 -0.021880093 9.4989467e-12 1.7164187e-11   -23.081737 
    4610   -23.081746    6.1858659   -2.6691659    6.1762244   -2.6595244    10.846638            0           -0            0    4.9439228    5.6802197     5.091328    4.0602207   -5.2549569 8.902142e-12 2.7576666e-12   -23.081746 
    4620   -23.081753    6.1904122   -2.6737122    6.1807648   -2.6640648    10.855187            0           -0            0    1.5371834   0.26838626   0.36128562    3.9818782   0.48311693 2.4967315e-12 6.4528404e-12   -23.081753 
    4630   -23.081762    6.1959879   -2.6792879    6.1863423   -2.6696423    10.865813            0           -0            0    4.2952281    4.7359447    4.2610672    3.8886724     2.929502 -7.5704639e-12 -4.6137213e-12   -23.081762 
    4640   -23.081766    6.1993097   -2.6826097    6.1896579   -2.6729579    10.872031            0           -0            0   0.52229591   -1.2749475  -0.99168253    3.8335177    -4.302522 1.4071704e-11 1.4096746e-11   -23.081766 
    4650   -23.081773     6.203161    -2.686461    6.1935095   -2.6768095    10.879358            0           -0            0    1.8254945   0.84607223   0.85921303    3.7711983   0.46635852 1.7128053e-12 5.008671e-12   -23.081773 
    4660   -23.081781    6.2090277   -2.6923277    6.1993727   -2.6826727     10.89046            0           -0            0    1.1042948  -0.25730229  -0.10768029    3.6778669    2.9399203 -2.445553e-12 4.2487025e-12   -23.081781 
    4670   -23.081788    6.2141297   -2.6974297    6.2044756   -2.6877756    10.900176            0           -0            0    3.4046531    3.4695159    3.1455771    3.5988664   -3.9118768 8.0215562e-12 4.4704887e-12   -23.081788 
    4680   -23.081793    6.2173312   -2.7006312     6.207673    -2.690973    10.906202            0           -0            0     1.465429    0.3915098   0.45501431    3.5497629   0.37104889 2.1731732e-12 5.5436346e-12   -23.081793 
    4690     -23.0818    6.2226558   -2.7059558    6.2129938   -2.6962938    10.916272            0           -0            0   0.49976582   -1.1106277   -0.8598647    3.4697899   0.72875313 2.9290163e-12 7.7990175e-12     -23.0818 
    4700   -23.081806    6.2274378   -2.7107378    6.2177726   -2.7010726    10.925324            0           -0            0   0.11105726   -1.6942977    -1.372054    3.3995235    -3.718946 1.2896281e-11 1.3452843e-11   -23.081806 
    4710   -23.081812    6.2319871   -2.7152871    6.2223212   -2.7056212    10.933971            0           -0            0    1.3153425   0.26999545   0.34191853    3.3341135 -0.050267828 2.9845566e-12 5.8104672e-12   -23.081812 
    4720   -23.081819    6.2369718   -2.7202718    6.2273046   -2.7106046    10.943444            0           -0            0    2.5166715    2.2322138    2.0539577    3.2638431    2.7852189 -5.1691325e-12 -9.5898949e-13   -23.081819 
    4730   -23.081824    6.2411024   -2.7244024    6.2314279   -2.7147279      10.9512            0           -0            0  -0.98314776   -3.3397689   -2.8159223     3.206248    1.3629047 3.7213758e-12 1.0738201e-11   -23.081824 
    4740   -23.081829    6.2451586   -2.7284586    6.2354856   -2.7187856    10.958949            0           -0            0    1.8795127     1.274043     1.213225    3.1512701  -0.05243784 1.7583938e-12 3.6128224e-12   -23.081829 
    4750   -23.081834    6.2489442   -2.7322442    6.2392686   -2.7225686    10.966125            0           -0            0    1.7483801    1.0920464    1.0525841    3.1005097  -0.26171747 2.3471654e-12 4.0784209e-12   -23.081834 
    4760   -23.081839    6.2533355   -2.7366355    6.2436577   -2.7269577    10.974463            0           -0            0     2.256588    1.9376076    1.7894751    3.0426812   -1.3069388 3.5983688e-12 3.5196067e-12   -23.081839 
    4770   -23.081843    6.2568731   -2.7401731    6.2471917   -2.7304917    10.981155            0           -0            0    1.3842551    0.5662153   0.58982109     2.996729  -0.22512077 2.7293215e-12 4.8152038e-12   -23.081843 
    4780    -23.08185    6.2628317   -2.7461317    6.2531476   -2.7364476    10.992484            0           -0            0    2.5892727    2.5372543    2.3094769    2.9210868   -3.9560986 8.4749673e-12 4.9399049e-12    -23.08185 
    4790   -23.081856    6.2675324   -2.7508324    6.2578428   -2.7411428    11.001374            0           -0            0    1.1235858   0.22282042   0.28544439    2.8624925   -2.3492139 7.4336112e-12 7.4180481e-12   -23.081856 
    4800   -23.081861    6.2719537   -2.7552537     6.262261    -2.745561    11.009771            0           -0            0    1.2779536   0.49970597   0.52561164    2.8085432   0.34943361 1.3984201e-12 3.9755916e-12   -23.081861 
    4810   -23.081865    6.2755314   -2.7588314    6.2658355   -2.7491355     11.01656            0           -0            0    1.0380972   0.13935306   0.20936638    2.7655721    1.5459221 -7.9664329e-13 3.3077638e-12   -23.081865 
    4820   -23.081869    6.2803239   -2.7636239    6.2706281   -2.7539281    11.025725            0           -0            0    3.8861626    4.7303649    4.2188625    2.7092604   -3.3117961 4.6070585e-12 -1.8487355e-13   -23.081869 
    4830   -23.081874    6.2842979   -2.7675979    6.2745956   -2.7578956    11.033228            0           -0            0    1.6071023    1.1068907    1.0514033    2.6630129  0.065167845 1.2215024e-12 2.8791558e-12   -23.081874 
    4840   -23.081878    6.2878764   -2.7711764    6.2781701   -2.7614701    11.040015            0           -0            0   0.90706321 0.0086098669  0.090456333    2.6221234  -0.75119923 4.0718069e-12 5.6986607e-12   -23.081878 
    4850   -23.081882    6.2923453   -2.7756453    6.2826363   -2.7659363    11.048533            0           -0            0    1.7947774    1.4574988    1.3547943    2.5720391    3.3016883 -6.1367622e-12 -1.3538888e-12   -23.081882 
    4860   -23.081886     6.296138    -2.779438    6.2864252   -2.7697252    11.055742            0           -0            0    1.4617919    0.9474453   0.90777003    2.5301604  0.078193437 1.2344192e-12 2.9094888e-12   -23.081886 
    4870   -23.081891    6.3004756   -2.7837756    6.2907616   -2.7740616    11.064041            0           -0            0    3.4972771    4.2322122     3.776371    2.4832482     1.825613 -6.0020068e-12 -5.1466108e-12   -23.081891 
    4880   -23.081895    6.3043629   -2.7876629    6.2946418   -2.7779418    11.071392            0           -0            0    1.0309134   0.30640416   0.34475976    2.4415762   0.91799755 3.2479146e-14 3.0575762e-12   -23.081895 
    4890     -23.0819    6.3098054   -2.7931054    6.3000792   -2.7833792    11.081764            0           -0            0    1.1684796   0.55804618   0.56277724    2.3846152  -0.31947669 2.3499677e-12 3.7746968e-12     -23.0819 
    4900   -23.081904    6.3142829   -2.7975829    6.3045516   -2.7878516     11.09029            0           -0            0    0.6537961   -0.2406461  -0.13661482    2.3386492  -0.88615457 4.3542033e-12 5.772038e-12   -23.081904 
    4910   -23.081908     6.317764    -2.801064    6.3080302   -2.7913302    11.096946            0           -0            0    1.3336454   0.86715038   0.83022059    2.3035652  -0.10586133 1.4938111e-12 2.8227723e-12   -23.081908 
    4920   -23.081913    6.3231423   -2.8064423    6.3134028   -2.7967028     11.10721            0           -0            0    1.2767324   0.80540662   0.77452593    2.2502648   0.10913586 1.0479312e-12 2.6100597e-12   -23.081913 
    4930   -23.081918    6.3294883   -2.8127883      6.31974     -2.80304    11.119302            0           -0            0  -0.14912643   -1.4435187   -1.1926277    2.1887671    1.7716687 -1.767549e-13 4.9279943e-12   -23.081918 
    4940   -23.081922    6.3334517   -2.8167517    6.3237004   -2.8070004    11.126899            0           -0            0    0.7634997  0.038269972   0.10094566    2.1512835   -1.7242606 5.6783975e-12 5.7924278e-12   -23.081922 
    4950   -23.081925    6.3374393   -2.8207393     6.327684    -2.810984    11.134535            0           -0            0    1.0627394   0.53783383     0.536255    2.1141294   0.29353413 8.0711212e-13 2.655369e-12   -23.081925 
    4960   -23.081928    6.3410664   -2.8243664    6.3313071   -2.8146071    11.141482            0           -0            0    1.1213677   0.65004676   0.63321702    2.0808395   -1.8555183 5.2470494e-12 4.6542024e-12   -23.081928 
    4970   -23.081931    6.3445999   -2.8278999    6.3348368   -2.8181368    11.148258            0           -0            0    1.3509264    1.0351793   0.96871081     2.048889    1.2072943 -1.73558e-12 6.4089207e-13   -23.081931 
    4980   -23.081937    6.3509446   -2.8342446    6.3411735   -2.8244735    11.160412            0           -0            0   0.89520043   0.33658125   0.35639794    1.9926221   0.16475547 1.176522e-12 2.9397651e-12   -23.081937 
    4990   -23.081941    6.3558468   -2.8391468    6.3460701   -2.8293701    11.169831            0           -0            0    1.1769608   0.81108047    0.7696418    1.9501601 -0.026357804 1.0429193e-12 2.1733418e-12   -23.081941 
    5000   -23.081943    6.3593252   -2.8426252    6.3495456   -2.8328456    11.176537            0           -0            0    2.1216416    2.3397952    2.1045496    1.9205801   0.92343576 -2.6346762e-12 -1.7470925e-12   -23.081943 
Loop time of 0.10876 on 1 procs for 5000 steps with 4 atoms

84.9% CPU use with 1 MPI tasks x no OpenMP threads

Minimization stats:
  Stopping criterion = max iterations
  Energy initial, next-to-last, final = 
        -17.9152565043     -23.0819430697     -23.0819433408
  Force two-norm initial, final = 0.731457 0.00436844
  Force max component initial, final = 0.422307 0.00206993
  Final line search alpha, max atom move = 0.0735649 0.000152274
  Iterations, force evaluations = 5000 5943

MPI task timing breakdown:
Section |  min time  |  avg time  |  max time  |%varavg| %total
---------------------------------------------------------------
Pair    | 0.054933   | 0.054933   | 0.054933   |   0.0 | 50.51
Neigh   | 0.00049973 | 0.00049973 | 0.00049973 |   0.0 |  0.46
Comm    | 0.008425   | 0.008425   | 0.008425   |   0.0 |  7.75
Output  | 0.005089   | 0.005089   | 0.005089   |   0.0 |  4.68
Modify  | 0          | 0          | 0          |   0.0 |  0.00
Other   |            | 0.03981    |            |       | 36.61

Nlocal:    4 ave 4 max 4 min
Histogram: 1 0 0 0 0 0 0 0 0 0
Nghost:    86 ave 86 max 86 min
Histogram: 1 0 0 0 0 0 0 0 0 0
Neighs:    26 ave 26 max 26 min
Histogram: 1 0 0 0 0 0 0 0 0 0

Total # of neighbors = 26
Ave neighs/atom = 6.5
Neighbor list builds = 36
Dangerous builds = 0
pypospack:output_section:begin
tot_energy = -23.0819433407663
num_atoms = 4
a11 = 9.20195048761184
a22 = 9.18239123783025
a33 = 18.8363734818246
a12 = 0
a13 = -0
a23 = 0
tot_press = 2.12164161941575
pxx = 2.33979523512235
pyy = 2.10454955196945
pzz = 1.92058007115545
pxy = 0.923435759061112
pxz = -2.63467622655682e-12
pyz = -1.74709247524241e-12
pypospack:output_section:done
pypospack:lammps_sim:done
Total wall time: 0:00:00
