    2    2    1    1
  0.9639684E+01  0.3009788E-09  0.3009788E-09  0.3009788E-09  0.5000000E-15
  1.000000000000000E-004
  CAR 
 automatically generated by pyflamestk   
      8     10     16
 
  0.1250000E+00  0.1250000E+00  0.1250000E+00  0.3125000E-01
    1      -13.778065   1.000000
    2        2.432314   1.000000
    3        3.334475   1.000000
    4        3.334476   1.000000
    5        8.635340   0.000000
    6       17.317348   0.000000
    7       19.323630   0.000000
    8       19.323633   0.000000
    9       23.540797   0.000000
   10       23.540798   0.000000
   11       24.871454   0.000000
   12       27.274800   0.000000
   13       28.723065   0.000000
   14       28.723066   0.000000
   15       38.979028   0.000000
   16       40.952059   0.000000
 
  0.3750000E+00  0.1250000E+00  0.1250000E+00  0.9375000E-01
    1      -13.143419   1.000000
    2        0.272878   1.000000
    3        2.449776   1.000000
    4        3.003943   1.000000
    5       11.091711   0.000000
    6       15.279868   0.000000
    7       18.636570   0.000000
    8       20.299435   0.000000
    9       22.125839   0.000000
   10       24.352962   0.000000
   11       26.430292   0.000000
   12       31.096539   0.000000
   13       32.404568   0.000000
   14       33.213980   0.000000
   15       35.575136   0.000000
   16       38.901114   0.000000
 
 -0.3750000E+00  0.1250000E+00  0.1250000E+00  0.9375000E-01
    1      -12.721395   1.000000
    2       -0.845230   1.000000
    3        2.279878   1.000000
    4        2.647870   1.000000
    5       11.694704   0.000000
    6       15.501205   0.000000
    7       17.922427   0.000000
    8       19.734746   0.000000
    9       23.712443   0.000000
   10       25.983389   0.000000
   11       26.034376   0.000000
   12       32.277131   0.000000
   13       32.928900   0.000000
   14       33.260805   0.000000
   15       35.833679   0.000000
   16       37.520606   0.000000
 
 -0.1250000E+00  0.1250000E+00  0.1250000E+00  0.9375000E-01
    1      -13.424446   1.000000
    2        1.129911   1.000000
    3        2.928836   1.000000
    4        2.942611   1.000000
    5       10.241400   0.000000
    6       15.506327   0.000000
    7       19.431906   0.000000
    8       19.924453   0.000000
    9       21.083506   0.000000
   10       24.922963   0.000000
   11       26.885370   0.000000
   12       29.978876   0.000000
   13       30.272270   0.000000
   14       31.029873   0.000000
   15       37.209752   0.000000
   16       39.017259   0.000000
 
  0.3750000E+00  0.3750000E+00  0.1250000E+00  0.9375000E-01
    1      -12.914812   1.000000
    2        0.086693   1.000000
    3        2.246394   1.000000
    4        2.474680   1.000000
    5       12.209311   0.000000
    6       13.917708   0.000000
    7       17.185708   0.000000
    8       20.818846   0.000000
    9       21.275300   0.000000
   10       27.103640   0.000000
   11       30.163236   0.000000
   12       30.425406   0.000000
   13       32.343000   0.000000
   14       34.836120   0.000000
   15       36.491305   0.000000
   16       37.886769   0.000000
 
 -0.3750000E+00  0.3750000E+00  0.1250000E+00  0.1875000E+00
    1      -12.516705   1.000000
    2       -0.009062   1.000000
    3        0.995733   1.000000
    4        2.070120   1.000000
    5       13.775873   0.000000
    6       14.826340   0.000000
    7       15.608356   0.000000
    8       19.552626   0.000000
    9       23.021326   0.000000
   10       26.461234   0.000000
   11       29.990899   0.000000
   12       31.471855   0.000000
   13       32.683716   0.000000
   14       36.350989   0.000000
   15       38.896215   0.000000
   16       41.109190   0.000000
 
 -0.1250000E+00  0.3750000E+00  0.1250000E+00  0.1875000E+00
    1      -12.764373   1.000000
    2       -0.221988   1.000000
    3        1.741266   1.000000
    4        2.567715   1.000000
    5       12.583152   0.000000
    6       14.841991   0.000000
    7       16.953213   0.000000
    8       20.146290   0.000000
    9       22.716124   0.000000
   10       25.373099   0.000000
   11       28.877004   0.000000
   12       31.696739   0.000000
   13       32.268521   0.000000
   14       34.902832   0.000000
   15       35.552682   0.000000
   16       41.016064   0.000000
 
 -0.3750000E+00 -0.3750000E+00  0.1250000E+00  0.9375000E-01
    1      -12.551555   1.000000
    2       -0.378159   1.000000
    3        1.731908   1.000000
    4        2.187728   1.000000
    5       12.854489   0.000000
    6       13.494689   0.000000
    7       16.082495   0.000000
    8       21.516972   0.000000
    9       21.546992   0.000000
   10       28.900430   0.000000
   11       29.418552   0.000000
   12       31.971337   0.000000
   13       32.674822   0.000000
   14       37.806610   0.000000
   15       38.177266   0.000000
   16       41.103760   0.000000
 
  0.3750000E+00  0.3750000E+00  0.3750000E+00  0.3125000E-01
    1      -12.950425   1.000000
    2       -0.596311   1.000000
    3        2.860959   1.000000
    4        2.860959   1.000000
    5       10.887636   0.000000
    6       15.479526   0.000000
    7       19.533144   0.000000
    8       19.533146   0.000000
    9       24.083207   0.000000
   10       24.470526   0.000000
   11       24.470529   0.000000
   12       31.888217   0.000000
   13       33.282845   0.000000
   14       33.282848   0.000000
   15       36.848610   0.000000
   16       36.848614   0.000000
 
 -0.3750000E+00  0.3750000E+00  0.3750000E+00  0.9375000E-01
    1      -12.597680   1.000000
    2       -0.256012   1.000000
    3        1.099399   1.000000
    4        2.528789   1.000000
    5       13.074084   0.000000
    6       15.308200   0.000000
    7       16.153786   0.000000
    8       20.453718   0.000000
    9       22.493744   0.000000
   10       25.559757   0.000000
   11       29.094467   0.000000
   12       31.669688   0.000000
   13       32.110241   0.000000
   14       35.396374   0.000000
   15       37.240976   0.000000
   16       40.123683   0.000000
