# ['Ni']

107 atoms
1 atom types

    0.0000    10.4767 xlo xhi
    0.0000    10.4767 ylo yhi
    0.0000    10.4767 zlo zhi

    0.0000    -0.0000    -0.0000 xy xz yz

Atoms

1 1     1.7461     1.7461     0.0000
2 1     1.7461     0.0000     1.7461
3 1     0.0000     1.7461     1.7461
4 1     0.0000     0.0000     3.4922
5 1     1.7461     1.7461     3.4922
6 1     1.7461     0.0000     5.2383
7 1     0.0000     1.7461     5.2383
8 1     0.0000     0.0000     6.9845
9 1     1.7461     1.7461     6.9845
10 1     1.7461     0.0000     8.7306
11 1     0.0000     1.7461     8.7306
12 1     0.0000     3.4922     0.0000
13 1     1.7461     5.2383     0.0000
14 1     1.7461     3.4922     1.7461
15 1     0.0000     5.2383     1.7461
16 1     0.0000     3.4922     3.4922
17 1     1.7461     5.2383     3.4922
18 1     1.7461     3.4922     5.2383
19 1     0.0000     5.2383     5.2383
20 1     0.0000     3.4922     6.9845
21 1     1.7461     5.2383     6.9845
22 1     1.7461     3.4922     8.7306
23 1     0.0000     5.2383     8.7306
24 1     0.0000     6.9845     0.0000
25 1     1.7461     8.7306     0.0000
26 1     1.7461     6.9845     1.7461
27 1     0.0000     8.7306     1.7461
28 1     0.0000     6.9845     3.4922
29 1     1.7461     8.7306     3.4922
30 1     1.7461     6.9845     5.2383
31 1     0.0000     8.7306     5.2383
32 1     0.0000     6.9845     6.9845
33 1     1.7461     8.7306     6.9845
34 1     1.7461     6.9845     8.7306
35 1     0.0000     8.7306     8.7306
36 1     3.4922     0.0000     0.0000
37 1     5.2383     1.7461     0.0000
38 1     5.2383     0.0000     1.7461
39 1     3.4922     1.7461     1.7461
40 1     3.4922     0.0000     3.4922
41 1     5.2383     1.7461     3.4922
42 1     5.2383     0.0000     5.2383
43 1     3.4922     1.7461     5.2383
44 1     3.4922     0.0000     6.9845
45 1     5.2383     1.7461     6.9845
46 1     5.2383     0.0000     8.7306
47 1     3.4922     1.7461     8.7306
48 1     3.4922     3.4922     0.0000
49 1     5.2383     5.2383     0.0000
50 1     5.2383     3.4922     1.7461
51 1     3.4922     5.2383     1.7461
52 1     3.4922     3.4922     3.4922
53 1     5.2383     5.2383     3.4922
54 1     5.2383     3.4922     5.2383
55 1     3.4922     5.2383     5.2383
56 1     3.4922     3.4922     6.9845
57 1     5.2383     5.2383     6.9845
58 1     5.2383     3.4922     8.7306
59 1     3.4922     5.2383     8.7306
60 1     3.4922     6.9845     0.0000
61 1     5.2383     8.7306     0.0000
62 1     5.2383     6.9845     1.7461
63 1     3.4922     8.7306     1.7461
64 1     3.4922     6.9845     3.4922
65 1     5.2383     8.7306     3.4922
66 1     5.2383     6.9845     5.2383
67 1     3.4922     8.7306     5.2383
68 1     3.4922     6.9845     6.9845
69 1     5.2383     8.7306     6.9845
70 1     5.2383     6.9845     8.7306
71 1     3.4922     8.7306     8.7306
72 1     6.9845     0.0000     0.0000
73 1     8.7306     1.7461     0.0000
74 1     8.7306     0.0000     1.7461
75 1     6.9845     1.7461     1.7461
76 1     6.9845     0.0000     3.4922
77 1     8.7306     1.7461     3.4922
78 1     8.7306     0.0000     5.2383
79 1     6.9845     1.7461     5.2383
80 1     6.9845     0.0000     6.9845
81 1     8.7306     1.7461     6.9845
82 1     8.7306     0.0000     8.7306
83 1     6.9845     1.7461     8.7306
84 1     6.9845     3.4922     0.0000
85 1     8.7306     5.2383     0.0000
86 1     8.7306     3.4922     1.7461
87 1     6.9845     5.2383     1.7461
88 1     6.9845     3.4922     3.4922
89 1     8.7306     5.2383     3.4922
90 1     8.7306     3.4922     5.2383
91 1     6.9845     5.2383     5.2383
92 1     6.9845     3.4922     6.9845
93 1     8.7306     5.2383     6.9845
94 1     8.7306     3.4922     8.7306
95 1     6.9845     5.2383     8.7306
96 1     6.9845     6.9845     0.0000
97 1     8.7306     8.7306     0.0000
98 1     8.7306     6.9845     1.7461
99 1     6.9845     8.7306     1.7461
100 1     6.9845     6.9845     3.4922
101 1     8.7306     8.7306     3.4922
102 1     8.7306     6.9845     5.2383
103 1     6.9845     8.7306     5.2383
104 1     6.9845     6.9845     6.9845
105 1     8.7306     8.7306     6.9845
106 1     8.7306     6.9845     8.7306
107 1     6.9845     8.7306     8.7306
