LAMMPS (17 Nov 2016)
Running on 24 partitions of processors
Setting up regular NEB ...
Step MaxReplicaForce MaxAtomForce GradV0 GradV1 GradVc EBF EBR RDT RD1 PE1 RD2 PE2 ... RDN PEN
6    9.5854619    2.9194048  0.045918038  0.064035313    9.5857652    2.4337146    2.0606654    2.1363304            0   -3383.8055  0.043478261   -3383.7454  0.086956522   -3383.5846   0.13043478   -3383.3505   0.17391304   -3383.0674    0.2173913   -3382.7589   0.26086957   -3382.4462   0.30434783   -3382.1482   0.34782609   -3381.8818   0.39130435   -3381.6612   0.43478261   -3381.4979   0.47826087   -3381.4001   0.52173913   -3381.3718   0.56521739   -3381.4136   0.60869565   -3381.5236   0.65217391   -3381.6943   0.69565217   -3381.9156   0.73913043   -3382.1744    0.7826087   -3382.4544   0.82608696   -3382.7372   0.86956522   -3383.0007   0.91304348    -3383.222   0.95652174   -3383.3752            1   -3383.4325 
16    3.7842914    1.3241494  0.032557684  0.030728724    3.7846117    1.4266285    1.0535777    2.1762271            0   -3383.8056   0.04330639   -3383.7794  0.086672061   -3383.7054   0.13011737   -3383.5884   0.17360677   -3383.4377   0.21712003   -3383.2631   0.26064989   -3383.0773   0.30419634    -3382.894   0.34776119   -3382.7252   0.39134499   -3382.5823   0.43494497   -3382.4731   0.47854958    -3382.404   0.52175646   -3382.3789   0.56490894   -3382.3963    0.6085115    -3382.456   0.65210978   -3382.5526   0.69569596   -3382.6786   0.73927149   -3382.8237   0.78283878    -3382.976    0.8263974   -3383.1223   0.86993812   -3383.2501   0.91343695   -3383.3492   0.95685046   -3383.4119            1   -3383.4325 
26   0.35741303  0.046454845  0.017617779  0.013293396   0.36736319   0.92356808   0.55060614    2.3992632            0   -3383.8056  0.042474262   -3383.7948  0.085144236    -3383.763   0.12871194   -3383.7069   0.17299307   -3383.6264   0.21765281   -3383.5236   0.26240185   -3383.4055   0.30703423   -3383.2804   0.35141476   -3383.1578   0.39548743   -3383.0495   0.43924808   -3382.9635   0.48257957   -3382.9066   0.52492338    -3382.882   0.56633602   -3382.8877   0.60976176   -3382.9228   0.65386539   -3382.9825   0.69826952   -3383.0595   0.74282788   -3383.1445   0.78737326   -3383.2275   0.83168058   -3383.3013   0.87547953   -3383.3609   0.91847896   -3383.4024    0.9603118   -3383.4262            1   -3383.4326 
36   0.29590632  0.042939058  0.020609795  0.016274137   0.30757457   0.90594916   0.53304701    2.4355067            0   -3383.8055  0.042952496   -3383.7964  0.085908383   -3383.7669   0.12997636   -3383.7144   0.17446384   -3383.6376   0.21896624   -3383.5385   0.26404044   -3383.4218    0.3090167   -3383.2969   0.35362445   -3383.1749   0.39765617    -3383.067   0.44137174   -3382.9815   0.48469621   -3382.9246   0.52699145   -3382.8996    0.5684211   -3382.9048   0.61165443   -3382.9393   0.65555589   -3382.9974   0.69981206   -3383.0731   0.74437645   -3383.1565   0.78873807   -3383.2367   0.83305163   -3383.3082   0.87652465    -3383.365   0.91939631   -3383.4046   0.96081801   -3383.4268            1   -3383.4326 
46   0.24390744  0.026458377  0.012022981 0.0091480091   0.26112123     0.898798   0.52588318    2.4570452            0   -3383.8055  0.043233008   -3383.7973   0.08658939   -3383.7692   0.13094885   -3383.7188   0.17571103   -3383.6431   0.22048032   -3383.5449   0.26559863   -3383.4287   0.31056524   -3383.3043   0.35511874   -3383.1823   0.39910906   -3383.0742   0.44273609   -3382.9887   0.48591963    -3382.932   0.52817644   -3382.9067   0.56959049    -3382.912    0.6126426    -3382.946   0.65641779    -3383.004   0.70058354   -3383.0791   0.74504041   -3383.1619   0.78937797   -3383.2417    0.8336004   -3383.3121   0.87706339   -3383.3674   0.91980203   -3383.4059   0.96105438   -3383.4273            1   -3383.4326 
56   0.19593732  0.020461533 0.0097843349 0.0074860854   0.21743067   0.88994679   0.51705682    2.4936276            0   -3383.8055   0.04385838   -3383.7984  0.088015144   -3383.7725   0.13295749   -3383.7239   0.17817423   -3383.6496   0.22329496   -3383.5521   0.26844648   -3383.4366   0.31332184   -3383.3129   0.35771059   -3383.1914   0.40153807   -3383.0832   0.44493869   -3382.9975   0.48783904   -3382.9409   0.52994751   -3382.9156   0.57127476   -3382.9208   0.61399761   -3382.9542   0.65749764   -3383.0119   0.70145098   -3383.0869   0.74570733   -3383.1688   0.78996491   -3383.2477   0.83407795   -3383.3167   0.87754593   -3383.3708   0.92016647    -3383.408   0.96125202   -3383.4277            1   -3383.4326 
66   0.13841632  0.014082856 0.0071139042 0.0054621248   0.16748248   0.88131283   0.50847053    2.5491369            0   -3383.8055  0.045139143   -3383.7998  0.090618041   -3383.7758   0.13645177   -3383.7288   0.18224233   -3383.6564   0.22769277   -3383.5596   0.27279378   -3383.4448   0.31741688   -3383.3209   0.36145801   -3383.1998   0.40491576   -3383.0918   0.44787466   -3383.0066   0.49029534     -3382.95   0.53206782   -3382.9242   0.57318581   -3382.9292    0.6153918   -3382.9627   0.65839309     -3383.02   0.70193059   -3383.0943    0.7458336   -3383.1758   0.78988345   -3383.2537   0.83385051    -3383.322   0.87732844   -3383.3744    0.9199375   -3383.4099   0.96105793   -3383.4281            1   -3383.4326 
76   0.11061935  0.010554439 0.0057159473 0.0044315095    0.1451873    0.8782672   0.50542668    2.5807969            0   -3383.8055  0.046008142   -3383.8003  0.092203449   -3383.7772   0.13848218   -3383.7309   0.18451319   -3383.6588   0.23005381   -3383.5623   0.27509066   -3383.4478   0.31953017   -3383.3243    0.3633499   -3383.2034   0.40658987   -3383.0955   0.44929083   -3383.0099    0.4914315   -3382.9532    0.5329824   -3382.9272   0.57396464   -3382.9321   0.61587856   -3382.9658   0.65857191   -3383.0229   0.70184094   -3383.0973   0.74551994   -3383.1782    0.7894105   -3383.2561   0.83327706   -3383.3239   0.87674043   -3383.3762   0.91938552   -3383.4108   0.96066227   -3383.4284            1   -3383.4326 
83  0.098415251 0.0094578031 0.0051223969 0.0039824186   0.13600581   0.87732596   0.50445756    2.5957855            0   -3383.8055  0.046447776   -3383.8005  0.092958392   -3383.7776   0.13943107   -3383.7316   0.18557192   -3383.6596   0.23115317   -3383.5634   0.27615013   -3383.4492   0.32050445   -3383.3255   0.36421431   -3383.2046   0.40732942   -3383.0966   0.44989497   -3383.0111   0.49190161   -3382.9542   0.53334367   -3382.9281   0.57426123   -3382.9334   0.61603941   -3382.9669   0.65858426   -3383.0241   0.70171887   -3383.0983   0.74528388   -3383.1791   0.78909127    -3383.257   0.83290319   -3383.3245   0.87635155   -3383.3768   0.91901713    -3383.411   0.96039665   -3383.4287            1   -3383.4326 
Setting up climbing ...
Climbing replica = 13
Step MaxReplicaForce MaxAtomForce GradV0 GradV1 GradVc EBF EBR RDT RD1 PE1 RD2 PE2 ... RDN PEN
83   0.13600583   0.03795129  0.005122402 0.0039824186   0.13600583   0.87732598   0.50445755    2.5957855            0   -3383.8055  0.046447776   -3383.8005  0.092958392   -3383.7776   0.13943107   -3383.7316   0.18557192   -3383.6596   0.23115317   -3383.5634   0.27615013   -3383.4492   0.32050445   -3383.3255   0.36421431   -3383.2046   0.40732942   -3383.0966   0.44989497   -3383.0111   0.49190161   -3382.9542   0.53334367   -3382.9281   0.57426123   -3382.9334   0.61603941   -3382.9669   0.65858426   -3383.0241   0.70171887   -3383.0983   0.74528388   -3383.1791   0.78909127    -3383.257   0.83290319   -3383.3245   0.87635155   -3383.3768   0.91901713    -3383.411   0.96039665   -3383.4287            1   -3383.4326 
93   0.13025562   0.03566705 0.0049970872 0.0038873215   0.13025562   0.87727177   0.50449983    2.5990167            0   -3383.8054  0.046545107   -3383.8006  0.093121548   -3383.7778    0.1396344   -3383.7318    0.1857978   -3383.6598   0.23138685   -3383.5637   0.27637502   -3383.4495    0.3207108   -3383.3257   0.36439681   -3383.2048   0.40748482   -3383.0968   0.45002109   -3383.0113   0.49200695   -3382.9544   0.53423808   -3382.9282   0.57432661   -3382.9336   0.61606779   -3382.9672   0.65858046   -3383.0243   0.70168564   -3383.0985   0.74522561   -3383.1793   0.78901433   -3383.2571   0.83281379   -3383.3246   0.87625811   -3383.3769    0.9189282   -3383.4111   0.96033222   -3383.4287            1   -3383.4327 
103   0.11316537  0.028893901 0.0045987103 0.0035841926   0.11316537   0.87720154   0.50435919    2.6094971            0   -3383.8055  0.046865865   -3383.8007  0.093650336   -3383.7781   0.14028908   -3383.7322    0.1865222   -3383.6602   0.23213364   -3383.5644   0.27709225   -3383.4503   0.32136714   -3383.3264   0.36497511   -3383.2056   0.40797462   -3383.0974    0.4504194   -3383.0119   0.49244858   -3382.9548   0.53686637   -3382.9283   0.57464234   -3382.9344     0.616153   -3382.9678   0.65855678   -3383.0249   0.70156527    -3383.099   0.74502256     -3383.18   0.78874861   -3383.2577   0.83250546   -3383.3251   0.87593429   -3383.3772   0.91861869   -3383.4113    0.9601068   -3383.4289            1   -3383.4326 
109  0.099142423  0.023532053 0.0042340749 0.0033063396  0.099142423   0.87685717   0.50400648    2.6193198            0   -3383.8054  0.047173503   -3383.8008  0.094145496   -3383.7783   0.14089614   -3383.7324   0.18718993   -3383.6607   0.23281864    -3383.565    0.2777483   -3383.4508   0.32196531   -3383.3271   0.36549942   -3383.2063   0.40841583    -3383.098   0.45078757   -3383.0124   0.49298376   -3382.9551   0.53897883   -3382.9286   0.57506252   -3382.9351   0.61623129   -3382.9684   0.65851925   -3383.0255   0.70143491   -3383.0995   0.74481268   -3383.1805   0.78847703   -3383.2581   0.83219078   -3383.3254   0.87560165   -3383.3774   0.91829891   -3383.4116   0.95987223   -3383.4289            1   -3383.4326 
