LAMMPS (17 Nov 2016)
OMP_NUM_THREADS environment is not set. Defaulting to 1 thread. (../comm.cpp:90)
  using 1 OpenMP thread(s) per MPI task
OMP_NUM_THREADS environment is not set. Defaulting to 1 thread. (../comm.cpp:90)
  using 1 OpenMP thread(s) per MPI task
Reading data file ...
  triclinic box = (0 0 0) to (12.3636 12.3636 12.3636) with tilt (0 0 0)
  2 by 3 by 4 MPI processor grid
  reading atoms ...
  216 atoms
108 atoms in group Mg
108 atoms in group O
Setting atom values ...
  108 settings made for charge
Setting atom values ...
  108 settings made for charge
PPPM initialization ...
WARNING: Using 12-bit tables for long-range coulomb (../kspace.cpp:317)
  G vector (1/distance) = 0.332722
  grid = 16 16 16
  stencil order = 5
  estimated absolute RMS force accuracy = 0.000160965
  estimated relative force accuracy = 1.11784e-05
  using single precision FFTs
  3d grid and FFT values/proc = 1980 192
Neighbor list info ...
  1 neighbor list requests
  update every 1 steps, delay 0 steps, check yes
  max neighbors/atom: 2000, page size: 100000
  master list distance cutoff = 11
  ghost atom cutoff = 11
  binsize = 5.5, bins = 3 3 3
Setting up cg style minimization ...
  Unit style    : metal
Memory usage per processor = 4.33523 Mbytes
Step PotEng Lx Ly Lz Press Pxx Pyy Pzz c_eatoms 
       0   -2783.7647      12.3636      12.3636      12.3636    -169955.5    -169955.5    -169955.5    -169955.5   -2783.7647 
      10   -2789.2283    12.239964    12.239964    12.239964   -139481.01   -139481.01   -139481.01   -139481.01   -2789.2283 
      20   -2793.4377    12.116328    12.116328    12.116328   -104659.83   -104659.83   -104659.83   -104659.83   -2793.4377 
      30   -2796.3355    11.992692    11.992692    11.992692   -65181.237   -65181.237   -65181.237   -65181.237   -2796.3355 
      40   -2797.7599    11.869056    11.869056    11.869056   -20165.069   -20165.069   -20165.069   -20165.069   -2797.7599 
      48   -2797.8963    11.818299    11.818299    11.818299    0.6220734    0.6220734    0.6220734    0.6220734   -2797.8963 
Loop time of 0.0730277 on 24 procs for 48 steps with 216 atoms

98.5% CPU use with 24 MPI tasks x 1 OpenMP threads

Minimization stats:
  Stopping criterion = linesearch alpha is zero
  Energy initial, next-to-last, final = 
        -2783.76471114     -2797.89632583     -2797.89632583
  Force two-norm initial, final = 601.424 0.00201144
  Force max component initial, final = 601.424 0.00201144
  Final line search alpha, max atom move = 0.00194201 3.90625e-06
  Iterations, force evaluations = 48 69

MPI task timing breakdown:
Section |  min time  |  avg time  |  max time  |%varavg| %total
---------------------------------------------------------------
Pair    | 0.014685   | 0.020291   | 0.026747   |   2.1 | 27.79
Kspace  | 0.017243   | 0.023764   | 0.029541   |   1.9 | 32.54
Neigh   | 0.00018597 | 0.00025362 | 0.00033283 |   0.3 |  0.35
Comm    | 0.0082362  | 0.0085127  | 0.0088027  |   0.2 | 11.66
Output  | 0.00048923 | 0.00049269 | 0.00051904 |   0.0 |  0.67
Modify  | 0          | 0          | 0          |   0.0 |  0.00
Other   |            | 0.01971    |            |       | 26.99

Nlocal:    9 ave 13 max 6 min
Histogram: 3 1 7 0 5 3 0 1 3 1
Nghost:    2175 ave 2178 max 2171 min
Histogram: 1 3 1 0 3 5 0 7 1 3
Neighs:    3105 ave 4473 max 2105 min
Histogram: 4 0 6 4 2 2 2 0 0 4

Total # of neighbors = 74520
Ave neighs/atom = 345
Neighbor list builds = 1
Dangerous builds = 0
pyPosMat output section
tot_energy = -2797.89632582873
num_atoms = 216
latt_const_a = 11.8182994959243
latt_const_b = 11.8182994959243
latt_const_c = 11.8182994959243
ecoh = -12.9532237306887
OMP_NUM_THREADS environment is not set. Defaulting to 1 thread. (../comm.cpp:90)
  using 1 OpenMP thread(s) per MPI task
Reading data file ...
  triclinic box = (0 0 0) to (12.3636 12.3636 12.3636) with tilt (0 0 0)
  2 by 3 by 4 MPI processor grid
  reading atoms ...
  216 atoms
Changing box ...
  triclinic box = (0 0 0) to (12.3636 12.3636 12.3636) with tilt (0 0 0)
  triclinic box = (0 0 0) to (12.3636 12.3636 12.3636) with tilt (0 0 0)
  triclinic box = (0 0 0) to (12.3636 12.3636 12.3636) with tilt (0 0 0)
108 atoms in group Mg
108 atoms in group O
Setting atom values ...
  108 settings made for charge
Setting atom values ...
  108 settings made for charge
PPPM initialization ...
WARNING: Using 12-bit tables for long-range coulomb (../kspace.cpp:317)
  G vector (1/distance) = 0.332722
  grid = 16 16 16
  stencil order = 5
  estimated absolute RMS force accuracy = 0.000160965
  estimated relative force accuracy = 1.11784e-05
  using single precision FFTs
  3d grid and FFT values/proc = 1980 192
Neighbor list info ...
  1 neighbor list requests
  update every 1 steps, delay 0 steps, check yes
  max neighbors/atom: 2000, page size: 100000
  master list distance cutoff = 11
  ghost atom cutoff = 11
  binsize = 5.5, bins = 3 3 3
Setting up cg style minimization ...
  Unit style    : metal
Memory usage per processor = 4.33491 Mbytes
Step PotEng Lx Ly Lz Press Pxx Pyy Pzz c_eatoms 
       0   -2769.0368      12.3636      12.3636      12.3636   -179498.79   -179498.79   -179498.79   -179498.79   -2769.0368 
      10    -30987.31      12.3636      12.3636      12.3636    -45378938    -45379086    -45378726    -45379001    -30987.31 
      20 -1.4715349e+58      12.3636      12.3636      12.3636 -2.4950278e+61 -3.2763617e+61 -5.2300767e+59 -4.1564209e+61 -1.4715349e+58 
      28 -1.2641678e+90      12.3636      12.3636      12.3636 7.4915998e+39 2.2474874e+40 -5.6817938e+34 -1.7207204e+34 -1.2641678e+90 
Loop time of 0.506873 on 24 procs for 28 steps with 216 atoms

98.2% CPU use with 24 MPI tasks x 1 OpenMP threads

Minimization stats:
  Stopping criterion = energy tolerance
  Energy initial, next-to-last, final = 
        -2769.03683584  -1.2641678409e+90  -1.2641678409e+90
  Force two-norm initial, final = 29.8841 6.03866e+105
  Force max component initial, final = 6.10887 4.26998e+105
  Final line search alpha, max atom move = 1.66404e-121 7.10543e-16
  Iterations, force evaluations = 28 444

MPI task timing breakdown:
Section |  min time  |  avg time  |  max time  |%varavg| %total
---------------------------------------------------------------
Pair    | 0.10556    | 0.1617     | 0.28575    |  11.2 | 31.90
Kspace  | 0.12867    | 0.25717    | 0.3138     |   9.0 | 50.74
Neigh   | 0.00055408 | 0.00075815 | 0.0012333  |   0.6 |  0.15
Comm    | 0.064914   | 0.067866   | 0.073187   |   0.8 | 13.39
Output  | 0.00023317 | 0.00023631 | 0.00025225 |   0.0 |  0.05
Modify  | 0          | 0          | 0          |   0.0 |  0.00
Other   |            | 0.01914    |            |       |  3.78

Nlocal:    9 ave 15 max 6 min
Histogram: 3 5 5 3 2 2 2 0 0 2
Nghost:    2172.33 ave 2182 max 2161 min
Histogram: 2 0 0 7 3 2 1 4 3 2
Neighs:    2829.29 ave 5007 max 1840 min
Histogram: 6 3 6 1 4 0 2 0 1 1

Total # of neighbors = 67903
Ave neighs/atom = 314.366
Neighbor list builds = 3
Dangerous builds = 0
pyPosMat output section
tot_energy = -1.26416784090219e+90
num_atoms = 216
latt_const_a = 12.3636
latt_const_b = 12.3636
latt_const_c = 12.3636
ecoh = -5.85262889306572e+87
lammps_sim_done
System init for write_data ...
PPPM initialization ...
WARNING: Using 12-bit tables for long-range coulomb (../kspace.cpp:317)
  G vector (1/distance) = 0.332722
  grid = 16 16 16
  stencil order = 5
  estimated absolute RMS force accuracy = 0.000160965
  estimated relative force accuracy = 1.11784e-05
  using single precision FFTs
  3d grid and FFT values/proc = 1980 192
OMP_NUM_THREADS environment is not set. Defaulting to 1 thread. (../comm.cpp:90)
  using 1 OpenMP thread(s) per MPI task
Reading data file ...
  triclinic box = (0 0 0) to (12.3636 12.3636 12.3636) with tilt (0 0 0)
  2 by 3 by 4 MPI processor grid
  reading atoms ...
  216 atoms
Changing box ...
  triclinic box = (0 0 0) to (12.3636 12.3636 12.3636) with tilt (0 0 0)
  triclinic box = (0 0 0) to (12.3636 12.3636 12.3636) with tilt (0 0 0)
  triclinic box = (0 0 0) to (12.3636 12.3636 12.3636) with tilt (0 0 0)
108 atoms in group Mg
108 atoms in group O
Setting atom values ...
  108 settings made for charge
Setting atom values ...
  108 settings made for charge
PPPM initialization ...
WARNING: Using 12-bit tables for long-range coulomb (../kspace.cpp:317)
  G vector (1/distance) = 0.332722
  grid = 16 16 16
  stencil order = 5
  estimated absolute RMS force accuracy = 0.000160965
  estimated relative force accuracy = 1.11784e-05
  using single precision FFTs
  3d grid and FFT values/proc = 1980 192
Neighbor list info ...
  1 neighbor list requests
  update every 1 steps, delay 0 steps, check yes
  max neighbors/atom: 2000, page size: 100000
  master list distance cutoff = 11
  ghost atom cutoff = 11
  binsize = 5.5, bins = 3 3 3
Setting up cg style minimization ...
  Unit style    : metal
Memory usage per processor = 4.33491 Mbytes
Step PotEng Lx Ly Lz Press Pxx Pyy Pzz c_eatoms 
       0   -2767.4955      12.3636      12.3636      12.3636   -179065.38   -179065.38   -179065.38   -179065.38   -2767.4955 
      10   -33356.197      12.3636      12.3636      12.3636    -49605944    -49605729    -49605752    -49606351   -33356.197 
      20 -9.6124879e+34      12.3636      12.3636      12.3636 -1.6298263e+38 -2.3898771e+38 -2.4983978e+38 -1.2040253e+35 -9.6124879e+34 
      30 -1.9613975e+80      12.3636      12.3636      12.3636 -3.3506812e+83 -4.9003713e+83 -5.1516724e+83 -5.4368558e+28 -1.9613975e+80 
      34 -1.9752623e+88      12.3636      12.3636      12.3636 -3.5977666e+91 -1.2997646e+28 -1.07933e+92 -5.4368558e+28 -1.9752623e+88 
Loop time of 0.445357 on 24 procs for 34 steps with 216 atoms

98.4% CPU use with 24 MPI tasks x 1 OpenMP threads

Minimization stats:
  Stopping criterion = quadratic factors are zero
  Energy initial, next-to-last, final = 
        -2767.49549876 -1.01133427272e+88 -1.97526225141e+88
  Force two-norm initial, final = 32.2341 4.71771e+103
  Force max component initial, final = 5.93844 3.33592e+103
  Final line search alpha, max atom move = 2.60007e-119 8.67362e-16
  Iterations, force evaluations = 34 518

MPI task timing breakdown:
Section |  min time  |  avg time  |  max time  |%varavg| %total
---------------------------------------------------------------
Pair    | 0.085299   | 0.14106    | 0.25225    |   8.7 | 31.67
Kspace  | 0.11353    | 0.22603    | 0.28165    |   6.9 | 50.75
Neigh   | 0.00064301 | 0.00075092 | 0.001219   |   0.5 |  0.17
Comm    | 0.058339   | 0.059678   | 0.061202   |   0.3 | 13.40
Output  | 0.00035596 | 0.00036068 | 0.00038815 |   0.0 |  0.08
Modify  | 0          | 0          | 0          |   0.0 |  0.00
Other   |            | 0.01748    |            |       |  3.92

Nlocal:    9 ave 17 max 5 min
Histogram: 2 4 3 8 3 3 0 0 0 1
Nghost:    2171.79 ave 2181 max 2165 min
Histogram: 2 5 0 7 0 5 1 1 2 1
Neighs:    2832.42 ave 5437 max 1673 min
Histogram: 2 5 6 5 4 1 0 0 0 1

Total # of neighbors = 67978
Ave neighs/atom = 314.713
Neighbor list builds = 3
Dangerous builds = 0
pyPosMat output section
tot_energy = -1.97526225140968e+88
num_atoms = 216
latt_const_a = 12.3636
latt_const_b = 12.3636
latt_const_c = 12.3636
ecoh = -9.14473264541518e+85
System init for write_data ...
PPPM initialization ...
WARNING: Using 12-bit tables for long-range coulomb (../kspace.cpp:317)
  G vector (1/distance) = 0.332722
  grid = 16 16 16
  stencil order = 5
  estimated absolute RMS force accuracy = 0.000160965
  estimated relative force accuracy = 1.11784e-05
  using single precision FFTs
  3d grid and FFT values/proc = 1980 192
Total wall time: 0:00:01
