LAMMPS (17 Nov 2016)
OMP_NUM_THREADS environment is not set. Defaulting to 1 thread. (../comm.cpp:90)
  using 1 OpenMP thread(s) per MPI task
OMP_NUM_THREADS environment is not set. Defaulting to 1 thread. (../comm.cpp:90)
  using 1 OpenMP thread(s) per MPI task
Reading data file ...
  triclinic box = (0 0 0) to (12.3636 12.3636 12.3636) with tilt (0 0 0)
  2 by 3 by 4 MPI processor grid
  reading atoms ...
  216 atoms
108 atoms in group Mg
108 atoms in group O
Setting atom values ...
  108 settings made for charge
Setting atom values ...
  108 settings made for charge
PPPM initialization ...
WARNING: Using 12-bit tables for long-range coulomb (../kspace.cpp:317)
  G vector (1/distance) = 0.340062
  grid = 18 18 18
  stencil order = 5
  estimated absolute RMS force accuracy = 0.000116741
  estimated relative force accuracy = 8.10722e-06
  using single precision FFTs
  3d grid and FFT values/proc = 2288 270
Neighbor list info ...
  1 neighbor list requests
  update every 1 steps, delay 0 steps, check yes
  max neighbors/atom: 2000, page size: 100000
  master list distance cutoff = 11
  ghost atom cutoff = 11
  binsize = 5.5, bins = 3 3 3
Setting up cg style minimization ...
  Unit style    : metal
Memory usage per processor = 4.35745 Mbytes
Step PotEng Lx Ly Lz Press Pxx Pyy Pzz c_eatoms 
       0    -3324.417      12.3636      12.3636      12.3636   -117330.91   -117330.91   -117330.91   -117330.91    -3324.417 
      10   -3327.6899    12.239964    12.239964    12.239964   -68683.488   -68683.488   -68683.488   -68683.488   -3327.6899 
      20   -3329.1225    12.116328    12.116328    12.116328   -13150.024   -13150.024   -13150.024   -13150.024   -3329.1225 
      26   -3329.1698    12.089302    12.089302    12.089302 -0.020650602 -0.020650602 -0.020650602 -0.020650603   -3329.1698 
Loop time of 0.0817507 on 24 procs for 26 steps with 216 atoms

98.5% CPU use with 24 MPI tasks x 1 OpenMP threads

Minimization stats:
  Stopping criterion = linesearch alpha is zero
  Energy initial, next-to-last, final = 
        -3324.41703852     -3329.16980959     -3329.16980959
  Force two-norm initial, final = 415.201 6.987e-05
  Force max component initial, final = 415.201 6.987e-05
  Final line search alpha, max atom move = 0.5 3.4935e-05
  Iterations, force evaluations = 26 35

MPI task timing breakdown:
Section |  min time  |  avg time  |  max time  |%varavg| %total
---------------------------------------------------------------
Pair    | 0.014357   | 0.020374   | 0.02755    |   3.9 | 24.92
Kspace  | 0.019741   | 0.026916   | 0.033112   |   3.5 | 32.92
Neigh   | 0          | 0          | 0          |   0.0 |  0.00
Comm    | 0.0080516  | 0.0083614  | 0.0087626  |   0.2 | 10.23
Output  | 0.00043297 | 0.00043575 | 0.0004642  |   0.0 |  0.53
Modify  | 0          | 0          | 0          |   0.0 |  0.00
Other   |            | 0.02566    |            |       | 31.39

Nlocal:    9 ave 12 max 6 min
Histogram: 12 0 0 0 0 0 0 0 0 12
Nghost:    2175 ave 2178 max 2172 min
Histogram: 12 0 0 0 0 0 0 0 0 12
Neighs:    2781 ave 3708 max 1854 min
Histogram: 12 0 0 0 0 0 0 0 0 12

Total # of neighbors = 66744
Ave neighs/atom = 309
Neighbor list builds = 0
Dangerous builds = 0
pyPosMat output section
tot_energy = -3329.16980959415
num_atoms = 216
latt_const_a = 12.0893020795378
latt_const_b = 12.0893020795378
latt_const_c = 12.0893020795378
ecoh = -15.4128231925661
OMP_NUM_THREADS environment is not set. Defaulting to 1 thread. (../comm.cpp:90)
  using 1 OpenMP thread(s) per MPI task
Reading data file ...
  triclinic box = (0 0 0) to (12.3636 12.3636 12.3636) with tilt (0 0 0)
  2 by 3 by 4 MPI processor grid
  reading atoms ...
  216 atoms
Changing box ...
  triclinic box = (0 0 0) to (12.3636 12.3636 12.3636) with tilt (0 0 0)
  triclinic box = (0 0 0) to (12.3636 12.3636 12.3636) with tilt (0 0 0)
  triclinic box = (0 0 0) to (12.3636 12.3636 12.3636) with tilt (0 0 0)
108 atoms in group Mg
108 atoms in group O
Setting atom values ...
  108 settings made for charge
Setting atom values ...
  108 settings made for charge
PPPM initialization ...
WARNING: Using 12-bit tables for long-range coulomb (../kspace.cpp:317)
  G vector (1/distance) = 0.340062
  grid = 18 18 18
  stencil order = 5
  estimated absolute RMS force accuracy = 0.000116741
  estimated relative force accuracy = 8.10722e-06
  using single precision FFTs
  3d grid and FFT values/proc = 2288 270
Neighbor list info ...
  1 neighbor list requests
  update every 1 steps, delay 0 steps, check yes
  max neighbors/atom: 2000, page size: 100000
  master list distance cutoff = 11
  ghost atom cutoff = 11
  binsize = 5.5, bins = 3 3 3
Setting up cg style minimization ...
  Unit style    : metal
Memory usage per processor = 4.35713 Mbytes
Step PotEng Lx Ly Lz Press Pxx Pyy Pzz c_eatoms 
       0   -3295.4999      12.3636      12.3636      12.3636   -106254.69   -106254.69   -106254.69   -106254.69   -3295.4998 
      10   -3317.3379      12.3636      12.3636      12.3636   -97602.354   -97602.363   -97602.358   -97602.343   -3317.3379 
      16   -3317.3418      12.3636      12.3636      12.3636   -97540.954   -97540.945   -97540.963   -97540.955   -3317.3418 
Loop time of 0.105572 on 24 procs for 16 steps with 216 atoms

99.0% CPU use with 24 MPI tasks x 1 OpenMP threads

Minimization stats:
  Stopping criterion = linesearch alpha is zero
  Energy initial, next-to-last, final = 
        -3295.49985032     -3317.34180242     -3317.34180242
  Force two-norm initial, final = 43.9653 0.048834
  Force max component initial, final = 7.6618 0.00741255
  Final line search alpha, max atom move = 3.8147e-06 2.82766e-08
  Iterations, force evaluations = 16 66

MPI task timing breakdown:
Section |  min time  |  avg time  |  max time  |%varavg| %total
---------------------------------------------------------------
Pair    | 0.028969   | 0.03787    | 0.04816    |   2.8 | 35.87
Kspace  | 0.035871   | 0.045901   | 0.055276   |   2.6 | 43.48
Neigh   | 0.00043797 | 0.00053973 | 0.00065899 |   0.3 |  0.51
Comm    | 0.015654   | 0.01617    | 0.01737    |   0.3 | 15.32
Output  | 0.00029802 | 0.00029956 | 0.00031304 |   0.0 |  0.28
Modify  | 0          | 0          | 0          |   0.0 |  0.00
Other   |            | 0.004792   |            |       |  4.54

Nlocal:    9 ave 12 max 6 min
Histogram: 1 2 0 8 0 4 4 0 4 1
Nghost:    2179.83 ave 2195 max 2168 min
Histogram: 2 2 4 2 5 3 3 1 1 1
Neighs:    2797.92 ave 3596 max 1980 min
Histogram: 2 1 4 4 2 2 2 2 2 3

Total # of neighbors = 67150
Ave neighs/atom = 310.88
Neighbor list builds = 1
Dangerous builds = 0
pyPosMat output section
tot_energy = -3317.34180273306
num_atoms = 216
latt_const_a = 12.3636
latt_const_b = 12.3636
latt_const_c = 12.3636
ecoh = -15.3580639000723
lammps_sim_done
System init for write_data ...
PPPM initialization ...
WARNING: Using 12-bit tables for long-range coulomb (../kspace.cpp:317)
  G vector (1/distance) = 0.340062
  grid = 18 18 18
  stencil order = 5
  estimated absolute RMS force accuracy = 0.000116741
  estimated relative force accuracy = 8.10722e-06
  using single precision FFTs
  3d grid and FFT values/proc = 2288 270
OMP_NUM_THREADS environment is not set. Defaulting to 1 thread. (../comm.cpp:90)
  using 1 OpenMP thread(s) per MPI task
Reading data file ...
  triclinic box = (0 0 0) to (12.3636 12.3636 12.3636) with tilt (0 0 0)
  2 by 3 by 4 MPI processor grid
  reading atoms ...
  216 atoms
Changing box ...
  triclinic box = (0 0 0) to (12.3636 12.3636 12.3636) with tilt (0 0 0)
  triclinic box = (0 0 0) to (12.3636 12.3636 12.3636) with tilt (0 0 0)
  triclinic box = (0 0 0) to (12.3636 12.3636 12.3636) with tilt (0 0 0)
108 atoms in group Mg
108 atoms in group O
Setting atom values ...
  108 settings made for charge
Setting atom values ...
  108 settings made for charge
PPPM initialization ...
WARNING: Using 12-bit tables for long-range coulomb (../kspace.cpp:317)
  G vector (1/distance) = 0.340062
  grid = 18 18 18
  stencil order = 5
  estimated absolute RMS force accuracy = 0.000116741
  estimated relative force accuracy = 8.10722e-06
  using single precision FFTs
  3d grid and FFT values/proc = 2288 270
Neighbor list info ...
  1 neighbor list requests
  update every 1 steps, delay 0 steps, check yes
  max neighbors/atom: 2000, page size: 100000
  master list distance cutoff = 11
  ghost atom cutoff = 11
  binsize = 5.5, bins = 3 3 3
Setting up cg style minimization ...
  Unit style    : metal
Memory usage per processor = 4.35713 Mbytes
Step PotEng Lx Ly Lz Press Pxx Pyy Pzz c_eatoms 
       0   -3293.6386      12.3636      12.3636      12.3636   -105729.07   -105729.07   -105729.08   -105729.07   -3293.6386 
      10   -3317.2101      12.3636      12.3636      12.3636   -97421.331    -97421.34   -97421.333    -97421.32   -3317.2101 
      14   -3317.2126      12.3636      12.3636      12.3636   -97404.888   -97404.879     -97404.9   -97404.884   -3317.2126 
Loop time of 0.106082 on 24 procs for 14 steps with 216 atoms

98.6% CPU use with 24 MPI tasks x 1 OpenMP threads

Minimization stats:
  Stopping criterion = linesearch alpha is zero
  Energy initial, next-to-last, final = 
        -3293.63862514     -3317.21260468     -3317.21260468
  Force two-norm initial, final = 46.5356 0.0624975
  Force max component initial, final = 7.36176 0.00805096
  Final line search alpha, max atom move = 1.90735e-06 1.5356e-08
  Iterations, force evaluations = 14 64

MPI task timing breakdown:
Section |  min time  |  avg time  |  max time  |%varavg| %total
---------------------------------------------------------------
Pair    | 0.025835   | 0.037028   | 0.050079   |   3.1 | 34.91
Kspace  | 0.035195   | 0.048153   | 0.05964    |   2.7 | 45.39
Neigh   | 0.00040102 | 0.00052635 | 0.00067687 |   0.3 |  0.50
Comm    | 0.015342   | 0.0156     | 0.016048   |   0.2 | 14.71
Output  | 0.00023794 | 0.00024006 | 0.0002532  |   0.0 |  0.23
Modify  | 0          | 0          | 0          |   0.0 |  0.00
Other   |            | 0.004534   |            |       |  4.27

Nlocal:    9 ave 13 max 6 min
Histogram: 1 5 4 0 4 6 0 2 1 1
Nghost:    2173.67 ave 2178 max 2167 min
Histogram: 1 1 2 2 3 1 4 2 2 6
Neighs:    2797.79 ave 3958 max 1788 min
Histogram: 1 1 4 4 3 3 5 2 0 1

Total # of neighbors = 67147
Ave neighs/atom = 310.866
Neighbor list builds = 1
Dangerous builds = 0
pyPosMat output section
tot_energy = -3317.21260497394
num_atoms = 216
latt_const_a = 12.3636
latt_const_b = 12.3636
latt_const_c = 12.3636
ecoh = -15.3574657624031
System init for write_data ...
PPPM initialization ...
WARNING: Using 12-bit tables for long-range coulomb (../kspace.cpp:317)
  G vector (1/distance) = 0.340062
  grid = 18 18 18
  stencil order = 5
  estimated absolute RMS force accuracy = 0.000116741
  estimated relative force accuracy = 8.10722e-06
  using single precision FFTs
  3d grid and FFT values/proc = 2288 270
Total wall time: 0:00:00
