LAMMPS (11 Aug 2017)
Reading data file ...
  triclinic box = (0 0 0) to (3.1031 2.2213 22.2135) with tilt (0 0 0)
  1 by 1 by 1 MPI processor grid
  reading atoms ...
  10 atoms
10 atoms in group Ni
Neighbor list info ...
  update every 1 steps, delay 0 steps, check yes
  max neighbors/atom: 2000, page size: 100000
  master list distance cutoff = 5.64464
  ghost atom cutoff = 5.64464
  binsize = 2.82232, bins = 2 1 8
  1 neighbor lists, perpetual/occasional/extra = 1 0 0
  (1) pair eam/alloy, perpetual
      attributes: half, newton on
      pair build: half/bin/newton/tri
      stencil: half/bin/3d/newton/tri
      bin: standard
Setting up cg style minimization ...
  Unit style    : metal
  Current step  : 0
Per MPI rank memory allocation (min/avg/max) = 4.224 | 4.224 | 4.224 Mbytes
Step PotEng Lx Ly Lz Xy Xz Yz Press Pxx Pyy Pzz Pxy Pxz Pyz c_eatoms 
       0   -35.102822       3.1031       2.2213      22.2135            0            0            0   -33361.715   -37849.334   -35529.694   -26706.116 0.0031078231   -2.6037519   -1.2333403   -35.102822 
       1   -35.116064       3.1031       2.2213      22.2135            0            0            0   -27552.333   -31952.275   -32135.888   -18568.837 0.0016818713     1.563584  -0.26910832   -35.116064 
       2   -35.122969       3.1031       2.2213      22.2135            0            0            0   -23842.902   -28498.092   -30216.188   -12814.427 -0.001070565   -9.5623735 -0.098041727   -35.122969 
       3   -35.130697       3.1031       2.2213      22.2135            0            0            0   -18141.517   -23532.349   -27463.141   -3429.0619 -0.0080055072    12.566699  -0.15773743   -35.130697 
       4   -35.131195       3.1031       2.2213      22.2135            0            0            0   -17567.482   -23119.469   -27243.693   -2339.2843 0.00019220439   -12.965528 -0.064172559   -35.131195 
       5   -35.131326       3.1031       2.2213      22.2135            0            0            0   -16922.494   -22618.868   -26970.428   -1178.1861 0.0067890569    16.215912 -0.084859646   -35.131326 
       6    -35.13139       3.1031       2.2213      22.2135            0            0            0   -16385.392   -22149.521   -26708.999   -297.65495 -0.00083425165   -1.9231836  -0.14762603    -35.13139 
       7   -35.131408       3.1031       2.2213      22.2135            0            0            0    -16225.11   -21974.888   -26608.946   -91.496738 6.9315509e-06   -2.3536737  -0.16853066   -35.131408 
       8   -35.131409       3.1031       2.2213      22.2135            0            0            0   -16196.357    -21943.72   -26590.881   -54.468936 -9.527178e-06   0.53983856  -0.15286159   -35.131409 
       9   -35.131409       3.1031       2.2213      22.2135            0            0            0   -16187.441   -21935.149   -26585.976    -41.19784 8.8749598e-07   -0.2537009  -0.14004013   -35.131409 
      10   -35.131409       3.1031       2.2213      22.2135            0            0            0   -16179.883   -21928.996   -26582.574   -28.080025 -5.2056962e-07  -0.36825174   -0.1195389   -35.131409 
      11   -35.131409       3.1031       2.2213      22.2135            0            0            0   -16168.376   -21919.214   -26577.153   -8.7597855 3.1695419e-06   0.34427842 -0.095714731   -35.131409 
      12   -35.131409       3.1031       2.2213      22.2135            0            0            0   -16163.626    -21915.03    -26574.83   -1.0181226 3.2507591e-07  0.028861403 -0.091239943   -35.131409 
      13   -35.131409       3.1031       2.2213      22.2135            0            0            0   -16163.565   -21914.962   -26574.795  -0.93695059 2.3489692e-07 -0.056595786  -0.09540454   -35.131409 
      14   -35.131409       3.1031       2.2213      22.2135            0            0            0   -16163.486   -21914.891   -26574.755  -0.81342503 2.373276e-07 -0.049139866 -0.098281968   -35.131409 
      15   -35.131409       3.1031       2.2213      22.2135            0            0            0   -16163.257   -21914.683   -26574.637  -0.45099484 2.0179567e-07 -0.077264324  -0.10437335   -35.131409 
      16   -35.131409       3.1031       2.2213      22.2135            0            0            0   -16163.157   -21914.594   -26574.588   -0.2880542 1.7541051e-07  -0.10093971  -0.10420757   -35.131409 
      17   -35.131409       3.1031       2.2213      22.2135            0            0            0   -16163.088    -21914.54   -26574.559  -0.16468206 1.5018941e-07 -0.084659678  -0.10002706   -35.131409 
      18   -35.131409       3.1031       2.2213      22.2135            0            0            0   -16163.024   -21914.491   -26574.532 -0.048266428 1.2633796e-07 -0.066030747 -0.094334383   -35.131409 
      19   -35.131409       3.1031       2.2213      22.2135            0            0            0   -16162.988   -21914.458   -26574.514 0.0087353585 1.0693386e-07 -0.056240696 -0.089824428   -35.131409 
      20   -35.131409       3.1031       2.2213      22.2135            0            0            0   -16162.975   -21914.444   -26574.506  0.025274734 9.6796207e-08  -0.04579607 -0.087162596   -35.131409 
      21   -35.131409       3.1031       2.2213      22.2135            0            0            0   -16162.967   -21914.435     -26574.5   0.03371765 7.5309076e-08 -0.032639049 -0.081956146   -35.131409 
      22   -35.131409       3.1031       2.2213      22.2135            0            0            0    -16162.97   -21914.439   -26574.503  0.032255478 -3.198354e-10 0.0061525503 -0.058349348   -35.131409 
      23   -35.131409       3.1031       2.2213      22.2135            0            0            0   -16162.972   -21914.443   -26574.506   0.03351739 -2.5589737e-08  0.035157957 -0.042951518   -35.131409 
      24   -35.131409       3.1031       2.2213      22.2135            0            0            0   -16162.971   -21914.442   -26574.505   0.03543639 -3.0970813e-08  0.047225859 -0.031635541   -35.131409 
      25   -35.131409       3.1031       2.2213      22.2135            0            0            0   -16162.974   -21914.444   -26574.506  0.027331377 -2.8794262e-08  0.045361957 -0.025890137   -35.131409 
      26   -35.131409       3.1031       2.2213      22.2135            0            0            0    -16162.98   -21914.449   -26574.508  0.016997178 -2.5459987e-08  0.044974156 -0.023635773   -35.131409 
      27   -35.131409       3.1031       2.2213      22.2135            0            0            0    -16162.99   -21914.457   -26574.513 0.0013558746 -1.9149392e-08  0.039830546 -0.019736039   -35.131409 
      28   -35.131409       3.1031       2.2213      22.2135            0            0            0   -16163.011   -21914.476   -26574.523 -0.033978844 -4.0135168e-09  0.019829649 -0.0080933315   -35.131409 
      29   -35.131409       3.1031       2.2213      22.2135            0            0            0   -16163.013   -21914.478   -26574.524 -0.037595599 -2.4102012e-09  0.017242888 -0.0058505742   -35.131409 
      30   -35.131409       3.1031       2.2213      22.2135            0            0            0    -16163.01   -21914.475   -26574.523 -0.032057788 -2.2844453e-09  0.016014474 -0.0057914521   -35.131409 
      31   -35.131409       3.1031       2.2213      22.2135            0            0            0   -16162.992   -21914.459   -26574.514 -0.0027392826 -1.5046422e-09  0.011772314 -0.0054751753   -35.131409 
      32   -35.131409       3.1031       2.2213      22.2135            0            0            0   -16162.988   -21914.456   -26574.512 0.0040139208 -1.2164636e-09 0.0098235847 -0.005354872   -35.131409 
Loop time of 0.0265391 on 1 procs for 32 steps with 10 atoms

8.1% CPU use with 1 MPI tasks x no OpenMP threads

Minimization stats:
  Stopping criterion = energy tolerance
  Energy initial, next-to-last, final = 
        -35.1028221845     -35.1314092784     -35.1314092784
  Force two-norm initial, final = 0.386509 2.28859e-07
  Force max component initial, final = 0.264255 9.46028e-08
  Final line search alpha, max atom move = 1 9.46028e-08
  Iterations, force evaluations = 32 64

MPI task timing breakdown:
Section |  min time  |  avg time  |  max time  |%varavg| %total
---------------------------------------------------------------
Pair    | 0.0015078  | 0.0015078  | 0.0015078  |   0.0 |  5.68
Neigh   | 0          | 0          | 0          |   0.0 |  0.00
Comm    | 0.00016284 | 0.00016284 | 0.00016284 |   0.0 |  0.61
Output  | 0.00032973 | 0.00032973 | 0.00032973 |   0.0 |  1.24
Modify  | 0          | 0          | 0          |   0.0 |  0.00
Other   |            | 0.02454    |            |       | 92.46

Nlocal:    10 ave 10 max 10 min
Histogram: 1 0 0 0 0 0 0 0 0 0
Nghost:    462 ave 462 max 462 min
Histogram: 1 0 0 0 0 0 0 0 0 0
Neighs:    352 ave 352 max 352 min
Histogram: 1 0 0 0 0 0 0 0 0 0

Total # of neighbors = 352
Ave neighs/atom = 35.2
Neighbor list builds = 0
Dangerous builds = 0
pypospack:output_section:begin
tot_energy = -35.1314092783849
num_atoms = 10
a11 = 3.1031
a22 = 2.2213
a33 = 22.2135
a12 = 0
a13 = 0
a23 = 0
tot_press = -16162.9879125213
pxx = -21914.4556696566
pyy = -26574.512081828
pzz = 0.00401392076772568
pxy = -1.21646364879313e-09
pxz = 0.0098235846914328
pyz = -0.00535487195909493
pypospack:output_section:done
pypospack:lammps_sim:done
Total wall time: 0:00:00
