# ['Ni']

28 atoms
1 atom types

    0.0000     2.3572 xlo xhi
    0.0000     4.0827 ylo yhi
    0.0000    26.9447 zlo zhi

    0.0000     0.0000     0.0000 xy xz yz

Atoms

1 1     0.0000     0.0000     0.0000
2 1     1.1786     2.0414     0.0000
3 1     1.1786     0.6805     1.9246
4 1     0.0000     2.7218     1.9246
5 1     0.0000     1.3609     3.8492
6 1     1.1786     3.4023     3.8492
7 1     0.0000     0.0000     5.7739
8 1     1.1786     2.0414     5.7739
9 1     1.1786     0.6805     7.6985
10 1     0.0000     2.7218     7.6985
11 1     0.0000     1.3609     9.6231
12 1     1.1786     3.4023     9.6231
13 1     0.0000     0.0000    11.5477
14 1     1.1786     2.0414    11.5477
15 1     0.0000     1.3609    13.4723
16 1     1.1786     3.4023    13.4723
17 1     0.0000     0.0000    15.3970
18 1     1.1786     2.0414    15.3970
19 1     1.1786     0.6805    17.3216
20 1     0.0000     2.7218    17.3216
21 1     0.0000     1.3609    19.2462
22 1     1.1786     3.4023    19.2462
23 1     0.0000     0.0000    21.1708
24 1     1.1786     2.0414    21.1708
25 1     1.1786     0.6805    23.0954
26 1     0.0000     2.7218    23.0954
27 1     0.0000     1.3609    25.0200
28 1     1.1786     3.4023    25.0200
