# ['Al']

20 atoms
1 atom types

    0.0000     3.7819 xlo xhi
    0.0000     3.7819 ylo yhi
    0.0000    37.8185 zlo zhi

    0.0000    -0.0000     0.0000 xy xz yz

Atoms

1 1     0.0000     0.0000     0.0000
2 1     1.8909     1.8909     0.0000
3 1     1.8909     0.0000     1.8909
4 1     0.0000     1.8909     1.8909
5 1     0.0000     0.0000     3.7819
6 1     1.8909     1.8909     3.7819
7 1     1.8909     0.0000     5.6728
8 1     0.0000     1.8909     5.6728
9 1     0.0000     0.0000     7.5637
10 1     1.8909     1.8909     7.5637
11 1     1.8909     0.0000     9.4546
12 1     0.0000     1.8909     9.4546
13 1     0.0000     0.0000    11.3456
14 1     1.8909     1.8909    11.3456
15 1     1.8909     0.0000    13.2365
16 1     0.0000     1.8909    13.2365
17 1     0.0000     0.0000    15.1274
18 1     1.8909     1.8909    15.1274
19 1     1.8909     0.0000    17.0183
20 1     0.0000     1.8909    17.0183
