# ['Ni']

18 atoms
1 atom types

    0.0000     2.3585 xlo xhi
    0.0000     4.0850 ylo yhi
    0.0000    34.6566 zlo zhi

    0.0000     0.0000    -0.0004 xy xz yz

Atoms

1 1     0.0000     0.0000     0.0000
2 1     1.1792     0.6808     1.9254
3 1     0.0000     1.3617     3.8507
4 1     1.1792     2.0425     0.0000
5 1     0.0000     2.7233     1.9254
6 1     1.1792     3.4042     3.8507
7 1     0.0000     0.0000     5.7761
8 1     1.1792     0.6808     7.7015
9 1     0.0000     1.3617     9.6268
10 1     1.1792     2.0425     5.7761
11 1     0.0000     2.7233     7.7015
12 1     1.1792     3.4042     9.6268
13 1     0.0000     0.0000    11.5522
14 1     1.1792     0.6808    13.4776
15 1     0.0000     1.3617    15.4029
16 1     1.1792     2.0425    11.5522
17 1     0.0000     2.7233    13.4776
18 1     1.1792     3.4042    15.4029
