    2    2    1    1
  0.9563318E+01  0.3001819E-09  0.3001820E-09  0.3001819E-09  0.5000000E-15
  1.000000000000000E-004
  CAR 
 automatically generated by pyflamestk   
      8     10     16
 
  0.1250000E+00  0.1250000E+00  0.1250000E+00  0.3125000E-01
    1      -13.575258   1.000000
    2        2.469452   1.000000
    3        3.316648   1.000000
    4        3.316649   1.000000
    5        8.833303   0.000000
    6       17.413367   0.000000
    7       19.429642   0.000000
    8       19.429645   0.000000
    9       23.679329   0.000000
   10       23.679332   0.000000
   11       25.019044   0.000000
   12       27.455909   0.000000
   13       28.886907   0.000000
   14       28.886910   0.000000
   15       39.152639   0.000000
   16       41.056298   0.000000
 
  0.3750000E+00  0.1250000E+00  0.1250000E+00  0.9375000E-01
    1      -12.916450   1.000000
    2        0.295641   1.000000
    3        2.453971   1.000000
    4        3.017806   1.000000
    5       11.249691   0.000000
    6       15.351657   0.000000
    7       18.763216   0.000000
    8       20.430898   0.000000
    9       22.251781   0.000000
   10       24.482535   0.000000
   11       26.601060   0.000000
   12       31.261833   0.000000
   13       32.536320   0.000000
   14       33.410849   0.000000
   15       35.780886   0.000000
   16       39.074965   0.000000
 
 -0.3750000E+00  0.1250000E+00  0.1250000E+00  0.9375000E-01
    1      -12.475559   1.000000
    2       -0.837764   1.000000
    3        2.303102   1.000000
    4        2.677918   1.000000
    5       11.837520   0.000000
    6       15.562574   0.000000
    7       18.052622   0.000000
    8       19.868862   0.000000
    9       23.859135   0.000000
   10       26.109450   0.000000
   11       26.204895   0.000000
   12       32.487304   0.000000
   13       33.084839   0.000000
   14       33.429292   0.000000
   15       36.011273   0.000000
   16       37.721802   0.000000
 
 -0.1250000E+00  0.1250000E+00  0.1250000E+00  0.9375000E-01
    1      -13.208455   1.000000
    2        1.185519   1.000000
    3        2.945403   1.000000
    4        2.949407   1.000000
    5       10.422349   0.000000
    6       15.592554   0.000000
    7       19.557412   0.000000
    8       20.038461   0.000000
    9       21.213465   0.000000
   10       25.058854   0.000000
   11       27.058858   0.000000
   12       30.156584   0.000000
   13       30.441782   0.000000
   14       31.194761   0.000000
   15       37.416479   0.000000
   16       39.179828   0.000000
 
  0.3750000E+00  0.3750000E+00  0.1250000E+00  0.9375000E-01
    1      -12.678545   1.000000
    2        0.109124   1.000000
    3        2.253001   1.000000
    4        2.486688   1.000000
    5       12.352708   0.000000
    6       13.995942   0.000000
    7       17.307022   0.000000
    8       20.937503   0.000000
    9       21.394031   0.000000
   10       27.239480   0.000000
   11       30.345639   0.000000
   12       30.613473   0.000000
   13       32.528124   0.000000
   14       35.020155   0.000000
   15       36.672528   0.000000
   16       38.088704   0.000000
 
 -0.3750000E+00  0.3750000E+00  0.1250000E+00  0.1875000E+00
    1      -12.262510   1.000000
    2       -0.008470   1.000000
    3        0.992144   1.000000
    4        2.074789   1.000000
    5       13.868150   0.000000
    6       14.906683   0.000000
    7       15.698684   0.000000
    8       19.711458   0.000000
    9       23.157597   0.000000
   10       26.610644   0.000000
   11       30.172631   0.000000
   12       31.596028   0.000000
   13       32.864781   0.000000
   14       36.538316   0.000000
   15       39.109759   0.000000
   16       41.329265   0.000000
 
 -0.1250000E+00  0.3750000E+00  0.1250000E+00  0.1875000E+00
    1      -12.521347   1.000000
    2       -0.212090   1.000000
    3        1.734903   1.000000
    4        2.575963   1.000000
    5       12.711209   0.000000
    6       14.905988   0.000000
    7       17.079387   0.000000
    8       20.274745   0.000000
    9       22.844394   0.000000
   10       25.518714   0.000000
   11       29.053766   0.000000
   12       31.844955   0.000000
   13       32.426619   0.000000
   14       35.091281   0.000000
   15       35.734846   0.000000
   16       41.236205   0.000000
 
 -0.3750000E+00 -0.3750000E+00  0.1250000E+00  0.9375000E-01
    1      -12.299224   1.000000
    2       -0.373056   1.000000
    3        1.734486   1.000000
    4        2.191837   1.000000
    5       12.942337   0.000000
    6       13.624356   0.000000
    7       16.149777   0.000000
    8       21.648048   0.000000
    9       21.659504   0.000000
   10       29.125600   0.000000
   11       29.558705   0.000000
   12       32.142111   0.000000
   13       32.857195   0.000000
   14       38.005156   0.000000
   15       38.386972   0.000000
   16       41.317896   0.000000
 
  0.3750000E+00  0.3750000E+00  0.3750000E+00  0.3125000E-01
    1      -12.714789   1.000000
    2       -0.567381   1.000000
    3        2.873237   1.000000
    4        2.873238   1.000000
    5       11.047358   0.000000
    6       15.567802   0.000000
    7       19.664354   0.000000
    8       19.664356   0.000000
    9       24.254038   0.000000
   10       24.594318   0.000000
   11       24.594321   0.000000
   12       32.107837   0.000000
   13       33.428409   0.000000
   14       33.428411   0.000000
   15       37.041796   0.000000
   16       37.041802   0.000000
 
 -0.3750000E+00  0.3750000E+00  0.3750000E+00  0.9375000E-01
    1      -12.346835   1.000000
    2       -0.250594   1.000000
    3        1.098111   1.000000
    4        2.545878   1.000000
    5       13.190637   0.000000
    6       15.365322   0.000000
    7       16.270738   0.000000
    8       20.586869   0.000000
    9       22.669879   0.000000
   10       25.695220   0.000000
   11       29.273960   0.000000
   12       31.815270   0.000000
   13       32.238404   0.000000
   14       35.577104   0.000000
   15       37.461379   0.000000
   16       40.335386   0.000000
