 vasp.5.4.1 24Jun15 (build Jun 05 2017 10:38:15) complex                        
  
 executed on           IFC91_ompi date 2017.08.29  20:20:17
 running on   16 total cores
 distrk:  each k-point on   16 cores,    1 groups
 distr:  one band on NCORES_PER_BAND=   1 cores,   16 groups


--------------------------------------------------------------------------------------------------------


 INCAR:
 POTCAR:    PAW_PBE O_h 06Feb2004                 
 POTCAR:    PAW_PBE Mg 13Apr2007                  

 ----------------------------------------------------------------------------- 
|                                                                             |
|           W    W    AA    RRRRR   N    N  II  N    N   GGGG   !!!           |
|           W    W   A  A   R    R  NN   N  II  NN   N  G    G  !!!           |
|           W    W  A    A  R    R  N N  N  II  N N  N  G       !!!           |
|           W WW W  AAAAAA  RRRRR   N  N N  II  N  N N  G  GGG   !            |
|           WW  WW  A    A  R   R   N   NN  II  N   NN  G    G                |
|           W    W  A    A  R    R  N    N  II  N    N   GGGG   !!!           |
|                                                                             |
|      For optimal performance we recommend to set                            |
|        NCORE= 4 - approx SQRT( number of cores)                             |
|      NCORE specifies how many cores store one orbital (NPAR=cpu/NCORE).     |
|      This setting can  greatly improve the performance of VASP for DFT.     |
|      The default, NPAR=number of cores might be grossly inefficient         |
|      on modern multi-core architectures or massively parallel machines.     |
|      Do your own testing !!!!                                               |
|      Unfortunately you need to use the default for GW and RPA calculations. |
|      (for HF NCORE is supported but not extensively tested yet)             |
|                                                                             |
 ----------------------------------------------------------------------------- 

 POTCAR:    PAW_PBE O_h 06Feb2004                 
   VRHFIN =O: s2p4                                                              
   LEXCH  = PE                                                                  
   EATOM  =   432.3788 eV,   31.7789 Ry                                         
                                                                                
   TITEL  = PAW_PBE O_h 06Feb2004                                               
   LULTRA =        F    use ultrasoft PP ?                                      
   IUNSCR =        1    unscreen: 0-lin 1-nonlin 2-no                           
   RPACOR =     .800    partial core radius                                     
   POMASS =   16.000; ZVAL   =    6.000    mass and valenz                      
   RCORE  =    1.100    outmost cutoff radius                                   
   RWIGS  =    1.400; RWIGS  =     .741    wigner-seitz radius (au A)           
   ENMAX  =  700.000; ENMIN  =  500.000 eV                                      
   ICORE  =        2    local potential                                         
   LCOR   =        T    correct aug charges                                     
   LPAW   =        T    paw PP                                                  
   EAUG   =  888.804                                                            
   DEXC   =     .000                                                            
   RMAX   =    1.666    core radius for proj-oper                               
   RAUG   =    1.300    factor for augmentation sphere                          
   RDEP   =    1.125    radius for radial grids                                 
   QCUT   =   -7.501; QGAM   =   15.002    optimization parameters              
                                                                                
   Description                                                                  
     l     E      TYP  RCUT    TYP  RCUT                                        
     0   .000     23  1.100                                                     
     0   .000     23  1.100                                                     
     1   .000     23  1.100                                                     
     1   .000     23  1.100                                                     
     2   .000      7  1.100                                                     
  local pseudopotential read in
  partial core-charges read in
  atomic valenz-charges read in
  non local Contribution for L=           0  read in
    real space projection operators read in
  non local Contribution for L=           0  read in
    real space projection operators read in
  non local Contribution for L=           1  read in
    real space projection operators read in
  non local Contribution for L=           1  read in
    real space projection operators read in
    PAW grid and wavefunctions read in
 
   number of l-projection  operators is LMAX  =           4
   number of lm-projection operators is LMMAX =           8
 
 POTCAR:    PAW_PBE Mg 13Apr2007                  
   VRHFIN =Mg: s2p0                                                             
   LEXCH  = PE                                                                  
   EATOM  =    23.0369 eV,    1.6932 Ry                                         
                                                                                
   TITEL  = PAW_PBE Mg 13Apr2007                                                
   LULTRA =        F    use ultrasoft PP ?                                      
   IUNSCR =        1    unscreen: 0-lin 1-nonlin 2-no                           
   RPACOR =    1.500    partial core radius                                     
   POMASS =   24.305; ZVAL   =    2.000    mass and valenz                      
   RCORE  =    2.000    outmost cutoff radius                                   
   RWIGS  =    2.880; RWIGS  =    1.524    wigner-seitz radius (au A)           
   ENMAX  =  126.143; ENMIN  =   94.607 eV                                      
   RCLOC  =    1.506    cutoff for local pot                                    
   LCOR   =        T    correct aug charges                                     
   LPAW   =        T    paw PP                                                  
   EAUG   =  454.734                                                            
   DEXC   =     .000                                                            
   RMAX   =    4.105    core radius for proj-oper                               
   RAUG   =    1.300    factor for augmentation sphere                          
   RDEP   =    2.025    radius for radial grids                                 
   QCUT   =   -3.045; QGAM   =    6.090    optimization parameters              
                                                                                
   Description                                                                  
     l     E      TYP  RCUT    TYP  RCUT                                        
     0   .000     23  2.000                                                     
     0  2.000     23  2.000                                                     
     1   .100     23  2.000                                                     
     1  2.000     23  2.000                                                     
     2   .000     23  2.000                                                     
  local pseudopotential read in
  partial core-charges read in
  atomic valenz-charges read in
  non local Contribution for L=           0  read in
    real space projection operators read in
  non local Contribution for L=           0  read in
    real space projection operators read in
  non local Contribution for L=           1  read in
    real space projection operators read in
  non local Contribution for L=           1  read in
    real space projection operators read in
  non local Contribution for L=           2  read in
    real space projection operators read in
    PAW grid and wavefunctions read in
 
   number of l-projection  operators is LMAX  =           5
   number of lm-projection operators is LMMAX =          13
 
  PAW_PBE O_h 06Feb2004                 :
 energy of atom  1       EATOM= -432.3788
 kinetic energy error for atom=    0.0365 (will be added to EATOM!!)
  PAW_PBE Mg 13Apr2007                  :
 energy of atom  2       EATOM=  -23.0369
 kinetic energy error for atom=    0.0000 (will be added to EATOM!!)
 
 
 POSCAR: Mg1 O1                                  
  positions in direct lattice
  No initial velocities read in
 exchange correlation table for  LEXCH =        8
   RHO(1)=    0.500       N(1)  =     2000
   RHO(2)=  100.500       N(2)  =     4000
 


--------------------------------------------------------------------------------------------------------


 ion  position               nearest neighbor table
   1  0.500  0.500  0.500-   2 2.12   2 2.12   2 2.12   2 2.12   2 2.12   2 2.12
   2  0.000  0.000  0.000-   1 2.12   1 2.12   1 2.12   1 2.12   1 2.12   1 2.12
 
  LATTYP: Found a face centered cubic cell.
 ALAT       =     4.2452137554
  
  Lattice vectors:
  
 A1 = (   3.0018190000,   0.0000000000,   0.0000000000)
 A2 = (   1.5009100000,   2.5996520000,   0.0000000000)
 A3 = (   1.5009100000,   0.8665510000,   2.4509750000)


Analysis of symmetry for initial positions (statically):
=====================================================================
 Subroutine PRICEL returns:
 Original cell was already a primitive cell.
 

 Routine SETGRP: Setting up the symmetry group for a 
 face centered cubic supercell.


 Subroutine GETGRP returns: Found 48 space group operations
 (whereof 48 operations were pure point group operations)
 out of a pool of 48 trial point group operations.


The static configuration has the point symmetry O_h .


Analysis of symmetry for dynamics (positions and initial velocities):
=====================================================================
 Subroutine PRICEL returns:
 Original cell was already a primitive cell.
 

 Routine SETGRP: Setting up the symmetry group for a 
 face centered cubic supercell.


 Subroutine GETGRP returns: Found 48 space group operations
 (whereof 48 operations were pure point group operations)
 out of a pool of 48 trial point group operations.


The dynamic configuration has the point symmetry O_h .


 Subroutine INISYM returns: Found 48 space group operations
 (whereof 48 operations are pure point group operations),
 and found     1 'primitive' translations

 
 
 KPOINTS: Automatic Mesh                          

Automatic generation of k-mesh.
Space group operators:
 irot       det(A)        alpha          n_x          n_y          n_z        tau_x        tau_y        tau_z
    1     1.000000     0.000000     1.000000     0.000000     0.000000     0.000000     0.000000     0.000000
    2    -1.000000     0.000000     1.000000     0.000000     0.000000     0.000000     0.000000     0.000000
    3     1.000000   120.000000    -0.816497    -0.471404    -0.333333     0.000000     0.000000     0.000000
    4    -1.000000   120.000000    -0.816497    -0.471404    -0.333333     0.000000     0.000000     0.000000
    5     1.000000   120.000000     0.816497     0.471405     0.333333     0.000000     0.000000     0.000000
    6    -1.000000   120.000000     0.816497     0.471405     0.333333     0.000000     0.000000     0.000000
    7     1.000000    90.000000    -0.707107    -0.408248     0.577350     0.000000     0.000000     0.000000
    8    -1.000000    90.000000    -0.707107    -0.408248     0.577350     0.000000     0.000000     0.000000
    9     1.000000   180.000000     1.000000    -0.000000    -0.000000     0.000000     0.000000     0.000000
   10    -1.000000   180.000000     1.000000    -0.000000    -0.000000     0.000000     0.000000     0.000000
   11     1.000000    90.000000     0.707107    -0.408248     0.577350     0.000000     0.000000     0.000000
   12    -1.000000    90.000000     0.707107    -0.408248     0.577350     0.000000     0.000000     0.000000
   13     1.000000   180.000000    -0.707107    -0.408248     0.577350     0.000000     0.000000     0.000000
   14    -1.000000   180.000000    -0.707107    -0.408248     0.577350     0.000000     0.000000     0.000000
   15     1.000000   120.000000     0.816497    -0.471405    -0.333333     0.000000     0.000000     0.000000
   16    -1.000000   120.000000     0.816497    -0.471405    -0.333333     0.000000     0.000000     0.000000
   17     1.000000   120.000000    -0.000000    -0.942809     0.333334     0.000000     0.000000     0.000000
   18    -1.000000   120.000000    -0.000000    -0.942809     0.333334     0.000000     0.000000     0.000000
   19     1.000000    90.000000     0.707107     0.408248    -0.577350     0.000000     0.000000     0.000000
   20    -1.000000    90.000000     0.707107     0.408248    -0.577350     0.000000     0.000000     0.000000
   21     1.000000    90.000000    -0.000000    -0.816497    -0.577350     0.000000     0.000000     0.000000
   22    -1.000000    90.000000    -0.000000    -0.816497    -0.577350     0.000000     0.000000     0.000000
   23     1.000000   180.000000     0.500000     0.866025    -0.000000     0.000000     0.000000     0.000000
   24    -1.000000   180.000000     0.500000     0.866025    -0.000000     0.000000     0.000000     0.000000
   25     1.000000   120.000000    -0.000000     0.942809    -0.333333     0.000000     0.000000     0.000000
   26    -1.000000   120.000000    -0.000000     0.942809    -0.333333     0.000000     0.000000     0.000000
   27     1.000000   120.000000     0.000000    -0.000000    -1.000000     0.000000     0.000000     0.000000
   28    -1.000000   120.000000     0.000000    -0.000000    -1.000000     0.000000     0.000000     0.000000
   29     1.000000   180.000000     0.000000    -0.816497    -0.577350     0.000000     0.000000     0.000000
   30    -1.000000   180.000000     0.000000    -0.816497    -0.577350     0.000000     0.000000     0.000000
   31     1.000000    90.000000    -0.707107     0.408248    -0.577350     0.000000     0.000000     0.000000
   32    -1.000000    90.000000    -0.707107     0.408248    -0.577350     0.000000     0.000000     0.000000
   33     1.000000   180.000000    -0.500000    -0.288675    -0.816497     0.000000     0.000000     0.000000
   34    -1.000000   180.000000    -0.500000    -0.288675    -0.816497     0.000000     0.000000     0.000000
   35     1.000000    90.000000     0.000000     0.816497     0.577350     0.000000     0.000000     0.000000
   36    -1.000000    90.000000     0.000000     0.816497     0.577350     0.000000     0.000000     0.000000
   37     1.000000   120.000000    -0.816496     0.471405     0.333333     0.000000     0.000000     0.000000
   38    -1.000000   120.000000    -0.816496     0.471405     0.333333     0.000000     0.000000     0.000000
   39     1.000000   180.000000    -0.707107     0.408248    -0.577350     0.000000     0.000000     0.000000
   40    -1.000000   180.000000    -0.707107     0.408248    -0.577350     0.000000     0.000000     0.000000
   41     1.000000   120.000000     0.000000    -0.000000     1.000000     0.000000     0.000000     0.000000
   42    -1.000000   120.000000     0.000000    -0.000000     1.000000     0.000000     0.000000     0.000000
   43     1.000000   180.000000     0.000000    -0.577350     0.816497     0.000000     0.000000     0.000000
   44    -1.000000   180.000000     0.000000    -0.577350     0.816497     0.000000     0.000000     0.000000
   45     1.000000   180.000000    -0.500000     0.866025    -0.000000     0.000000     0.000000     0.000000
   46    -1.000000   180.000000    -0.500000     0.866025    -0.000000     0.000000     0.000000     0.000000
   47     1.000000   180.000000    -0.500000     0.288675     0.816497     0.000000     0.000000     0.000000
   48    -1.000000   180.000000    -0.500000     0.288675     0.816497     0.000000     0.000000     0.000000
 
 Subroutine IBZKPT returns following result:
 ===========================================
 
 Found     10 irreducible k-points:
 
 Following reciprocal coordinates:
            Coordinates               Weight
  0.125000  0.125000  0.125000     96.000000
  0.375000  0.125000  0.125000    288.000000
 -0.375000  0.125000  0.125000    288.000000
 -0.125000  0.125000  0.125000    288.000000
  0.375000  0.375000  0.125000    288.000000
 -0.375000  0.375000  0.125000    576.000000
 -0.125000  0.375000  0.125000    576.000000
 -0.375000 -0.375000  0.125000    288.000000
  0.375000  0.375000  0.375000     96.000000
 -0.375000  0.375000  0.375000    288.000000
 
 Following cartesian coordinates:
            Coordinates               Weight
  0.041641  0.024042  0.017000     96.000000
  0.124924 -0.024042 -0.017000    288.000000
 -0.124924  0.120208  0.085000    288.000000
 -0.041641  0.072125  0.051000    288.000000
  0.124924  0.072125 -0.051000    288.000000
 -0.124924  0.216375  0.051000    576.000000
 -0.041641  0.168292  0.017000    576.000000
 -0.124924 -0.072125  0.153000    288.000000
  0.124924  0.072125  0.051000     96.000000
 -0.124924  0.216375  0.153000    288.000000
 


--------------------------------------------------------------------------------------------------------




 Dimension of arrays:
   k-points           NKPTS =     10   k-points in BZ     NKDIM =     10   number of bands    NBANDS=     16
   number of dos      NEDOS =    301   number of ions     NIONS =      2
   non local maximal  LDIM  =      5   non local SUM 2l+1 LMDIM =     13
   total plane-waves  NPLWV =  21952
   max r-space proj   IRMAX =      1   max aug-charges    IRDMAX=  17965
   dimension x,y,z NGX =    28 NGY =   28 NGZ =   28
   dimension x,y,z NGXF=    40 NGYF=   40 NGZF=   40
   support grid    NGXF=    40 NGYF=   40 NGZF=   40
   ions per type =               1   1
 NGX,Y,Z   is equivalent  to a cutoff of  15.51, 15.51, 15.51 a.u.
 NGXF,Y,Z  is equivalent  to a cutoff of  22.15, 22.15, 22.15 a.u.


 I would recommend the setting:
   dimension x,y,z NGX =    28 NGY =   28 NGZ =   28
 SYSTEM =  automatically generated by pyflamestk   
 POSCAR =  Mg1 O1                                  

 Startparameter for this run:
   NWRITE =      2    write-flag & timer
   PREC   = high      normal or accurate (medium, high low for compatibility)
   ISTART =      0    job   : 0-new  1-cont  2-samecut
   ICHARG =      0    charge: 1-file 2-atom 10-const
   ISPIN  =      1    spin polarized calculation?
   LNONCOLLINEAR =      F non collinear calculations
   LSORBIT =      F    spin-orbit coupling
   INIWAV =      1    electr: 0-lowe 1-rand  2-diag
   LASPH  =      F    aspherical Exc in radial PAW
   METAGGA=      F    non-selfconsistent MetaGGA calc.

 Electronic Relaxation 1
   ENCUT  =  825.0 eV  60.64 Ry    7.79 a.u.   7.03  7.03  7.03*2*pi/ulx,y,z
   ENINI  =  825.0     initial cutoff
   ENAUG  =  888.8 eV  augmentation charge cutoff
   NELM   =     40;   NELMIN=  2; NELMDL= -5     # of ELM steps 
   EDIFF  = 0.1E-05   stopping-criterion for ELM
   LREAL  =      F    real-space projection
   NLSPLINE    = F    spline interpolate recip. space projectors
   LCOMPAT=      F    compatible to vasp.4.4
   GGA_COMPAT  = T    GGA compatible to vasp.4.4-vasp.4.6
   LMAXPAW     = -100 max onsite density
   LMAXMIX     =    2 max onsite mixed and CHGCAR
   VOSKOWN=      0    Vosko Wilk Nusair interpolation
   ROPT   =    0.00000   0.00000
 Ionic relaxation
   EDIFFG = 0.1E-04   stopping-criterion for IOM
   NSW    =      0    number of steps for IOM
   NBLOCK =      1;   KBLOCK =      1    inner block; outer block 
   IBRION =     -1    ionic relax: 0-MD 1-quasi-New 2-CG
   NFREE  =      0    steps in history (QN), initial steepest desc. (CG)
   ISIF   =      2    stress and relaxation
   IWAVPR =     10    prediction:  0-non 1-charg 2-wave 3-comb
   ISYM   =      2    0-nonsym 1-usesym 2-fastsym
   LCORR  =      T    Harris-Foulkes like correction to forces

   POTIM  = 0.5000    time-step for ionic-motion
   TEIN   =    0.0    initial temperature
   TEBEG  =    0.0;   TEEND  =   0.0 temperature during run
   SMASS  =  -3.00    Nose mass-parameter (am)
   estimated Nose-frequenzy (Omega)   =  0.10E-29 period in steps =****** mass=  -0.206E-27a.u.
   SCALEE = 1.0000    scale energy and forces
   NPACO  =    256;   APACO  = 16.0  distance and # of slots for P.C.
   PSTRESS=    0.0 pullay stress

  Mass of Ions in am
   POMASS =  16.00 24.30
  Ionic Valenz
   ZVAL   =   6.00  2.00
  Atomic Wigner-Seitz radii
   RWIGS  =  -1.00 -1.00
  virtual crystal weights 
   VCA    =   1.00  1.00
   NELECT =       8.0000    total number of electrons
   NUPDOWN=      -1.0000    fix difference up-down

 DOS related values:
   EMIN   =  10.00;   EMAX   =-10.00  energy-range for DOS
   EFERMI =   0.00
   ISMEAR =     0;   SIGMA  =   0.05  broadening in eV -4-tet -1-fermi 0-gaus

 Electronic relaxation 2 (details)
   IALGO  =     38    algorithm
   LDIAG  =      T    sub-space diagonalisation (order eigenvalues)
   LSUBROT=      F    optimize rotation matrix (better conditioning)
   TURBO    =      0    0=normal 1=particle mesh
   IRESTART =      0    0=no restart 2=restart with 2 vectors
   NREBOOT  =      0    no. of reboots
   NMIN     =      0    reboot dimension
   EREF     =   0.00    reference energy to select bands
   IMIX   =      4    mixing-type and parameters
     AMIX     =   0.40;   BMIX     =  1.00
     AMIX_MAG =   1.60;   BMIX_MAG =  1.00
     AMIN     =   0.10
     WC   =   100.;   INIMIX=   1;  MIXPRE=   1;  MAXMIX= -45

 Intra band minimization:
   WEIMIN = 0.0000     energy-eigenvalue tresh-hold
   EBREAK =  0.16E-07  absolut break condition
   DEPER  =   0.30     relativ break condition  

   TIME   =   0.40     timestep for ELM

  volume/ion in A,a.u.               =       9.56        64.54
  Fermi-wavevector in a.u.,A,eV,Ry     =   1.224312  2.313613 20.394301  1.498939
  Thomas-Fermi vector in A             =   2.359391
 
 Write flags
   LWAVE  =      F    write WAVECAR
   LCHARG =      F    write CHGCAR
   LVTOT  =      F    write LOCPOT, total local potential
   LVHAR  =      F    write LOCPOT, Hartree potential only
   LELF   =      F    write electronic localiz. function (ELF)
   LORBIT =      0    0 simple, 1 ext, 2 COOP (PROOUT)


 Dipole corrections
   LMONO  =      F    monopole corrections only (constant potential shift)
   LDIPOL =      F    correct potential (dipole corrections)
   IDIPOL =      0    1-x, 2-y, 3-z, 4-all directions 
   EPSILON=  1.0000000 bulk dielectric constant

 Exchange correlation treatment:
   GGA     =    --    GGA type
   LEXCH   =     8    internal setting for exchange type
   VOSKOWN=      0    Vosko Wilk Nusair interpolation
   LHFCALC =     F    Hartree Fock is set to
   LHFONE  =     F    Hartree Fock one center treatment
   AEXX    =    0.0000 exact exchange contribution

 Linear response parameters
   LEPSILON=     F    determine dielectric tensor
   LRPA    =     F    only Hartree local field effects (RPA)
   LNABLA  =     F    use nabla operator in PAW spheres
   LVEL    =     F    velocity operator in full k-point grid
   LINTERFAST=   F  fast interpolation
   KINTER  =     0    interpolate to denser k-point grid
   CSHIFT  =0.1000    complex shift for real part using Kramers Kronig
   OMEGAMAX=  -1.0    maximum frequency
   DEG_THRESHOLD= 0.2000000E-02 threshold for treating states as degnerate
   RTIME   =    0.100 relaxation time in fs

 Orbital magnetization related:
   ORBITALMAG=     F  switch on orbital magnetization
   LCHIMAG   =     F  perturbation theory with respect to B field
   DQ        =  0.001000  dq finite difference perturbation B field



--------------------------------------------------------------------------------------------------------


 Static calculation
 charge density and potential will be updated during run
 non-spin polarized calculation
 Variant of blocked Davidson
 Davidson routine will perform the subspace rotation
 perform sub-space diagonalisation
    after iterative eigenvector-optimisation
 modified Broyden-mixing scheme, WC =      100.0
 initial mixing is a Kerker type mixing with AMIX =  0.4000 and BMIX =      1.0000
 Hartree-type preconditioning will be used
 using additional bands           12
 reciprocal scheme for non local part
 use partial core corrections
 calculate Harris-corrections to forces 
   (improved forces if not selfconsistent)
 use gradient corrections 
 use of overlap-Matrix (Vanderbilt PP)
 Gauss-broadening in eV      SIGMA  =   0.05


--------------------------------------------------------------------------------------------------------


  energy-cutoff  :      825.00
  volume of cell :       19.13
      direct lattice vectors                 reciprocal lattice vectors
     3.001819000  0.000000000  0.000000000     0.333131345 -0.192333499 -0.136000318
     1.500910000  2.599652000  0.000000000     0.000000000  0.384666871 -0.136000352
     1.500910000  0.866551000  2.450975000     0.000000000  0.000000000  0.408000898

  length of vectors
     3.001819000  3.001819673  3.001819434     0.408000925  0.408000854  0.408000898


 
 k-points in units of 2pi/SCALE and weight: Automatic Mesh                          
   0.04164142  0.02404167  0.01700003       0.031
   0.12492425 -0.02404170 -0.01700005       0.094
  -0.12492425  0.12020842  0.08500019       0.094
  -0.04164142  0.07212505  0.05100011       0.094
   0.12492425  0.07212501 -0.05100014       0.094
  -0.12492425  0.21637514  0.05100010       0.188
  -0.04164142  0.16829176  0.01700002       0.188
  -0.12492425 -0.07212501  0.15300036       0.094
   0.12492425  0.07212501  0.05100009       0.031
  -0.12492425  0.21637514  0.15300032       0.094
 
 k-points in reciprocal lattice and weights: Automatic Mesh                          
   0.12500000  0.12500000  0.12500000       0.031
   0.37500000  0.12500000  0.12500000       0.094
  -0.37500000  0.12500000  0.12500000       0.094
  -0.12500000  0.12500000  0.12500000       0.094
   0.37500000  0.37500000  0.12500000       0.094
  -0.37500000  0.37500000  0.12500000       0.188
  -0.12500000  0.37500000  0.12500000       0.188
  -0.37500000 -0.37500000  0.12500000       0.094
   0.37500000  0.37500000  0.37500000       0.031
  -0.37500000  0.37500000  0.37500000       0.094
 
 position of ions in fractional coordinates (direct lattice) 
   0.50000000  0.50000000  0.50000000
   0.00000000  0.00000000  0.00000000
 
 position of ions in cartesian coordinates  (Angst):
   3.00181950  1.73310150  1.22548750
   0.00000000  0.00000000  0.00000000
 


--------------------------------------------------------------------------------------------------------


 k-point  1 :   0.1250 0.1250 0.1250  plane waves:    1007
 k-point  2 :   0.3750 0.1250 0.1250  plane waves:    1031
 k-point  3 :  -0.3750 0.1250 0.1250  plane waves:    1028
 k-point  4 :  -0.1250 0.1250 0.1250  plane waves:    1016
 k-point  5 :   0.3750 0.3750 0.1250  plane waves:    1035
 k-point  6 :  -0.3750 0.3750 0.1250  plane waves:    1032
 k-point  7 :  -0.1250 0.3750 0.1250  plane waves:    1034
 k-point  8 :  -0.3750-0.3750 0.1250  plane waves:    1033
 k-point  9 :   0.3750 0.3750 0.3750  plane waves:    1029
 k-point 10 :  -0.3750 0.3750 0.3750  plane waves:    1030

 maximum and minimum number of plane-waves per node :      1035     1007

 maximum number of plane-waves:      1035
 maximum index in each direction: 
   IXMAX=    7   IYMAX=    7   IZMAX=    6
   IXMIN=   -7   IYMIN=   -7   IZMIN=   -7

 WARNING: aliasing errors must be expected set NGX to  30 to avoid them
 WARNING: aliasing errors must be expected set NGY to  30 to avoid them
 NGZ is ok and might be reduce to  28
 aliasing errors are usually negligible using standard VASP settings
 and one can safely disregard these warnings

 serial   3D FFT for wavefunctions
 parallel 3D FFT for charge:
    minimum data exchange during FFTs selected (reduces bandwidth)


 total amount of memory used by VASP on root node    33819. kBytes
========================================================================

   base      :      30000. kBytes
   nonl-proj :       2196. kBytes
   fftplans  :        267. kBytes
   grid      :       1169. kBytes
   one-center:         16. kBytes
   wavefun   :        171. kBytes
 
     INWAV:  cpu time    0.0000: real time    0.0001
 Broyden mixing: mesh for mixing (old mesh)
   NGX = 13   NGY = 13   NGZ = 13
  (NGX  = 40   NGY  = 40   NGZ  = 40)
  gives a total of   2197 points

 charge density for first step will be calculated from the start-wavefunctions


--------------------------------------------------------------------------------------------------------


 Maximum index for augmentation-charges         1453 (set IRDMAX)


--------------------------------------------------------------------------------------------------------


 initial charge from wavefunction
 First call to EWALD:  gamma=   0.663
 Maximum number of real-space cells 3x 3x 3
 Maximum number of reciprocal cells 3x 3x 3

 FEWALD executed in parallel
    FEWALD:  cpu time    0.0020: real time    0.0016


----------------------------------------- Iteration    1(   1)  ---------------------------------------


    POTLOK:  cpu time    0.0050: real time    0.0053
    SETDIJ:  cpu time    0.0020: real time    0.0028
     EDDAV:  cpu time    0.0560: real time    0.0553
       DOS:  cpu time    0.0000: real time    0.0002
    --------------------------------------------
      LOOP:  cpu time    0.0670: real time    0.0696

 eigenvalue-minimisations  :   368
 total energy-change (2. order) :-0.2289906E+03  (-0.9935366E+03)
 number of electron       8.0000000 magnetization 
 augmentation part       -0.9453295 magnetization 

 Free energy of the ion-electron system (eV)
  ---------------------------------------------------
  alpha Z        PSCENC =        15.91937336
  Ewald energy   TEWEN  =      -355.39410472
  -Hartree energ DENC   =       -27.45518217
  -exchange      EXHF   =         0.00000000
  -V(xc)+E(xc)   XCENC  =       -30.24761376
  PAW double counting   =    170819.71244614  -170766.09123359
  entropy T*S    EENTRO =        -0.00000000
  eigenvalues    EBANDS =      -340.81345753
  atomic energy  EATOM  =       455.37919397
  Solvation  Ediel_sol  =         0.00000000
  ---------------------------------------------------
  free energy    TOTEN  =      -228.99057831 eV

  energy without entropy =     -228.99057831  energy(sigma->0) =     -228.99057831


--------------------------------------------------------------------------------------------------------




----------------------------------------- Iteration    1(   2)  ---------------------------------------


     EDDAV:  cpu time    0.0610: real time    0.0613
       DOS:  cpu time    0.0010: real time    0.0001
    --------------------------------------------
      LOOP:  cpu time    0.0620: real time    0.0642

 eigenvalue-minimisations  :   416
 total energy-change (2. order) :-0.6755528E+02  (-0.6755528E+02)
 number of electron       8.0000000 magnetization 
 augmentation part       -0.9453295 magnetization 

 Free energy of the ion-electron system (eV)
  ---------------------------------------------------
  alpha Z        PSCENC =        15.91937336
  Ewald energy   TEWEN  =      -355.39410472
  -Hartree energ DENC   =       -27.45518217
  -exchange      EXHF   =         0.00000000
  -V(xc)+E(xc)   XCENC  =       -30.24761376
  PAW double counting   =    170819.71244614  -170766.09123359
  entropy T*S    EENTRO =        -0.00000000
  eigenvalues    EBANDS =      -408.36873866
  atomic energy  EATOM  =       455.37919397
  Solvation  Ediel_sol  =         0.00000000
  ---------------------------------------------------
  free energy    TOTEN  =      -296.54585944 eV

  energy without entropy =     -296.54585944  energy(sigma->0) =     -296.54585944


--------------------------------------------------------------------------------------------------------




----------------------------------------- Iteration    1(   3)  ---------------------------------------


     EDDAV:  cpu time    0.0710: real time    0.0707
       DOS:  cpu time    0.0000: real time    0.0001
    --------------------------------------------
      LOOP:  cpu time    0.0710: real time    0.0741

 eigenvalue-minimisations  :   448
 total energy-change (2. order) :-0.6445016E+00  (-0.6445016E+00)
 number of electron       8.0000000 magnetization 
 augmentation part       -0.9453295 magnetization 

 Free energy of the ion-electron system (eV)
  ---------------------------------------------------
  alpha Z        PSCENC =        15.91937336
  Ewald energy   TEWEN  =      -355.39410472
  -Hartree energ DENC   =       -27.45518217
  -exchange      EXHF   =         0.00000000
  -V(xc)+E(xc)   XCENC  =       -30.24761376
  PAW double counting   =    170819.71244614  -170766.09123359
  entropy T*S    EENTRO =        -0.00000000
  eigenvalues    EBANDS =      -409.01324029
  atomic energy  EATOM  =       455.37919397
  Solvation  Ediel_sol  =         0.00000000
  ---------------------------------------------------
  free energy    TOTEN  =      -297.19036106 eV

  energy without entropy =     -297.19036106  energy(sigma->0) =     -297.19036106


--------------------------------------------------------------------------------------------------------




----------------------------------------- Iteration    1(   4)  ---------------------------------------


     EDDAV:  cpu time    0.0830: real time    0.0827
       DOS:  cpu time    0.0000: real time    0.0001
    --------------------------------------------
      LOOP:  cpu time    0.0830: real time    0.0863

 eigenvalue-minimisations  :   512
 total energy-change (2. order) :-0.6232237E-03  (-0.6232237E-03)
 number of electron       8.0000000 magnetization 
 augmentation part       -0.9453295 magnetization 

 Free energy of the ion-electron system (eV)
  ---------------------------------------------------
  alpha Z        PSCENC =        15.91937336
  Ewald energy   TEWEN  =      -355.39410472
  -Hartree energ DENC   =       -27.45518217
  -exchange      EXHF   =         0.00000000
  -V(xc)+E(xc)   XCENC  =       -30.24761376
  PAW double counting   =    170819.71244614  -170766.09123359
  entropy T*S    EENTRO =        -0.00000000
  eigenvalues    EBANDS =      -409.01386351
  atomic energy  EATOM  =       455.37919397
  Solvation  Ediel_sol  =         0.00000000
  ---------------------------------------------------
  free energy    TOTEN  =      -297.19098429 eV

  energy without entropy =     -297.19098429  energy(sigma->0) =     -297.19098429


--------------------------------------------------------------------------------------------------------




----------------------------------------- Iteration    1(   5)  ---------------------------------------


     EDDAV:  cpu time    0.0660: real time    0.0663
       DOS:  cpu time    0.0000: real time    0.0001
    CHARGE:  cpu time    0.0100: real time    0.0093
    MIXING:  cpu time    0.0000: real time    0.0003
    --------------------------------------------
      LOOP:  cpu time    0.0760: real time    0.0790

 eigenvalue-minimisations  :   432
 total energy-change (2. order) :-0.1400510E-06  (-0.1400510E-06)
 number of electron       7.9999984 magnetization 
 augmentation part        0.5799350 magnetization 

 Broyden mixing:
  rms(total) = 0.92143E+01    rms(broyden)= 0.91871E+01
  rms(prec ) = 0.28595E+02
  weight for this iteration     100.00

 Free energy of the ion-electron system (eV)
  ---------------------------------------------------
  alpha Z        PSCENC =        15.91937336
  Ewald energy   TEWEN  =      -355.39410472
  -Hartree energ DENC   =       -27.45518217
  -exchange      EXHF   =         0.00000000
  -V(xc)+E(xc)   XCENC  =       -30.24761376
  PAW double counting   =    170819.71244614  -170766.09123359
  entropy T*S    EENTRO =        -0.00000000
  eigenvalues    EBANDS =      -409.01386365
  atomic energy  EATOM  =       455.37919397
  Solvation  Ediel_sol  =         0.00000000
  ---------------------------------------------------
  free energy    TOTEN  =      -297.19098443 eV

  energy without entropy =     -297.19098443  energy(sigma->0) =     -297.19098443


--------------------------------------------------------------------------------------------------------




----------------------------------------- Iteration    1(   6)  ---------------------------------------


    POTLOK:  cpu time    0.0050: real time    0.0043
    SETDIJ:  cpu time    0.0030: real time    0.0025
     EDDAV:  cpu time    0.0450: real time    0.0458
       DOS:  cpu time    0.0000: real time    0.0001
    CHARGE:  cpu time    0.0080: real time    0.0085
    MIXING:  cpu time    0.0010: real time    0.0003
    --------------------------------------------
      LOOP:  cpu time    0.0620: real time    0.0649

 eigenvalue-minimisations  :   320
 total energy-change (2. order) : 0.2329100E+03  (-0.2755307E+02)
 number of electron       7.9999993 magnetization 
 augmentation part        0.2514428 magnetization 

 Broyden mixing:
  rms(total) = 0.38660E+01    rms(broyden)= 0.38624E+01
  rms(prec ) = 0.13133E+02
  weight for this iteration     100.00

 eigenvalues of (default mixing * dielectric matrix)
  average eigenvalue GAMMA=   1.4669
  1.4669

 Free energy of the ion-electron system (eV)
  ---------------------------------------------------
  alpha Z        PSCENC =        15.91937336
  Ewald energy   TEWEN  =      -355.39410472
  -Hartree energ DENC   =       -66.98139455
  -exchange      EXHF   =         0.00000000
  -V(xc)+E(xc)   XCENC  =       -26.23008735
  PAW double counting   =    389503.82481274  -389454.01998485
  entropy T*S    EENTRO =        -0.00000000
  eigenvalues    EBANDS =      -136.77876636
  atomic energy  EATOM  =       455.37919397
  Solvation  Ediel_sol  =         0.00000000
  ---------------------------------------------------
  free energy    TOTEN  =       -64.28095776 eV

  energy without entropy =      -64.28095776  energy(sigma->0) =      -64.28095776


--------------------------------------------------------------------------------------------------------




----------------------------------------- Iteration    1(   7)  ---------------------------------------


    POTLOK:  cpu time    0.0040: real time    0.0041
    SETDIJ:  cpu time    0.0030: real time    0.0025
     EDDAV:  cpu time    0.0720: real time    0.0724
       DOS:  cpu time    0.0000: real time    0.0001
    CHARGE:  cpu time    0.0090: real time    0.0093
    MIXING:  cpu time    0.0010: real time    0.0003
    --------------------------------------------
      LOOP:  cpu time    0.0890: real time    0.0919

 eigenvalue-minimisations  :   480
 total energy-change (2. order) : 0.4203050E+02  (-0.3747069E+02)
 number of electron       8.0000001 magnetization 
 augmentation part       -0.0128371 magnetization 

 Broyden mixing:
  rms(total) = 0.25401E+01    rms(broyden)= 0.25344E+01
  rms(prec ) = 0.68152E+01
  weight for this iteration     100.00

 eigenvalues of (default mixing * dielectric matrix)
  average eigenvalue GAMMA=   1.3226
  1.3226  1.3226

 Free energy of the ion-electron system (eV)
  ---------------------------------------------------
  alpha Z        PSCENC =        15.91937336
  Ewald energy   TEWEN  =      -355.39410472
  -Hartree energ DENC   =      -177.60820482
  -exchange      EXHF   =         0.00000000
  -V(xc)+E(xc)   XCENC  =       -18.84091407
  PAW double counting   =     56678.26023353   -56629.98097245
  entropy T*S    EENTRO =        -0.00000000
  eigenvalues    EBANDS =        10.01493516
  atomic energy  EATOM  =       455.37919397
  Solvation  Ediel_sol  =         0.00000000
  ---------------------------------------------------
  free energy    TOTEN  =       -22.25046003 eV

  energy without entropy =      -22.25046003  energy(sigma->0) =      -22.25046003


--------------------------------------------------------------------------------------------------------




----------------------------------------- Iteration    1(   8)  ---------------------------------------


    POTLOK:  cpu time    0.0040: real time    0.0041
    SETDIJ:  cpu time    0.0030: real time    0.0025
     EDDAV:  cpu time    0.0480: real time    0.0480
       DOS:  cpu time    0.0000: real time    0.0001
    CHARGE:  cpu time    0.0090: real time    0.0093
    MIXING:  cpu time    0.0000: real time    0.0003
    --------------------------------------------
      LOOP:  cpu time    0.0640: real time    0.0677

 eigenvalue-minimisations  :   320
 total energy-change (2. order) : 0.1632790E+01  (-0.1722414E+02)
 number of electron       7.9999996 magnetization 
 augmentation part        0.1479691 magnetization 

 Broyden mixing:
  rms(total) = 0.16232E+01    rms(broyden)= 0.16223E+01
  rms(prec ) = 0.58625E+01
  weight for this iteration     100.00

 eigenvalues of (default mixing * dielectric matrix)
  average eigenvalue GAMMA=   1.5664
  2.6039  1.3293  0.7658

 Free energy of the ion-electron system (eV)
  ---------------------------------------------------
  alpha Z        PSCENC =        15.91937336
  Ewald energy   TEWEN  =      -355.39410472
  -Hartree energ DENC   =      -101.34879661
  -exchange      EXHF   =         0.00000000
  -V(xc)+E(xc)   XCENC  =       -23.94897798
  PAW double counting   =     66396.71456379   -66346.66402413
  entropy T*S    EENTRO =        -0.00000000
  eigenvalues    EBANDS =       -61.27489765
  atomic energy  EATOM  =       455.37919397
  Solvation  Ediel_sol  =         0.00000000
  ---------------------------------------------------
  free energy    TOTEN  =       -20.61766997 eV

  energy without entropy =      -20.61766997  energy(sigma->0) =      -20.61766997


--------------------------------------------------------------------------------------------------------




----------------------------------------- Iteration    1(   9)  ---------------------------------------


    POTLOK:  cpu time    0.0030: real time    0.0043
    SETDIJ:  cpu time    0.0030: real time    0.0027
     EDDAV:  cpu time    0.0490: real time    0.0490
       DOS:  cpu time    0.0000: real time    0.0001
    CHARGE:  cpu time    0.0080: real time    0.0086
    MIXING:  cpu time    0.0010: real time    0.0003
    --------------------------------------------
      LOOP:  cpu time    0.0660: real time    0.0682

 eigenvalue-minimisations  :   320
 total energy-change (2. order) : 0.8665628E+01  (-0.3073189E+01)
 number of electron       7.9999998 magnetization 
 augmentation part        0.0789670 magnetization 

 Broyden mixing:
  rms(total) = 0.23610E+00    rms(broyden)= 0.23496E+00
  rms(prec ) = 0.63961E+00
  weight for this iteration     100.00

 eigenvalues of (default mixing * dielectric matrix)
  average eigenvalue GAMMA=   1.5096
  2.5820  1.3514  1.3514  0.7536

 Free energy of the ion-electron system (eV)
  ---------------------------------------------------
  alpha Z        PSCENC =        15.91937336
  Ewald energy   TEWEN  =      -355.39410472
  -Hartree energ DENC   =      -138.08525462
  -exchange      EXHF   =         0.00000000
  -V(xc)+E(xc)   XCENC  =       -20.88652769
  PAW double counting   =      1019.32086586     -968.81527632
  entropy T*S    EENTRO =        -0.00000000
  eigenvalues    EBANDS =       -19.39031209
  atomic energy  EATOM  =       455.37919397
  Solvation  Ediel_sol  =         0.00000000
  ---------------------------------------------------
  free energy    TOTEN  =       -11.95204225 eV

  energy without entropy =      -11.95204225  energy(sigma->0) =      -11.95204225


--------------------------------------------------------------------------------------------------------




----------------------------------------- Iteration    1(  10)  ---------------------------------------


    POTLOK:  cpu time    0.0040: real time    0.0042
    SETDIJ:  cpu time    0.0030: real time    0.0025
     EDDAV:  cpu time    0.0620: real time    0.0624
       DOS:  cpu time    0.0000: real time    0.0001
    CHARGE:  cpu time    0.0100: real time    0.0095
    MIXING:  cpu time    0.0000: real time    0.0003
    --------------------------------------------
      LOOP:  cpu time    0.0790: real time    0.0825

 eigenvalue-minimisations  :   416
 total energy-change (2. order) :-0.2646759E-01  (-0.2011693E+00)
 number of electron       7.9999999 magnetization 
 augmentation part        0.0602060 magnetization 

 Broyden mixing:
  rms(total) = 0.18810E+00    rms(broyden)= 0.18747E+00
  rms(prec ) = 0.59380E+00
  weight for this iteration     100.00

 eigenvalues of (default mixing * dielectric matrix)
  average eigenvalue GAMMA=   1.6391
  2.6926  2.5577  1.2237  0.8836  0.8377

 Free energy of the ion-electron system (eV)
  ---------------------------------------------------
  alpha Z        PSCENC =        15.91937336
  Ewald energy   TEWEN  =      -355.39410472
  -Hartree energ DENC   =      -144.92301223
  -exchange      EXHF   =         0.00000000
  -V(xc)+E(xc)   XCENC  =       -20.44575936
  PAW double counting   =       832.51545353     -782.18557598
  entropy T*S    EENTRO =        -0.00000000
  eigenvalues    EBANDS =       -12.84407841
  atomic energy  EATOM  =       455.37919397
  Solvation  Ediel_sol  =         0.00000000
  ---------------------------------------------------
  free energy    TOTEN  =       -11.97850984 eV

  energy without entropy =      -11.97850984  energy(sigma->0) =      -11.97850984


--------------------------------------------------------------------------------------------------------




----------------------------------------- Iteration    1(  11)  ---------------------------------------


    POTLOK:  cpu time    0.0050: real time    0.0045
    SETDIJ:  cpu time    0.0030: real time    0.0026
     EDDAV:  cpu time    0.0560: real time    0.0569
       DOS:  cpu time    0.0010: real time    0.0001
    CHARGE:  cpu time    0.0080: real time    0.0086
    MIXING:  cpu time    0.0010: real time    0.0003
    --------------------------------------------
      LOOP:  cpu time    0.0740: real time    0.0764

 eigenvalue-minimisations  :   352
 total energy-change (2. order) : 0.5720069E-01  (-0.6704816E-01)
 number of electron       7.9999998 magnetization 
 augmentation part        0.0709883 magnetization 

 Broyden mixing:
  rms(total) = 0.39752E-01    rms(broyden)= 0.39639E-01
  rms(prec ) = 0.14433E+00
  weight for this iteration     100.00

 eigenvalues of (default mixing * dielectric matrix)
  average eigenvalue GAMMA=   1.5788
  2.8975  2.5369  1.3129  0.8355  0.9451  0.9451

 Free energy of the ion-electron system (eV)
  ---------------------------------------------------
  alpha Z        PSCENC =        15.91937336
  Ewald energy   TEWEN  =      -355.39410472
  -Hartree energ DENC   =      -140.33872031
  -exchange      EXHF   =         0.00000000
  -V(xc)+E(xc)   XCENC  =       -20.72586278
  PAW double counting   =       711.87605657     -661.47555145
  entropy T*S    EENTRO =        -0.00000000
  eigenvalues    EBANDS =       -17.16169379
  atomic energy  EATOM  =       455.37919397
  Solvation  Ediel_sol  =         0.00000000
  ---------------------------------------------------
  free energy    TOTEN  =       -11.92130915 eV

  energy without entropy =      -11.92130915  energy(sigma->0) =      -11.92130915


--------------------------------------------------------------------------------------------------------




----------------------------------------- Iteration    1(  12)  ---------------------------------------


    POTLOK:  cpu time    0.0040: real time    0.0041
    SETDIJ:  cpu time    0.0020: real time    0.0025
     EDDAV:  cpu time    0.0640: real time    0.0634
       DOS:  cpu time    0.0000: real time    0.0001
    CHARGE:  cpu time    0.0090: real time    0.0088
    MIXING:  cpu time    0.0000: real time    0.0003
    --------------------------------------------
      LOOP:  cpu time    0.0790: real time    0.0828

 eigenvalue-minimisations  :   416
 total energy-change (2. order) : 0.3533260E-02  (-0.2729432E-02)
 number of electron       7.9999999 magnetization 
 augmentation part        0.0690444 magnetization 

 Broyden mixing:
  rms(total) = 0.39340E-02    rms(broyden)= 0.39159E-02
  rms(prec ) = 0.14073E-01
  weight for this iteration     100.00

 eigenvalues of (default mixing * dielectric matrix)
  average eigenvalue GAMMA=   1.5162
  2.8747  2.5370  1.3975  1.1447  1.0131  0.8233  0.8233

 Free energy of the ion-electron system (eV)
  ---------------------------------------------------
  alpha Z        PSCENC =        15.91937336
  Ewald energy   TEWEN  =      -355.39410472
  -Hartree energ DENC   =      -141.26253569
  -exchange      EXHF   =         0.00000000
  -V(xc)+E(xc)   XCENC  =       -20.65533134
  PAW double counting   =       644.24898784     -593.86221330
  entropy T*S    EENTRO =        -0.00000000
  eigenvalues    EBANDS =       -16.29114601
  atomic energy  EATOM  =       455.37919397
  Solvation  Ediel_sol  =         0.00000000
  ---------------------------------------------------
  free energy    TOTEN  =       -11.91777589 eV

  energy without entropy =      -11.91777589  energy(sigma->0) =      -11.91777589


--------------------------------------------------------------------------------------------------------




----------------------------------------- Iteration    1(  13)  ---------------------------------------


    POTLOK:  cpu time    0.0050: real time    0.0042
    SETDIJ:  cpu time    0.0020: real time    0.0025
     EDDAV:  cpu time    0.0620: real time    0.0616
       DOS:  cpu time    0.0000: real time    0.0001
    CHARGE:  cpu time    0.0090: real time    0.0089
    MIXING:  cpu time    0.0000: real time    0.0003
    --------------------------------------------
      LOOP:  cpu time    0.0780: real time    0.0811

 eigenvalue-minimisations  :   400
 total energy-change (2. order) :-0.2919153E-04  (-0.1097464E-03)
 number of electron       7.9999999 magnetization 
 augmentation part        0.0686036 magnetization 

 Broyden mixing:
  rms(total) = 0.46059E-02    rms(broyden)= 0.45953E-02
  rms(prec ) = 0.12791E-01
  weight for this iteration     100.00

 eigenvalues of (default mixing * dielectric matrix)
  average eigenvalue GAMMA=   1.6789
  3.2496  2.6973  2.5268  1.2847  0.8954  0.8954  0.8931  0.9888

 Free energy of the ion-electron system (eV)
  ---------------------------------------------------
  alpha Z        PSCENC =        15.91937336
  Ewald energy   TEWEN  =      -355.39410472
  -Hartree energ DENC   =      -141.41486066
  -exchange      EXHF   =         0.00000000
  -V(xc)+E(xc)   XCENC  =       -20.64618784
  PAW double counting   =       661.27309022     -610.88925664
  entropy T*S    EENTRO =        -0.00000000
  eigenvalues    EBANDS =       -16.14505278
  atomic energy  EATOM  =       455.37919397
  Solvation  Ediel_sol  =         0.00000000
  ---------------------------------------------------
  free energy    TOTEN  =       -11.91780508 eV

  energy without entropy =      -11.91780508  energy(sigma->0) =      -11.91780508


--------------------------------------------------------------------------------------------------------




----------------------------------------- Iteration    1(  14)  ---------------------------------------


    POTLOK:  cpu time    0.0050: real time    0.0042
    SETDIJ:  cpu time    0.0020: real time    0.0025
     EDDAV:  cpu time    0.0660: real time    0.0655
       DOS:  cpu time    0.0000: real time    0.0001
    CHARGE:  cpu time    0.0090: real time    0.0088
    MIXING:  cpu time    0.0000: real time    0.0004
    --------------------------------------------
      LOOP:  cpu time    0.0820: real time    0.0849

 eigenvalue-minimisations  :   432
 total energy-change (2. order) : 0.2742198E-04  (-0.2653461E-04)
 number of electron       7.9999999 magnetization 
 augmentation part        0.0688419 magnetization 

 Broyden mixing:
  rms(total) = 0.89959E-03    rms(broyden)= 0.89698E-03
  rms(prec ) = 0.23820E-02
  weight for this iteration     100.00

 eigenvalues of (default mixing * dielectric matrix)
  average eigenvalue GAMMA=   1.5805
  2.9808  2.6803  2.5198  1.2083  1.2083  0.8876  0.8876  0.9260  0.9260

 Free energy of the ion-electron system (eV)
  ---------------------------------------------------
  alpha Z        PSCENC =        15.91937336
  Ewald energy   TEWEN  =      -355.39410472
  -Hartree energ DENC   =      -141.34585862
  -exchange      EXHF   =         0.00000000
  -V(xc)+E(xc)   XCENC  =       -20.65034814
  PAW double counting   =       676.95279194     -626.56658529
  entropy T*S    EENTRO =        -0.00000000
  eigenvalues    EBANDS =       -16.21224016
  atomic energy  EATOM  =       455.37919397
  Solvation  Ediel_sol  =         0.00000000
  ---------------------------------------------------
  free energy    TOTEN  =       -11.91777766 eV

  energy without entropy =      -11.91777766  energy(sigma->0) =      -11.91777766


--------------------------------------------------------------------------------------------------------




----------------------------------------- Iteration    1(  15)  ---------------------------------------


    POTLOK:  cpu time    0.0050: real time    0.0042
    SETDIJ:  cpu time    0.0020: real time    0.0025
     EDDAV:  cpu time    0.0540: real time    0.0545
       DOS:  cpu time    0.0010: real time    0.0002
    CHARGE:  cpu time    0.0090: real time    0.0093
    MIXING:  cpu time    0.0000: real time    0.0004
    --------------------------------------------
      LOOP:  cpu time    0.0710: real time    0.0740

 eigenvalue-minimisations  :   352
 total energy-change (2. order) : 0.5609363E-06  (-0.1396927E-05)
 number of electron       7.9999999 magnetization 
 augmentation part        0.0687932 magnetization 

 Broyden mixing:
  rms(total) = 0.28656E-03    rms(broyden)= 0.28629E-03
  rms(prec ) = 0.10825E-02
  weight for this iteration     100.00

 eigenvalues of (default mixing * dielectric matrix)
  average eigenvalue GAMMA=   1.7021
  3.2881  2.8421  2.5274  2.4571  1.2775  0.8945  0.8945  1.0151  0.9514  0.8739

 Free energy of the ion-electron system (eV)
  ---------------------------------------------------
  alpha Z        PSCENC =        15.91937336
  Ewald energy   TEWEN  =      -355.39410472
  -Hartree energ DENC   =      -141.36378506
  -exchange      EXHF   =         0.00000000
  -V(xc)+E(xc)   XCENC  =       -20.64940280
  PAW double counting   =       675.17137174     -624.78564194
  entropy T*S    EENTRO =        -0.00000000
  eigenvalues    EBANDS =       -16.19478165
  atomic energy  EATOM  =       455.37919397
  Solvation  Ediel_sol  =         0.00000000
  ---------------------------------------------------
  free energy    TOTEN  =       -11.91777710 eV

  energy without entropy =      -11.91777710  energy(sigma->0) =      -11.91777710


--------------------------------------------------------------------------------------------------------




----------------------------------------- Iteration    1(  16)  ---------------------------------------


    POTLOK:  cpu time    0.0040: real time    0.0041
    SETDIJ:  cpu time    0.0020: real time    0.0025
     EDDAV:  cpu time    0.0270: real time    0.0268
       DOS:  cpu time    0.0000: real time    0.0001
    --------------------------------------------
      LOOP:  cpu time    0.0340: real time    0.0367

 eigenvalue-minimisations  :   160
 total energy-change (2. order) : 0.2246475E-07  (-0.5356624E-07)
 number of electron       7.9999999 magnetization 
 augmentation part        0.0687932 magnetization 

 Free energy of the ion-electron system (eV)
  ---------------------------------------------------
  alpha Z        PSCENC =        15.91937336
  Ewald energy   TEWEN  =      -355.39410472
  -Hartree energ DENC   =      -141.35920259
  -exchange      EXHF   =         0.00000000
  -V(xc)+E(xc)   XCENC  =       -20.64980011
  PAW double counting   =       673.10484702     -622.71910351
  entropy T*S    EENTRO =        -0.00000000
  eigenvalues    EBANDS =       -16.19898049
  atomic energy  EATOM  =       455.37919397
  Solvation  Ediel_sol  =         0.00000000
  ---------------------------------------------------
  free energy    TOTEN  =       -11.91777707 eV

  energy without entropy =      -11.91777707  energy(sigma->0) =      -11.91777707


--------------------------------------------------------------------------------------------------------




 average (electrostatic) potential at core
  the test charge radii are     0.5955  1.0714
  (the norm of the test charge is              1.0000)
       1-108.4713       2 -34.8732
 
 
 
 E-fermi :   3.6350     XC(G=0): -10.9719     alpha+bet :-13.2242


 k-point     1 :       0.1250    0.1250    0.1250
  band No.  band energies     occupation 
      1     -13.5753      2.00000
      2       2.4695      2.00000
      3       3.3166      2.00000
      4       3.3166      2.00000
      5       8.8333      0.00000
      6      17.4134      0.00000
      7      19.4296      0.00000
      8      19.4296      0.00000
      9      23.6793      0.00000
     10      23.6793      0.00000
     11      25.0190      0.00000
     12      27.4559      0.00000
     13      28.8869      0.00000
     14      28.8869      0.00000
     15      39.1526      0.00000
     16      41.0563      0.00000

 k-point     2 :       0.3750    0.1250    0.1250
  band No.  band energies     occupation 
      1     -12.9164      2.00000
      2       0.2956      2.00000
      3       2.4540      2.00000
      4       3.0178      2.00000
      5      11.2497      0.00000
      6      15.3517      0.00000
      7      18.7632      0.00000
      8      20.4309      0.00000
      9      22.2518      0.00000
     10      24.4825      0.00000
     11      26.6011      0.00000
     12      31.2618      0.00000
     13      32.5363      0.00000
     14      33.4108      0.00000
     15      35.7809      0.00000
     16      39.0750      0.00000

 k-point     3 :      -0.3750    0.1250    0.1250
  band No.  band energies     occupation 
      1     -12.4756      2.00000
      2      -0.8378      2.00000
      3       2.3031      2.00000
      4       2.6779      2.00000
      5      11.8375      0.00000
      6      15.5626      0.00000
      7      18.0526      0.00000
      8      19.8689      0.00000
      9      23.8591      0.00000
     10      26.1095      0.00000
     11      26.2049      0.00000
     12      32.4873      0.00000
     13      33.0848      0.00000
     14      33.4293      0.00000
     15      36.0113      0.00000
     16      37.7218      0.00000

 k-point     4 :      -0.1250    0.1250    0.1250
  band No.  band energies     occupation 
      1     -13.2085      2.00000
      2       1.1855      2.00000
      3       2.9454      2.00000
      4       2.9494      2.00000
      5      10.4223      0.00000
      6      15.5926      0.00000
      7      19.5574      0.00000
      8      20.0385      0.00000
      9      21.2135      0.00000
     10      25.0589      0.00000
     11      27.0589      0.00000
     12      30.1566      0.00000
     13      30.4418      0.00000
     14      31.1948      0.00000
     15      37.4165      0.00000
     16      39.1798      0.00000

 k-point     5 :       0.3750    0.3750    0.1250
  band No.  band energies     occupation 
      1     -12.6785      2.00000
      2       0.1091      2.00000
      3       2.2530      2.00000
      4       2.4867      2.00000
      5      12.3527      0.00000
      6      13.9959      0.00000
      7      17.3070      0.00000
      8      20.9375      0.00000
      9      21.3940      0.00000
     10      27.2395      0.00000
     11      30.3456      0.00000
     12      30.6135      0.00000
     13      32.5281      0.00000
     14      35.0202      0.00000
     15      36.6725      0.00000
     16      38.0887      0.00000

 k-point     6 :      -0.3750    0.3750    0.1250
  band No.  band energies     occupation 
      1     -12.2625      2.00000
      2      -0.0085      2.00000
      3       0.9921      2.00000
      4       2.0748      2.00000
      5      13.8681      0.00000
      6      14.9067      0.00000
      7      15.6987      0.00000
      8      19.7115      0.00000
      9      23.1576      0.00000
     10      26.6106      0.00000
     11      30.1726      0.00000
     12      31.5960      0.00000
     13      32.8648      0.00000
     14      36.5383      0.00000
     15      39.1098      0.00000
     16      41.3293      0.00000

 k-point     7 :      -0.1250    0.3750    0.1250
  band No.  band energies     occupation 
      1     -12.5213      2.00000
      2      -0.2121      2.00000
      3       1.7349      2.00000
      4       2.5760      2.00000
      5      12.7112      0.00000
      6      14.9060      0.00000
      7      17.0794      0.00000
      8      20.2747      0.00000
      9      22.8444      0.00000
     10      25.5187      0.00000
     11      29.0538      0.00000
     12      31.8450      0.00000
     13      32.4266      0.00000
     14      35.0913      0.00000
     15      35.7348      0.00000
     16      41.2362      0.00000

 k-point     8 :      -0.3750   -0.3750    0.1250
  band No.  band energies     occupation 
      1     -12.2992      2.00000
      2      -0.3731      2.00000
      3       1.7345      2.00000
      4       2.1918      2.00000
      5      12.9423      0.00000
      6      13.6244      0.00000
      7      16.1498      0.00000
      8      21.6480      0.00000
      9      21.6595      0.00000
     10      29.1256      0.00000
     11      29.5587      0.00000
     12      32.1421      0.00000
     13      32.8572      0.00000
     14      38.0052      0.00000
     15      38.3870      0.00000
     16      41.3179      0.00000

 k-point     9 :       0.3750    0.3750    0.3750
  band No.  band energies     occupation 
      1     -12.7148      2.00000
      2      -0.5674      2.00000
      3       2.8732      2.00000
      4       2.8732      2.00000
      5      11.0474      0.00000
      6      15.5678      0.00000
      7      19.6644      0.00000
      8      19.6644      0.00000
      9      24.2540      0.00000
     10      24.5943      0.00000
     11      24.5943      0.00000
     12      32.1078      0.00000
     13      33.4284      0.00000
     14      33.4284      0.00000
     15      37.0418      0.00000
     16      37.0418      0.00000

 k-point    10 :      -0.3750    0.3750    0.3750
  band No.  band energies     occupation 
      1     -12.3468      2.00000
      2      -0.2506      2.00000
      3       1.0981      2.00000
      4       2.5459      2.00000
      5      13.1906      0.00000
      6      15.3653      0.00000
      7      16.2707      0.00000
      8      20.5869      0.00000
      9      22.6699      0.00000
     10      25.6952      0.00000
     11      29.2740      0.00000
     12      31.8153      0.00000
     13      32.2384      0.00000
     14      35.5771      0.00000
     15      37.4614      0.00000
     16      40.3354      0.00000


--------------------------------------------------------------------------------------------------------


 soft charge-density along one line, spin component           1
         0         1         2         3         4         5         6         7         8         9
 total charge-density along one line
 
 pseudopotential strength for first ion, spin component:           1
 25.182  -0.005  -0.000  -0.000  -0.000   0.000   0.000   0.000
 -0.005   0.001  -0.000  -0.000  -0.000  -0.000  -0.000  -0.000
 -0.000  -0.000  -8.630   0.000   0.000   0.013   0.000   0.000
 -0.000  -0.000   0.000  -8.630   0.000   0.000   0.013   0.000
 -0.000  -0.000   0.000   0.000  -8.630   0.000   0.000   0.013
  0.000  -0.000   0.013   0.000   0.000   0.018   0.000   0.000
  0.000  -0.000   0.000   0.013   0.000   0.000   0.018   0.000
  0.000  -0.000   0.000   0.000   0.013   0.000   0.000   0.018
 total augmentation occupancy for first ion, spin component:           1
  1.787   2.150   0.000   0.000   0.000   0.000   0.000   0.000
  2.150   4.149   0.000   0.000   0.000   0.000   0.000   0.000
  0.000   0.000   1.498   0.000   0.000  -1.086  -0.000  -0.000
  0.000   0.000   0.000   1.498   0.000  -0.000  -1.086  -0.000
  0.000   0.000   0.000   0.000   1.498  -0.000  -0.000  -1.086
  0.000   0.000  -1.086  -0.000  -0.000   0.846   0.000   0.000
  0.000   0.000  -0.000  -1.086  -0.000   0.000   0.846   0.000
  0.000   0.000  -0.000  -0.000  -1.086   0.000   0.000   0.846


------------------------ aborting loop because EDIFF is reached ----------------------------------------


    CHARGE:  cpu time    0.0090: real time    0.0083
    FORLOC:  cpu time    0.0000: real time    0.0002
    FORNL :  cpu time    0.0060: real time    0.0061
    STRESS:  cpu time    0.0480: real time    0.0489
    FORCOR:  cpu time    0.0040: real time    0.0037
    FORHAR:  cpu time    0.0010: real time    0.0009
    MIXING:  cpu time    0.0010: real time    0.0005
    OFIELD:  cpu time    0.0000: real time    0.0000

  FORCE on cell =-STRESS in cart. coord.  units (eV):
  Direction    XX          YY          ZZ          XY          YZ          ZX
  --------------------------------------------------------------------------------------
  Alpha Z    15.91937    15.91937    15.91937
  Ewald    -118.46471  -118.46474  -118.46473     0.00000    -0.00002     0.00000
  Hartree    47.11655    47.11656    47.11655     0.00000     0.00001     0.00000
  E(xc)     -36.97686   -36.97686   -36.97686     0.00000     0.00000     0.00000
  Local     -88.87849   -88.87851   -88.87849    -0.00002    -0.00001    -0.00001
  n-local    -9.22739    -9.44199   -10.58119     0.23075     0.48025    -1.16444
  augment     0.81986     0.81986     0.81986    -0.00000    -0.00000    -0.00000
  Kinetic   186.02972   189.05555   194.90114     0.68064    -1.76839     4.00784
  Fock        0.00000     0.00000     0.00000     0.00000     0.00000     0.00000
  -------------------------------------------------------------------------------------
  Total      -0.21901    -0.21901    -0.21901    -0.00000    -0.00000    -0.00000
  in kB     -18.34618   -18.34618   -18.34618    -0.00000    -0.00000    -0.00000
  external pressure =      -18.35 kB  Pullay stress =        0.00 kB


 VOLUME and BASIS-vectors are now :
 -----------------------------------------------------------------------------
  energy-cutoff  :      825.00
  volume of cell :       19.13
      direct lattice vectors                 reciprocal lattice vectors
     3.001819000  0.000000000  0.000000000     0.333131345 -0.192333499 -0.136000318
     1.500910000  2.599652000  0.000000000     0.000000000  0.384666871 -0.136000352
     1.500910000  0.866551000  2.450975000     0.000000000  0.000000000  0.408000898

  length of vectors
     3.001819000  3.001819673  3.001819434     0.408000925  0.408000854  0.408000898


 FORCES acting on ions
    electron-ion (+dipol)            ewald-force                    non-local-force                 convergence-correction
 -----------------------------------------------------------------------------------------------
   0.751E-12 0.785E-12 0.377E-12   -.125E-14 0.936E-15 0.445E-15   -.565E-24 -.200E-23 0.791E-24   0.248E-14 0.527E-14 0.634E-15
   -.121E-14 -.227E-14 -.886E-15   0.194E-15 -.884E-15 -.477E-15   -.294E-24 0.218E-24 -.109E-24   0.190E-16 -.164E-17 0.734E-17
 -----------------------------------------------------------------------------------------------
   0.750E-12 0.783E-12 0.376E-12   -.105E-14 0.525E-16 -.315E-16   -.859E-24 -.178E-23 0.683E-24   0.250E-14 0.527E-14 0.641E-15
 
 
 POSITION                                       TOTAL-FORCE (eV/Angst)
 -----------------------------------------------------------------------------------
      3.00182      1.73310      1.22549        -0.000000      0.000000      0.000000
      0.00000      0.00000      0.00000         0.000000     -0.000000     -0.000000
 -----------------------------------------------------------------------------------
    total drift:                                0.000000      0.000000      0.000000


--------------------------------------------------------------------------------------------------------



  FREE ENERGIE OF THE ION-ELECTRON SYSTEM (eV)
  ---------------------------------------------------
  free  energy   TOTEN  =       -11.91777707 eV

  energy  without entropy=      -11.91777707  energy(sigma->0) =      -11.91777707
 


--------------------------------------------------------------------------------------------------------


    POTLOK:  cpu time    0.0070: real time    0.0070


--------------------------------------------------------------------------------------------------------


     LOOP+:  cpu time    1.2198: real time    1.2750
    4ORBIT:  cpu time    0.0000: real time    0.0000

 total amount of memory used by VASP on root node    33819. kBytes
========================================================================

   base      :      30000. kBytes
   nonl-proj :       2196. kBytes
   fftplans  :        267. kBytes
   grid      :       1169. kBytes
   one-center:         16. kBytes
   wavefun   :        171. kBytes
 
  
  
 General timing and accounting informations for this job:
 ========================================================
  
                  Total CPU time used (sec):        2.339
                            User time (sec):        1.809
                          System time (sec):        0.530
                         Elapsed time (sec):        2.935
  
                   Maximum memory used (kb):       61668.
                   Average memory used (kb):           0.
  
                          Minor page faults:        39682
                          Major page faults:            6
                 Voluntary context switches:          932
