# ['Ni']

28 atoms
1 atom types

    0.0000     2.3825 xlo xhi
    0.0000     4.1266 ylo yhi
    0.0000    27.2344 zlo zhi

    0.0000     0.0000     0.0000 xy xz yz

Atoms

1 1     0.0000     0.0000     0.0000
2 1     1.1913     2.0633     0.0000
3 1     1.1913     0.6878     1.9453
4 1     0.0000     2.7511     1.9453
5 1     0.0000     1.3755     3.8906
6 1     1.1913     3.4389     3.8906
7 1     0.0000     0.0000     5.8359
8 1     1.1913     2.0633     5.8359
9 1     1.1913     0.6878     7.7812
10 1     0.0000     2.7511     7.7812
11 1     0.0000     1.3755     9.7266
12 1     1.1913     3.4389     9.7266
13 1     0.0000     0.0000    11.6719
14 1     1.1913     2.0633    11.6719
15 1     0.0000     1.3755    13.6172
16 1     1.1913     3.4389    13.6172
17 1     0.0000     0.0000    15.5625
18 1     1.1913     2.0633    15.5625
19 1     1.1913     0.6878    17.5078
20 1     0.0000     2.7511    17.5078
21 1     0.0000     1.3755    19.4531
22 1     1.1913     3.4389    19.4531
23 1     0.0000     0.0000    21.3984
24 1     1.1913     2.0633    21.3984
25 1     1.1913     0.6878    23.3438
26 1     0.0000     2.7511    23.3438
27 1     0.0000     1.3755    25.2891
28 1     1.1913     3.4389    25.2891
