# ['Ni']

18 atoms
1 atom types

    0.0000     2.4808 xlo xhi
    0.0000     4.2969 ylo yhi
    0.0000    36.4540 zlo zhi

    0.0000     0.0000    -0.0004 xy xz yz

Atoms

1 1     0.0000     0.0000     0.0000
2 1     1.2404     0.7161     2.0252
3 1     0.0000     1.4323     4.0504
4 1     1.2404     2.1484     0.0000
5 1     0.0000     2.8646     2.0252
6 1     1.2404     3.5807     4.0504
7 1     0.0000     0.0000     6.0757
8 1     1.2404     0.7161     8.1009
9 1     0.0000     1.4323    10.1261
10 1     1.2404     2.1484     6.0757
11 1     0.0000     2.8646     8.1009
12 1     1.2404     3.5807    10.1261
13 1     0.0000     0.0000    12.1513
14 1     1.2404     0.7161    14.1766
15 1     0.0000     1.4323    16.2018
16 1     1.2404     2.1484    12.1513
17 1     0.0000     2.8646    14.1766
18 1     1.2404     3.5807    16.2018
