LAMMPS (11 Aug 2017)
Reading data file ...
  triclinic box = (0 0 0) to (3.5167 3.5167 3.5167) with tilt (0 -0 0)
  1 by 1 by 1 MPI processor grid
  reading atoms ...
  4 atoms
4 atoms in group Ni
Neighbor list info ...
  update every 1 steps, delay 0 steps, check yes
  max neighbors/atom: 2000, page size: 100000
  master list distance cutoff = 5.64464
  ghost atom cutoff = 5.64464
  binsize = 2.82232, bins = 2 2 2
  1 neighbor lists, perpetual/occasional/extra = 1 0 0
  (1) pair eam/alloy, perpetual
      attributes: half, newton on
      pair build: half/bin/newton/tri
      stencil: half/bin/3d/newton/tri
      bin: standard
Setting up cg style minimization ...
  Unit style    : metal
  Current step  : 0
WARNING: Energy due to 3 extra global DOFs will be included in minimizer energies
Per MPI rank memory allocation (min/avg/max) = 4.086 | 4.086 | 4.086 Mbytes
Step Temp PotEng Press Pxx Pyy Pzz Pxy Pxz Pyz Lx Ly Lz Volume 
       0            0    -13.33155    94824.073    94824.073    94824.073    94824.073 -1.0608225e-11 1.4698144e-11 1.4698144e-11       3.5167       3.5167       3.5167    43.491658 
       1            0    -13.33232    94297.515    94297.515    94297.515    94297.515 5.6219508e-12 4.0886915e-12 1.5332593e-12    3.5170517    3.5170517    3.5170517    43.504707 
       2            0   -13.333086    93771.743    93771.743    93771.743    93771.743 -8.4303971e-12 7.6639973e-12 9.9631965e-12    3.5174033    3.5174033    3.5174033    43.517758 
       3            0   -13.333848    93246.756    93246.756    93246.756    93246.756 -3.4222256e-11 -4.5842499e-11 -5.6696573e-11     3.517755     3.517755     3.517755    43.530812 
       4            0   -13.334605    92722.552    92722.552    92722.552    92722.552 4.4679843e-12 2.936104e-12 7.4040883e-12    3.5181067    3.5181067    3.5181067    43.543869 
       5            0   -13.335359    92199.132    92199.132    92199.132    92199.132 6.5723487e-11 6.8913947e-11 7.7974855e-11    3.5184583    3.5184583    3.5184583    43.556928 
       6            0   -13.336109    91676.494    91676.494    91676.494    91676.494 -4.3249675e-11 -4.4908217e-11 -4.4015156e-11      3.51881      3.51881      3.51881     43.56999 
       7            0   -13.336854    91154.636    91154.636    91154.636    91154.636 -1.1606315e-11 2.9334641e-12 1.0203353e-12    3.5191617    3.5191617    3.5191617    43.583054 
       8            0   -13.337595    90633.559    90633.559    90633.559    90633.559 -2.4225701e-12 -3.8251107e-12 5.1001476e-13    3.5195134    3.5195134    3.5195134    43.596122 
       9            0   -13.338333    90113.261    90113.261    90113.261    90113.261 -3.4415679e-12 -2.2943786e-12 1.9119822e-11     3.519865     3.519865     3.519865    43.609191 
      10            0   -13.339066    89593.741    89593.741    89593.741    89593.741 3.8228184e-12 -4.4599548e-12 -1.7839819e-12    3.5202167    3.5202167    3.5202167    43.622263 
      11            0   -13.339795    89074.998    89074.998    89074.998    89074.998 4.7133966e-12 6.1146767e-12 1.694275e-11    3.5205684    3.5205684    3.5205684    43.635338 
      12            0    -13.34052    88557.031    88557.031    88557.031    88557.031 -8.4433667e-11 -8.7235387e-11 -7.6410558e-11      3.52092      3.52092      3.52092    43.648416 
      13            0   -13.341241    88039.839    88039.839    88039.839    88039.839 -1.3495155e-11 6.7475773e-12 1.4259031e-11    3.5212717    3.5212717    3.5212717    43.661496 
      14            0   -13.341957    87523.422    87523.422    87523.422    87523.422 -5.0909857e-12 -1.1327443e-11 9.8001474e-12    3.5216234    3.5216234    3.5216234    43.674579 
      15            0    -13.34267    87007.778    87007.778    87007.778    87007.778 1.4504963e-11 5.5984069e-12 -1.2850889e-11     3.521975     3.521975     3.521975    43.687664 
      16            0   -13.343379    86492.906    86492.906    86492.906    86492.906 -1.0684667e-11 1.2719841e-12 3.3071588e-12    3.5223267    3.5223267    3.5223267    43.700752 
      17            0   -13.344083    85978.806    85978.806    85978.806    85978.806 -4.2344388e-11 -4.323451e-11 -5.2517214e-11    3.5226784    3.5226784    3.5226784    43.713843 
      18            0   -13.344784    85465.476    85465.476    85465.476    85465.476 -7.6273349e-12 8.7714351e-12 1.4746181e-11    3.5230301    3.5230301    3.5230301    43.726936 
      19            0    -13.34548    84952.915    84952.915    84952.915    84952.915 -3.6218993e-11 -2.6179343e-11 -2.9864784e-11    3.5233817    3.5233817    3.5233817    43.740032 
      20            0   -13.346173    84441.123    84441.123    84441.123    84441.123 6.9240147e-11 5.7551902e-11 5.3486426e-11    3.5237334    3.5237334    3.5237334     43.75313 
      21            0   -13.346861    83930.099    83930.099    83930.099    83930.099 1.3589868e-11 5.715365e-12 4.4452839e-12    3.5240851    3.5240851    3.5240851    43.766231 
      22            0   -13.347545    83419.841    83419.841    83419.841    83419.841 1.1046398e-11 -1.2062159e-11 -1.2316099e-11    3.5244367    3.5244367    3.5244367    43.779335 
      23            0   -13.348226    82910.349    82910.349    82910.349    82910.349 8.2505863e-12 -4.1887592e-12 -5.0772839e-12    3.5247884    3.5247884    3.5247884    43.792441 
      24            0   -13.348902    82401.621    82401.621    82401.621    82401.621 7.6136467e-12 -3.1723528e-12 4.3143998e-12    3.5251401    3.5251401    3.5251401     43.80555 
      25            0   -13.349574    81893.658    81893.658    81893.658    81893.658 -5.2264731e-11 -4.5287643e-11 -4.0467109e-11    3.5254917    3.5254917    3.5254917    43.818662 
      26            0   -13.350243    81386.457    81386.457    81386.457    81386.457 -1.9022728e-12 -4.4386366e-12 -2.7900001e-12    3.5258434    3.5258434    3.5258434    43.831776 
      27            0   -13.350907    80880.018    80880.018    80880.018    80880.018 -2.535605e-12 -2.2820445e-12 2.9159457e-12    3.5261951    3.5261951    3.5261951    43.844892 
      28            0   -13.351567    80374.339    80374.339    80374.339    80374.339 -8.3649934e-12 1.1153325e-11 7.0975702e-12    3.5265468    3.5265468    3.5265468    43.858012 
      29            0   -13.352223    79869.421    79869.421    79869.421    79869.421 4.1939162e-11 5.6130056e-11 6.1958459e-11    3.5268984    3.5268984    3.5268984    43.871134 
      30            0   -13.352875    79365.262    79365.262    79365.262    79365.262 8.486657e-12 -3.9266622e-12 -4.0533287e-12    3.5272501    3.5272501    3.5272501    43.884258 
      31            0   -13.353524    78861.861    78861.861    78861.861    78861.861 1.2662864e-13 -6.2048035e-12 -1.5195437e-12    3.5276018    3.5276018    3.5276018    43.897386 
      32            0   -13.354168    78359.217    78359.217    78359.217    78359.217 -1.2279306e-11 1.8482254e-11 -2.1520433e-12    3.5279534    3.5279534    3.5279534    43.910515 
      33            0   -13.354808    77857.329    77857.329    77857.329    77857.329 -5.1633596e-11 -5.7455031e-11 -4.8469773e-11    3.5283051    3.5283051    3.5283051    43.923648 
      34            0   -13.355444    77356.196    77356.196    77356.196    77356.196 8.0969662e-12 8.8560568e-13 -5.9462096e-12    3.5286568    3.5286568    3.5286568    43.936783 
      35            0   -13.356077    76855.818    76855.818    76855.818    76855.818 3.1366365e-11 3.6298979e-11 3.1113411e-11    3.5290084    3.5290084    3.5290084    43.949921 
      36            0   -13.356705    76356.193    76356.193    76356.193    76356.193 -7.6116564e-11 -7.6369443e-11 -8.1047704e-11    3.5293601    3.5293601    3.5293601    43.963061 
      37            0   -13.357329     75857.32     75857.32     75857.32     75857.32 5.9408793e-12 -4.2976574e-12 -7.5841013e-13    3.5297118    3.5297118    3.5297118    43.976204 
      38            0   -13.357949    75359.199    75359.199    75359.199    75359.199 -7.0763792e-12 1.7185492e-11 6.1918318e-12    3.5300635    3.5300635    3.5300635    43.989349 
      39            0   -13.358566    74861.829    74861.829    74861.829    74861.829 8.8428309e-13 -1.3895877e-12 2.7791754e-12    3.5304151    3.5304151    3.5304151    44.002498 
      40            0   -13.359178    74365.208    74365.208    74365.208    74365.208 -8.3350353e-12 -7.7035932e-12 -1.3891725e-12    3.5307668    3.5307668    3.5307668    44.015648 
      41            0   -13.359787    73869.336    73869.336    73869.336    73869.336 4.5450247e-12 2.5250137e-12 5.0500274e-12    3.5311185    3.5311185    3.5311185    44.028802 
      42            0   -13.360391    73374.212    73374.212    73374.212    73374.212 -5.8689032e-11 -5.3135661e-11 -6.3358912e-11    3.5314701    3.5314701    3.5314701    44.041958 
      43            0   -13.360992    72879.834    72879.834    72879.834    72879.834 3.5202901e-11 3.1543819e-11 3.6590829e-11    3.5318218    3.5318218    3.5318218    44.055116 
      44            0   -13.361589    72386.202    72386.202    72386.202    72386.202 1.728085e-11 -2.5227518e-13 -8.4512186e-12    3.5321735    3.5321735    3.5321735    44.068278 
      45            0   -13.362181    71893.316    71893.316    71893.316    71893.316 -4.6656972e-12 -2.5219985e-12 -5.6744965e-12    3.5325251    3.5325251    3.5325251    44.081441 
      46            0    -13.36277    71401.173    71401.173    71401.173    71401.173 -7.3620366e-11 -8.7487215e-11 -6.9208186e-11    3.5328768    3.5328768    3.5328768    44.094608 
      47            0   -13.363355    70909.774    70909.774    70909.774    70909.774 -1.0081971e-12 -1.0838118e-11 -1.0586069e-11    3.5332285    3.5332285    3.5332285    44.107777 
      48            0   -13.363936    70419.116    70419.116    70419.116    70419.116 1.2598701e-13 -2.7717142e-12 1.0078961e-12    3.5335802    3.5335802    3.5335802    44.120949 
      49            0   -13.364513      69929.2      69929.2      69929.2      69929.2 1.6373422e-12 -9.3202557e-12 -1.1461395e-11    3.5339318    3.5339318    3.5339318    44.134123 
      50            0   -13.365086    69440.025    69440.025    69440.025    69440.025 -4.6587369e-12 -4.9105605e-12 -7.4287967e-12    3.5342835    3.5342835    3.5342835      44.1473 
      51            0   -13.365655    68951.589    68951.589    68951.589    68951.589 -4.5314723e-12 8.9370703e-12 -4.909095e-12    3.5346352    3.5346352    3.5346352     44.16048 
      52            0   -13.366221    68463.891    68463.891    68463.891    68463.891 -1.057028e-11 8.8085667e-13 1.245783e-11    3.5349868    3.5349868    3.5349868    44.173662 
      53            0   -13.366782    67976.931    67976.931    67976.931    67976.931 -2.138585e-12 -1.2579912e-13 -2.3901832e-12    3.5353385    3.5353385    3.5353385    44.186847 
      54            0   -13.367339    67490.708    67490.708    67490.708    67490.708 8.9290725e-12 -1.3204966e-11 -5.0304634e-13    3.5356902    3.5356902    3.5356902    44.200034 
      55            0   -13.367893     67005.22     67005.22     67005.22     67005.22 -7.5685888e-11 -7.0908374e-11 -6.7639548e-11    3.5360418    3.5360418    3.5360418    44.213224 
      56            0   -13.368443    66520.468    66520.468    66520.468    66520.468 -3.9214208e-11 -3.8460088e-11 -3.5694984e-11    3.5363935    3.5363935    3.5363935    44.226417 
      57            0   -13.368989    66036.449    66036.449    66036.449    66036.449 8.1294951e-11 7.9661513e-11 6.4834922e-11    3.5367452    3.5367452    3.5367452    44.239613 
      58            0   -13.369531    65553.163    65553.163    65553.163    65553.163 -5.4012988e-11 -4.9867806e-11 -5.3887377e-11    3.5370969    3.5370969    3.5370969    44.252811 
      59            0   -13.370069     65070.61     65070.61     65070.61     65070.61 -3.7672243e-13  8.79019e-13 4.5206691e-12    3.5374485    3.5374485    3.5374485    44.266011 
      60            0   -13.370603    64588.787    64588.787    64588.787    64588.787 2.3851973e-12 5.9002248e-12 -1.5064404e-12    3.5378002    3.5378002    3.5378002    44.279214 
      61            0   -13.371133    64107.695    64107.695    64107.695    64107.695 -5.0199708e-13 3.7649781e-12 1.882489e-12    3.5381519    3.5381519    3.5381519     44.29242 
      62            0    -13.37166    63627.333    63627.333    63627.333    63627.333 1.2044338e-11 1.417719e-11 8.1550206e-12    3.5385035    3.5385035    3.5385035    44.305629 
      63            0   -13.372183    63147.698    63147.698    63147.698    63147.698 1.7684848e-11 -1.1037352e-11 1.1413626e-11    3.5388552    3.5388552    3.5388552     44.31884 
      64            0   -13.372701    62668.792    62668.792    62668.792    62668.792 -1.1034062e-11 1.1786385e-11 4.0123863e-12    3.5392069    3.5392069    3.5392069    44.332053 
      65            0   -13.373216    62190.612    62190.612    62190.612    62190.612 -5.891436e-12 -6.2674851e-12 7.0195833e-12    3.5395585    3.5395585    3.5395585     44.34527 
      66            0   -13.373728    61713.158    61713.158    61713.158    61713.158 1.1278111e-12 3.5087457e-12 8.7718643e-12    3.5399102    3.5399102    3.5399102    44.358489 
      67            0   -13.374235    61236.429    61236.429    61236.429    61236.429 -3.5077002e-12 4.7604503e-12 8.0176005e-12    3.5402619    3.5402619    3.5402619     44.37171 
      68            0   -13.374738    60760.423    60760.423    60760.423    60760.423 -1.1271391e-12 3.0057044e-12 3.8823682e-12    3.5406136    3.5406136    3.5406136    44.384935 
      69            0   -13.375238    60285.141    60285.141    60285.141    60285.141 4.3194129e-11 1.5399646e-11 3.4054501e-11    3.5409652    3.5409652    3.5409652    44.398162 
      70            0   -13.375734    59810.581    59810.581    59810.581    59810.581 4.3056099e-11 4.8563274e-11 4.4808382e-11    3.5413169    3.5413169    3.5413169    44.411391 
      71            0   -13.376226    59336.742    59336.742    59336.742    59336.742 6.1311641e-12 -8.8839316e-12 -9.6346864e-12    3.5416686    3.5416686    3.5416686    44.424623 
      72            0   -13.376714    58863.623    58863.623    58863.623    58863.623 -3.5650231e-11 -4.3280632e-11 -4.3030455e-11    3.5420202    3.5420202    3.5420202    44.437858 
      73            0   -13.377198    58391.224    58391.224    58391.224    58391.224 7.5030768e-12 -2.5010256e-12 1.1254615e-12    3.5423719    3.5423719    3.5423719    44.451095 
      74            0   -13.377679    57919.544    57919.544    57919.544    57919.544 1.7126924e-11 6.2507022e-12 1.0626194e-11    3.5427236    3.5427236    3.5427236    44.464335 
      75            0   -13.378156    57448.582    57448.582    57448.582    57448.582 7.2486557e-12 1.1247914e-11 1.2497682e-12    3.5430752    3.5430752    3.5430752    44.477578 
      76            0   -13.378629    56978.336    56978.336    56978.336    56978.336 9.8702297e-12 -1.0494928e-11 -1.4867814e-11    3.5434269    3.5434269    3.5434269    44.490823 
      77            0   -13.379098    56508.805    56508.805    56508.805    56508.805 3.4223264e-11 3.5971898e-11 4.1092898e-11    3.5437786    3.5437786    3.5437786    44.504071 
      78            0   -13.379563    56039.991    56039.991    56039.991    56039.991 -6.1183971e-12 1.2486525e-12 -1.7481135e-12    3.5441303    3.5441303    3.5441303    44.517322 
      79            0   -13.380025     55571.89     55571.89     55571.89     55571.89 8.0264459e-11 6.6533369e-11 5.0680203e-11    3.5444819    3.5444819    3.5444819    44.530575 
      80            0   -13.380483    55104.502    55104.502    55104.502    55104.502 -8.111411e-12  3.99331e-12 -1.6472404e-11    3.5448336    3.5448336    3.5448336     44.54383 
      81            0   -13.380937    54637.827    54637.827    54637.827    54637.827 2.819436e-11 3.1437959e-11 3.7176634e-11    3.5451853    3.5451853    3.5451853    44.557089 
      82            0   -13.381387    54171.863    54171.863    54171.863    54171.863 -2.4943337e-12 3.6167839e-12 6.1111177e-12    3.5455369    3.5455369    3.5455369     44.57035 
      83            0   -13.381834     53706.61     53706.61     53706.61     53706.61 1.3714754e-12 -1.0223726e-11 -3.7403875e-12    3.5458886    3.5458886    3.5458886    44.583614 
      84            0   -13.382277    53242.066    53242.066    53242.066    53242.066 -1.196568e-11 -9.4728296e-12 -9.4728296e-12    3.5462403    3.5462403    3.5462403     44.59688 
      85            0   -13.382716    52778.231    52778.231    52778.231    52778.231 1.5575678e-11 1.3706596e-12 -6.8532982e-12    3.5465919    3.5465919    3.5465919    44.610149 
      86            0   -13.383151    52315.105    52315.105    52315.105    52315.105 -1.9930938e-12 8.4706486e-12 9.4671955e-12    3.5469436    3.5469436    3.5469436     44.62342 
      87            0   -13.383582    51852.685    51852.685    51852.685    51852.685 1.7434384e-12 -1.3698445e-12 7.471879e-13    3.5472953    3.5472953    3.5472953    44.636695 
      88            0    -13.38401    51390.971    51390.971    51390.971    51390.971 -8.4531621e-11 -7.9800838e-11 -7.3576124e-11     3.547647     3.547647     3.547647    44.649971 
      89            0   -13.384434    50929.963    50929.963    50929.963    50929.963 4.6671477e-11 4.2937759e-11 3.833284e-11    3.5479986    3.5479986    3.5479986    44.663251 
      90            0   -13.384854    50469.659    50469.659    50469.659    50469.659 -5.0763471e-11 -4.3049414e-11 -4.6159921e-11    3.5483503    3.5483503    3.5483503    44.676533 
      91            0   -13.385271    50010.058    50010.058    50010.058    50010.058 6.4430542e-11 6.3559859e-11 4.7514415e-11     3.548702     3.548702     3.548702    44.689818 
      92            0   -13.385684    49551.161    49551.161    49551.161    49551.161 6.1675772e-11 5.9686231e-11 6.5406162e-11    3.5490536    3.5490536    3.5490536    44.703105 
      93            0   -13.386093    49092.964    49092.964    49092.964    49092.964 -6.3397773e-12 -8.7016551e-13 -6.588396e-12    3.5494053    3.5494053    3.5494053    44.716395 
      94            0   -13.386498     48635.47     48635.47     48635.47     48635.47 -5.0827418e-11 -4.8466242e-11 -4.3743891e-11     3.549757     3.549757     3.549757    44.729688 
      95            0     -13.3869    48178.674    48178.674    48178.674    48178.674 -4.8451841e-12 -6.7087164e-12 -1.2920491e-11    3.5501086    3.5501086    3.5501086    44.742983 
      96            0   -13.387298    47722.578    47722.578    47722.578    47722.578 2.533651e-11 1.6766808e-11 2.6578495e-11    3.5504603    3.5504603    3.5504603    44.756281 
      97            0   -13.387692    47267.181    47267.181    47267.181    47267.181 -4.9664671e-11 -4.7802246e-11 -5.3637845e-11     3.550812     3.550812     3.550812    44.769581 
      98            0   -13.388083    46812.481    46812.481    46812.481    46812.481 2.7307455e-12 -3.4754943e-12 -2.9789951e-12    3.5511637    3.5511637    3.5511637    44.782884 
      99            0    -13.38847    46358.477    46358.477    46358.477    46358.477 -2.1094948e-12 1.2532881e-11 3.8467257e-12    3.5515153    3.5515153    3.5515153     44.79619 
     100            0   -13.388853    45905.169    45905.169    45905.169    45905.169 4.3417875e-12 8.1873708e-12 1.277726e-11     3.551867     3.551867     3.551867    44.809499 
Loop time of 0.00609684 on 1 procs for 100 steps with 4 atoms

41.6% CPU use with 1 MPI tasks x no OpenMP threads

Minimization stats:
  Stopping criterion = max iterations
  Energy initial, next-to-last, final = 
        -13.3315496146     -13.3884698077     -13.3888529999
  Force two-norm initial, final = 4.45836 2.20171
  Force max component initial, final = 2.57403 1.27116
  Final line search alpha, max atom move = 7.79145e-05 9.90418e-05
  Iterations, force evaluations = 100 100

MPI task timing breakdown:
Section |  min time  |  avg time  |  max time  |%varavg| %total
---------------------------------------------------------------
Pair    | 0.0008738  | 0.0008738  | 0.0008738  |   0.0 | 14.33
Neigh   | 0          | 0          | 0          |   0.0 |  0.00
Comm    | 0.00016809 | 0.00016809 | 0.00016809 |   0.0 |  2.76
Output  | 0.0044558  | 0.0044558  | 0.0044558  |   0.0 | 73.08
Modify  | 0          | 0          | 0          |   0.0 |  0.00
Other   |            | 0.0005991  |            |       |  9.83

Nlocal:    4 ave 4 max 4 min
Histogram: 1 0 0 0 0 0 0 0 0 0
Nghost:    360 ave 360 max 360 min
Histogram: 1 0 0 0 0 0 0 0 0 0
Neighs:    156 ave 156 max 156 min
Histogram: 1 0 0 0 0 0 0 0 0 0

Total # of neighbors = 156
Ave neighs/atom = 39
Neighbor list builds = 0
Dangerous builds = 0
System init for write_restart ...
Reading restart file ...
  restart file = 11 Aug 2017, LAMMPS = 11 Aug 2017
  triclinic box = (-0.0175835 -0.0175835 -0.0175835) to (3.53428 3.53428 3.53428) with tilt (0 -0 0)
  1 by 1 by 1 MPI processor grid
  4 atoms
4 atoms in group Ni
Changing box ...
  triclinic box = (-0.0175835 -0.0175835 -0.0175835) to (3.53428 3.53428 3.53428) with tilt (0 -0 0)
Neighbor list info ...
  update every 1 steps, delay 0 steps, check yes
  max neighbors/atom: 2000, page size: 100000
  master list distance cutoff = 5.64464
  ghost atom cutoff = 5.64464
  binsize = 2.82232, bins = 2 2 2
  1 neighbor lists, perpetual/occasional/extra = 1 0 0
  (1) pair eam/alloy, perpetual
      attributes: half, newton on
      pair build: half/bin/newton/tri
      stencil: half/bin/3d/newton/tri
      bin: standard
Setting up cg style minimization ...
  Unit style    : metal
  Current step  : 100
Per MPI rank memory allocation (min/avg/max) = 4.086 | 4.086 | 4.086 Mbytes
Step Temp PotEng Press Pxx Pyy Pzz Pxy Pxz Pyz Lx Ly Lz Volume 
     100            0   -13.388852    45906.694    45906.928    45906.577    45906.577 -2.59267e-11 -5.495468e-11 1.240512e-12    3.5518634     3.551867     3.551867    44.809454 
     101            0   -13.388852    45906.688    45906.921    45906.571    45906.571 6.2025598e-13 4.1309048e-11 -3.3493823e-11    3.5518634     3.551867     3.551867    44.809454 
     102            0   -13.388852    45906.688    45906.921    45906.571    45906.571 3.0764697e-11 3.1012799e-12 1.2777273e-11    3.5518634     3.551867     3.551867    44.809454 
Loop time of 7.9155e-05 on 1 procs for 2 steps with 4 atoms

78.3% CPU use with 1 MPI tasks x no OpenMP threads

Minimization stats:
  Stopping criterion = force tolerance
  Energy initial, next-to-last, final = 
         -13.388851716     -13.3888517596     -13.3888517596
  Force two-norm initial, final = 0.00107628 3.78907e-15
  Force max component initial, final = 0.000310695 2.20657e-15
  Final line search alpha, max atom move = 1 2.20657e-15
  Iterations, force evaluations = 2 4

MPI task timing breakdown:
Section |  min time  |  avg time  |  max time  |%varavg| %total
---------------------------------------------------------------
Pair    | 4.673e-05  | 4.673e-05  | 4.673e-05  |   0.0 | 59.04
Neigh   | 0          | 0          | 0          |   0.0 |  0.00
Comm    | 9.0599e-06 | 9.0599e-06 | 9.0599e-06 |   0.0 | 11.45
Output  | 9.0599e-06 | 9.0599e-06 | 9.0599e-06 |   0.0 | 11.45
Modify  | 0          | 0          | 0          |   0.0 |  0.00
Other   |            | 1.431e-05  |            |       | 18.07

Nlocal:    4 ave 4 max 4 min
Histogram: 1 0 0 0 0 0 0 0 0 0
Nghost:    360 ave 360 max 360 min
Histogram: 1 0 0 0 0 0 0 0 0 0
Neighs:    156 ave 156 max 156 min
Histogram: 1 0 0 0 0 0 0 0 0 0

Total # of neighbors = 156
Ave neighs/atom = 39
Neighbor list builds = 0
Dangerous builds = 0
Reading restart file ...
  restart file = 11 Aug 2017, LAMMPS = 11 Aug 2017
  triclinic box = (-0.0175835 -0.0175835 -0.0175835) to (3.53428 3.53428 3.53428) with tilt (0 -0 0)
  1 by 1 by 1 MPI processor grid
  4 atoms
4 atoms in group Ni
Changing box ...
  triclinic box = (-0.0175835 -0.0175835 -0.0175835) to (3.53429 3.53428 3.53428) with tilt (0 -0 0)
Neighbor list info ...
  update every 1 steps, delay 0 steps, check yes
  max neighbors/atom: 2000, page size: 100000
  master list distance cutoff = 5.64464
  ghost atom cutoff = 5.64464
  binsize = 2.82232, bins = 2 2 2
  1 neighbor lists, perpetual/occasional/extra = 1 0 0
  (1) pair eam/alloy, perpetual
      attributes: half, newton on
      pair build: half/bin/newton/tri
      stencil: half/bin/3d/newton/tri
      bin: standard
Setting up cg style minimization ...
  Unit style    : metal
  Current step  : 100
Per MPI rank memory allocation (min/avg/max) = 4.086 | 4.086 | 4.086 Mbytes
Step Temp PotEng Press Pxx Pyy Pzz Pxy Pxz Pyz Lx Ly Lz Volume 
     100            0   -13.388854    45903.644     45903.41    45903.761    45903.761 2.8903871e-11 2.5058292e-11 -4.2177322e-12    3.5518706     3.551867     3.551867    44.809544 
     101            0   -13.388854    45903.638    45903.404    45903.755    45903.755 4.441024e-11 3.8951998e-11 -4.837987e-12    3.5518706     3.551867     3.551867    44.809544 
     102            0   -13.388854    45903.638    45903.404    45903.755    45903.755 -5.0860889e-12 4.2921628e-11 -4.7511513e-11    3.5518706     3.551867     3.551867    44.809544 
Loop time of 7.98702e-05 on 1 procs for 2 steps with 4 atoms

101.4% CPU use with 1 MPI tasks x no OpenMP threads

Minimization stats:
  Stopping criterion = force tolerance
  Energy initial, next-to-last, final = 
        -13.3888542838     -13.3888543273     -13.3888543273
  Force two-norm initial, final = 0.00107627 1.87465e-15
  Force max component initial, final = 0.000310692 1.17354e-15
  Final line search alpha, max atom move = 1 1.17354e-15
  Iterations, force evaluations = 2 4

MPI task timing breakdown:
Section |  min time  |  avg time  |  max time  |%varavg| %total
---------------------------------------------------------------
Pair    | 4.7922e-05 | 4.7922e-05 | 4.7922e-05 |   0.0 | 60.00
Neigh   | 0          | 0          | 0          |   0.0 |  0.00
Comm    | 8.1062e-06 | 8.1062e-06 | 8.1062e-06 |   0.0 | 10.15
Output  | 8.1062e-06 | 8.1062e-06 | 8.1062e-06 |   0.0 | 10.15
Modify  | 0          | 0          | 0          |   0.0 |  0.00
Other   |            | 1.574e-05  |            |       | 19.70

Nlocal:    4 ave 4 max 4 min
Histogram: 1 0 0 0 0 0 0 0 0 0
Nghost:    360 ave 360 max 360 min
Histogram: 1 0 0 0 0 0 0 0 0 0
Neighs:    156 ave 156 max 156 min
Histogram: 1 0 0 0 0 0 0 0 0 0

Total # of neighbors = 156
Ave neighs/atom = 39
Neighbor list builds = 0
Dangerous builds = 0
Reading restart file ...
  restart file = 11 Aug 2017, LAMMPS = 11 Aug 2017
  triclinic box = (-0.0175835 -0.0175835 -0.0175835) to (3.53428 3.53428 3.53428) with tilt (0 -0 0)
  1 by 1 by 1 MPI processor grid
  4 atoms
4 atoms in group Ni
Changing box ...
  triclinic box = (-0.0175835 -0.0175835 -0.0175835) to (3.53428 3.53428 3.53428) with tilt (0 -0 0)
Neighbor list info ...
  update every 1 steps, delay 0 steps, check yes
  max neighbors/atom: 2000, page size: 100000
  master list distance cutoff = 5.64464
  ghost atom cutoff = 5.64464
  binsize = 2.82232, bins = 2 2 2
  1 neighbor lists, perpetual/occasional/extra = 1 0 0
  (1) pair eam/alloy, perpetual
      attributes: half, newton on
      pair build: half/bin/newton/tri
      stencil: half/bin/3d/newton/tri
      bin: standard
Setting up cg style minimization ...
  Unit style    : metal
  Current step  : 100
Per MPI rank memory allocation (min/avg/max) = 4.086 | 4.086 | 4.086 Mbytes
Step Temp PotEng Press Pxx Pyy Pzz Pxy Pxz Pyz Lx Ly Lz Volume 
     100            0   -13.388852    45906.694    45906.577    45906.928    45906.577 -6.0785086e-12 -2.4810239e-13 -6.5747134e-11     3.551867    3.5518634     3.551867    44.809454 
     101            0   -13.388852    45906.688    45906.571    45906.921    45906.571 -4.7139455e-12 -4.7635659e-11 3.7959666e-11     3.551867    3.5518634     3.551867    44.809454 
     102            0   -13.388852    45906.688    45906.571    45906.921    45906.571 3.113685e-11 8.0633278e-12 6.8228158e-12     3.551867    3.5518634     3.551867    44.809454 
Loop time of 8.01086e-05 on 1 procs for 2 steps with 4 atoms

86.1% CPU use with 1 MPI tasks x no OpenMP threads

Minimization stats:
  Stopping criterion = force tolerance
  Energy initial, next-to-last, final = 
         -13.388851716     -13.3888517596     -13.3888517596
  Force two-norm initial, final = 0.00107628 3.62937e-15
  Force max component initial, final = 0.000310695 2.12417e-15
  Final line search alpha, max atom move = 1 2.12417e-15
  Iterations, force evaluations = 2 4

MPI task timing breakdown:
Section |  min time  |  avg time  |  max time  |%varavg| %total
---------------------------------------------------------------
Pair    | 4.6968e-05 | 4.6968e-05 | 4.6968e-05 |   0.0 | 58.63
Neigh   | 0          | 0          | 0          |   0.0 |  0.00
Comm    | 8.5831e-06 | 8.5831e-06 | 8.5831e-06 |   0.0 | 10.71
Output  | 9.0599e-06 | 9.0599e-06 | 9.0599e-06 |   0.0 | 11.31
Modify  | 0          | 0          | 0          |   0.0 |  0.00
Other   |            | 1.55e-05   |            |       | 19.35

Nlocal:    4 ave 4 max 4 min
Histogram: 1 0 0 0 0 0 0 0 0 0
Nghost:    360 ave 360 max 360 min
Histogram: 1 0 0 0 0 0 0 0 0 0
Neighs:    156 ave 156 max 156 min
Histogram: 1 0 0 0 0 0 0 0 0 0

Total # of neighbors = 156
Ave neighs/atom = 39
Neighbor list builds = 0
Dangerous builds = 0
Reading restart file ...
  restart file = 11 Aug 2017, LAMMPS = 11 Aug 2017
  triclinic box = (-0.0175835 -0.0175835 -0.0175835) to (3.53428 3.53428 3.53428) with tilt (0 -0 0)
  1 by 1 by 1 MPI processor grid
  4 atoms
4 atoms in group Ni
Changing box ...
  triclinic box = (-0.0175835 -0.0175835 -0.0175835) to (3.53428 3.53429 3.53428) with tilt (0 -0 0)
Neighbor list info ...
  update every 1 steps, delay 0 steps, check yes
  max neighbors/atom: 2000, page size: 100000
  master list distance cutoff = 5.64464
  ghost atom cutoff = 5.64464
  binsize = 2.82232, bins = 2 2 2
  1 neighbor lists, perpetual/occasional/extra = 1 0 0
  (1) pair eam/alloy, perpetual
      attributes: half, newton on
      pair build: half/bin/newton/tri
      stencil: half/bin/3d/newton/tri
      bin: standard
Setting up cg style minimization ...
  Unit style    : metal
  Current step  : 100
Per MPI rank memory allocation (min/avg/max) = 4.086 | 4.086 | 4.086 Mbytes
Step Temp PotEng Press Pxx Pyy Pzz Pxy Pxz Pyz Lx Ly Lz Volume 
     100            0   -13.388854    45903.644    45903.761     45903.41    45903.761 3.5106418e-11 -1.575447e-11 2.2453222e-11     3.551867    3.5518706     3.551867    44.809544 
     101            0   -13.388854    45903.638    45903.755    45903.404    45903.755 -7.194955e-12 -4.7263411e-11 4.316973e-11     3.551867    3.5518706     3.551867    44.809544 
     102            0   -13.388854    45903.638    45903.755    45903.404    45903.755 5.4582417e-12 -5.1853296e-11 4.2177322e-12     3.551867    3.5518706     3.551867    44.809544 
Loop time of 7.98702e-05 on 1 procs for 2 steps with 4 atoms

101.4% CPU use with 1 MPI tasks x no OpenMP threads

Minimization stats:
  Stopping criterion = force tolerance
  Energy initial, next-to-last, final = 
        -13.3888542838     -13.3888543273     -13.3888543273
  Force two-norm initial, final = 0.00107627 1.38494e-15
  Force max component initial, final = 0.000310692 8.04912e-16
  Final line search alpha, max atom move = 1 8.04912e-16
  Iterations, force evaluations = 2 4

MPI task timing breakdown:
Section |  min time  |  avg time  |  max time  |%varavg| %total
---------------------------------------------------------------
Pair    | 4.7207e-05 | 4.7207e-05 | 4.7207e-05 |   0.0 | 59.10
Neigh   | 0          | 0          | 0          |   0.0 |  0.00
Comm    | 1.0967e-05 | 1.0967e-05 | 1.0967e-05 |   0.0 | 13.73
Output  | 9.0599e-06 | 9.0599e-06 | 9.0599e-06 |   0.0 | 11.34
Modify  | 0          | 0          | 0          |   0.0 |  0.00
Other   |            | 1.264e-05  |            |       | 15.82

Nlocal:    4 ave 4 max 4 min
Histogram: 1 0 0 0 0 0 0 0 0 0
Nghost:    360 ave 360 max 360 min
Histogram: 1 0 0 0 0 0 0 0 0 0
Neighs:    156 ave 156 max 156 min
Histogram: 1 0 0 0 0 0 0 0 0 0

Total # of neighbors = 156
Ave neighs/atom = 39
Neighbor list builds = 0
Dangerous builds = 0
Reading restart file ...
  restart file = 11 Aug 2017, LAMMPS = 11 Aug 2017
  triclinic box = (-0.0175835 -0.0175835 -0.0175835) to (3.53428 3.53428 3.53428) with tilt (0 -0 0)
  1 by 1 by 1 MPI processor grid
  4 atoms
4 atoms in group Ni
Changing box ...
  triclinic box = (-0.0175835 -0.0175835 -0.0175835) to (3.53428 3.53428 3.53428) with tilt (0 -0 0)
Neighbor list info ...
  update every 1 steps, delay 0 steps, check yes
  max neighbors/atom: 2000, page size: 100000
  master list distance cutoff = 5.64464
  ghost atom cutoff = 5.64464
  binsize = 2.82232, bins = 2 2 2
  1 neighbor lists, perpetual/occasional/extra = 1 0 0
  (1) pair eam/alloy, perpetual
      attributes: half, newton on
      pair build: half/bin/newton/tri
      stencil: half/bin/3d/newton/tri
      bin: standard
Setting up cg style minimization ...
  Unit style    : metal
  Current step  : 100
Per MPI rank memory allocation (min/avg/max) = 4.086 | 4.086 | 4.086 Mbytes
Step Temp PotEng Press Pxx Pyy Pzz Pxy Pxz Pyz Lx Ly Lz Volume 
     100            0   -13.388852    45906.694    45906.577    45906.577    45906.928 8.6835838e-13 6.5747134e-12 4.0936895e-12     3.551867     3.551867    3.5518634    44.809454 
     101            0   -13.388852    45906.688    45906.571    45906.571    45906.921 -3.2253311e-12 1.7367168e-12 1.1164608e-12     3.551867     3.551867    3.5518634    44.809454 
     102            0   -13.388852    45906.688    45906.571    45906.571    45906.921 1.240512e-12 -2.7911519e-11 -2.4934291e-11     3.551867     3.551867    3.5518634    44.809454 
Loop time of 7.70092e-05 on 1 procs for 2 steps with 4 atoms

98.7% CPU use with 1 MPI tasks x no OpenMP threads

Minimization stats:
  Stopping criterion = force tolerance
  Energy initial, next-to-last, final = 
         -13.388851716     -13.3888517596     -13.3888517596
  Force two-norm initial, final = 0.00107628 4.34356e-15
  Force max component initial, final = 0.000310695 2.26208e-15
  Final line search alpha, max atom move = 1 2.26208e-15
  Iterations, force evaluations = 2 4

MPI task timing breakdown:
Section |  min time  |  avg time  |  max time  |%varavg| %total
---------------------------------------------------------------
Pair    | 4.3869e-05 | 4.3869e-05 | 4.3869e-05 |   0.0 | 56.97
Neigh   | 0          | 0          | 0          |   0.0 |  0.00
Comm    | 9.0599e-06 | 9.0599e-06 | 9.0599e-06 |   0.0 | 11.76
Output  | 9.0599e-06 | 9.0599e-06 | 9.0599e-06 |   0.0 | 11.76
Modify  | 0          | 0          | 0          |   0.0 |  0.00
Other   |            | 1.502e-05  |            |       | 19.50

Nlocal:    4 ave 4 max 4 min
Histogram: 1 0 0 0 0 0 0 0 0 0
Nghost:    360 ave 360 max 360 min
Histogram: 1 0 0 0 0 0 0 0 0 0
Neighs:    156 ave 156 max 156 min
Histogram: 1 0 0 0 0 0 0 0 0 0

Total # of neighbors = 156
Ave neighs/atom = 39
Neighbor list builds = 0
Dangerous builds = 0
Reading restart file ...
  restart file = 11 Aug 2017, LAMMPS = 11 Aug 2017
  triclinic box = (-0.0175835 -0.0175835 -0.0175835) to (3.53428 3.53428 3.53428) with tilt (0 -0 0)
  1 by 1 by 1 MPI processor grid
  4 atoms
4 atoms in group Ni
Changing box ...
  triclinic box = (-0.0175835 -0.0175835 -0.0175835) to (3.53428 3.53428 3.53429) with tilt (0 -0 0)
Neighbor list info ...
  update every 1 steps, delay 0 steps, check yes
  max neighbors/atom: 2000, page size: 100000
  master list distance cutoff = 5.64464
  ghost atom cutoff = 5.64464
  binsize = 2.82232, bins = 2 2 2
  1 neighbor lists, perpetual/occasional/extra = 1 0 0
  (1) pair eam/alloy, perpetual
      attributes: half, newton on
      pair build: half/bin/newton/tri
      stencil: half/bin/3d/newton/tri
      bin: standard
Setting up cg style minimization ...
  Unit style    : metal
  Current step  : 100
Per MPI rank memory allocation (min/avg/max) = 4.086 | 4.086 | 4.086 Mbytes
Step Temp PotEng Press Pxx Pyy Pzz Pxy Pxz Pyz Lx Ly Lz Volume 
     100            0   -13.388854    45903.644    45903.761    45903.761     45903.41 -4.2177322e-12 5.9544455e-12 -2.2329171e-12     3.551867     3.551867    3.5518706    44.809544 
     101            0   -13.388854    45903.638    45903.755    45903.755    45903.404 5.6939385e-11 -5.5574825e-11 -4.4658341e-11     3.551867     3.551867    3.5518706    44.809544 
     102            0   -13.388854    45903.638    45903.755    45903.755    45903.404 4.2177322e-11 2.356968e-12 -2.356968e-12     3.551867     3.551867    3.5518706    44.809544 
Loop time of 7.60555e-05 on 1 procs for 2 steps with 4 atoms

102.6% CPU use with 1 MPI tasks x no OpenMP threads

Minimization stats:
  Stopping criterion = force tolerance
  Energy initial, next-to-last, final = 
        -13.3888542838     -13.3888543273     -13.3888543273
  Force two-norm initial, final = 0.00107627 1.16637e-15
  Force max component initial, final = 0.000310692 6.52256e-16
  Final line search alpha, max atom move = 1 6.52256e-16
  Iterations, force evaluations = 2 4

MPI task timing breakdown:
Section |  min time  |  avg time  |  max time  |%varavg| %total
---------------------------------------------------------------
Pair    | 4.673e-05  | 4.673e-05  | 4.673e-05  |   0.0 | 61.44
Neigh   | 0          | 0          | 0          |   0.0 |  0.00
Comm    | 1.049e-05  | 1.049e-05  | 1.049e-05  |   0.0 | 13.79
Output  | 7.8678e-06 | 7.8678e-06 | 7.8678e-06 |   0.0 | 10.34
Modify  | 0          | 0          | 0          |   0.0 |  0.00
Other   |            | 1.097e-05  |            |       | 14.42

Nlocal:    4 ave 4 max 4 min
Histogram: 1 0 0 0 0 0 0 0 0 0
Nghost:    360 ave 360 max 360 min
Histogram: 1 0 0 0 0 0 0 0 0 0
Neighs:    156 ave 156 max 156 min
Histogram: 1 0 0 0 0 0 0 0 0 0

Total # of neighbors = 156
Ave neighs/atom = 39
Neighbor list builds = 0
Dangerous builds = 0
Reading restart file ...
  restart file = 11 Aug 2017, LAMMPS = 11 Aug 2017
  triclinic box = (-0.0175835 -0.0175835 -0.0175835) to (3.53428 3.53428 3.53428) with tilt (0 -0 0)
  1 by 1 by 1 MPI processor grid
  4 atoms
4 atoms in group Ni
Changing box ...
  triclinic box = (-0.0175835 -0.0175835 -0.0175835) to (3.53428 3.53428 3.53428) with tilt (0 -0 -3.55187e-06)
Neighbor list info ...
  update every 1 steps, delay 0 steps, check yes
  max neighbors/atom: 2000, page size: 100000
  master list distance cutoff = 5.64464
  ghost atom cutoff = 5.64464
  binsize = 2.82232, bins = 2 2 2
  1 neighbor lists, perpetual/occasional/extra = 1 0 0
  (1) pair eam/alloy, perpetual
      attributes: half, newton on
      pair build: half/bin/newton/tri
      stencil: half/bin/3d/newton/tri
      bin: standard
Setting up cg style minimization ...
  Unit style    : metal
  Current step  : 100
Per MPI rank memory allocation (min/avg/max) = 4.086 | 4.086 | 4.086 Mbytes
Step Temp PotEng Press Pxx Pyy Pzz Pxy Pxz Pyz Lx Ly Lz Volume 
     100            0   -13.388853    45905.169    45905.169    45905.169    45905.169 -2.654693e-11 8.559524e-12   0.65477499     3.551867     3.551867     3.551867    44.809499 
     101            0   -13.388853    45905.163    45905.163    45905.163    45905.163 -5.1977399e-11 -9.713199e-11   0.65477499     3.551867     3.551867     3.551867    44.809499 
     102            0   -13.388853    45905.163    45905.163    45905.163    45905.163 -1.5382333e-11 -2.7663389e-11   0.65477499     3.551867     3.551867     3.551867    44.809499 
     103            0   -13.388853    45905.163    45905.163    45905.163    45905.163 6.9468601e-12 -1.3521567e-11   0.65477499     3.551867     3.551867     3.551867    44.809499 
Loop time of 0.000106096 on 1 procs for 3 steps with 4 atoms

100.9% CPU use with 1 MPI tasks x no OpenMP threads

Minimization stats:
  Stopping criterion = force tolerance
  Energy initial, next-to-last, final = 
        -13.3888529999     -13.3888530435     -13.3888530435
  Force two-norm initial, final = 0.00107627 3.60081e-15
  Force max component initial, final = 0.000310694 2.72265e-15
  Final line search alpha, max atom move = 1 2.72265e-15
  Iterations, force evaluations = 3 6

MPI task timing breakdown:
Section |  min time  |  avg time  |  max time  |%varavg| %total
---------------------------------------------------------------
Pair    | 6.3419e-05 | 6.3419e-05 | 6.3419e-05 |   0.0 | 59.78
Neigh   | 0          | 0          | 0          |   0.0 |  0.00
Comm    | 1.1683e-05 | 1.1683e-05 | 1.1683e-05 |   0.0 | 11.01
Output  | 1.5259e-05 | 1.5259e-05 | 1.5259e-05 |   0.0 | 14.38
Modify  | 0          | 0          | 0          |   0.0 |  0.00
Other   |            | 1.574e-05  |            |       | 14.83

Nlocal:    4 ave 4 max 4 min
Histogram: 1 0 0 0 0 0 0 0 0 0
Nghost:    360 ave 360 max 360 min
Histogram: 1 0 0 0 0 0 0 0 0 0
Neighs:    156 ave 156 max 156 min
Histogram: 1 0 0 0 0 0 0 0 0 0

Total # of neighbors = 156
Ave neighs/atom = 39
Neighbor list builds = 0
Dangerous builds = 0
Reading restart file ...
  restart file = 11 Aug 2017, LAMMPS = 11 Aug 2017
  triclinic box = (-0.0175835 -0.0175835 -0.0175835) to (3.53428 3.53428 3.53428) with tilt (0 -0 0)
  1 by 1 by 1 MPI processor grid
  4 atoms
4 atoms in group Ni
Changing box ...
  triclinic box = (-0.0175835 -0.0175835 -0.0175835) to (3.53428 3.53428 3.53428) with tilt (0 -0 3.55187e-06)
Neighbor list info ...
  update every 1 steps, delay 0 steps, check yes
  max neighbors/atom: 2000, page size: 100000
  master list distance cutoff = 5.64464
  ghost atom cutoff = 5.64464
  binsize = 2.82232, bins = 2 2 2
  1 neighbor lists, perpetual/occasional/extra = 1 0 0
  (1) pair eam/alloy, perpetual
      attributes: half, newton on
      pair build: half/bin/newton/tri
      stencil: half/bin/3d/newton/tri
      bin: standard
Setting up cg style minimization ...
  Unit style    : metal
  Current step  : 100
Per MPI rank memory allocation (min/avg/max) = 4.086 | 4.086 | 4.086 Mbytes
Step Temp PotEng Press Pxx Pyy Pzz Pxy Pxz Pyz Lx Ly Lz Volume 
     100            0   -13.388853    45905.169    45905.169    45905.169    45905.169 -1.3645618e-11 9.8000347e-12  -0.65477499     3.551867     3.551867     3.551867    44.809499 
     101            0   -13.388853    45905.163    45905.163    45905.163    45905.163 1.6002588e-11 8.559524e-12  -0.65477499     3.551867     3.551867     3.551867    44.809499 
     102            0   -13.388853    45905.163    45905.163    45905.163    45905.163 -1.2529158e-11 4.3790029e-11  -0.65477499     3.551867     3.551867     3.551867    44.809499 
     103            0   -13.388853    45905.163    45905.163    45905.163    45905.163 -1.2405107e-13 -5.7187544e-11  -0.65477499     3.551867     3.551867     3.551867    44.809499 
Loop time of 0.000108004 on 1 procs for 3 steps with 4 atoms

100.0% CPU use with 1 MPI tasks x no OpenMP threads

Minimization stats:
  Stopping criterion = force tolerance
  Energy initial, next-to-last, final = 
        -13.3888529999     -13.3888530435     -13.3888530435
  Force two-norm initial, final = 0.00107627 4.61522e-15
  Force max component initial, final = 0.000310694 2.12157e-15
  Final line search alpha, max atom move = 1 2.12157e-15
  Iterations, force evaluations = 3 6

MPI task timing breakdown:
Section |  min time  |  avg time  |  max time  |%varavg| %total
---------------------------------------------------------------
Pair    | 6.628e-05  | 6.628e-05  | 6.628e-05  |   0.0 | 61.37
Neigh   | 0          | 0          | 0          |   0.0 |  0.00
Comm    | 1.359e-05  | 1.359e-05  | 1.359e-05  |   0.0 | 12.58
Output  | 1.6212e-05 | 1.6212e-05 | 1.6212e-05 |   0.0 | 15.01
Modify  | 0          | 0          | 0          |   0.0 |  0.00
Other   |            | 1.192e-05  |            |       | 11.04

Nlocal:    4 ave 4 max 4 min
Histogram: 1 0 0 0 0 0 0 0 0 0
Nghost:    360 ave 360 max 360 min
Histogram: 1 0 0 0 0 0 0 0 0 0
Neighs:    156 ave 156 max 156 min
Histogram: 1 0 0 0 0 0 0 0 0 0

Total # of neighbors = 156
Ave neighs/atom = 39
Neighbor list builds = 0
Dangerous builds = 0
Reading restart file ...
  restart file = 11 Aug 2017, LAMMPS = 11 Aug 2017
  triclinic box = (-0.0175835 -0.0175835 -0.0175835) to (3.53428 3.53428 3.53428) with tilt (0 -0 0)
  1 by 1 by 1 MPI processor grid
  4 atoms
4 atoms in group Ni
Changing box ...
  triclinic box = (-0.0175835 -0.0175835 -0.0175835) to (3.53428 3.53428 3.53428) with tilt (0 -3.55187e-06 0)
Neighbor list info ...
  update every 1 steps, delay 0 steps, check yes
  max neighbors/atom: 2000, page size: 100000
  master list distance cutoff = 5.64464
  ghost atom cutoff = 5.64464
  binsize = 2.82232, bins = 2 2 2
  1 neighbor lists, perpetual/occasional/extra = 1 0 0
  (1) pair eam/alloy, perpetual
      attributes: half, newton on
      pair build: half/bin/newton/tri
      stencil: half/bin/3d/newton/tri
      bin: standard
Setting up cg style minimization ...
  Unit style    : metal
  Current step  : 100
Per MPI rank memory allocation (min/avg/max) = 4.086 | 4.086 | 4.086 Mbytes
Step Temp PotEng Press Pxx Pyy Pzz Pxy Pxz Pyz Lx Ly Lz Volume 
     100            0   -13.388853    45905.169    45905.169    45905.169    45905.169 -1.5134231e-11   0.65477499 -6.4506558e-12     3.551867     3.551867     3.551867    44.809499 
     101            0   -13.388853    45905.163    45905.163    45905.163    45905.163 -8.559524e-11   0.65477499 -1.0209403e-10     3.551867     3.551867     3.551867    44.809499 
     102            0   -13.388853    45905.163    45905.163    45905.163    45905.163 -2.4065908e-11   0.65477499 1.0668392e-11     3.551867     3.551867     3.551867    44.809499 
     103            0   -13.388853    45905.163    45905.163    45905.163    45905.163 1.3645618e-12   0.65477499 2.2329193e-12     3.551867     3.551867     3.551867    44.809499 
Loop time of 0.00011611 on 1 procs for 3 steps with 4 atoms

100.8% CPU use with 1 MPI tasks x no OpenMP threads

Minimization stats:
  Stopping criterion = force tolerance
  Energy initial, next-to-last, final = 
        -13.3888529999     -13.3888530435     -13.3888530435
  Force two-norm initial, final = 0.00107627 5.92748e-15
  Force max component initial, final = 0.000310694 3.46251e-15
  Final line search alpha, max atom move = 1 3.46251e-15
  Iterations, force evaluations = 3 6

MPI task timing breakdown:
Section |  min time  |  avg time  |  max time  |%varavg| %total
---------------------------------------------------------------
Pair    | 7.2956e-05 | 7.2956e-05 | 7.2956e-05 |   0.0 | 62.83
Neigh   | 0          | 0          | 0          |   0.0 |  0.00
Comm    | 1.2875e-05 | 1.2875e-05 | 1.2875e-05 |   0.0 | 11.09
Output  | 1.6928e-05 | 1.6928e-05 | 1.6928e-05 |   0.0 | 14.58
Modify  | 0          | 0          | 0          |   0.0 |  0.00
Other   |            | 1.335e-05  |            |       | 11.50

Nlocal:    4 ave 4 max 4 min
Histogram: 1 0 0 0 0 0 0 0 0 0
Nghost:    360 ave 360 max 360 min
Histogram: 1 0 0 0 0 0 0 0 0 0
Neighs:    156 ave 156 max 156 min
Histogram: 1 0 0 0 0 0 0 0 0 0

Total # of neighbors = 156
Ave neighs/atom = 39
Neighbor list builds = 0
Dangerous builds = 0
Reading restart file ...
  restart file = 11 Aug 2017, LAMMPS = 11 Aug 2017
  triclinic box = (-0.0175835 -0.0175835 -0.0175835) to (3.53428 3.53428 3.53428) with tilt (0 -0 0)
  1 by 1 by 1 MPI processor grid
  4 atoms
4 atoms in group Ni
Changing box ...
  triclinic box = (-0.0175835 -0.0175835 -0.0175835) to (3.53428 3.53428 3.53428) with tilt (0 3.55187e-06 0)
Neighbor list info ...
  update every 1 steps, delay 0 steps, check yes
  max neighbors/atom: 2000, page size: 100000
  master list distance cutoff = 5.64464
  ghost atom cutoff = 5.64464
  binsize = 2.82232, bins = 2 2 2
  1 neighbor lists, perpetual/occasional/extra = 1 0 0
  (1) pair eam/alloy, perpetual
      attributes: half, newton on
      pair build: half/bin/newton/tri
      stencil: half/bin/3d/newton/tri
      bin: standard
Setting up cg style minimization ...
  Unit style    : metal
  Current step  : 100
Per MPI rank memory allocation (min/avg/max) = 4.086 | 4.086 | 4.086 Mbytes
Step Temp PotEng Press Pxx Pyy Pzz Pxy Pxz Pyz Lx Ly Lz Volume 
     100            0   -13.388853    45905.169    45905.169    45905.169    45905.169 -1.4513975e-11  -0.65477499 3.1012768e-12     3.551867     3.551867     3.551867    44.809499 
     101            0   -13.388853    45905.163    45905.163    45905.163    45905.163 5.6815391e-11  -0.65477499 -5.8304004e-12     3.551867     3.551867     3.551867    44.809499 
     102            0   -13.388853    45905.163    45905.163    45905.163    45905.163 7.4554695e-11  -0.65477499 3.237733e-11     3.551867     3.551867     3.551867    44.809499 
     103            0   -13.388853    45905.163    45905.163    45905.163    45905.163 4.515459e-11  -0.65477499 7.8152176e-12     3.551867     3.551867     3.551867    44.809499 
Loop time of 0.000109911 on 1 procs for 3 steps with 4 atoms

101.0% CPU use with 1 MPI tasks x no OpenMP threads

Minimization stats:
  Stopping criterion = force tolerance
  Energy initial, next-to-last, final = 
        -13.3888529999     -13.3888530435     -13.3888530435
  Force two-norm initial, final = 0.00107627 4.38177e-15
  Force max component initial, final = 0.000310694 2.2031e-15
  Final line search alpha, max atom move = 1 2.2031e-15
  Iterations, force evaluations = 3 6

MPI task timing breakdown:
Section |  min time  |  avg time  |  max time  |%varavg| %total
---------------------------------------------------------------
Pair    | 6.5088e-05 | 6.5088e-05 | 6.5088e-05 |   0.0 | 59.22
Neigh   | 0          | 0          | 0          |   0.0 |  0.00
Comm    | 1.2159e-05 | 1.2159e-05 | 1.2159e-05 |   0.0 | 11.06
Output  | 1.6212e-05 | 1.6212e-05 | 1.6212e-05 |   0.0 | 14.75
Modify  | 0          | 0          | 0          |   0.0 |  0.00
Other   |            | 1.645e-05  |            |       | 14.97

Nlocal:    4 ave 4 max 4 min
Histogram: 1 0 0 0 0 0 0 0 0 0
Nghost:    360 ave 360 max 360 min
Histogram: 1 0 0 0 0 0 0 0 0 0
Neighs:    156 ave 156 max 156 min
Histogram: 1 0 0 0 0 0 0 0 0 0

Total # of neighbors = 156
Ave neighs/atom = 39
Neighbor list builds = 0
Dangerous builds = 0
Reading restart file ...
  restart file = 11 Aug 2017, LAMMPS = 11 Aug 2017
  triclinic box = (-0.0175835 -0.0175835 -0.0175835) to (3.53428 3.53428 3.53428) with tilt (0 -0 0)
  1 by 1 by 1 MPI processor grid
  4 atoms
4 atoms in group Ni
Changing box ...
  triclinic box = (-0.0175835 -0.0175835 -0.0175835) to (3.53428 3.53428 3.53428) with tilt (-3.55187e-06 -0 0)
Neighbor list info ...
  update every 1 steps, delay 0 steps, check yes
  max neighbors/atom: 2000, page size: 100000
  master list distance cutoff = 5.64464
  ghost atom cutoff = 5.64464
  binsize = 2.82232, bins = 2 2 2
  1 neighbor lists, perpetual/occasional/extra = 1 0 0
  (1) pair eam/alloy, perpetual
      attributes: half, newton on
      pair build: half/bin/newton/tri
      stencil: half/bin/3d/newton/tri
      bin: standard
Setting up cg style minimization ...
  Unit style    : metal
  Current step  : 100
Per MPI rank memory allocation (min/avg/max) = 4.086 | 4.086 | 4.086 Mbytes
Step Temp PotEng Press Pxx Pyy Pzz Pxy Pxz Pyz Lx Ly Lz Volume 
     100            0   -13.388853    45905.169    45905.169    45905.169    45905.169   0.65477499 -7.3562286e-11 -2.7291236e-12     3.551867     3.551867     3.551867    44.809499 
     101            0   -13.388853    45905.163    45905.163    45905.163    45905.163   0.65477499 -9.4526917e-11 4.8379918e-12     3.551867     3.551867     3.551867    44.809499 
     102            0   -13.388853    45905.163    45905.163    45905.163    45905.163   0.65477499 -5.210145e-12 -4.5898897e-12     3.551867     3.551867     3.551867    44.809499 
     103            0   -13.388853    45905.163    45905.163    45905.163    45905.163   0.65477499 -9.9240858e-13 2.3569704e-12     3.551867     3.551867     3.551867    44.809499 
Loop time of 0.000112057 on 1 procs for 3 steps with 4 atoms

91.9% CPU use with 1 MPI tasks x no OpenMP threads

Minimization stats:
  Stopping criterion = force tolerance
  Energy initial, next-to-last, final = 
        -13.3888529999     -13.3888530435     -13.3888530435
  Force two-norm initial, final = 0.00107627 3.02488e-15
  Force max component initial, final = 0.000310694 1.92901e-15
  Final line search alpha, max atom move = 1 1.92901e-15
  Iterations, force evaluations = 3 6

MPI task timing breakdown:
Section |  min time  |  avg time  |  max time  |%varavg| %total
---------------------------------------------------------------
Pair    | 6.7949e-05 | 6.7949e-05 | 6.7949e-05 |   0.0 | 60.64
Neigh   | 0          | 0          | 0          |   0.0 |  0.00
Comm    | 1.1921e-05 | 1.1921e-05 | 1.1921e-05 |   0.0 | 10.64
Output  | 1.4782e-05 | 1.4782e-05 | 1.4782e-05 |   0.0 | 13.19
Modify  | 0          | 0          | 0          |   0.0 |  0.00
Other   |            | 1.74e-05   |            |       | 15.53

Nlocal:    4 ave 4 max 4 min
Histogram: 1 0 0 0 0 0 0 0 0 0
Nghost:    360 ave 360 max 360 min
Histogram: 1 0 0 0 0 0 0 0 0 0
Neighs:    156 ave 156 max 156 min
Histogram: 1 0 0 0 0 0 0 0 0 0

Total # of neighbors = 156
Ave neighs/atom = 39
Neighbor list builds = 0
Dangerous builds = 0
Reading restart file ...
  restart file = 11 Aug 2017, LAMMPS = 11 Aug 2017
  triclinic box = (-0.0175835 -0.0175835 -0.0175835) to (3.53428 3.53428 3.53428) with tilt (0 -0 0)
  1 by 1 by 1 MPI processor grid
  4 atoms
4 atoms in group Ni
Changing box ...
  triclinic box = (-0.0175835 -0.0175835 -0.0175835) to (3.53428 3.53428 3.53428) with tilt (3.55187e-06 -0 0)
Neighbor list info ...
  update every 1 steps, delay 0 steps, check yes
  max neighbors/atom: 2000, page size: 100000
  master list distance cutoff = 5.64464
  ghost atom cutoff = 5.64464
  binsize = 2.82232, bins = 2 2 2
  1 neighbor lists, perpetual/occasional/extra = 1 0 0
  (1) pair eam/alloy, perpetual
      attributes: half, newton on
      pair build: half/bin/newton/tri
      stencil: half/bin/3d/newton/tri
      bin: standard
Setting up cg style minimization ...
  Unit style    : metal
  Current step  : 100
Per MPI rank memory allocation (min/avg/max) = 4.086 | 4.086 | 4.086 Mbytes
Step Temp PotEng Press Pxx Pyy Pzz Pxy Pxz Pyz Lx Ly Lz Volume 
     100            0   -13.388853    45905.169    45905.169    45905.169    45905.169  -0.65477499 -1.3273465e-11 4.8379918e-12     3.551867     3.551867     3.551867    44.809499 
     101            0   -13.388853    45905.163    45905.163    45905.163    45905.163  -0.65477499 -7.6787614e-11 4.862802e-11     3.551867     3.551867     3.551867    44.809499 
     102            0   -13.388853    45905.163    45905.163    45905.163    45905.163  -0.65477499 -2.7911491e-11 3.8703935e-11     3.551867     3.551867     3.551867    44.809499 
     103            0   -13.388853    45905.163    45905.163    45905.163    45905.163  -0.65477499 4.4658386e-12 2.0220325e-11     3.551867     3.551867     3.551867    44.809499 
Loop time of 0.000110149 on 1 procs for 3 steps with 4 atoms

99.9% CPU use with 1 MPI tasks x no OpenMP threads

Minimization stats:
  Stopping criterion = force tolerance
  Energy initial, next-to-last, final = 
        -13.3888529999     -13.3888530435     -13.3888530435
  Force two-norm initial, final = 0.00107627 4.01041e-15
  Force max component initial, final = 0.000310694 2.20657e-15
  Final line search alpha, max atom move = 1 2.20657e-15
  Iterations, force evaluations = 3 6

MPI task timing breakdown:
Section |  min time  |  avg time  |  max time  |%varavg| %total
---------------------------------------------------------------
Pair    | 6.5804e-05 | 6.5804e-05 | 6.5804e-05 |   0.0 | 59.74
Neigh   | 0          | 0          | 0          |   0.0 |  0.00
Comm    | 1.4544e-05 | 1.4544e-05 | 1.4544e-05 |   0.0 | 13.20
Output  | 1.6689e-05 | 1.6689e-05 | 1.6689e-05 |   0.0 | 15.15
Modify  | 0          | 0          | 0          |   0.0 |  0.00
Other   |            | 1.311e-05  |            |       | 11.90

Nlocal:    4 ave 4 max 4 min
Histogram: 1 0 0 0 0 0 0 0 0 0
Nghost:    360 ave 360 max 360 min
Histogram: 1 0 0 0 0 0 0 0 0 0
Neighs:    156 ave 156 max 156 min
Histogram: 1 0 0 0 0 0 0 0 0 0

Total # of neighbors = 156
Ave neighs/atom = 39
Neighbor list builds = 0
Dangerous builds = 0
c11 = 175.880806369969 GPa
c22 = 175.880806374698 GPa
c33 = 175.880806379791 GPa
c12 = 140.804647362347 GPa
c13 = 140.804647360164 GPa
c23 = 140.804647364893 GPa
c44 = 65.4774990945974 GPa
c55 = 65.4774990925816 GPa
c66 = 65.4774990937725 GPa
c14 = -6.13253583276e-09 GPa
c15 = 1.55107654224634e-09 GPa
c16 = -1.650315607683e-09 GPa
c24 = -2.48145790937124e-09 GPa
c25 = 4.04450060373502e-09 GPa
c26 = -4.26930628569589e-09 GPa
c34 = 1.98215193641898e-09 GPa
c35 = 1.60797404368983e-09 GPa
c36 = -3.57000526084751e-09 GPa
c45 = 9.52091981193424e-10 GPa
c46 = -2.69811082618328e-10 GPa
c56 = -1.23120689424686e-09 GPa
lammps_sim_done
Total wall time: 0:00:00
