# ['Ni']

28 atoms
1 atom types

    0.0000     2.4890 xlo xhi
    0.0000     4.3111 ylo yhi
    0.0000    28.4473 zlo zhi

    0.0000     0.0000     0.0000 xy xz yz

Atoms

1 1     0.0000     0.0000     0.0000
2 1     1.2445     2.1556     0.0000
3 1     1.2445     0.7185     2.0320
4 1     0.0000     2.8741     2.0320
5 1     0.0000     1.4370     4.0639
6 1     1.2445     3.5926     4.0639
7 1     0.0000     0.0000     6.0958
8 1     1.2445     2.1556     6.0958
9 1     1.2445     0.7185     8.1278
10 1     0.0000     2.8741     8.1278
11 1     0.0000     1.4370    10.1597
12 1     1.2445     3.5926    10.1597
13 1     0.0000     0.0000    12.1917
14 1     1.2445     2.1556    12.1917
15 1     1.2445     0.7185    14.2236
16 1     0.0000     2.8741    14.2236
17 1     0.0000     1.4370    16.2556
18 1     1.2445     3.5926    16.2556
19 1     0.0000     0.0000    18.2875
20 1     1.2445     2.1556    18.2875
21 1     1.2445     0.7185    20.3195
22 1     0.0000     2.8741    20.3195
23 1     0.0000     1.4370    22.3514
24 1     1.2445     3.5926    22.3514
25 1     0.0000     0.0000    24.3834
26 1     1.2445     2.1556    24.3834
27 1     1.2445     0.7185    26.4153
28 1     0.0000     2.8741    26.4153
