LAMMPS (10 Feb 2015)
Reading data file ...
  triclinic box = (0 0 0) to (4.2565 4.2565 4.2565) with tilt (0 0 0)
  1 by 1 by 1 MPI processor grid
  reading atoms ...
  8 atoms
4 atoms in group Mg
4 atoms in group O
Setting atom values ...
  4 settings made for charge
Setting atom values ...
  4 settings made for charge
PPPM initialization ...
  G vector (1/distance) = 0.353245
  grid = 8 8 8
  stencil order = 5
  estimated absolute RMS force accuracy = 4.15075e-05
  estimated relative force accuracy = 2.88254e-06
  using double precision FFTs
  3d grid and FFT values/proc = 3375 512
Neighbor list info ...
  1 neighbor list requests
  update every 1 steps, delay 0 steps, check yes
  master list distance cutoff = 11
Setting up minimization ...
Memory usage per processor = 4.06549 Mbytes
Step PotEng Lx Ly Lz Xy Xz Yz Press Pxx Pyy Pzz Pxy Pxz Pyz eatoms 
       0    -118.2398       4.2565       4.2565       4.2565            0            0            0    92099.563    92099.563    92099.563    92099.563 -2.6648665e-10 1.3518399e-10 2.2028947e-10    -118.2398 
      10   -118.33067     4.299065     4.299065     4.299065            0            0            0    34673.493    34673.493    34673.493    34673.493 -1.1760899e-11 -1.3745134e-10 -5.0678772e-11   -118.33067 
      18   -118.34767    4.3277342    4.3277342    4.3277342            0            0            0    -4.391814    -4.391814    -4.391814    -4.391814 -1.1240186e-10 -1.6034703e-10 -8.891662e-11   -118.34767 
Loop time of 0.0120401 on 1 procs for 18 steps with 8 atoms

Minimization stats:
  Stopping criterion = linesearch alpha is zero
  Energy initial, next-to-last, final = 
        -118.239795936     -118.347671294     -118.347671294
  Force two-norm initial, final = 13.2992 0.00175014
  Force max component initial, final = 13.2992 0.000655584
  Final line search alpha, max atom move = 0.00390625 2.56088e-06
  Iterations, force evaluations = 18 35

Pair  time (%) = 0.00319624 (26.5465)
Kspce time (%) = 0.00188971 (15.695)
Neigh time (%) = 0 (0)
Comm  time (%) = 0.000369549 (3.06931)
Outpt time (%) = 1.19209e-05 (0.0990099)
Other time (%) = 0.00657272 (54.5901)

Nlocal:    8 ave 8 max 8 min
Histogram: 1 0 0 0 0 0 0 0 0 0
Nghost:    2189 ave 2189 max 2189 min
Histogram: 1 0 0 0 0 0 0 0 0 0
Neighs:    2344 ave 2344 max 2344 min
Histogram: 1 0 0 0 0 0 0 0 0 0

Total # of neighbors = 2344
Ave neighs/atom = 293
Neighbor list builds = 0
Dangerous builds = 0
pypospack:output_section:begin
tot_energy = -118.347671293792
num_atoms = 8
xx = 4.32773421076983
yy = 4.32773421076983
zz = 4.32773421076983
xy = 0
xz = 0
yz = 0
tot_press = -4.39181402043263
pxx = -4.39181402021402
pyy = -4.39181402042068
pzz = -4.39181402066319
pxy = -1.12401857084108e-10
pxz = -1.60347032595802e-10
pyz = -8.89166196817966e-11
pypospack:output_section:done
pypospack:lammps_sim:done
PPPM initialization ...
  G vector (1/distance) = 0.352508
  grid = 8 8 8
  stencil order = 5
  estimated absolute RMS force accuracy = 4.29555e-05
  estimated relative force accuracy = 2.9831e-06
  using double precision FFTs
  3d grid and FFT values/proc = 3375 512
Setting up run ...
Memory usage per processor = 3.06549 Mbytes
Step Temp PotEng KinEng TotEng Press Lx Ly Lz Press Pxx Pyy Pzz Pxy Pxz Pyz Volume 
       0          400   -118.34768   0.36192841   -117.98575    4762.9693    4.3277342    4.3277342    4.3277342    4762.9693     4630.084    2154.1105    7504.7133    1502.5581   -2028.3448    133.81437    81.055361 
     100    120.01374   -118.04132   0.10859095   -117.93273    -3557.334    4.3502784    4.3502784    4.3502784    -3557.334   -1461.4631   -21892.162    12681.623   -2029.1232    1464.4027    260.27697     82.32868 
     200    428.26768   -118.22554    0.3875056   -117.83804    2047.1105    4.3344503    4.3344503    4.3344503    2047.1105    2150.9105   -5781.8161     9772.237   -1079.7968    3421.9433    205.36135    81.433307 
     300    286.17167    -118.0109   0.25893414   -117.75196   -2438.5397    4.3551118    4.3551118    4.3551118   -2438.5397    1426.6922   -21700.089    12957.778   -501.37073    2945.5658   -416.54957    82.603403 
     400    459.99719   -118.10083   0.41621513   -117.68461    6971.1897    4.3414627    4.3414627    4.3414627    6971.1897    9518.6219   -5843.8219    17238.769   -573.37102   -4070.7175   -1147.9626    81.829187 
     500    447.25191   -118.04725   0.40468292   -117.64257   -8799.3914     4.355266     4.355266     4.355266   -8799.3914   -5094.9839   -23898.541    2595.3505    1319.1406   -1627.2524   -2363.6869    82.612176 
     600    337.08361   -117.92687   0.30500033   -117.62187    10113.266    4.3477029    4.3477029    4.3477029    10113.266    17013.558   -9483.6178    22809.857   -2630.4442    1010.8709    -195.8317    82.182544 
     700    613.51893   -118.16978   0.55512482   -117.61465   -8205.5558    4.3532255    4.3532255    4.3532255   -8205.5558   -10870.282   -13211.739   -534.64634    3449.4539     4261.012     1141.015    82.496112 
     800    276.40871   -117.86853   0.25010041   -117.61843     11991.64    4.3483236    4.3483236    4.3483236     11991.64    19631.103   -14576.838    30920.655   -1032.6486   -3002.5514     2856.457    82.217746 
     900    577.66357   -118.14488   0.52268214    -117.6222   -10351.369    4.3522454    4.3522454    4.3522454   -10351.369   -12092.742   -8518.1052   -10443.258   -2427.8162    -2557.874    803.82226    82.440407 
    1000    287.89768   -117.88653   0.26049587   -117.62604    11964.357    4.3497028    4.3497028    4.3497028    11964.357     20355.19   -12576.872    28114.753   -398.22889   -130.73625   -1485.1662    82.296005 
    1100    586.97935   -118.15596   0.53111125   -117.62485   -5139.9365    4.3498106    4.3498106    4.3498106   -5139.9365   -522.69646    -11185.51   -3711.6027    -3915.164    3192.8798   -1348.7761    82.302123 
    1200    320.32216   -117.91527   0.28983422   -117.62543    4826.4305    4.3522051    4.3522051    4.3522051    4826.4305    2953.2714   -14910.836    26436.856     287.4676    -2080.789   -4640.7477    82.438116 
    1300     414.4433   -117.99887     0.374997   -117.62388    5432.5687    4.3488315    4.3488315    4.3488315    5432.5687    16325.769   -6217.0524    6188.9889   -2391.0896   -2218.0033    -86.98596    82.246562 
    1400      600.699    -118.1662   0.54352508   -117.62267   -6203.3739    4.3512864    4.3512864    4.3512864   -6203.3739   -4644.3984   -16400.517    2434.7939      3833.14    361.31125     1059.027    82.385921 
    1500    270.26771    -117.8697   0.24454391   -117.62516    13347.452    4.3495889    4.3495889    4.3495889    13347.452    27051.442   -3367.8375    16358.751   -3217.0643    2223.6417   -1170.4428    82.289539 
    1600    599.58083    -118.1648   0.54251333   -117.62229   -11324.577    4.3533234    4.3533234    4.3533234   -11324.577   -9793.4143   -12659.677    -11520.64   -491.62916    3209.3402     2044.046    82.501681 
    1700    308.92406   -117.90204   0.27952098   -117.62252    14966.493    4.3461014    4.3461014    4.3461014    14966.493    26554.531   -9078.3293    27423.277    77.114583   -1765.6714   -982.20815    82.091761 
    1800    529.18693   -118.09993   0.47881946   -117.62111   -8102.2054    4.3562079    4.3562079    4.3562079   -8102.2054    2167.7945   -15680.594   -10793.817   -1051.6106   -2738.0573     819.5331    82.665786 
    1900    436.60628   -118.01497   0.39505054   -117.61992    1945.4452    4.3472884    4.3472884    4.3472884    1945.4452    8159.7317   -14619.219    12295.823   -574.35876   -334.41973   -1158.6427    82.159041 
    2000    370.47553   -117.95501   0.33521404   -117.61979    879.45257    4.3518416    4.3518416    4.3518416    879.45257    19517.082   -19025.664    2146.9396   -3842.1242    705.64229   -3046.7006    82.417462 
    2100    613.48652    -118.1761   0.55509549     -117.621    -8961.271    4.3507101    4.3507101    4.3507101    -8961.271   -2941.3456   -16988.286   -6954.1819    2328.7548    2831.8239   -15.623365    82.353192 
    2200    376.12125   -117.96696   0.34032241   -117.62663    1496.6374    4.3497021    4.3497021    4.3497021    1496.6374    12269.688   -22066.512    14286.735   -2182.5458   -315.16757   -5155.2908    82.295967 
    2300    431.05992   -118.01772   0.39003207   -117.62768   -726.70095    4.3499804    4.3499804    4.3499804   -726.70095     24702.82   -20334.108   -6548.8148    2021.6496   -1806.3663    676.24763    82.311762 
    2400    461.27413   -118.04268   0.41737052   -117.62531   -4389.2132    4.3529308    4.3529308    4.3529308   -4389.2132   -3955.6202   -22394.175    13182.155   -2555.7588   -3883.3568    2997.2205    82.479363 
    2500    420.94116   -118.00409   0.38087641   -117.62321    3078.8196    4.3472774    4.3472774    4.3472774    3078.8196    28213.067   -15544.417   -3432.1912    1642.0618      1572.72     -160.724    82.158418 
    2600    450.47245    -118.0313   0.40759694    -117.6237   -8040.5656    4.3548758    4.3548758    4.3548758   -8040.5656   -3000.0303   -26818.616    5696.9497    578.18743    5131.6686    3589.2963     82.58997 
    2700    393.28811   -117.97813   0.35585535   -117.62227    3267.5871    4.3475077    4.3475077    4.3475077    3267.5871    11492.108   -13269.873    11580.526   -632.64738    621.63958   -1485.9489    82.171476 
    2800    445.23998   -118.02406   0.40286249    -117.6212   -3100.3026    4.3529073    4.3529073    4.3529073   -3100.3026    6388.8829   -12117.986   -3571.8046    1885.2547   -3457.9527    441.16817    82.478025 
    2900    377.50443   -117.96174   0.34157395   -117.62017     881.7264    4.3508759    4.3508759    4.3508759     881.7264    1153.7681   -18311.499     19802.91   -4624.9474   -1530.1081   -1348.8481     82.36261 
    3000    383.37701   -117.96731   0.34688758   -117.62043    91.145687     4.349628     4.349628     4.349628    91.145687    15758.113   -7584.1206    -7900.555   -3917.5625    4302.0533   -2194.4702     82.29176 
    3100    431.12965   -118.01121   0.39009517   -117.62112    9.1575403    4.3513451    4.3513451    4.3513451    9.1575403   -4265.4905   -11462.691    15755.655   -1122.4781    4268.6155    3468.8602    82.389258 
    3200    386.54919   -117.97183   0.34975783   -117.62208    314.15936     4.351296     4.351296     4.351296    314.15936    16145.401   -11992.842   -3210.0806      85.9681   -4792.9271   -1385.0943    82.386467 
    3300     392.4361   -117.97848   0.35508443    -117.6234    1977.1486    4.3482876    4.3482876    4.3482876    1977.1486    2767.9253   -8248.1415    11411.662   -2321.1816   -865.90567     807.3361    82.215702 
    3400    391.77213   -117.97912   0.35448365   -117.62464    1502.5943    4.3529621    4.3529621    4.3529621    1502.5943    6457.8022   -12063.753    10113.734   -208.71793    2320.9426    3396.1731    82.481138 
    3500    398.84412   -117.98611   0.36088254   -117.62523    1332.4803    4.3489602    4.3489602    4.3489602    1332.4803    14833.348   -6398.5908   -4437.3164    1287.6945    1720.9938   -401.06454    82.253862 
    3600    380.12876   -117.96941   0.34394849   -117.62546   -766.66646    4.3500502    4.3500502    4.3500502   -766.66646    656.01912   -9749.9067    6793.8882   -1216.5319   -2856.6105    1868.3858    82.315725 
    3700    389.20744   -117.97438   0.35216307   -117.62222   -269.39939    4.3530493    4.3530493    4.3530493   -269.39939     10043.75   -5003.8377   -5848.1103    797.37837   -853.78294   -1354.7994    82.486098 
    3800    373.71767   -117.95888    0.3381476   -117.62073    2592.4971     4.349415     4.349415     4.349415    2592.4971    1784.2633   -12286.653    18279.881   -98.278897   -279.52399   -2122.6826    82.279669 
    3900    430.24241   -118.01034   0.38929238   -117.62105   -4922.6537    4.3515889    4.3515889    4.3515889   -4922.6537     3412.296    -7726.318   -10453.939    352.05801    4614.8774   -151.14366    82.403107 
    4000    302.88928   -117.89656   0.27406059    -117.6225    5260.0945    4.3502472    4.3502472    4.3502472    5260.0945    9919.6334   -14743.333    20603.983   -4695.6015   -872.40736    -2416.911    82.326911 
    4100    497.96724   -118.07217   0.45057123   -117.62159    -5247.068    4.3506355    4.3506355    4.3506355    -5247.068    106.09015    -16935.46    1088.1659    376.93643   -2638.2615    3068.4369    82.348955 
    4200    353.79051   -117.94217   0.32011708   -117.62205    1232.3149     4.351105     4.351105     4.351105    1232.3149     17626.99   -14356.213    426.16748    425.65699   -330.99351    322.43655    82.375618 
    4300    407.80259   -117.99086   0.36898835   -117.62187   -1506.4257    4.3511559    4.3511559    4.3511559   -1506.4257   -3438.7275   -19733.402    18652.853   -2268.9828      3056.51    542.51115    82.378512 
    4400    371.19994   -117.95821   0.33586951   -117.62234    4778.2814    4.3486707    4.3486707    4.3486707    4778.2814    30110.229   -14828.784   -946.60068   -1802.6205    3134.4081   -366.71169    82.237436 
    4500    429.38715   -118.01281   0.38851852   -117.62429   -3061.7508    4.3512529    4.3512529    4.3512529   -3061.7508   -5469.9927   -22882.113    19166.853    764.24469   -3047.3787   -1990.0821    82.384018 
    4600     450.1317     -118.033   0.40728862   -117.62571   -8146.0813    4.3507069    4.3507069    4.3507069   -8146.0813    9072.2522   -17470.503   -16039.993    2049.9203   -3585.0569   -1101.6823     82.35301 
    4700    302.47515   -117.89939   0.27368588   -117.62571    1980.9987    4.3505415    4.3505415    4.3505415    1980.9987    5211.0265   -20125.478    20857.448   -2335.7258    -268.9594   -5480.1838     82.34362 
    4800    500.88953   -118.07512   0.45321537   -117.62191   -6988.3662    4.3497912    4.3497912    4.3497912   -6988.3662    447.92591   -17814.791   -3598.2338    4733.4015    2104.5538    1473.6294    82.301025 
    4900    297.92094   -117.89188   0.26956512   -117.62232   -1792.2799    4.3537778    4.3537778    4.3537778   -1792.2799    6465.9949   -22499.831    10656.997    1652.5608    920.29901   -271.79682    82.527518 
    5000    435.62902   -118.01503   0.39416629   -117.62086   -3249.5789    4.3490006    4.3490006    4.3490006   -3249.5789    2832.9091   -13812.457     1230.811   -1715.5598   -3331.6812   -1425.0382    82.256157 
    5100    344.40608   -117.93362   0.31162586   -117.62199    1522.4216     4.351349     4.351349     4.351349    1522.4216     12680.74   -16822.131    8708.6563    764.16212   -613.68068    476.02433    82.389478 
    5200     445.8651   -118.02499   0.40342811   -117.62156   -3716.7346    4.3509205    4.3509205    4.3509205   -3716.7346   -4149.9197   -16016.343    9016.0594   -3394.3212    -1785.746   -2474.7524    82.365142 
    5300    361.31936   -117.94992   0.32692935   -117.62299   -700.75244    4.3514942    4.3514942    4.3514942   -700.75244    14315.421   -13618.883   -2798.7951    238.70282    621.83027    245.99137    82.397728 
    5400    279.19456    -117.8782   0.25262111   -117.62558    8837.0878    4.3476754    4.3476754    4.3476754    8837.0878    14384.355   -10281.717    22408.626   -1631.1641   -50.990886   -2011.5337    82.180984 
    5500    596.42252   -118.16579   0.53965563   -117.62613   -16044.331    4.3542784    4.3542784    4.3542784   -16044.331    -11915.49   -13324.551   -22892.952    3432.9418    447.56102   -1109.4454    82.555987 
    5600    158.69489    -117.7721   0.14359047   -117.62851    15340.973    4.3468476    4.3468476    4.3468476    15340.973    27581.201   -6032.1573    24473.875   -1937.1506   -1435.6839    1707.8464     82.13405 
    5700    510.35924   -118.08682   0.46178377   -117.62504   -14190.929    4.3540192    4.3540192    4.3540192   -14190.929   -11752.404   -15074.591   -15745.793    1484.4124    108.53862   -883.58832    82.541246 
    5800    198.29543   -117.80519   0.17942188   -117.62577    11656.588    4.3474146    4.3474146    4.3474146    11656.588     20428.18   -7222.1307    21763.715   -402.41687   -1584.1511    3694.0646    82.166194 
    5900    391.96198   -117.97916   0.35465543    -117.6245   -4788.0679    4.3549557    4.3549557    4.3549557   -4788.0679    1989.4037   -12508.868   -3844.7395     1795.371   -4259.0365    3107.1054    82.594518 
    6000    397.67351   -117.98222   0.35982335   -117.62239   -1879.1521    4.3480806    4.3480806    4.3480806   -1879.1521    8351.0461   -11474.756   -2513.7459    1818.0147    59.950386   -2747.1453    82.203965 
    6100    223.15895   -117.82454    0.2019189   -117.62263    6640.6121    4.3498494    4.3498494    4.3498494    6640.6121    14917.796   -5888.3074    10892.348   -2597.8262   -205.99417    -160.6017    82.304325 
    6200     541.1087    -118.1099   0.48960652   -117.62029    -12460.09    4.3545244    4.3545244    4.3545244    -12460.09   -9167.3121   -12349.961   -15862.998    3188.0856    2928.4132   -2458.1398    82.569981 
    6300    184.54368   -117.79023     0.166979   -117.62325    13210.158    4.3464487    4.3464487    4.3464487    13210.158    26065.084   -11472.927    25038.318   -2302.2891   -4461.5983   -1708.7676     82.11144 
    6400    443.45177    -118.0252   0.40124448   -117.62395   -6370.3851    4.3507545    4.3507545    4.3507545   -6370.3851    5004.9571    -14261.36   -9854.7522    2255.8783   -3872.8711   -1233.0377    82.355714 
    6500    304.00711   -117.89944   0.27507202   -117.62436    925.41973    4.3526311    4.3526311    4.3526311    925.41973    5814.0433   -17911.597    14873.813   -454.79774   -800.16108    460.90706    82.462324 
    6600    417.52387   -117.99953   0.37778438   -117.62174   -4274.9656    4.3492086    4.3492086    4.3492086   -4274.9656    11554.426   -16753.656    -7625.666    1892.7705    2889.0171    536.54839    82.267959 
    6700    369.49334   -117.95693   0.33432534    -117.6226    894.06775    4.3483006    4.3483006    4.3483006    894.06775    4833.8362    -19200.03    17048.397    3589.6793    853.06118    685.82766    82.216442 
    6800    294.06614   -117.88939   0.26607722   -117.62331   -3167.1484    4.3552745    4.3552745    4.3552745   -3167.1484    4948.6859   -21342.503    6892.3713   -3232.9779   -2939.3226    590.28729    82.612657 
    6900    480.31854   -118.05558   0.43460231   -117.62098   -4135.5305    4.3457824    4.3457824    4.3457824   -4135.5305     2112.301   -17259.853    2740.9604    7343.8648   -661.86844    242.81682    82.073685 
    7000    250.28855    -117.8492   0.22646634   -117.62273    2223.5307    4.3541603    4.3541603    4.3541603    2223.5307    15702.239   -21878.128    12846.482    26.218177    2043.9701    1275.9937    82.549268 
    7100    472.78772   -118.04876   0.42778826   -117.62097   -4883.4116    4.3479891    4.3479891    4.3479891   -4883.4116    10966.127    -17455.98   -8160.3815   -520.15627    2775.8502   -2976.2769    82.198773 
    7200    354.88719   -117.94398   0.32110939   -117.62287   -3289.6992    4.3524532    4.3524532    4.3524532   -3289.6992   -1460.6132   -24169.147    15760.663   -1720.3446   -941.55449   -2313.6245    82.452214 
    7300    358.20932   -117.94744   0.32411532   -117.62332    21.474469    4.3503515    4.3503515    4.3503515    21.474469    26625.586   -20601.302   -5959.8601    -3551.494   -3314.3581     978.3071    82.332831 
    7400    430.48249   -118.01273    0.3895096   -117.62322   -6307.3814    4.3500252    4.3500252    4.3500252   -6307.3814     -6119.08   -22199.113    9396.0492    1495.9923     1916.035   -2846.9602    82.314306 
    7500    308.91852   -117.90235   0.27951597   -117.62283    3144.6678    4.3500028    4.3500028    4.3500028    3144.6678    24988.985   -17405.326    1850.3451    -3299.483    73.881421     553.6448    82.313034 
    7600    464.57778   -118.04278   0.42035974   -117.62242    -9624.386    4.3528042    4.3528042    4.3528042    -9624.386   -8331.3126   -20881.561    339.71583     4137.243   -1170.5319    1366.9636    82.472165 
    7700    281.92748   -117.87867   0.25509391   -117.62358    4435.2921    4.3471383    4.3471383    4.3471383    4435.2921    21645.732   -19770.142    11430.287    2255.0279   -1802.1248    -3611.003    82.150529 
    7800    423.77072   -118.00699   0.38343665   -117.62355   -5398.4356     4.353635     4.353635     4.353635   -5398.4356   -5800.2443   -14294.666    3899.6038    1172.7722    850.74573   -2166.0123    82.519395 
    7900    410.03282   -117.99411   0.37100631    -117.6231   -1961.3881    4.3500602    4.3500602    4.3500602   -1961.3881   -2927.9247   -19754.404    16798.164    2101.9293   -831.70705   -2743.9558    82.316294 
    8000    380.57581   -117.96859   0.34435299   -117.62424   -2021.8729    4.3508709    4.3508709    4.3508709   -2021.8729     7246.782   -13334.759    22.358191    295.65097   -232.05173   -299.94148    82.362321 
    8100    354.95926   -117.94474    0.3211746   -117.62357    3124.6296    4.3523385    4.3523385    4.3523385    3124.6296   -1107.4233   -14841.286    25322.598    220.16289   -1770.3872    1620.5145    82.445699 
    8200     398.6156   -117.98343   0.36067578   -117.62275    1259.0279    4.3480218    4.3480218    4.3480218    1259.0279    8734.8814   -9099.5672    4141.7694   -796.66163    -1069.449    1770.5496    82.200631 
    8300    374.11054   -117.96265   0.33850308   -117.62414   -1733.9756    4.3513443    4.3513443    4.3513443   -1733.9756   -2988.5443   -13807.781    11594.399    997.75274    3730.4826    1276.5084    82.389214 
    8400    305.16175   -117.89997   0.27611676   -117.62385    5296.0551    4.3519536    4.3519536    4.3519536    5296.0551    16790.237   -5892.9829    4990.9108    1976.5636   -1647.8581   -451.45089    82.423824 
    8500    449.19924   -118.02856   0.40644491   -117.62211   -3602.7226    4.3480126    4.3480126    4.3480126   -3602.7226   -4963.5575   -13573.475    7728.8649   -642.96465    837.56913   -6197.7821    82.200108 
    8600    361.99419   -117.95016   0.32753995   -117.62262   -2584.7643    4.3526647    4.3526647    4.3526647   -2584.7643    968.21963   -8539.1573   -183.35519   -250.28698   -8434.2237    980.45071    82.464235 
    8700    345.68008   -117.93507    0.3127786   -117.62229    881.90519    4.3526821    4.3526821    4.3526821    881.90519    266.73786   -11264.175    13643.153    1196.7266    4953.3913   -2960.1291    82.465223 
    8800    422.10544   -118.00409   0.38192987   -117.62216   -1454.5099     4.347529     4.347529     4.347529   -1454.5099    6179.6784   -12005.169    1461.9609    669.98962   -529.60904   -6486.5598    82.172683 
    8900    342.77393    -117.9339   0.31014906   -117.62375   -322.65371    4.3522317    4.3522317    4.3522317   -322.65371   -980.22428   -9442.4684    9454.7315    1904.1643   -1409.7257    2575.0856    82.439628 
    9000     412.1231   -117.99588   0.37289764   -117.62298    306.71283    4.3508407    4.3508407    4.3508407    306.71283   -7477.2835   -12608.189    21005.611    4298.2311   -2837.4193    1516.0752    82.360607 
    9100    277.21889   -117.87468   0.25083348   -117.62385    7102.3927    4.3498854    4.3498854    4.3498854    7102.3927    16815.289   -15329.095    19820.983    260.00435   -3111.7384    1243.0719    82.306371 
    9200    539.63331   -118.11241   0.48827156   -117.62414   -5539.7776    4.3492325    4.3492325    4.3492325   -5539.7776    -9690.061   -11895.961    4966.6887    -344.6117    3612.6579    104.15549    82.269314 
    9300    323.72234   -117.91927   0.29291077   -117.62636    1757.7135     4.353701     4.353701     4.353701    1757.7135   -1241.1432   -13005.726     19520.01   -430.46603   -2838.6288   -2300.0991    82.523149 
    9400    456.79363   -118.03745   0.41331648   -117.62414   -7528.7867    4.3506392    4.3506392    4.3506392   -7528.7867   -12572.134   -20281.007    10266.781    1386.3822    -69.16167    903.82993    82.349166 
    9500    330.89935   -117.92334   0.29940469   -117.62393    5285.6267    4.3486811    4.3486811    4.3486811    5285.6267    15062.863   -14759.046    15553.063   -2389.0232   -1356.5079   -7444.0189    82.238025 
    9600    545.48116   -118.11715   0.49356282   -117.62359   -9925.4184     4.352491     4.352491     4.352491   -9925.4184     -12686.6   -19174.915    2085.2603   -1744.7479   -614.56948    2498.8263    82.454363 
    9700    289.46706   -117.88963   0.26191588   -117.62772   -957.62855    4.3509962    4.3509962    4.3509962   -957.62855   -2604.4181   -15973.494    15705.026    986.98059   -1755.4524    2260.8917    82.369439 
    9800     459.3874   -118.04187   0.41566338   -117.62621   -221.30396    4.3473613    4.3473613    4.3473613   -221.30396    11215.751   -16206.387    4326.7236   -885.11533    894.07858   -26.141134    82.163172 
    9900    343.29826   -117.93513   0.31062348   -117.62451    3475.1498    4.3542314    4.3542314    4.3542314    3475.1498   -1144.7877   -18133.522    29703.759    1866.2707   -1353.6831   -2014.5718    82.553314 
   10000    508.67056   -118.08139   0.46025581   -117.62113   -6541.3175     4.349768     4.349768     4.349768   -6541.3175    -1202.297   -16061.504   -2360.1519    971.70441    2823.0365   -3431.0253    82.299703 
   10100    320.37091    -117.9135   0.28987833   -117.62362    4323.4322    4.3499954    4.3499954    4.3499954    4323.4322   -13119.892   -14476.292     40566.48    3223.2553   -4891.8977    1108.5072    82.312614 
   10200    505.95264   -118.08093   0.45779658   -117.62313   -6160.8927    4.3526405    4.3526405    4.3526405   -6160.8927    2365.8833   -15984.255   -4864.3064   -247.36537    112.88122    780.07637     82.46286 
   10300    414.03539   -117.99781   0.37462793   -117.62318    2961.7673    4.3474843    4.3474843    4.3474843    2961.7673   -13991.569   -8179.4705    31056.342    618.33908   -1463.1244    1705.8795    82.170147 
   10400    391.02146   -117.97645   0.35380444   -117.62265   -4241.7825    4.3541657    4.3541657    4.3541657   -4241.7825    2609.8146    -16779.22    1444.0581    2651.9015   -4499.7896   -1537.2505    82.549576 
   10500    437.61183   -118.01788   0.39596038   -117.62192   -651.26715    4.3488825    4.3488825    4.3488825   -651.26715   -8193.3381   -5021.1278    11260.664   -2707.8562    6995.9053   -832.75399    82.249454 
   10600    396.87846   -117.98249   0.35910398   -117.62339    3883.4943    4.3492928    4.3492928    4.3492928    3883.4943    16439.865   -6978.4284    2189.0461    1046.4943   -3581.8228   -1684.0128    82.272737 
   10700    366.06304   -117.95833   0.33122153   -117.62711    2304.0851    4.3521952    4.3521952    4.3521952    2304.0851   -4693.5252   -13315.625    24921.405   -533.12867   -2440.5748    3243.1853    82.437553 
   10800    404.43248   -117.99191   0.36593901   -117.62597    4428.3927    4.3492158    4.3492158    4.3492158    4428.3927     1368.855    4200.4422     7715.881   -178.05475   -6209.4474   -1773.3879    82.268366 
   10900    435.14878   -118.01601   0.39373176   -117.62228    3256.5936    4.3512887    4.3512887    4.3512887    3256.5936    5890.5678   -13211.404    17090.617    395.04117    1880.6652   -3984.1318    82.386055 
   11000     505.3798   -118.07757   0.45727826   -117.62029   -4158.6515     4.351567     4.351567     4.351567   -4158.6515   -2674.7975   -11088.551    1287.3941   -899.22091    359.84153     385.8734    82.401864 
   11100    371.84472   -117.96015   0.33645292   -117.62369    4825.9667    4.3481365    4.3481365    4.3481365    4825.9667    4952.3107   -8275.1695    17800.759    3493.2176   -1586.1712    2415.4516    82.207135 
   11200    525.56302   -118.10202   0.47554046   -117.62648   -11157.696    4.3545976    4.3545976    4.3545976   -11157.696    -6898.852   -22416.936   -4157.3018    -1788.238    -3376.234    2269.2615    82.574144 
   11300    303.07701   -117.89974   0.27423044   -117.62551    9484.2943    4.3460458    4.3460458    4.3460458    9484.2943    18548.695   -10405.096    20309.284    2336.1195    3126.2456   -3486.8477    82.088609 
   11400    521.69591   -118.09405   0.47204142   -117.62201   -9745.5779    4.3530556    4.3530556    4.3530556   -9745.5779   -11090.263   -18377.743     231.2723   -3.2765522     1632.631    1856.5576    82.486453 
   11500    424.14392   -118.00652   0.38377433   -117.62275   -3268.2437    4.3507964    4.3507964    4.3507964   -3268.2437    4720.1308   -24305.092    9780.2302   -129.68929    755.02263   -4334.1096    82.358095 
   11600    436.03161   -118.01937   0.39453056   -117.62484    701.88546    4.3485013    4.3485013    4.3485013    701.88546    7548.6966   -10340.168    4897.1279   -967.53199   -2635.4166   -6348.6222    82.227828 
   11700    473.89669    -118.0531   0.42879168   -117.62431   -5149.7926    4.3539397    4.3539397    4.3539397   -5149.7926   -7058.8958   -18884.413    10493.931   -5273.3827    1992.7821    3265.8791    82.536723 
   11800    354.63039   -117.94353   0.32087703   -117.62266    5396.1055    4.3476685    4.3476685    4.3476685    5396.1055    1351.3692    -12238.17    27075.117    3060.0923    -85.95497    2798.9316    82.180594 
   11900    499.37196   -118.07253   0.45184224   -117.62069   -4859.5674    4.3514848    4.3514848    4.3514848   -4859.5674    3262.8535   -14972.725   -2868.8313   -2633.2764    5429.4971    1910.5145    82.397195 
   12000    425.71057   -118.00601   0.38519187   -117.62081     1380.376    4.3526662    4.3526662    4.3526662     1380.376   -1763.4187   -10634.516    16539.062    1386.3041   -3777.9839   -2215.0017     82.46432 
   12100    446.80799   -118.02883   0.40428126   -117.62454    1255.9041    4.3467604    4.3467604    4.3467604    1255.9041    1382.4421   -5264.0593    7649.3296    1360.5631    3135.8654    1060.7328    82.129107 
   12200    486.52059   -118.06746   0.44021405   -117.62724   -7684.9533    4.3534838    4.3534838    4.3534838   -7684.9533   -6748.0546   -14997.142   -1309.6634   -2636.8326    -2567.016   -768.07816      82.5108 
   12300    384.40848   -117.97384   0.34782088   -117.62602    867.02833    4.3517885    4.3517885    4.3517885    867.02833   -3608.2209   -8471.3068    14680.613    2519.9043    9151.9639   -2807.6266    82.414445 
   12400    409.65864   -117.99438   0.37066775   -117.62371    4033.5032    4.3463034    4.3463034    4.3463034    4033.5032    3666.5745   -796.71467    9230.6498   -2341.2149    1392.3706    1121.3679    82.103208 
   12500    474.28525   -118.05148   0.42914326   -117.62233   -7818.3898    4.3552046    4.3552046    4.3552046   -7818.3898   -10930.536   -13463.765    939.13169    2081.4812   -4517.8387   -341.51559     82.60868 
   12600    398.49706   -117.98158   0.36056851   -117.62101    2069.3058    4.3505201    4.3505201    4.3505201    2069.3058    1245.9174   -2505.0731    7467.0731    -2389.265    9565.5586   -613.58696    82.342405 
   12700    546.58195   -118.11384   0.49455883   -117.61928   -3829.3697    4.3491963    4.3491963    4.3491963   -3829.3697   -1102.3743   -9661.2671   -724.46758    884.59067   -3250.8652   -132.50826     82.26726 
   12800    361.73359    -117.9479   0.32730416    -117.6206    5674.1497    4.3512593    4.3512593    4.3512593    5674.1497    7681.7323   -6549.1458    15889.863    3148.1664    7944.1681    4311.9658    82.384385 
   12900     547.0086   -118.11446   0.49494488   -117.61951   -7749.8463    4.3532743    4.3532743    4.3532743   -7749.8463   -7828.9216   -6415.4087   -9005.2088   -352.62961   -5241.7628    1487.4353    82.498887 
   13000     292.1526    -117.8866   0.26434581   -117.62226    12199.366    4.3475507    4.3475507    4.3475507    12199.366    17457.202   -9216.1535    28357.049     4914.994    893.39412   -4711.5481    82.173913 
   13100     576.5886   -118.14564   0.52170948   -117.62393    -6621.935    4.3503767    4.3503767    4.3503767    -6621.935   -6687.7615   -6487.6727   -6690.3709   -3995.5632    3696.4325   -5186.3412    82.334261 
   13200    328.18003   -117.92231   0.29694419   -117.62536     3755.074    4.3529208    4.3529208    4.3529208     3755.074    11696.746   -1564.0887    1132.5647    4276.9142    4607.9068   -242.18344    82.478792 
   13300    480.28304   -118.05624   0.43457019   -117.62167   -2326.8648    4.3500257    4.3500257    4.3500257   -2326.8648    2903.4921   -11518.415    1634.3288   -3207.0452   -1337.8136     -331.913    82.314332 
   13400       465.31   -118.04062   0.42102227    -117.6196   -238.40874    4.3494477    4.3494477    4.3494477   -238.40874    6539.7354   -1062.7905   -6192.1711    2475.6912    -4583.841   -1711.3746    82.281526 
   13500    329.71046   -117.91869   0.29832895   -117.62036    2004.0977    4.3536876    4.3536876    4.3536876    2004.0977    9950.7939   -8505.1793    4566.6784     3992.606    5976.1135    5918.2152    82.522388 
   13600    521.91319    -118.0914   0.47223803   -117.61916   -6301.5576    4.3490219    4.3490219    4.3490219   -6301.5576   -4767.9942   -9681.9606   -4454.7178   -818.58805   -235.97978   -3370.1182    82.257365 
   13700    291.01338    -117.8854   0.26331503   -117.62209    9104.4859    4.3490329    4.3490329    4.3490329    9104.4859    22115.084   -6458.6386    11657.012    1465.7065    4934.0531   -2808.8983    82.257986 
   13800    594.09526   -118.15886   0.53754987   -117.62131   -11395.035    4.3533411    4.3533411    4.3533411   -11395.035   -11138.551   -17691.204   -5355.3511   -3216.5386   -8516.2806    3512.8423    82.502689 
   13900    280.63786   -117.87769   0.25392703   -117.62376    8249.4159    4.3471185    4.3471185    4.3471185    8249.4159    24563.328   -9854.9834    10039.903     2932.019    4007.4986    -3956.315    82.149409 
   14000    566.27773   -118.13495   0.51237999   -117.62257   -7322.6802     4.349987     4.349987     4.349987   -7322.6802   -1642.1076   -14060.223   -6265.7101   -1545.0352    2980.0229    25.335017    82.312138 
   14100    364.63651   -117.95218   0.32993078   -117.62225     3507.224    4.3542309    4.3542309    4.3542309     3507.224    9372.6215   -9871.7956    11020.846    4375.2531   -650.87339   -6276.0638    82.553287 
   14200    427.32565   -118.00589   0.38665323   -117.61924    1075.6797    4.3474968    4.3474968    4.3474968    1075.6797    4423.5831   -9280.3713    8083.8274   -1667.1215   -601.25981   -487.78945    82.170856 
   14300    443.31334   -118.02002   0.40111923   -117.61891   -983.57381    4.3495315    4.3495315    4.3495315   -983.57381    3673.4689   -5633.5752    -990.6152   -4050.1743   -7410.1666     4736.774    82.286283 
   14400    325.83404   -117.91527   0.29482149   -117.62045    5825.8344    4.3545813    4.3545813    4.3545813    5825.8344    5419.5837   -2351.4304     14409.35    2786.3924    4455.2007   -2922.5306     82.57322 
   14500    544.03002   -118.11488    0.4922498   -117.62263   -4097.1708    4.3458631    4.3458631    4.3458631   -4097.1708    2086.1134   -5310.0532   -9067.5726   -1985.3809     995.1524    2591.8782    82.078256 
   14600    381.81353   -117.97331   0.34547291   -117.62784    159.08877    4.3500334    4.3500334    4.3500334    159.08877    3901.6652   -7202.1402    3777.7414    2621.0111   -979.29544   -3461.7051    82.314769 
   14700    430.15721   -118.01472   0.38921528   -117.62551   -1141.9577    4.3546036    4.3546036    4.3546036   -1141.9577     4713.349   -1457.3809   -6681.8413   -3258.9077   -2874.7134     413.4502    82.574488 
   14800    399.12211   -117.98374   0.36113407   -117.62261    6115.2945    4.3456569    4.3456569    4.3456569    6115.2945    7884.4775   -11526.168    21987.574    1321.3796    6285.8949   -1605.6958    82.066572 
   14900    433.83347   -118.01482   0.39254164   -117.62228   -2683.6799    4.3517703    4.3517703    4.3517703   -2683.6799   -1000.1057   -601.46618    -6449.468   -506.27239    2604.9237   -1372.7809    82.413409 
   15000    382.99797   -117.96814   0.34654462   -117.62159   -438.19369    4.3538209    4.3538209    4.3538209   -438.19369    8720.3504   -16546.639    6511.7078   -435.99133    184.34383    1774.7803    82.529968 
   15100    486.85207   -118.06033   0.44051398   -117.61982    3066.5252    4.3459474    4.3459474    4.3459474    3066.5252    2644.3286   -4488.6577    11043.905    2252.2113   -4046.2357   -1559.1761    82.083033 
   15200    394.94097   -117.97837   0.35735089   -117.62102   -725.58028    4.3528597    4.3528597    4.3528597   -725.58028    13405.316   -10567.801   -5014.2562   -4280.7362   -632.03834    4775.0142     82.47532 
   15300    468.23065    -118.0448   0.42366493   -117.62114   -7455.7251    4.3524708    4.3524708    4.3524708   -7455.7251   -6580.6129   -11939.226   -3847.3361    1645.6326    4951.2877   -1359.8722    82.453214 
   15400    321.38294   -117.91483   0.29079404   -117.62404    8613.6736     4.346755     4.346755     4.346755    8613.6736    20117.138   -15541.402    21265.285   -1777.0305    1654.8963   -590.65194    82.128799 
   15500    478.28504   -118.05833   0.43276235   -117.62557   -4367.2381    4.3517792    4.3517792    4.3517792   -4367.2381   -10385.495   -5246.5235    2530.3044     -1557.96   -4424.1032   -253.21164    82.413915 
   15600    333.25417   -117.92736   0.30153537   -117.62583   -1350.2423     4.351476     4.351476     4.351476   -1350.2423    4112.2984   -11955.633    3792.6074     3245.313    3813.3365   -1409.8555     82.39669 
   15700    437.92501   -118.01873   0.39624375   -117.62249    -4431.241    4.3493955    4.3493955    4.3493955    -4431.241    3427.3474   -7814.6833    -8906.387     1079.812   -683.03484     1151.724    82.278563 
   15800    449.31997   -118.02682   0.40655415   -117.62027   -3004.0868    4.3518838    4.3518838    4.3518838   -3004.0868   -4186.2748   -9334.2282    4508.2425   -926.59367    6232.2191   -3592.6475    82.419861 
   15900    395.60073   -117.97738   0.35794785   -117.61943   -3525.0243    4.3514518    4.3514518    4.3514518   -3525.0243    9880.2992   -11542.997   -8912.3754   -2890.4212   -2638.8241    5578.7841     82.39532 
   16000    432.53461   -118.01178    0.3913664   -117.62042   -5675.9284    4.3490567    4.3490567    4.3490567   -5675.9284   -1548.4693   -11749.422   -3729.8943   -1723.1829   -776.34565    646.32562    82.259338 
   16100    321.67315   -117.91472   0.29105662   -117.62366    4875.1942    4.3520388    4.3520388    4.3520388    4875.1942     21522.66   -12015.018     5117.941    2373.9083    6782.5418   -1031.9136    82.428666 
   16200    454.91491   -118.03479   0.41161657   -117.62317    1823.8236    4.3488257    4.3488257    4.3488257    1823.8236   -103.02181   -4151.3441    9725.8368    3504.1404    570.99955    1396.8376    82.246229 
   16300    278.25531   -117.87547   0.25177125    -117.6237    4308.9911    4.3498002    4.3498002    4.3498002    4308.9911     26998.75   -12975.594   -1096.1833   -1587.9281    5589.1714   -341.20689    82.301535 
   16400    545.40675   -118.11569   0.49349549   -117.62219   -11253.438    4.3522559    4.3522559    4.3522559   -11253.438   -7585.4264   -9599.8348   -16575.052   -1801.7285    -3856.808     291.9271    82.441004 
   16500    308.98391   -117.90335   0.27957514   -117.62378    10516.778    4.3488231    4.3488231    4.3488231    10516.778    16590.416    1371.7379    13588.179    296.55106    5972.0234   -4274.2146    82.246082 
   16600    546.90409   -118.11681   0.49485032   -117.62196   -9568.6025    4.3515794    4.3515794    4.3515794   -9568.6025    1427.1517   -13186.398   -16946.561    2344.9509   -1907.7834   -39.465818    82.402564 
   16700     337.7828   -117.92743   0.30563298   -117.62179    23.356721    4.3492692    4.3492692    4.3492692    23.356721    1897.4684   -115.04555   -1712.3527    3345.4624     1207.035    -742.4003    82.271399 
   16800    400.39941   -117.98205    0.3622898   -117.61976    -1405.439    4.3525357    4.3525357    4.3525357    -1405.439   -1784.4704   -1195.0853   -1236.7613   -4958.1644   -81.389595    2315.9084    82.456905 
   16900    341.58361   -117.92965   0.30907203   -117.62058    10361.003    4.3481551    4.3481551    4.3481551    10361.003    22122.879   -8428.5228    17388.653     905.8623    2917.8509    2302.5298    82.208189 
   17000    428.30679   -118.01088   0.38754098   -117.62334   -1183.7536    4.3491411    4.3491411    4.3491411   -1183.7536   -1196.3113    43.639988   -2398.5894    -908.7509    7053.7189    922.01147    82.264127 
   17100    353.70728   -117.94547   0.32004178   -117.62543   -3806.6171    4.3541637    4.3541637    4.3541637   -3806.6171    19098.956   -22378.853   -8139.9549    3626.8017   -1365.9656   -2460.2014    82.549463 
   17200    396.71631   -117.98224   0.35895725   -117.62328    5561.8805    4.3483362    4.3483362    4.3483362    5561.8805     2913.297    3318.0964    10454.248   -2648.1718     1241.608   -619.76704     82.21846 
   17300    576.11542   -118.14154   0.52128134   -117.62026   -7798.8518    4.3502941    4.3502941    4.3502941   -7798.8518    3378.9379   -15987.361   -10788.133   -2734.8042   -4308.0345   -45.820546    82.329573 
   17400    242.84068   -117.84177   0.21972735   -117.62204    297.93337    4.3532441    4.3532441    4.3532441    297.93337    12266.061   -8795.6949   -2576.5659    3933.3659    2308.1101   -2666.7854    82.497172 
   17500    545.01983   -118.11316    0.4931454   -117.62002   -10408.597    4.3487627    4.3487627    4.3487627   -10408.597   -12613.416   -12717.909   -5894.4663   -5740.4743    637.17268    945.18572    82.242657 
   17600    242.47417   -117.84168   0.21939573   -117.62229    13049.445    4.3510493    4.3510493    4.3510493    13049.445    14758.075    -410.8773    24801.137    3084.1149    -150.0388    397.67095    82.372456 
   17700    478.73027   -118.05307   0.43316521   -117.61991   -7264.6173    4.3514838    4.3514838    4.3514838   -7264.6173   -7960.6356   -8210.7154    -5622.501   -2314.3369     395.0269      3783.85    82.397133 
   17800    261.80851   -117.85761   0.23688984   -117.62072    1529.8965    4.3492146    4.3492146    4.3492146    1529.8965    8192.6996   -13069.478     9466.468   -5944.9842    1031.6661     1257.855    82.268298 
   17900    474.49153   -118.04973   0.42932991    -117.6204   -3621.8154     4.353215     4.353215     4.353215   -3621.8154    -12198.02   -1855.4678    3188.0416    69.538745    4587.1327    307.74663    82.495518 
   18000    472.71366   -118.04793   0.42772125   -117.62021     35.92307    4.3500829    4.3500829    4.3500829     35.92307    3969.2878   -5173.1334    1311.6148   -1489.7581   -2863.7684   -3056.0058    82.317582 
   18100    320.67502   -117.91256    0.2901535    -117.6224    987.50189    4.3479932    4.3479932    4.3479932    987.50189   -2005.0132   -4875.7572    9843.2761    3674.8183   -1103.4501   -3165.0112    82.199006 
   18200    551.15824   -118.12021   0.49869956   -117.62151   -14703.886    4.3556116    4.3556116    4.3556116   -14703.886    -18863.08   -13996.229    -11252.35   -3451.1527   -2428.8172    372.18396     82.63184 
   18300    288.19536   -117.88236   0.26076522   -117.62159    14654.414    4.3476146    4.3476146    4.3476146    14654.414    17170.762   -3625.7951    30418.274    2339.4794    6060.9446   -398.05682    82.177538 
   18400    464.69957   -118.04157   0.42046994    -117.6211   -2709.9316    4.3492878    4.3492878    4.3492878   -2709.9316   -4729.6297    -5401.021    2000.8559    2342.1724    2436.0612    2152.3473     82.27245 
   18500    319.63079   -117.91093   0.28920865   -117.62172   -1215.0206    4.3531627    4.3531627    4.3531627   -1215.0206    6834.7806   -9174.8062   -1305.0361   -3730.1915    1861.2934   -1723.9673    82.492544 
   18600    417.92087   -117.99764   0.37814359    -117.6195    916.99767    4.3503394    4.3503394    4.3503394    916.99767    73.088562   -9831.4772    12509.382    -94.85521   -1509.2012    3124.2564    82.332145 
   18700    402.74682   -117.98312   0.36441379   -117.61871    6130.1829    4.3489212    4.3489212    4.3489212    6130.1829    9985.2538    9205.1864   -799.89136   -2323.9015   -324.79601      248.691    82.251652 
   18800    300.47918   -117.89111   0.27187988   -117.61923    418.40462    4.3529756    4.3529756    4.3529756    418.40462   -1499.6324    -6399.053    9153.8993   -2218.8035    5274.9383   -1216.2693    82.481908 
   18900    438.57876   -118.01564   0.39683528   -117.61881   -6318.7944    4.3497155    4.3497155    4.3497155   -6318.7944   -10411.739    -708.6024   -7836.0421   -1363.4588   -5515.7029   -1192.9413    82.296726 
   19000     309.5804   -117.90179   0.28011485   -117.62168    5457.5212    4.3526065    4.3526065    4.3526065    5457.5212   -6259.4591   -5321.5708    27953.594    1616.6859    5626.6745   -2258.9043    82.460927 
   19100    407.50885    -117.9902   0.36872257   -117.62148   -1247.7192     4.349813     4.349813     4.349813   -1247.7192    2383.8632   -3404.7198   -2722.3011    1569.9772   -427.16866   -411.25393    82.302258 
   19200     314.8478    -117.9073   0.28488091   -117.62242   -3800.5525    4.3511115    4.3511115    4.3511115   -3800.5525   -738.43835   -14340.573    3677.3537   -265.63628    4985.0626   -1151.2743     82.37599 
   19300    369.02603    -117.9545   0.33390251    -117.6206    -2580.072    4.3545604    4.3545604    4.3545604    -2580.072   -7564.0474   -11919.795    11743.627     1026.282    2889.8069    1288.3861    82.572027 
   19400    428.08761   -118.00522   0.38734267   -117.61788   -1187.4951    4.3497706    4.3497706    4.3497706   -1187.4951    12713.865   -11494.369   -4781.9818    996.67275    -2279.404   -2173.8303    82.299856 
   19500      194.286   -117.79582   0.17579405   -117.62003    5709.6002    4.3491743    4.3491743    4.3491743    5709.6002   -814.09268   -4362.5564     22305.45   -3942.8424    5666.8453    911.58465    82.266009 
   19600    528.22282   -118.09735   0.47794711    -117.6194   -15138.505    4.3552898    4.3552898    4.3552898   -15138.505   -17607.825   -13916.232   -13891.458   -2581.9745   -5890.9538    205.64708    82.613531 
   19700     242.5255   -117.84024   0.21944217    -117.6208    8937.3008    4.3489996    4.3489996    4.3489996    8937.3008    5631.4412    -923.0885     22103.55   -2413.5386    8864.7819    957.85064    82.256098 
   19800     444.5185   -118.02255   0.40220968   -117.62034   -4361.9796    4.3483067    4.3483067    4.3483067   -4361.9796   -14358.839   -2490.4984    3763.3989   -948.74861   -1874.1265    712.08935    82.216791 
   19900    332.24289   -117.92217   0.30062035   -117.62155   -5879.2074    4.3560603    4.3560603    4.3560603   -5879.2074   -9556.3694   -4191.9835   -3889.2692   -3118.9455    1786.0577   -1980.1281     82.65738 
   20000    257.81684   -117.85421    0.2332781   -117.62093    10122.451    4.3456493    4.3456493    4.3456493    10122.451   -4293.7738   -206.88261    34868.009    233.32699    6950.2046   -1136.2157    82.066143 
   20100    472.66951   -118.05005    0.4276813   -117.62237   -8240.3656    4.3527056    4.3527056    4.3527056   -8240.3656   -5825.9661   -6398.5685   -12496.562    2563.1274    -2111.744   -1990.0925    82.466562 
   20200    185.95255   -117.79433   0.16825378   -117.62608     6311.714    4.3511881    4.3511881    4.3511881     6311.714    5648.1968   -1353.0878    14640.033   -459.10527    4922.9016   -592.09303    82.380336 
   20300    383.25448   -117.97147   0.34677671   -117.62469   -2091.0269    4.3485316    4.3485316    4.3485316   -2091.0269    -5751.698   -10856.985    10335.602   -1171.2295   -5139.1319   -406.42663    82.229545 
   20400    358.71405   -117.94698   0.32457201    -117.6224    1767.0124    4.3500548    4.3500548    4.3500548    1767.0124     1829.686   -5259.7515    8731.1028    1199.6218    8022.7833    2582.5793    82.315985 
   20500    357.21491   -117.94464   0.32321556   -117.62142   -7450.6083    4.3542161    4.3542161    4.3542161   -7450.6083   -7065.8818   -19239.746    3953.8032   -1442.3979   -905.80346   -757.77368    82.552444 
   20600    391.72632    -117.9757   0.35444221   -117.62126   -5760.5046    4.3466972    4.3466972    4.3466972   -5760.5046    -14339.84   -9402.5826    6460.9089   -6877.8828    1293.6905   -48.058572    82.125528 
   20700    366.52622   -117.95378   0.33164063   -117.62214    1381.2419    4.3501283    4.3501283    4.3501283    1381.2419   -7394.7626   -7584.3353    19122.824    -1873.149    3956.9917   -862.96171    82.320161 
   20800     426.3107   -118.00968   0.38573488   -117.62394   -9766.4905    4.3542507    4.3542507    4.3542507   -9766.4905   -7804.1247   -13786.333   -7709.0135    389.56664   -3332.4957   -2195.2751     82.55441 
   20900    302.89142   -117.89826   0.27406252    -117.6242    2045.5434    4.3458213    4.3458213    4.3458213    2045.5434    6663.0444   -6706.4035    6179.9892   -2448.9869    6747.6868    1541.8128    82.075888 
   21000    307.11802   -117.90067   0.27788684   -117.62278    964.89964    4.3549555    4.3549555    4.3549555    964.89964    33.750141   -4333.3318    7194.2805    956.63758   -4583.1238   -2835.7378    82.594505 
   21100    408.75138   -117.98892   0.36984684   -117.61907    1476.9518    4.3491712    4.3491712    4.3491712    1476.9518    5852.5089   -2249.1839    827.53032    2749.9424    5885.7673    1823.6857    82.265838 
   21200    296.58959   -117.88766   0.26836049    -117.6193    1905.0798     4.351132     4.351132     4.351132    1905.0798    2544.2107   -3625.8508    6796.8794    1593.9747   -306.52781    1756.5287    82.377151 
   21300    511.28321   -118.08096   0.46261979   -117.61834   -10155.397     4.353442     4.353442     4.353442   -10155.397     -8478.41   -12559.329   -9428.4522    -2705.572   -1186.9971   -789.79444    82.508424 
   21400    284.34994   -117.87669    0.2572858   -117.61941    8922.5162    4.3503274    4.3503274    4.3503274    8922.5162   -3816.3413    8113.9665    22469.923   -2685.9097    5519.5086     1796.957    82.331462 
   21500     552.4904   -118.12011   0.49990493   -117.62021   -5232.1759    4.3493563    4.3493563    4.3493563   -5232.1759    5797.1683   -13359.736   -8133.9594   -2113.6967   -2152.6903   -4830.5504     82.27634 
   21600    306.51773   -117.90153   0.27734368   -117.62418    563.24732    4.3540212    4.3540212    4.3540212    563.24732    4391.0391   -5824.6483    3123.3511     -6161.25    201.69748    1765.5908    82.541359 
   21700    412.00438    -117.9959   0.37279022   -117.62311    2498.3407    4.3480905    4.3480905    4.3480905    2498.3407    5983.3675   -9116.8238    10628.478   -3061.4252   -6240.3149    138.81992    82.204522 
   21800    424.39165   -118.00554   0.38399849   -117.62154    2315.6003    4.3515835    4.3515835    4.3515835    2315.6003    4142.3602    -5414.001    8218.4416    1105.4379     6727.443    1814.4768    82.402801 
   21900    403.00391   -117.98525   0.36464641    -117.6206   -2219.0133    4.3524814    4.3524814    4.3524814   -2219.0133   -1915.8807   -12497.269    7756.1094    3654.8355    -503.4189    -115.5009    82.453817 
   22000    491.29993   -118.06474    0.4445385    -117.6202   -9317.3881    4.3504923    4.3504923    4.3504923   -9317.3881   -11033.494    -10946.59   -5972.0799    -481.6525   -30.578495    759.95915    82.340822 
   22100    389.94233   -117.97337   0.35282801   -117.62054    3262.7667    4.3504241    4.3504241    4.3504241    3262.7667   -7490.8013   -4873.1483     22152.25    5.3094193    192.02083    2604.1907    82.336951 
   22200    518.56296    -118.0896   0.46920666   -117.62039   -9226.7121    4.3540399    4.3540399    4.3540399   -9226.7121   -6433.1072    -8146.485   -13100.544    2367.3109   -1279.5433   -1195.7286    82.542423 
   22300    345.65964   -117.93477    0.3127601   -117.62201    1275.7368    4.3497572    4.3497572    4.3497572    1275.7368    2115.7371   -8070.3154    9781.7887      -4658.7    2331.2967   -2812.8465    82.299091 
   22400    338.02304   -117.92845   0.30585035    -117.6226    3850.3552    4.3516158    4.3516158    4.3516158    3850.3552    2962.5222   -2163.2423    10751.786   -2680.5689   -7685.6385    -3953.585    82.404632 
   22500     421.7169    -118.0037   0.38157831   -117.62212    2681.0255    4.3516346    4.3516346    4.3516346    2681.0255    7894.2023   -6489.9866    6638.8609   -5651.6218   -2391.5002    426.86173    82.405705 
   22600    307.93135    -117.9013   0.27862276   -117.62268    6627.1814    4.3522993    4.3522993    4.3522993    6627.1814    8960.1988     3080.882    7840.4633   -3528.4029   -290.69645    -2249.176    82.443472 
   22700    490.22512   -118.06461   0.44356599   -117.62104   -3591.4631     4.352842     4.352842     4.352842   -3591.4631    865.63402   -5253.0417   -6386.9815   -2670.8619    3522.2747   -1188.6377    82.474313 
   22800    424.00039   -118.00309   0.38364446   -117.61945    2791.2098    4.3527051    4.3527051    4.3527051    2791.2098   -8391.3622    702.97933    16062.012    1557.5766    1368.3286   -3734.5078    82.466534 
   22900    594.75953   -118.15559   0.53815092   -117.61744   -8808.8458     4.352505     4.352505     4.352505   -8808.8458   -10959.157   -6631.5743   -8835.8064    4646.5518   -1054.2955    321.62819    82.455158 
   23000    456.20236   -118.03233   0.41278148   -117.61955   -2447.0308    4.3534422    4.3534422    4.3534422   -2447.0308   -11594.858   -10439.544     14693.31    360.22992    338.12313     3758.264    82.508434 
   23100    522.66237   -118.09315    0.4729159   -117.62023   -5093.3518    4.3543231    4.3543231    4.3543231   -5093.3518   -11778.691   -276.24388   -3225.1208     4111.057    -196.6987   -1282.6406    82.558532 
   23200    502.63341   -118.07459   0.45479327   -117.61979    2324.9342    4.3486449    4.3486449    4.3486449    2324.9342    214.53046    -11424.19    18184.462    158.50439   -1997.5475   -1947.4658    82.235974 
   23300    365.94219   -117.95372   0.33111218   -117.62261    2045.1094    4.3559104    4.3559104    4.3559104    2045.1094    1603.4798    10102.957   -5571.1089    1726.8684   -2146.8176    -1489.633     82.64885 
   23400      442.107   -118.02009    0.4000277   -117.62006       213.02    4.3530002    4.3530002    4.3530002       213.02     7511.853   -63.229429   -6809.5636   -6322.8861   -2579.5876    1241.8792    82.483304 
   23500    267.54344   -117.86385   0.24207892   -117.62177    13472.057    4.3497023    4.3497023    4.3497023    13472.057    11756.036     14191.77    14468.366   -7225.2279    3035.5086    3668.6714    82.295975 
   23600    488.47406   -118.06487    0.4419816   -117.62288   -2395.5475    4.3537646    4.3537646    4.3537646   -2395.5475    5570.5081   -3349.0427    -9408.108   -4126.5183    5388.5114   -723.28849    82.526765 
   23700    268.06409    -117.8656   0.24255002   -117.62305    5369.5265    4.3537294    4.3537294    4.3537294    5369.5265    3984.0984   -7525.1477    19649.629   -596.25154     473.5671     -1838.19    82.524767 
   23800    524.57942   -118.09405   0.47465049    -117.6194   -4325.9739     4.348799     4.348799     4.348799   -4325.9739   -4099.6787   -3851.9983   -5026.2447    465.35618   -1359.9102     2335.293    82.244716 
   23900    435.50119   -118.01368   0.39405063   -117.61963   -2765.3704    4.3554662    4.3554662    4.3554662   -2765.3704   -11280.533   -17184.198     20168.62   -96.388479    213.97485   -293.30955    82.623569 
   24000    527.51743   -118.09903   0.47730886   -117.62172   -6832.9938    4.3502885    4.3502885    4.3502885   -6832.9938    -14398.83    2115.8908   -8216.0416    8095.2319     2472.536    1389.8149    82.329251 
   24100    505.06351   -118.08007   0.45699208   -117.62307   -5996.6507    4.3507938    4.3507938    4.3507938   -5996.6507   -15792.437    -11569.17    9371.6554    545.23637   -1663.1117   -3090.0965    82.357944 
   24200    412.14193   -117.99539   0.37291468   -117.62248   -1653.7349    4.3555872    4.3555872    4.3555872   -1653.7349   -18719.628    14247.127    -488.7041    734.28213   -2248.0062   -190.92624    82.630455 
   24300    478.63318   -118.05224   0.43307736   -117.61917     2551.669    4.3480308    4.3480308    4.3480308     2551.669   -4162.2278    4283.7059    7533.5288   -4999.9858   -212.89566     1395.272    82.201141 
   24400    336.00469   -117.92399    0.3040241   -117.61997    3812.2645    4.3540028    4.3540028    4.3540028    3812.2645   -273.86355    1306.2648    10404.392   -2229.2747    2278.4457   -1328.6807    82.540314 
   24500    471.83083   -118.04617   0.42692245   -117.61925    -2006.596    4.3520716    4.3520716    4.3520716    -2006.596   -2826.3829    944.73222   -4138.1373    -2141.926    5473.5349     2818.475    82.430533 
   24600    306.34436   -117.89785   0.27718682   -117.62067    9838.9908    4.3493938    4.3493938    4.3493938    9838.9908    13520.576   -9081.3785    25077.775   -2299.0754    1989.9933   -4818.0596    82.278467 
   24700    485.82486   -118.06049   0.43958454   -117.62091   -5331.1693    4.3541876    4.3541876    4.3541876   -5331.1693    4215.1626   -4202.6022   -16006.068    3623.4078   -1688.4019    1122.0976    82.550821 
   24800    316.76198   -117.90836   0.28661289   -117.62175    3069.9317    4.3531068    4.3531068    4.3531068    3069.9317   -1759.6762   -6892.1208    17861.592    2842.2711   -1369.6442   -1434.6499    82.489366 
   24900    377.14359   -117.96213   0.34124744   -117.62089    1890.7782    4.3502661    4.3502661    4.3502661    1890.7782   -7370.5153    18537.287   -5494.4375    7511.3984   -268.31772    2389.1278     82.32798 
   25000    310.91848   -117.90265   0.28132558   -117.62133     1363.533    4.3551268    4.3551268    4.3551268     1363.533   -10512.541    5210.8279    9392.3119    3714.8866   -135.89812   -2436.6628    82.604256 
   25100    332.06166   -117.91974   0.30045637   -117.61929    1920.9591    4.3513382    4.3513382    4.3513382    1920.9591   -10643.515    12666.153    3740.2393    2330.4118   -3575.4525   -2406.0227    82.388863 
   25200    407.63278    -117.9879   0.36883471   -117.61906   -3046.1112    4.3512864    4.3512864    4.3512864   -3046.1112   -18741.564    1362.2201      8241.01    1756.2759   -1832.0473    4953.1328     82.38592 
   25300    397.17416   -117.97788   0.35937153   -117.61851   -5567.1861    4.3544307    4.3544307    4.3544307   -5567.1861   -18011.091   -2448.8343    3758.3672   -3575.3022    248.73829   -4415.6352    82.564653 
   25400     527.2831   -118.09468   0.47709683   -117.61759   -9775.0364    4.3508788    4.3508788    4.3508788   -9775.0364   -15030.582   -8673.7044   -5620.8225    1085.5519    2062.3649    1393.9797    82.362774 
   25500    304.88004   -117.89663   0.27586187   -117.62077    3333.3495    4.3531521    4.3531521    4.3531521    3333.3495   -10644.972   -332.82389    20977.845   -3782.2578    1837.2296     -4581.85    82.491943 
   25600     519.0555   -118.08947   0.46965233   -117.61982   -8244.7195    4.3520574    4.3520574    4.3520574   -8244.7195   -25735.241    7510.8978   -6509.8153   -4738.1838   -364.13959    3335.8713    82.429725 
   25700    231.68318   -117.83041   0.20963181   -117.62078    7064.6117    4.3497748    4.3497748    4.3497748    7064.6117   -14375.588    11677.371    23892.053    1116.6334    1997.4066    2590.9838    82.300093 
   25800    432.17618   -118.01178   0.39104209   -117.62074   -6479.2445    4.3537724    4.3537724    4.3537724   -6479.2445   -19515.363    12264.155   -12186.526    1868.5691   -1908.0057   -66.917132    82.527208 
   25900    321.02552   -117.91256   0.29047064   -117.62209    4868.7263      4.35074      4.35074      4.35074    4868.7263   -4578.4779   -306.25993    19490.917    3361.8663    -2703.664   -2456.0626    82.354888 
   26000    435.99163   -118.01571   0.39449439   -117.62121   -5417.7011    4.3501122    4.3501122    4.3501122   -5417.7011   -12719.386    979.97109   -4513.6883   -1566.4816   -1143.2027   -5694.8096    82.319243 
   26100    396.45629   -117.97981   0.35872198   -117.62109   -10811.673    4.3564951    4.3564951    4.3564951   -10811.673   -17527.296   -19297.062    4389.3396     1493.229    3065.5934    784.67196    82.682139 
   26200    298.42013   -117.89139   0.27001681   -117.62137    4582.4135    4.3507127    4.3507127    4.3507127    4582.4135   -2982.8006    1582.4268    15147.614   -900.90012    3203.5761    -79.34149    82.353342 
   26300    379.87869   -117.96437   0.34372222   -117.62064   -500.94989    4.3522409    4.3522409    4.3522409   -500.94989   -12487.318    2655.4951    8328.9734   -5783.7911    2156.0212    4806.5137     82.44015 
   26400    197.73287    -117.8004   0.17891286   -117.62148    6750.3887    4.3532557    4.3532557    4.3532557    6750.3887   -12576.898    22549.538    10278.527   -3859.9142    950.97756   -283.80253    82.497832 
   26500    409.04132    -117.9899   0.37010918   -117.61979   -7014.0457    4.3549595    4.3549595    4.3549595   -7014.0457   -15598.259    11580.888   -17024.766   -5974.1542    921.65098    1383.7889    82.594733 
   26600     220.0746   -117.81901   0.19912812   -117.61989    11234.773    4.3524493    4.3524493    4.3524493    11234.773   -1477.1316    12624.163    22557.286   -2962.9971    1337.2466   -6156.6992    82.451996 
   26700    480.02058     -118.052   0.43433271   -117.61767   -4812.9567    4.3530486    4.3530486    4.3530486   -4812.9567   -9895.9647    343.99042   -4886.8958    -3154.839   -2406.1232   -5775.7342    82.486057 
   26800     238.1521   -117.83659   0.21548502   -117.62111    3756.4366    4.3542774    4.3542774    4.3542774    3756.4366   -5582.1933    -11928.13    28779.633   -2079.8485    -4622.797   -4811.4188    82.555929 
   26900       383.78   -117.96884   0.34725221   -117.62159   -2211.8185    4.3549976    4.3549976    4.3549976   -2211.8185   -12651.109   -7943.1445    13958.798    245.45784   -3421.0158    1519.6692      82.5969 
   27000     480.8017   -118.05414   0.43503948    -117.6191   -1192.1684    4.3505599    4.3505599    4.3505599   -1192.1684   -2787.3459   -16769.881    15980.721    2303.7855   -1212.8053    5678.1019    82.344662 
   27100    368.78636   -117.95437   0.33368565   -117.62068   -2317.3091     4.354671     4.354671     4.354671   -2317.3091   -7320.1507    2523.4564   -2155.2329    5470.8532    1551.0385   -115.56914    82.578322 
   27200    467.53812   -118.04259   0.42303831   -117.61955   -8993.6899    4.3553074    4.3553074    4.3553074   -8993.6899   -20314.254   -1870.4883   -4796.3278     2130.136    3935.1213    3861.3486    82.614531 
   27300    337.36364   -117.92571   0.30525371   -117.62045    8722.7425    4.3494736    4.3494736    4.3494736    8722.7425   -12056.847    8415.9749    29809.099    982.21888    2118.8504   -7078.5208    82.282994 
   27400    305.73547     -117.898   0.27663588   -117.62137    5184.7504    4.3542462    4.3542462    4.3542462    5184.7504   -15248.946    22702.508     8100.689     1521.427    2379.8576   -4290.4218    82.554157 
   27500    392.74401   -117.97646   0.35536303    -117.6211   -4893.7268    4.3529237    4.3529237    4.3529237   -4893.7268   -22096.313   -5228.5782     12643.71    1193.1088   -1042.9355   -4440.8303    82.478957 
   27600    365.26664   -117.95239   0.33050094   -117.62189    1081.2882    4.3513058    4.3513058    4.3513058    1081.2882   -10842.039    12970.877    1115.0265    354.53898    -2725.419   -546.73522    82.387022 
   27700    609.97655   -118.17175    0.5519196   -117.61983   -12439.016    4.3544603    4.3544603    4.3544603   -12439.016   -16837.063   -15018.023   -5461.9611   -5355.1654   -16.928123    4627.8144    82.566334 
   27800    410.24172   -117.99447   0.37119533   -117.62327   -4854.6436    4.3509384    4.3509384    4.3509384   -4854.6436   -11756.445    1310.6401   -4118.1264   -2083.5357   -2160.8168    4924.9263    82.366157 
   27900    470.56327   -118.04774   0.42577554   -117.62197   -7081.4198    4.3531282    4.3531282    4.3531282   -7081.4198   -8203.5263   -9587.1644   -3453.5687   -118.71909   -1158.6107   -3252.0119    82.490582 
   28000    308.79755   -117.90034   0.27940651   -117.62093    8134.9235     4.354644     4.354644     4.354644    8134.9235   -11158.594    2786.1245     32777.24    2944.4094    989.53591   -3617.3353    82.576784 
   28100    395.08975   -117.97765   0.35748551   -117.62017    4954.9964    4.3491993    4.3491993    4.3491993    4954.9964   -9760.0786    18943.362    5681.7054    2020.7266    3138.9637    -7520.132    82.267428 
   28200      303.497   -117.89583   0.27461046   -117.62122    3767.3769    4.3537842    4.3537842    4.3537842    3767.3769    2104.4881    1070.3129    8127.3296     124.6834    3984.6573   -1351.4345    82.527881 
   28300     487.2702   -118.06185   0.44089232   -117.62096   -1650.6724    4.3535749    4.3535749    4.3535749   -1650.6724   -9314.9064    11037.629   -6674.7392    3156.2604     -1231.58    226.18254     82.51598 
   28400    477.42048    -118.0529   0.43198009   -117.62092    1679.8553     4.350661     4.350661     4.350661    1679.8553    2244.6473   -8036.4911     10831.41    2343.6543   -1335.5664    4327.5585    82.350401 
   28500    398.09123   -117.98148   0.36020131   -117.62128   -2369.1778    4.3539923    4.3539923    4.3539923   -2369.1778   -2997.7766   -7373.4572    3263.7005    2753.6824   -1378.5371     4653.762    82.539718 
   28600    518.11256   -118.08861   0.46879913   -117.61981   -8463.1913    4.3546595    4.3546595    4.3546595   -8463.1913   -14838.328   -13121.873    2570.6278   -3962.0086   -2178.8152   -22.480394    82.577667 
   28700    397.93941   -117.97924   0.36006394   -117.61918    5753.4563    4.3504294    4.3504294    4.3504294    5753.4563   -3140.7782   -9851.3338    30252.481   -2111.8814   -3055.8639   -2631.0093    82.337252 
   28800    457.63327    -118.0356    0.4140762   -117.62152    -4834.509    4.3534675    4.3534675    4.3534675    -4834.509   -11160.592    1645.6233   -4988.5578    -741.0861    1129.2575   -8761.7436    82.509876 
   28900    455.65755   -118.03341   0.41228853   -117.62113   -8270.6764    4.3539095    4.3539095    4.3539095   -8270.6764   -16678.907   -1382.1435   -6750.9787   -1931.9715    3258.9591    3058.3092    82.535008 
   29000    367.63957   -117.95282   0.33264801   -117.62017    5402.9774    4.3500094    4.3500094    4.3500094    5402.9774   -7767.9516    15822.838    8154.0459    1618.3079    2378.2209   -2888.5849    82.313407 
   29100    443.36159    -118.0204   0.40116289   -117.61924    294.08765    4.3530536    4.3530536    4.3530536    294.08765   -17418.924    4235.0877    14066.099    197.34654    -284.8036    2670.3422    82.486342 
   29200    327.10429   -117.91712   0.29597084   -117.62115    1904.4906     4.351602     4.351602     4.351602    1904.4906   -1984.8168    1251.7054    6446.5832    1341.6804   -1174.4616    3938.9868    82.403847 
   29300    523.53805   -118.09673   0.47370823   -117.62302   -8290.5285      4.35047      4.35047      4.35047   -8290.5285   -11350.207   -5198.4581   -8322.9203    1599.5176   -2765.4895    4271.7587    82.339559 
   29400     348.0145   -117.93996   0.31489084   -117.62507    6061.3271    4.3510213    4.3510213    4.3510213    6061.3271   -702.05095   -7157.1237    26043.156    4514.3929    965.37893   -3150.7837    82.370863 
   29500    455.37735   -118.03488     0.412035   -117.62285    -6770.968    4.3532236    4.3532236    4.3532236    -6770.968    4354.7603    -11089.54   -13578.124    1393.3924   -4756.2474   -5042.2004    82.496005 
   29600    381.00307   -117.96547   0.34473958   -117.62073   -605.03492    4.3491097    4.3491097    4.3491097   -605.03492   -15.544545   -10472.835    8673.2752   -5295.9662    1268.3771    2862.9425    82.262346 
   29700    414.90494   -117.99598   0.37541471   -117.62057    1337.1066    4.3529554    4.3529554    4.3529554    1337.1066    4543.8729    925.14935   -1457.7024   -2221.8927    1216.3923    -3192.236    82.480762 
   29800    350.65448   -117.93801   0.31727954   -117.62073    5943.8541    4.3506645    4.3506645    4.3506645    5943.8541   -5891.3493    1363.2146    22359.697   -1722.6803    3021.6869    3373.7929    82.350604 
   29900    375.70967   -117.96003   0.33995001   -117.62008    161.45498    4.3486834    4.3486834    4.3486834    161.45498   -6420.2868   -893.40776    7798.0595   -1097.5682    3613.1988   -459.96547    82.238157 
   30000    404.90095   -117.98623   0.36636289   -117.61987   -3913.0733    4.3550321    4.3550321    4.3550321   -3913.0733   -6970.2043    5337.7415   -10106.757   -1056.0561   -3193.1545    4846.6231    82.598867 
   30100    364.10357   -117.94855   0.32944856    -117.6191    6019.9658    4.3490411    4.3490411    4.3490411    6019.9658   -11653.604   -531.36545    30244.866    392.67891    659.22399    905.25029    82.258452 
   30200    503.56755    -118.0747    0.4556385   -117.61906   -7963.7939     4.348928     4.348928     4.348928   -7963.7939   -13525.543   -5069.6935   -5296.1452    5443.0667   -3368.1465   -2846.2154    82.252035 
   30300    292.94411   -117.88721   0.26506199   -117.62215   -2161.8223    4.3551622    4.3551622    4.3551622   -2161.8223   -5425.2959   -9283.9843    8223.8132    -298.8002    2426.5879    1484.4164    82.606271 
   30400    464.23925   -118.04302   0.42005343   -117.62297   -5223.0496    4.3488733    4.3488733    4.3488733   -5223.0496   -10368.283   -11728.542    6427.6757    4799.3099   -4454.0183   -1307.6816     82.24893 
   30500    424.66664   -118.00863    0.3842473   -117.62439    1125.9924    4.3459429    4.3459429    4.3459429    1125.9924    -1364.257   -2744.9304    7487.1645    3296.8795    2164.0644    3959.1574    82.082776 
   30600    219.27022   -117.82667    0.1984003   -117.62827   -2770.4534    4.3571954    4.3571954    4.3571954   -2770.4534   -11680.253   -12324.138     15693.03   -4184.5474    1442.4103    193.56756    82.722016 
   30700    397.33043   -117.98702   0.35951293   -117.62751    4205.8327    4.3439735    4.3439735    4.3439735    4205.8327    10820.387   -744.60428    2541.7151   -1671.3792    1682.1564    3657.0843    81.971241 
   30800    371.52203   -117.96392   0.33616094   -117.62776    1064.4296    4.3518972    4.3518972    4.3518972    1064.4296     -9048.67   -3600.9227    15842.882    -3492.867   -1731.2039   -4300.4886    82.420619 
   30900    279.25318   -117.87812   0.25267414   -117.62544   -468.81534    4.3525929    4.3525929    4.3525929   -468.81534   -5639.6413    4113.0762    120.11905   -559.07356   -171.98072    3106.5737    82.460157 
   31000    390.78312    -117.9764   0.35358878   -117.62281   -6175.9551    4.3494587    4.3494587    4.3494587   -6175.9551   -8225.6093   -11219.296    917.04025   -4772.1836    307.46298   -5545.9913    82.282149 
   31100    309.71561   -117.90159   0.28023719   -117.62135    9351.4254    4.3488836    4.3488836    4.3488836    9351.4254     1472.439   -50.410674    26632.248    1103.0782   -2915.4533   -1228.7361    82.249513 
   31200    490.83632   -118.06326   0.44411902   -117.61914   -12516.447    4.3549414    4.3549414    4.3549414   -12516.447   -20747.509   -10621.526   -6180.3049    1556.4439    3613.1686   -442.12794    82.593705 
   31300    281.74993   -117.87395   0.25493326   -117.61902   -3130.3957    4.3490228    4.3490228    4.3490228   -3130.3957   -9806.0946   -12405.848    12820.756    16.651145    843.35493    70.967723    82.257416 
   31400    443.53232   -118.02065   0.40131736   -117.61933   -6919.6367    4.3513811    4.3513811    4.3513811   -6919.6367    1295.3456   -18287.453   -3766.8026     2769.867    2259.9823     7440.028    82.391302 
   31500    386.53999   -117.96864   0.34974951   -117.61889    368.20935    4.3522746    4.3522746    4.3522746    368.20935   -9457.4309   -4100.5617    14662.621   -1492.3462    613.60537   -3934.4286    82.442063 
   31600    250.75585   -117.84866   0.22688916   -117.62177     3997.175    4.3484582    4.3484582    4.3484582     3997.175    4298.0825   -5266.1363    12959.579   -904.70394   -373.03747    2579.3727    82.225381 
   31700    424.39714   -118.00784   0.38400345   -117.62384    -8149.944    4.3522256    4.3522256    4.3522256    -8149.944   -7309.4639   -5859.7111   -11280.657   -4384.6804   -3397.5374   -3919.9157    82.439282 
   31800    115.47925    -117.7299   0.10448805   -117.62541    17559.559    4.3503564    4.3503564    4.3503564    17559.559    6918.7258    11762.171    33997.779   -1519.0992   -1518.9376    2658.6609    82.333108 
   31900    507.34313   -118.08082   0.45905473   -117.62177   -7080.3608    4.3503107    4.3503107    4.3503107   -7080.3608   -5456.3421   -8015.6274   -7769.1129   -479.09741   -1408.6362    -2662.568    82.330516 
   32000    199.35253   -117.80418   0.18037836    -117.6238    3026.6234    4.3524006    4.3524006    4.3524006    3026.6234   -14270.856    10198.533    13152.193   -4297.0635    455.77263    1968.5688    82.449227 
   32100    429.97156   -118.01259   0.38904731   -117.62354   -3677.6507    4.3510217    4.3510217    4.3510217   -3677.6507   -8514.9094   -5285.3308    2767.2879    628.15551    2829.8132    2012.4832    82.370888 
   32200    506.03314   -118.08136   0.45786942   -117.62349   -6057.4938     4.349933     4.349933     4.349933   -6057.4938   -9839.5575   -11448.717     3115.793    3001.4192   -1579.5858     1945.735    82.309073 
   32300    322.49772   -117.91577   0.29180272   -117.62396   -4375.1368    4.3542082    4.3542082    4.3542082   -4375.1368    -12623.51   -6539.2365    6037.3365    2519.7606    1436.3201   -1148.7925    82.551994 
   32400    502.62361   -118.07512   0.45478441   -117.62033   -10392.938    4.3507577    4.3507577    4.3507577   -10392.938     -21917.3    -12367.21    3105.6971   -489.74252    33.755807    1235.7686    82.355898 
   32500    306.27276   -117.89712   0.27712203      -117.62    4515.0205    4.3522899    4.3522899    4.3522899    4515.0205   -426.29167   -2282.5029    16253.856   -658.74871    281.43698   -3500.6035    82.442935 
   32600    412.07519   -117.99071   0.37285429   -117.61786   -1621.2587    4.3524341    4.3524341    4.3524341   -1621.2587   -2674.4664   -4650.1526    2460.8428   -1433.2582   -2240.4663    -2987.097    82.451132 
   32700    280.99051   -117.87292   0.25424612   -117.61867    3381.7932    4.3514963    4.3514963    4.3514963    3381.7932   -13645.596    17334.294    6456.6814   -3448.1449    -939.1404    497.21469    82.397845 
   32800     308.7764   -117.90058   0.27938738   -117.62119    3535.1047    4.3519185    4.3519185    4.3519185    3535.1047     202.5014    3995.0167     6407.796   -4724.2759    39.567569   -3716.7448    82.421831 
   32900    411.76053   -117.99399   0.37256958   -117.62142    2070.1641    4.3512021    4.3512021    4.3512021    2070.1641    546.72827    9587.0285   -3923.2645   -4909.4299    -2952.237    381.63035    82.381136 
   33000    275.68754   -117.87436   0.24944788   -117.62491    9961.4012    4.3496747    4.3496747    4.3496747    9961.4012   -183.68063    4776.7566    25291.128   -4102.4836    2606.7985    321.84834    82.294412 
   33100    448.97127   -118.03134   0.40623864    -117.6251   -6448.1582    4.3547276    4.3547276    4.3547276   -6448.1582   -7431.2261   -3791.1834   -8122.0652   -2684.7564    2614.0622    3373.4236    82.581539 
   33200    409.14703   -117.99257   0.37020483   -117.62237    2260.9687    4.3484543    4.3484543    4.3484543    2260.9687   -9099.4791   -2469.0884    18351.474    3223.4353    56.002683   -1154.2805    82.225159 
   33300    469.71573    -118.0449   0.42500866   -117.61989    -842.4931    4.3519734    4.3519734    4.3519734    -842.4931    1224.3694   -10132.756    6380.9073      1000.36    1014.9437   -2064.5771    82.424952 
   33400     491.5023   -118.06234   0.44472161   -117.61762   -5660.2234    4.3543231    4.3543231    4.3543231   -5660.2234   -16746.812    1646.6299   -1880.4886   -24.370181   -879.53805     2442.069    82.558532 
   33500    382.88051   -117.96362   0.34643833   -117.61719    3609.5616    4.3478238    4.3478238    4.3478238    3609.5616   -6147.8214   -2596.1441     19572.65    2468.6449    2438.6464    1185.3515    82.189401 
   33600    552.59409    -118.1179   0.49999874    -117.6179   -7767.8295    4.3535009    4.3535009    4.3535009   -7767.8295   -21925.802    8909.9385   -10287.625    2435.8948     737.9595   -422.98631    82.511773 
   33700    323.76517   -117.91387   0.29294953   -117.62092    6277.1597    4.3515863    4.3515863    4.3515863    6277.1597   -842.67631   -897.36553    20571.521   -1159.5599    1349.6214   -2392.9703    82.402955 
   33800    528.15321   -118.09854   0.47788412   -117.62066   -3563.8505    4.3465982    4.3465982    4.3465982   -3563.8505   -11510.034    6550.6635   -5732.1811   -4536.6923   -58.348722   -1032.5434    82.119914 
   33900     337.7956   -117.92868   0.30564456   -117.62303    1376.4952    4.3549881    4.3549881    4.3549881    1376.4952   -3167.0397   -4991.5299    12288.055   -3020.3476    326.35225    2588.0186    82.596364 
   34000    486.55149    -118.0617   0.44024201   -117.62146   -2295.4845    4.3495022    4.3495022    4.3495022   -2295.4845    413.61331   -12651.205    5351.1377   -1478.0118    4595.1687     545.1502    82.284619 
   34100    399.06869   -117.98391   0.36108574   -117.62282     3438.165     4.347109     4.347109     4.347109     3438.165    10220.168   -4589.5851    4683.9123   -569.49231    92.365192   -2030.9989    82.148867 
   34200    357.03709   -117.94637   0.32305466   -117.62332    151.08962    4.3547379    4.3547379    4.3547379    151.08962     860.7387   -17845.472    17438.002   -736.08623   -2710.9805   -907.49279    82.582128 
   34300    551.55593   -118.12127    0.4990594   -117.62221   -4550.1764     4.349227     4.349227     4.349227   -4550.1764   -533.93831   -10927.179   -2189.4118     4387.399   -3253.9345    684.79681    82.269001 
   34400     391.5322   -117.97859   0.35426656   -117.62433     2497.043    4.3507093    4.3507093    4.3507093     2497.043   -2502.5403   -8805.4773    18799.147    551.78314    2655.9986   -3685.7326    82.353146 
   34500    517.72508   -118.09172   0.46844853   -117.62327   -7552.4764    4.3507875    4.3507875    4.3507875   -7552.4764   -11522.943   -9311.2437   -1823.2426    789.98554    3142.1196    3769.6967     82.35759 
   34600    466.17828   -118.04474    0.4218079   -117.62293   -3754.8447    4.3517142    4.3517142    4.3517142   -3754.8447   -9810.2962   -1288.9671   -165.27075    3248.4322    522.92742    5158.0447    82.410226 
   34700    451.19714   -118.02986   0.40825265   -117.62161    -309.2227    4.3521801    4.3521801    4.3521801    -309.2227   -14679.932    766.74285    12985.521   -3013.6872   -1351.9609   -3703.7246    82.436696 
   34800    496.40691   -118.07035   0.44915941   -117.62119    789.53638    4.3474349    4.3474349    4.3474349    789.53638    1769.9865    1945.1948   -1346.5721   -2330.7795   -2990.2401   -2080.5018    82.167345 
   34900    377.34851   -117.96335   0.34143287   -117.62192   -1358.3066    4.3560255    4.3560255    4.3560255   -1358.3066   -5556.6576   -772.14742    2253.8853    -5540.801    283.91013    461.45816      82.6554 
   35000    463.14582   -118.04024   0.41906407   -117.62118    5637.0851    4.3481638    4.3481638    4.3481638    5637.0851    17640.435   -9254.1366    8524.9566   -790.08026   -853.60296   -528.77709    82.208681 
[...]
   91200    529.27525   -118.09878   0.47889937   -117.61988   -1586.0147     4.348539     4.348539     4.348539   -1586.0147    1931.4433   -5935.8235   -753.66389    2892.8458    941.06124     -1964.64    82.229965 
   91300    285.44666   -117.87936   0.25827813   -117.62109    7950.8245    4.3508421    4.3508421    4.3508421    7950.8245    29304.372   -10975.184    5523.2855    2625.3073    4520.3549    880.31219    82.360688 
   91400    477.53702   -118.05261   0.43208553   -117.62052   -4118.6801    4.3498052    4.3498052    4.3498052   -4118.6801   -5875.4553   -14332.105    7851.5202   -2987.2701    103.08291    961.02182     82.30182 
   91500    418.86034   -118.00013   0.37899364   -117.62114   -409.05167    4.3491681    4.3491681    4.3491681   -409.05167    7736.1751    -13335.34    4372.0102    318.71951   -73.035328   -172.87251    82.265658 
   91600    469.13333    -118.0448    0.4244817   -117.62032   -7104.1533    4.3517045    4.3517045    4.3517045   -7104.1533   -4673.9611   -20380.272    3741.7729   -3733.0238    1373.4211    5250.4657    82.409672 
   91700    409.16142   -117.99146   0.37021785   -117.62124   -2532.7457    4.3485538    4.3485538    4.3485538   -2532.7457    11218.338   -11217.974   -7598.6011    5075.6563   -2444.1405    973.15657    82.230807 
   91800     408.8089   -117.99241   0.36989889   -117.62252   -1878.3875    4.3487078    4.3487078    4.3487078   -1878.3875    7544.8377   -12055.205   -1124.7955    2230.6865   -2083.1669    1735.5628    82.239539 
   91900    425.07382   -118.00615   0.38461573   -117.62154   -7525.6695    4.3551418    4.3551418    4.3551418   -7525.6695    5433.7848   -13920.995   -14089.798    2071.7016     229.4356    4139.8451    82.605108 
   92000    353.51697   -117.93978   0.31986959   -117.61991    4379.6213    4.3465439    4.3465439    4.3465439    4379.6213    7821.7799   -5613.3497    10930.434    9720.4706    5805.2454   -1090.0301    82.116835 
   92100     432.2574   -118.01152   0.39111558    -117.6204   -1507.0993    4.3495444    4.3495444    4.3495444   -1507.0993   -5887.8453    955.54951    410.99787    619.56641    847.63989   -3439.2145    82.287012 
   92200    325.08891   -117.91513   0.29414728   -117.62098    5452.5476    4.3517733    4.3517733    4.3517733    5452.5476    20219.463   -4351.0856    489.26484   -2618.0166   -3094.0965   -4311.2503    82.413582 
   92300    412.27147   -117.99363   0.37303189    -117.6206    2776.4836    4.3475946    4.3475946    4.3475946    2776.4836    4913.2936   -1013.4468    4429.6041   -4051.6797    -2826.835    -83.48609    82.176403 
   92400     332.6845   -117.92409   0.30101992   -117.62307    5423.3937    4.3492323    4.3492323    4.3492323    5423.3937    23759.269   -5778.0553   -1711.0321    1039.0681   -2030.2926   -1988.6715    82.269304 
   92500    427.44235   -118.01014   0.38675882   -117.62338    1294.8441    4.3474369    4.3474369    4.3474369    1294.8441    3977.8574    4404.0857   -4497.4108    -369.9266    5655.6834    741.82411    82.167461 
   92600    404.86857   -117.98926   0.36633359   -117.62292   -7143.8566    4.3526757    4.3526757    4.3526757   -7143.8566   -26.901501   -15790.733   -5613.9355   -3778.5838   -412.64056    2448.1332    82.464863 
   92700    477.04413   -118.05251   0.43163955   -117.62087   -7037.2508    4.3486788    4.3486788    4.3486788   -7037.2508   -3453.0685   -8224.2037   -9434.4801    2429.9298    7.1497874    3690.9396    82.237896 
   92800    344.22646   -117.93368   0.31146333   -117.62222    3274.8786    4.3482015    4.3482015    4.3482015    3274.8786    15094.671   -12031.635       6761.6    5046.4704    1648.8344    2422.8884    82.210819 
   92900    407.06577   -117.99047   0.36832166   -117.62214   -6902.7859    4.3532206    4.3532206    4.3532206   -6902.7859   -275.70401   -16638.626   -3794.0279    1329.9315    -2087.661    1321.5068    82.495839 
   93000     344.0045   -117.93339    0.3112625   -117.62213    1239.8966    4.3479201    4.3479201    4.3479201    1239.8966    21784.216   -18967.475     902.9498   -1274.1502   -2970.8308    3708.7617    82.194859 
   93100    444.18977   -118.02397   0.40191224   -117.62206   -702.09395    4.3502105    4.3502105    4.3502105   -702.09395   -6605.3904   -11211.678    15710.786   -2513.4874    -2111.811    -2828.805    82.324823 
   93200    397.67436   -117.98209   0.35982412   -117.62226   -3435.2979    4.3516167    4.3516167    4.3516167   -3435.2979    11362.446   -13727.137   -7941.2037   -1962.2613    1307.4976   -924.04241    82.404685 
   93300    485.02598   -118.05931    0.4388617   -117.62045   -8194.3466    4.3466165    4.3466165    4.3466165   -8194.3466    -4244.918   -15131.297   -5206.8246   -112.05745    4193.6836    3003.7347    82.120952 
   93400    405.89214   -117.98883   0.36725974   -117.62157   -5297.8538    4.3555967    4.3555967    4.3555967   -5297.8538     10354.89   -17145.444   -9103.0077   -109.97638    2536.0245   -1155.1202    82.630993 
   93500    344.45034   -117.93099    0.3116659   -117.61932    6200.1024    4.3485195    4.3485195    4.3485195    6200.1024    14452.476   -5151.3113    9299.1428    286.94063   -6570.2111    2902.8933     82.22886 
   93600    359.20534    -117.9438   0.32501654   -117.61879    1583.6885    4.3458299    4.3458299    4.3458299    1583.6885    9302.5921   -10007.112    5455.5858    1715.2709   -1265.3289    2189.6158    82.076374 
   93700    319.98265   -117.91214   0.28952703   -117.62261   -2944.2994    4.3560492    4.3560492    4.3560492   -2944.2994    -6315.665   -17167.924    14650.691    3764.8141   -4117.2478     4270.174    82.656749 
   93800    333.50977   -117.92398   0.30176665   -117.62221    8975.2014    4.3475708    4.3475708    4.3475708    8975.2014    3751.6814    12095.597    11078.325    2863.1204    2152.3267    2441.1933    82.175052 
   93900    442.34681    -118.0216   0.40024469   -117.62136   -1039.5785    4.3471513    4.3471513    4.3471513   -1039.5785    -5574.527   -72.902587    2528.6939   -684.09849    1561.5153    1387.9229    82.151268 
   94000    395.04381    -117.9781   0.35744394   -117.62066   -8290.0403    4.3565565    4.3565565    4.3565565   -8290.0403   -19068.368    7061.2237   -12862.977   -2084.4483    2079.1489    3351.2477    82.685633 
   94100    393.59605   -117.97566   0.35613398   -117.61952    2007.0221    4.3490593    4.3490593    4.3490593    2007.0221    3054.5829    3811.2377   -844.75423   -1776.4841    3140.6411   -6455.4039    82.259487 
   94200     452.3284   -118.02945   0.40927624   -117.62017   -594.57508     4.348928     4.348928     4.348928   -594.57508   -10413.977   -5188.8063    13819.058   -741.60958    587.44006   -1397.9165    82.252037 
   94300    259.17693   -117.85696   0.23450874   -117.62245    1660.6133    4.3528835    4.3528835    4.3528835    1660.6133     4341.686   -5500.4116    6140.5654   -3528.0965   -3178.0322   -2899.5951    82.476674 
   94400    357.93367   -117.94506   0.32386591   -117.62119   -265.75675    4.3493176    4.3493176    4.3493176   -265.75675    537.23123   -14581.879    13247.378   -526.51864   -6736.5642    2603.0208    82.274142 
   94500    437.39013   -118.01569   0.39575978   -117.61993   -4222.5175    4.3519099    4.3519099    4.3519099   -4222.5175    2787.9644   -19186.095    3730.5781    2046.0276   -1871.8767   -1753.6403    82.421345 
   94600    286.19222   -117.88099   0.25895274   -117.62204    2401.9894     4.348631     4.348631     4.348631    2401.9894    10801.875   -3189.8222   -406.08431    3964.3663    1078.4128    481.22361    82.235185 
   94700    457.40837   -118.03481   0.41387271   -117.62094   -12997.427    4.3522244    4.3522244    4.3522244   -12997.427   -12420.879   -13951.727   -12619.676    2127.4638    4543.9712    5819.1401    82.439212 
   94800    294.57297   -117.88676   0.26653582   -117.62023    832.35346    4.3521548    4.3521548    4.3521548    832.35346    -408.6283   -16727.128    19632.817    1619.1877    909.09906   -6792.8838    82.435261 
   94900    424.56668   -118.00187   0.38415686   -117.61771    633.73973    4.3474249    4.3474249    4.3474249    633.73973   -10830.588    4459.9039    8271.9037    1989.3409   -577.78251   -3619.9379     82.16678 
   95000    275.50162   -117.86897   0.24927966   -117.61969   -3476.5618    4.3542127    4.3542127    4.3542127   -3476.5618   -10321.464   -12973.024    12864.803   -111.03375   -195.03628   -1264.6629    82.552251 
   95100    421.20088   -118.00168   0.38111141   -117.62056   -6715.8628    4.3482162    4.3482162    4.3482162   -6715.8628     -5353.99    -4738.613   -10054.985   -965.71232   -1951.6279   -3296.4102    82.211655 
   95200    296.17276   -117.89154   0.26798334   -117.62355    5759.5264    4.3510196    4.3510196    4.3510196    5759.5264    13282.218   -8923.7063    12920.067   -3108.4619   -4912.2874    3036.4108    82.370768 
   95300    361.47872    -117.9481   0.32707354   -117.62102   -5423.8588    4.3550022    4.3550022    4.3550022   -5423.8588    8053.9232   -15867.545   -8457.9543   -4441.6071   -561.41462   -2016.8032    82.597163 
   95400    239.61821   -117.83638   0.21681159   -117.61956    4510.4487    4.3454441    4.3454441    4.3454441    4510.4487    21170.606     -9069.78      1430.52    -3169.401    5717.3372    9891.1912    82.054518 
   95500    273.90183   -117.86887   0.24783213   -117.62104    2319.7904    4.3534775    4.3534775    4.3534775    2319.7904     4130.669   -19199.251    22027.953   -3917.4828    7469.9093    3102.7536    82.510444 
   95600    363.96468   -117.95057   0.32932289   -117.62125   -3189.9076    4.3514238    4.3514238    4.3514238   -3189.9076    68.867824   -15221.649    5583.0587    93.549827   -466.79197      2052.91    82.393729 
   95700    263.39934   -117.86009   0.23832926   -117.62176    32.965702    4.3454404    4.3454404    4.3454404    32.965702    5067.1647   -7503.3075    2535.0399   -720.50819   -3717.5811    11305.118    82.054312 
   95800    500.23273   -118.07218   0.45262108   -117.61956   -16624.708    4.3555535    4.3555535    4.3555535   -16624.708   -22556.722   -11801.955   -15515.447    497.23721   -47.625273   -3012.9584    82.628536 
   95900    378.52707   -117.96073   0.34249925   -117.61823   -596.43084    4.3496942    4.3496942    4.3496942   -596.43084    -2264.475   -11704.788     12179.97    2137.3715   -3370.2581    1547.7325    82.295516 
   96000    407.15791   -117.98691   0.36840503   -117.61851   -6023.1967    4.3479375    4.3479375    4.3479375   -6023.1967   -2816.1015   -4895.4681   -10358.021    162.76183   -1632.1196    298.66006     82.19585 
   96100    359.89145   -117.94808   0.32563735   -117.62244   -6157.3048    4.3528918    4.3528918    4.3528918   -6157.3048   -4535.4744   -15158.598    1222.1579    2244.6775    462.67997    2992.0446    82.477144 
   96200    320.99694   -117.91323   0.29044478   -117.62279    10949.977    4.3446195    4.3446195    4.3446195    10949.977    9670.3655    3880.7417    19298.822   -658.73062    5858.2318   -856.16923    82.007813 
   96300    316.29906   -117.90771   0.28619403   -117.62152    674.28164    4.3533059    4.3533059    4.3533059    674.28164    6050.7998   -10183.553    6155.5985    414.49005    4026.5933   -1577.9139    82.500685 
   96400     365.9624   -117.95133   0.33113047    -117.6202   -4565.8413      4.34813      4.34813      4.34813   -4565.8413    12814.626   -12428.928   -14083.222   -4672.6715   -593.34556    5596.8315    82.206768 
   96500    269.06441   -117.86475   0.24345513    -117.6213    3257.1592    4.3485681    4.3485681    4.3485681    3257.1592   -903.36302    15416.182   -4741.3408   -1821.2541   -2909.2327   -3409.5611    82.231617 
   96600    467.16971   -118.04175   0.42270497   -117.61905   -3962.7876     4.351989     4.351989     4.351989   -3962.7876   -6044.3946   -10228.656    4384.6882    683.61392   -3012.8742    1217.1539    82.425835 
   96700    373.71562   -117.95806   0.33814575   -117.61992   -2232.7748    4.3477101    4.3477101    4.3477101   -2232.7748   -12278.358    3043.4609    2536.5724   -1928.8045   -3823.9173     -500.696    82.182952 
   96800    359.51841   -117.94612   0.32529981   -117.62082   -2575.2394    4.3493854    4.3493854    4.3493854   -2575.2394   -5703.0904    5589.4185   -7612.0464    2561.8534   -815.49813   -1951.5893     82.27799 
   96900     419.3469   -117.99843   0.37943389   -117.61899    418.37138    4.3522365    4.3522365    4.3522365    418.37138   -18102.688   -5827.8964    25185.698   -620.20174    1637.0875   -2319.3961    82.439903 
   97000    514.31054    -118.0841   0.46535898   -117.61874    321.17194    4.3460753    4.3460753    4.3460753    321.17194   -8734.2758    4998.6625    4699.1292    1791.1631    2972.7428    1600.0581    82.090283 
   97100    369.41971   -117.95665   0.33425872   -117.62239   -2515.2191    4.3546356    4.3546356    4.3546356   -2515.2191   -2627.1371   -8641.9831     3723.463    768.65668    224.78423    5677.3822    82.576305 
   97200    481.59043   -118.05681   0.43575314   -117.62105   -764.50792    4.3482417    4.3482417    4.3482417   -764.50792   -9338.7776    1933.2738    5111.9801    203.92328    2266.0551     1350.903      82.2131 
   97300    419.56441   -118.00046   0.37963069   -117.62083    7362.6939    4.3461092    4.3461092    4.3461092    7362.6939    2573.6447    981.58877    18532.848   -338.47492   -30.782841   -97.358461    82.092201 
   97400    342.42508   -117.93067   0.30983341   -117.62084   -1784.6554    4.3558675    4.3558675    4.3558675   -1784.6554   -11454.735   -5808.4374    11909.206   -5217.5803   -4128.7227   -105.94376     82.64641 
   97500    349.63788   -117.93632    0.3163597   -117.61996     3075.029    4.3447081    4.3447081    4.3447081     3075.029    6267.4762    3327.5408   -369.93001   -1812.7492   -3653.9069    4846.2137    82.012832 
   97600    384.27207   -117.96806   0.34769744   -117.62036    4653.2073     4.347704     4.347704     4.347704    4653.2073   -3050.0341    5071.0549    11938.601   -1366.8892   -2742.4333   -4009.1651    82.182606 
   97700    482.16679   -118.05503   0.43627464   -117.61875   -7767.9842    4.3559249    4.3559249    4.3559249   -7767.9842   -8932.3449   -4151.4616   -10220.146   -1111.8727   -587.18933   -2288.1643    82.649677 
   97800    357.53975   -117.94193   0.32350948   -117.61842    397.99657    4.3446205    4.3446205    4.3446205    397.99657    205.38651   -2337.4899    3326.0931    607.40084    3779.9756     9078.786    82.007871 
   97900    495.71247   -118.06797   0.44853106   -117.61944   -2169.6865    4.3471356    4.3471356    4.3471356   -2169.6865   -7614.2194    2317.0138   -1211.8539   -5305.1537    3918.2193    5612.8137    82.150378 
   98000    387.30353   -117.97242   0.35044038   -117.62198    2832.6356    4.3531452    4.3531452    4.3531452    2832.6356   -10066.349   -8134.4873    26698.744   -1282.9013    3231.5447   -220.66608    82.491552 
   98100    427.78314   -118.00939   0.38706717   -117.62232    6437.8509    4.3415477    4.3415477    4.3415477    6437.8509   -1726.0027   -1520.9637    22560.519    2043.0734    -622.6033   -4265.3705    81.833988 
   98200    449.67189   -118.03065   0.40687258   -117.62378   -8033.4522    4.3555371    4.3555371    4.3555371   -8033.4522   -19805.333   -3054.7677    -1240.256   -324.55465   -1151.1269    3037.7816      82.6276 
   98300    452.34074   -118.03067   0.40928741   -117.62139    5245.3882    4.3441331    4.3441331    4.3441331    5245.3882     -855.241      4121.74    12469.666    2486.2146    1211.1067    2353.9918    81.980276 
   98400    509.61259   -118.08144   0.46110818   -117.62033   -6066.7437    4.3488534    4.3488534    4.3488534   -6066.7437   -18467.267   -2324.0744      2591.11   -5579.7736   -2854.0521    384.11071    82.247802 
   98500    398.51713   -117.98154   0.36058667   -117.62095   -1558.0451    4.3510592    4.3510592    4.3510592   -1558.0451   -8837.1726   -2264.4595    6427.4968   -1870.2959   -228.83166    1554.6325    82.373019 
   98600    421.94913   -118.00294   0.38178844   -117.62115   -3034.6147     4.348669     4.348669     4.348669   -3034.6147   -7911.1416   -3915.3823    2722.6798   -197.63359    399.58928   -1233.9614    82.237341 
   98700    387.72116   -117.97148   0.35081826   -117.62066    4308.6974    4.3451338    4.3451338    4.3451338    4308.6974   -6367.1337    1539.1275    17754.098     -5176.68    6295.8661   -954.82935    82.036941 
   98800    408.08985   -117.99036   0.36924828   -117.62111   -6475.2935    4.3562381    4.3562381    4.3562381   -6475.2935   -2811.4709   -9365.2415    -7249.168    2334.7803    4555.6324     2043.459    82.667504 
   98900    451.29975   -118.02788    0.4083455   -117.61953   -803.07802    4.3454945    4.3454945    4.3454945   -803.07802    3316.4091    3033.7958    -8759.439   -3578.3925    437.62602    1658.0535    82.057374 
   99000    343.96589   -117.93276   0.31122756   -117.62153    7007.7438    4.3473668    4.3473668    4.3473668    7007.7438    6903.4899    234.54551    13885.196   -1308.4764    373.14342   -2831.6157    82.163486 
   99100    517.84401   -118.08894   0.46855614   -117.62039   -6031.9458    4.3524703    4.3524703    4.3524703   -6031.9458   -8152.6897    520.99876   -10464.147    1854.6976    -2294.392   -2632.6047    82.453185 
   99200    395.79562   -117.97821   0.35812419   -117.62008    5568.5218    4.3457753    4.3457753    4.3457753    5568.5218     4586.572    3120.6059    8998.3873   -2609.4238   -2255.4908    4026.4535    82.073281 
   99300    475.48792   -118.04932   0.43023146   -117.61909   -3470.2733    4.3502201    4.3502201    4.3502201   -3470.2733    -14421.65   -7169.1545    11179.985    1728.2589   -225.86805    3435.7239     82.32537 
   99400    380.91994   -117.96507   0.34466437   -117.62041    4979.5359    4.3481466    4.3481466    4.3481466    4979.5359    -8247.909    16480.931    6705.5858   -6433.4461    2420.6422   -1631.1041    82.207706 
   99500    489.93001   -118.06297   0.44329897   -117.61967    -4314.317    4.3501923    4.3501923    4.3501923    -4314.317   -5844.5284   -11130.468    4032.0458   -435.89816    1154.0628    -4308.195     82.32379 
   99600    489.88818   -118.06295   0.44326112   -117.61969   -3298.6081    4.3475136    4.3475136    4.3475136   -3298.6081   -6815.8372    3462.8966   -6542.8836    3570.9888    1852.5717    619.09978     82.17181 
   99700    370.39337   -117.95478    0.3351397   -117.61964   -480.87324    4.3500955    4.3500955    4.3500955   -480.87324   -2547.7083    7378.7526    -6273.664   -2446.2902    4958.8326    1780.0746    82.318296 
   99800    538.93155   -118.10648   0.48763659   -117.61884   -6230.0151    4.3467555    4.3467555    4.3467555   -6230.0151   -3140.5952   -8497.8727   -7051.5775    1836.9483    1960.4412   -1609.1096    82.128829 
   99900    306.95873   -117.90153   0.27774271   -117.62379    7843.0953     4.347825     4.347825     4.347825    7843.0953     604.5676    5528.3867    17396.332   -5945.3972   -3981.7923    1068.6034    82.189469 
  100000    511.33781   -118.08633   0.46266919   -117.62366    1449.3976    4.3470504    4.3470504    4.3470504    1449.3976    4296.0207   -6129.3989     6181.571    1077.0689    -581.5451    1363.2116    82.145547 
Loop time of 24.2678 on 1 procs for 100000 steps with 8 atoms

Pair  time (%) = 7.49005 (30.8641)
Kspce time (%) = 6.12361 (25.2335)
Neigh time (%) = 0 (0)
Comm  time (%) = 1.27413 (5.25029)
Outpt time (%) = 0.0316365 (0.130364)
Other time (%) = 9.34838 (38.5217)

Nlocal:    8 ave 8 max 8 min
Histogram: 1 0 0 0 0 0 0 0 0 0
Nghost:    2189 ave 2189 max 2189 min
Histogram: 1 0 0 0 0 0 0 0 0 0
Neighs:    2056 ave 2056 max 2056 min
Histogram: 1 0 0 0 0 0 0 0 0 0

Total # of neighbors = 2056
Ave neighs/atom = 257
Neighbor list builds = 0
Dangerous builds = 0
seeds:7610671
