# ['Ni']

18 atoms
1 atom types

    0.0000     2.3278 xlo xhi
    0.0000     4.0319 ylo yhi
    0.0000    34.2057 zlo zhi

    0.0000     0.0000    -0.0004 xy xz yz

Atoms

1 1     0.0000     0.0000     0.0000
2 1     1.1639     0.6720     1.9003
3 1     0.0000     1.3440     3.8006
4 1     1.1639     2.0159     0.0000
5 1     0.0000     2.6879     1.9003
6 1     1.1639     3.3599     3.8006
7 1     0.0000     0.0000     5.7010
8 1     1.1639     0.6720     7.6013
9 1     0.0000     1.3440     9.5016
10 1     1.1639     2.0159     5.7010
11 1     0.0000     2.6879     7.6013
12 1     1.1639     3.3599     9.5016
13 1     0.0000     0.0000    11.4019
14 1     1.1639     0.6720    13.3022
15 1     0.0000     1.3440    15.2025
16 1     1.1639     2.0159    11.4019
17 1     0.0000     2.6879    13.3022
18 1     1.1639     3.3599    15.2025
