# ['Si']

8 atoms
1 atom types

    0.0000     5.4687 xlo xhi
    0.0000     5.4687 ylo yhi
    0.0000     5.4687 zlo zhi

    0.0000     0.0000     0.0000 xy xz yz

Atoms

1 1     0.0000     0.0000     2.7344
2 1     4.1015     4.1015     4.1015
3 1     0.0000     2.7344     0.0000
4 1     4.1015     1.3672     1.3672
5 1     2.7344     0.0000     0.0000
6 1     1.3672     4.1015     1.3672
7 1     2.7344     2.7344     2.7344
8 1     1.3672     1.3672     4.1015
