# ['Ni']

10 atoms
1 atom types

    0.0000     3.5160 xlo xhi
    0.0000     2.5169 ylo yhi
    0.0000    25.1691 zlo zhi

    0.0000     0.0000     0.0000 xy xz yz

Atoms

1 1     0.0000     0.0000     0.0000
2 1     1.7580     1.2585     1.2585
3 1     0.0000     0.0000     2.5169
4 1     1.7580     1.2585     3.7754
5 1     0.0000     0.0000     5.0338
6 1     1.7580     1.2585     6.2923
7 1     0.0000     0.0000     7.5507
8 1     1.7580     1.2585     8.8092
9 1     0.0000     0.0000    10.0676
10 1     1.7580     1.2585    11.3261
