# ['Si']

215 atoms
1 atom types

    0.0000    16.2929 xlo xhi
    0.0000    16.2929 ylo yhi
    0.0000    16.2929 zlo zhi

    0.0000     0.0000     0.0000 xy xz yz

Atoms

1 1     1.3577     1.3577     1.3577
2 1     0.0000     2.7155     2.7155
3 1     1.3577     4.0732     4.0732
4 1     2.7155     0.0000     2.7155
5 1     4.0732     1.3577     4.0732
6 1     2.7155     2.7155     0.0000
7 1     4.0732     4.0732     1.3577
8 1     0.0000     0.0000     5.4309
9 1     1.3577     1.3577     6.7887
10 1     0.0000     2.7155     8.1464
11 1     1.3577     4.0732     9.5042
12 1     2.7155     0.0000     8.1464
13 1     4.0732     1.3577     9.5042
14 1     2.7155     2.7155     5.4309
15 1     4.0732     4.0732     6.7887
16 1     0.0000     0.0000    10.8619
17 1     1.3577     1.3577    12.2196
18 1     0.0000     2.7155    13.5774
19 1     1.3577     4.0732    14.9351
20 1     2.7155     0.0000    13.5774
21 1     4.0732     1.3577    14.9351
22 1     2.7155     2.7155    10.8619
23 1     4.0732     4.0732    12.2196
24 1     0.0000     5.4309     0.0000
25 1     1.3577     6.7887     1.3577
26 1     0.0000     8.1464     2.7155
27 1     1.3577     9.5042     4.0732
28 1     2.7155     5.4309     2.7155
29 1     4.0732     6.7887     4.0732
30 1     2.7155     8.1464     0.0000
31 1     4.0732     9.5042     1.3577
32 1     0.0000     5.4309     5.4309
33 1     1.3577     6.7887     6.7887
34 1     0.0000     8.1464     8.1464
35 1     1.3577     9.5042     9.5042
36 1     2.7155     5.4309     8.1464
37 1     4.0732     6.7887     9.5042
38 1     2.7155     8.1464     5.4309
39 1     4.0732     9.5042     6.7887
40 1     0.0000     5.4309    10.8619
41 1     1.3577     6.7887    12.2196
42 1     0.0000     8.1464    13.5774
43 1     1.3577     9.5042    14.9351
44 1     2.7155     5.4309    13.5774
45 1     4.0732     6.7887    14.9351
46 1     2.7155     8.1464    10.8619
47 1     4.0732     9.5042    12.2196
48 1     0.0000    10.8619     0.0000
49 1     1.3577    12.2196     1.3577
50 1     0.0000    13.5774     2.7155
51 1     1.3577    14.9351     4.0732
52 1     2.7155    10.8619     2.7155
53 1     4.0732    12.2196     4.0732
54 1     2.7155    13.5774     0.0000
55 1     4.0732    14.9351     1.3577
56 1     0.0000    10.8619     5.4309
57 1     1.3577    12.2196     6.7887
58 1     0.0000    13.5774     8.1464
59 1     1.3577    14.9351     9.5042
60 1     2.7155    10.8619     8.1464
61 1     4.0732    12.2196     9.5042
62 1     2.7155    13.5774     5.4309
63 1     4.0732    14.9351     6.7887
64 1     0.0000    10.8619    10.8619
65 1     1.3577    12.2196    12.2196
66 1     0.0000    13.5774    13.5774
67 1     1.3577    14.9351    14.9351
68 1     2.7155    10.8619    13.5774
69 1     4.0732    12.2196    14.9351
70 1     2.7155    13.5774    10.8619
71 1     4.0732    14.9351    12.2196
72 1     5.4309     0.0000     0.0000
73 1     6.7887     1.3577     1.3577
74 1     5.4309     2.7155     2.7155
75 1     6.7887     4.0732     4.0732
76 1     8.1464     0.0000     2.7155
77 1     9.5042     1.3577     4.0732
78 1     8.1464     2.7155     0.0000
79 1     9.5042     4.0732     1.3577
80 1     5.4309     0.0000     5.4309
81 1     6.7887     1.3577     6.7887
82 1     5.4309     2.7155     8.1464
83 1     6.7887     4.0732     9.5042
84 1     8.1464     0.0000     8.1464
85 1     9.5042     1.3577     9.5042
86 1     8.1464     2.7155     5.4309
87 1     9.5042     4.0732     6.7887
88 1     5.4309     0.0000    10.8619
89 1     6.7887     1.3577    12.2196
90 1     5.4309     2.7155    13.5774
91 1     6.7887     4.0732    14.9351
92 1     8.1464     0.0000    13.5774
93 1     9.5042     1.3577    14.9351
94 1     8.1464     2.7155    10.8619
95 1     9.5042     4.0732    12.2196
96 1     5.4309     5.4309     0.0000
97 1     6.7887     6.7887     1.3577
98 1     5.4309     8.1464     2.7155
99 1     6.7887     9.5042     4.0732
100 1     8.1464     5.4309     2.7155
101 1     9.5042     6.7887     4.0732
102 1     8.1464     8.1464     0.0000
103 1     9.5042     9.5042     1.3577
104 1     5.4309     5.4309     5.4309
105 1     6.7887     6.7887     6.7887
106 1     5.4309     8.1464     8.1464
107 1     6.7887     9.5042     9.5042
108 1     8.1464     5.4309     8.1464
109 1     9.5042     6.7887     9.5042
110 1     8.1464     8.1464     5.4309
111 1     9.5042     9.5042     6.7887
112 1     5.4309     5.4309    10.8619
113 1     6.7887     6.7887    12.2196
114 1     5.4309     8.1464    13.5774
115 1     6.7887     9.5042    14.9351
116 1     8.1464     5.4309    13.5774
117 1     9.5042     6.7887    14.9351
118 1     8.1464     8.1464    10.8619
119 1     9.5042     9.5042    12.2196
120 1     5.4309    10.8619     0.0000
121 1     6.7887    12.2196     1.3577
122 1     5.4309    13.5774     2.7155
123 1     6.7887    14.9351     4.0732
124 1     8.1464    10.8619     2.7155
125 1     9.5042    12.2196     4.0732
126 1     8.1464    13.5774     0.0000
127 1     9.5042    14.9351     1.3577
128 1     5.4309    10.8619     5.4309
129 1     6.7887    12.2196     6.7887
130 1     5.4309    13.5774     8.1464
131 1     6.7887    14.9351     9.5042
132 1     8.1464    10.8619     8.1464
133 1     9.5042    12.2196     9.5042
134 1     8.1464    13.5774     5.4309
135 1     9.5042    14.9351     6.7887
136 1     5.4309    10.8619    10.8619
137 1     6.7887    12.2196    12.2196
138 1     5.4309    13.5774    13.5774
139 1     6.7887    14.9351    14.9351
140 1     8.1464    10.8619    13.5774
141 1     9.5042    12.2196    14.9351
142 1     8.1464    13.5774    10.8619
143 1     9.5042    14.9351    12.2196
144 1    10.8619     0.0000     0.0000
145 1    12.2196     1.3577     1.3577
146 1    10.8619     2.7155     2.7155
147 1    12.2196     4.0732     4.0732
148 1    13.5774     0.0000     2.7155
149 1    14.9351     1.3577     4.0732
150 1    13.5774     2.7155     0.0000
151 1    14.9351     4.0732     1.3577
152 1    10.8619     0.0000     5.4309
153 1    12.2196     1.3577     6.7887
154 1    10.8619     2.7155     8.1464
155 1    12.2196     4.0732     9.5042
156 1    13.5774     0.0000     8.1464
157 1    14.9351     1.3577     9.5042
158 1    13.5774     2.7155     5.4309
159 1    14.9351     4.0732     6.7887
160 1    10.8619     0.0000    10.8619
161 1    12.2196     1.3577    12.2196
162 1    10.8619     2.7155    13.5774
163 1    12.2196     4.0732    14.9351
164 1    13.5774     0.0000    13.5774
165 1    14.9351     1.3577    14.9351
166 1    13.5774     2.7155    10.8619
167 1    14.9351     4.0732    12.2196
168 1    10.8619     5.4309     0.0000
169 1    12.2196     6.7887     1.3577
170 1    10.8619     8.1464     2.7155
171 1    12.2196     9.5042     4.0732
172 1    13.5774     5.4309     2.7155
173 1    14.9351     6.7887     4.0732
174 1    13.5774     8.1464     0.0000
175 1    14.9351     9.5042     1.3577
176 1    10.8619     5.4309     5.4309
177 1    12.2196     6.7887     6.7887
178 1    10.8619     8.1464     8.1464
179 1    12.2196     9.5042     9.5042
180 1    13.5774     5.4309     8.1464
181 1    14.9351     6.7887     9.5042
182 1    13.5774     8.1464     5.4309
183 1    14.9351     9.5042     6.7887
184 1    10.8619     5.4309    10.8619
185 1    12.2196     6.7887    12.2196
186 1    10.8619     8.1464    13.5774
187 1    12.2196     9.5042    14.9351
188 1    13.5774     5.4309    13.5774
189 1    14.9351     6.7887    14.9351
190 1    13.5774     8.1464    10.8619
191 1    14.9351     9.5042    12.2196
192 1    10.8619    10.8619     0.0000
193 1    12.2196    12.2196     1.3577
194 1    10.8619    13.5774     2.7155
195 1    12.2196    14.9351     4.0732
196 1    13.5774    10.8619     2.7155
197 1    14.9351    12.2196     4.0732
198 1    13.5774    13.5774     0.0000
199 1    14.9351    14.9351     1.3577
200 1    10.8619    10.8619     5.4309
201 1    12.2196    12.2196     6.7887
202 1    10.8619    13.5774     8.1464
203 1    12.2196    14.9351     9.5042
204 1    13.5774    10.8619     8.1464
205 1    14.9351    12.2196     9.5042
206 1    13.5774    13.5774     5.4309
207 1    14.9351    14.9351     6.7887
208 1    10.8619    10.8619    10.8619
209 1    12.2196    12.2196    12.2196
210 1    10.8619    13.5774    13.5774
211 1    12.2196    14.9351    14.9351
212 1    13.5774    10.8619    13.5774
213 1    14.9351    12.2196    14.9351
214 1    13.5774    13.5774    10.8619
215 1    14.9351    14.9351    12.2196
