LAMMPS (12 Dec 2018)
# ---- initialize simulations
clear
units metal
dimension 3
boundary p p p
atom_style atomic
atom_modify map array
# ---- create atoms
read_data /Users/eugeneragasa/repos/pypospack/examples/Si__sw/reference_potentials/rank_0/Si_vac.lmps_min_pos/lammps.structure
  triclinic box = (0 0 0) to (16.2929 16.2929 16.2929) with tilt (0 0 0)
  1 by 1 by 1 MPI processor grid
  reading atoms ...
  215 atoms
# ---- define interatomic potential
include potential.mod
mass 1 28.086

group Si type 1
215 atoms in group Si

pair_style sw
pair_coeff * * Si.parameters Si


neighbor 1.0 bin
neigh_modify every 1 delay 0 check yes
# ---- define settings
compute eng all pe/atom
compute eatoms all reduce sum c_eng

# ---- run minimization
reset_timestep 0
thermo 1
thermo_style custom step pe lx ly lz xy xz yz press pxx pyy pzz pxy pxz pyz c_eatoms
min_style cg
minimize 1e-20 1e-20 1000 100000
Neighbor list info ...
  update every 1 steps, delay 0 steps, check yes
  max neighbors/atom: 2000, page size: 100000
  master list distance cutoff = 4.83061
  ghost atom cutoff = 4.83061
  binsize = 2.41531, bins = 7 7 7
  1 neighbor lists, perpetual/occasional/extra = 1 0 0
  (1) pair sw, perpetual
      attributes: full, newton on
      pair build: full/bin/atomonly
      stencil: full/bin/3d
      bin: standard
Per MPI rank memory allocation (min/avg/max) = 3.963 | 3.963 | 3.963 Mbytes
Step PotEng Lx Ly Lz Xy Xz Yz Press Pxx Pyy Pzz Pxy Pxz Pyz c_eatoms 
       0   -990.81593      16.2929      16.2929      16.2929            0            0            0   -9.3794578   -9.3794578   -9.3794578   -9.3794578     5.163311     5.163311     5.163311   -990.81593 
       1   -990.81593      16.2929      16.2929      16.2929            0            0            0   -9.2972963   -9.2972963   -9.2972963   -9.2972963  -0.47375636  -0.47375636  -0.47375636   -990.81593 
       2   -990.81593      16.2929      16.2929      16.2929            0            0            0   -9.1624716   -9.1624716   -9.1624716   -9.1624716   0.36797432   0.36797432   0.36797432   -990.81593 
       3   -990.81593      16.2929      16.2929      16.2929            0            0            0   -9.1475364   -9.1475364   -9.1475364   -9.1475364  -0.31179343  -0.31179343  -0.31179343   -990.81593 
       4   -990.81593      16.2929      16.2929      16.2929            0            0            0   -9.1582898   -9.1582898   -9.1582898   -9.1582898   0.16383108   0.16383108   0.16383107   -990.81593 
       5   -990.81593      16.2929      16.2929      16.2929            0            0            0    -9.175939    -9.175939    -9.175939    -9.175939  -0.21828559  -0.21828559  -0.21828559   -990.81593 
       6   -990.81593      16.2929      16.2929      16.2929            0            0            0   -9.2037204   -9.2037204   -9.2037204   -9.2037204  0.029943193  0.029943193  0.029943193   -990.81593 
       7   -990.81593      16.2929      16.2929      16.2929            0            0            0   -9.2062423   -9.2062423   -9.2062423   -9.2062423 -0.027836436 -0.027836435 -0.027836435   -990.81593 
       8   -990.81593      16.2929      16.2929      16.2929            0            0            0   -9.2162394   -9.2162394   -9.2162394   -9.2162394 0.0097759747 0.0097759747 0.0097759747   -990.81593 
       9   -990.81593      16.2929      16.2929      16.2929            0            0            0   -9.2450484   -9.2450484   -9.2450484   -9.2450484 -0.0057035979 -0.0057035981 -0.005703598   -990.81593 
      10   -990.81593      16.2929      16.2929      16.2929            0            0            0   -9.2630144   -9.2630144   -9.2630144   -9.2630144 0.0011596454 0.0011596457 0.0011596455   -990.81593 
      11   -990.81593      16.2929      16.2929      16.2929            0            0            0   -9.2708609   -9.2708609   -9.2708609   -9.2708609 -0.00057280449 -0.0005728048 -0.00057280465   -990.81593 
      12   -990.81593      16.2929      16.2929      16.2929            0            0            0   -9.2748083   -9.2748083   -9.2748083   -9.2748083 -9.0865191e-05 -9.086483e-05 -9.0865112e-05   -990.81593 
      13   -990.81593      16.2929      16.2929      16.2929            0            0            0   -9.2763056   -9.2763056   -9.2763056   -9.2763056 -0.00048031559 -0.00048031596 -0.00048031561   -990.81593 
      14   -990.81593      16.2929      16.2929      16.2929            0            0            0   -9.2765019   -9.2765019   -9.2765019   -9.2765019 -6.7113795e-05 -6.7113462e-05 -6.711381e-05   -990.81593 
      15   -990.81593      16.2929      16.2929      16.2929            0            0            0   -9.2761112   -9.2761112   -9.2761112   -9.2761112 -0.00027394925 -0.00027394968 -0.00027394909   -990.81593 
      16   -990.81593      16.2929      16.2929      16.2929            0            0            0   -9.2758008   -9.2758008   -9.2758008   -9.2758008 -0.00010996714 -0.00010996661 -0.00010996748   -990.81593 
      17   -990.81593      16.2929      16.2929      16.2929            0            0            0   -9.2755705   -9.2755705   -9.2755705   -9.2755705 -0.00019745465 -0.00019745551 -0.00019745402   -990.81593 
Loop time of 0.00928497 on 1 procs for 17 steps with 215 atoms

95.1% CPU use with 1 MPI tasks x no OpenMP threads

Minimization stats:
  Stopping criterion = energy tolerance
  Energy initial, next-to-last, final = 
        -990.815926339     -990.815933873     -990.815933873
  Force two-norm initial, final = 0.0221958 1.63056e-06
  Force max component initial, final = 0.00114746 1.62405e-07
  Final line search alpha, max atom move = 1 1.62405e-07
  Iterations, force evaluations = 17 34

MPI task timing breakdown:
Section |  min time  |  avg time  |  max time  |%varavg| %total
---------------------------------------------------------------
Pair    | 0.0081503  | 0.0081503  | 0.0081503  |   0.0 | 87.78
Neigh   | 0          | 0          | 0          |   0.0 |  0.00
Comm    | 0.00017571 | 0.00017571 | 0.00017571 |   0.0 |  1.89
Output  | 0.0006597  | 0.0006597  | 0.0006597  |   0.0 |  7.11
Modify  | 0          | 0          | 0          |   0.0 |  0.00
Other   |            | 0.0002992  |            |       |  3.22

Nlocal:    215 ave 215 max 215 min
Histogram: 1 0 0 0 0 0 0 0 0 0
Nghost:    641 ave 641 max 641 min
Histogram: 1 0 0 0 0 0 0 0 0 0
Neighs:    0 ave 0 max 0 min
Histogram: 1 0 0 0 0 0 0 0 0 0
FullNghs:  5992 ave 5992 max 5992 min
Histogram: 1 0 0 0 0 0 0 0 0 0

Total # of neighbors = 5992
Ave neighs/atom = 27.8698
Neighbor list builds = 0
Dangerous builds = 0

# ---- define output variables ----
variable natoms equal "count(all)"
variable tot_energy equal "c_eatoms"
variable a11 equal "xhi-xlo"
variable a22 equal "yhi-ylo"
variable a33 equal "zhi-zlo"
variable tilt_xy equal "xy"
variable tilt_xz equal "xz"
variable tilt_yz equal "yz"
variable tot_press equal "press"
variable press_xx equal "pxx"
variable press_yy equal "pyy"
variable press_zz equal "pzz"
variable press_xy equal "pxy"
variable press_xz equal "pxz"
variable press_yz equal "pyz"

# ---- output ----
print "pypospack:output_section:begin"
pypospack:output_section:begin
print "tot_energy = ${tot_energy}"
tot_energy = -990.815933872731
print "num_atoms = ${natoms}"
num_atoms = 215
print "a11 = ${a11}"
a11 = 16.2929
print "a22 = ${a22}"
a22 = 16.2929
print "a33 = ${a33}"
a33 = 16.2929
print "a12 = ${tilt_xy}"
a12 = 0
print "a13 = ${tilt_xz}"
a13 = 0
print "a23 = ${tilt_yz}"
a23 = 0
print "tot_press = ${tot_press}"
tot_press = -9.27557049559916
print "pxx = ${press_xx}"
pxx = -9.27557049559197
print "pyy = ${press_yy}"
pyy = -9.27557049559704
print "pzz = ${press_zz}"
pzz = -9.27557049560848
print "pxy = ${press_xy}"
pxy = -0.000197454653811688
print "pxz = ${press_xz}"
pxz = -0.000197455505326773
print "pyz = ${press_yz}"
pyz = -0.000197454019686968
print "pypospack:output_section:done"
pypospack:output_section:done
print "pypospack:lammps_sim:done"
pypospack:lammps_sim:done
Total wall time: 0:00:00
