# ['Ni']

107 atoms
1 atom types

    0.0000     9.5889 xlo xhi
    0.0000     9.5889 ylo yhi
    0.0000     9.5889 zlo zhi

    0.0000    -0.0000    -0.0000 xy xz yz

Atoms

1 1     1.5982     1.5982     0.0000
2 1     1.5982     0.0000     1.5982
3 1     0.0000     1.5982     1.5982
4 1     0.0000     0.0000     3.1963
5 1     1.5982     1.5982     3.1963
6 1     1.5982     0.0000     4.7945
7 1     0.0000     1.5982     4.7945
8 1     0.0000     0.0000     6.3926
9 1     1.5982     1.5982     6.3926
10 1     1.5982     0.0000     7.9908
11 1     0.0000     1.5982     7.9908
12 1     0.0000     3.1963     0.0000
13 1     1.5982     4.7945     0.0000
14 1     1.5982     3.1963     1.5982
15 1     0.0000     4.7945     1.5982
16 1     0.0000     3.1963     3.1963
17 1     1.5982     4.7945     3.1963
18 1     1.5982     3.1963     4.7945
19 1     0.0000     4.7945     4.7945
20 1     0.0000     3.1963     6.3926
21 1     1.5982     4.7945     6.3926
22 1     1.5982     3.1963     7.9908
23 1     0.0000     4.7945     7.9908
24 1     0.0000     6.3926     0.0000
25 1     1.5982     7.9908     0.0000
26 1     1.5982     6.3926     1.5982
27 1     0.0000     7.9908     1.5982
28 1     0.0000     6.3926     3.1963
29 1     1.5982     7.9908     3.1963
30 1     1.5982     6.3926     4.7945
31 1     0.0000     7.9908     4.7945
32 1     0.0000     6.3926     6.3926
33 1     1.5982     7.9908     6.3926
34 1     1.5982     6.3926     7.9908
35 1     0.0000     7.9908     7.9908
36 1     3.1963     0.0000     0.0000
37 1     4.7945     1.5982     0.0000
38 1     4.7945     0.0000     1.5982
39 1     3.1963     1.5982     1.5982
40 1     3.1963     0.0000     3.1963
41 1     4.7945     1.5982     3.1963
42 1     4.7945     0.0000     4.7945
43 1     3.1963     1.5982     4.7945
44 1     3.1963     0.0000     6.3926
45 1     4.7945     1.5982     6.3926
46 1     4.7945     0.0000     7.9908
47 1     3.1963     1.5982     7.9908
48 1     3.1963     3.1963     0.0000
49 1     4.7945     4.7945     0.0000
50 1     4.7945     3.1963     1.5982
51 1     3.1963     4.7945     1.5982
52 1     3.1963     3.1963     3.1963
53 1     4.7945     4.7945     3.1963
54 1     4.7945     3.1963     4.7945
55 1     3.1963     4.7945     4.7945
56 1     3.1963     3.1963     6.3926
57 1     4.7945     4.7945     6.3926
58 1     4.7945     3.1963     7.9908
59 1     3.1963     4.7945     7.9908
60 1     3.1963     6.3926     0.0000
61 1     4.7945     7.9908     0.0000
62 1     4.7945     6.3926     1.5982
63 1     3.1963     7.9908     1.5982
64 1     3.1963     6.3926     3.1963
65 1     4.7945     7.9908     3.1963
66 1     4.7945     6.3926     4.7945
67 1     3.1963     7.9908     4.7945
68 1     3.1963     6.3926     6.3926
69 1     4.7945     7.9908     6.3926
70 1     4.7945     6.3926     7.9908
71 1     3.1963     7.9908     7.9908
72 1     6.3926     0.0000     0.0000
73 1     7.9908     1.5982     0.0000
74 1     7.9908     0.0000     1.5982
75 1     6.3926     1.5982     1.5982
76 1     6.3926     0.0000     3.1963
77 1     7.9908     1.5982     3.1963
78 1     7.9908     0.0000     4.7945
79 1     6.3926     1.5982     4.7945
80 1     6.3926     0.0000     6.3926
81 1     7.9908     1.5982     6.3926
82 1     7.9908     0.0000     7.9908
83 1     6.3926     1.5982     7.9908
84 1     6.3926     3.1963     0.0000
85 1     7.9908     4.7945     0.0000
86 1     7.9908     3.1963     1.5982
87 1     6.3926     4.7945     1.5982
88 1     6.3926     3.1963     3.1963
89 1     7.9908     4.7945     3.1963
90 1     7.9908     3.1963     4.7945
91 1     6.3926     4.7945     4.7945
92 1     6.3926     3.1963     6.3926
93 1     7.9908     4.7945     6.3926
94 1     7.9908     3.1963     7.9908
95 1     6.3926     4.7945     7.9908
96 1     6.3926     6.3926     0.0000
97 1     7.9908     7.9908     0.0000
98 1     7.9908     6.3926     1.5982
99 1     6.3926     7.9908     1.5982
100 1     6.3926     6.3926     3.1963
101 1     7.9908     7.9908     3.1963
102 1     7.9908     6.3926     4.7945
103 1     6.3926     7.9908     4.7945
104 1     6.3926     6.3926     6.3926
105 1     7.9908     7.9908     6.3926
106 1     7.9908     6.3926     7.9908
107 1     6.3926     7.9908     7.9908
