LAMMPS (11 Aug 2017)
Reading data file ...
  triclinic box = (0 0 0) to (4.1504 4.1504 41.5036) with tilt (0 -0 0)
  1 by 1 by 1 MPI processor grid
  reading atoms ...
  20 atoms
20 atoms in group Ni
Neighbor list info ...
  update every 1 steps, delay 0 steps, check yes
  max neighbors/atom: 2000, page size: 100000
  master list distance cutoff = 5.64464
  ghost atom cutoff = 5.64464
  binsize = 2.82232, bins = 2 2 15
  1 neighbor lists, perpetual/occasional/extra = 1 0 0
  (1) pair eam/alloy, perpetual
      attributes: half, newton on
      pair build: half/bin/newton/tri
      stencil: half/bin/3d/newton/tri
      bin: standard
Setting up cg style minimization ...
  Unit style    : metal
  Current step  : 0
Per MPI rank memory allocation (min/avg/max) = 4.206 | 4.206 | 4.206 Mbytes
Step PotEng Lx Ly Lz Xy Xz Yz Press Pxx Pyy Pzz Pxy Pxz Pyz c_eatoms 
       0   -6.6255129       4.1504       4.1504      41.5036            0           -0            0   -566.07506   -697.53597   -697.53597   -303.15324 -2.1381473e-14 5.0538028e-14 -3.6931636e-14   -6.6255129 
       1   -6.6263611       4.1504       4.1504      41.5036            0           -0            0   -462.52335   -608.44458   -608.44458   -170.68089 -1.9437703e-15 3.8875406e-15 1.7493933e-14   -6.6263611 
       2    -6.626485       4.1504       4.1504      41.5036            0           -0            0   -433.55234   -583.02667   -583.02667   -134.60367 2.3325243e-14 2.5269014e-14 1.2634507e-14    -6.626485 
       3   -6.6265161       4.1504       4.1504      41.5036            0           -0            0   -424.90078   -575.45498   -575.45498   -123.79237 1.9437703e-14 3.1100325e-14 5.8313109e-15   -6.6265161 
       4   -6.6265296       4.1504       4.1504      41.5036            0           -0            0    -414.7776   -566.60382   -566.60382   -111.12516 7.7750812e-15 -4.6650487e-14 -3.6931636e-14   -6.6265296 
       5   -6.6265365       4.1504       4.1504      41.5036            0           -0            0    -407.4868   -560.23002   -560.23002   -102.00036 -1.049636e-13 -2.3325243e-14 3.7903521e-14   -6.6265365 
       6   -6.6265407       4.1504       4.1504      41.5036            0           -0            0   -401.71523   -555.18308   -555.18308   -94.779521 -1.2634507e-13 1.9437703e-15 7.9694582e-14   -6.6265407 
       7   -6.6265436       4.1504       4.1504      41.5036            0           -0            0   -396.95008   -551.02245   -551.02245    -88.80534 4.8594257e-14 2.5269014e-14 1.4578277e-14   -6.6265436 
       8   -6.6265459       4.1504       4.1504      41.5036            0           -0            0   -393.02636   -547.59628   -547.59628   -83.886529            0 -3.6931636e-14 -7.7750812e-15   -6.6265459 
       9   -6.6265479       4.1504       4.1504      41.5036            0           -0            0    -389.5501   -544.56429   -544.56429   -79.521717 -3.8875406e-15 7.7750812e-15 1.5550162e-14   -6.6265479 
      10   -6.6265496       4.1504       4.1504      41.5036            0           -0            0   -386.49536   -541.90019   -541.90019   -75.685698 -7.9694582e-14 -3.8875406e-15 7.6778926e-14   -6.6265496 
      11   -6.6265512       4.1504       4.1504      41.5036            0           -0            0   -383.68421   -539.45005   -539.45005   -72.152524 -3.1100325e-14 1.3606392e-14 4.6650487e-14   -6.6265512 
      12   -6.6265526       4.1504       4.1504      41.5036            0           -0            0   -381.10406   -537.20143   -537.20143   -68.909312 2.3325243e-14 3.3044095e-14 1.4578277e-14   -6.6265526 
      13    -6.626554       4.1504       4.1504      41.5036            0           -0            0   -378.68066   -535.09002   -535.09002   -65.861933 -6.414442e-14 -7.7750812e-15 6.803196e-15    -6.626554 
      14   -6.6265552       4.1504       4.1504      41.5036            0           -0            0   -376.40473   -533.10717   -533.10717   -62.999832 1.2051376e-13 1.5550162e-14 3.012844e-14   -6.6265552 
      15   -6.6265563       4.1504       4.1504      41.5036            0           -0            0   -374.24476   -531.22557   -531.22557    -60.28315 7.7750812e-15 -3.6931636e-14 4.2762946e-14   -6.6265563 
      16   -6.6265573       4.1504       4.1504      41.5036            0           -0            0   -372.19395   -529.43906   -529.43906   -57.703719            0 -8.5525893e-14 2.8184669e-14   -6.6265573 
      17   -6.6265582       4.1504       4.1504      41.5036            0           -0            0   -370.23784   -527.73511   -527.73511     -55.2433 7.7750812e-15 -6.608819e-14 8.3582123e-14   -6.6265582 
      18    -6.626559       4.1504       4.1504      41.5036            0           -0            0   -368.37135   -526.10921   -526.10921   -52.895629 -5.8313109e-15 3.6931636e-14 -4.9566142e-14    -6.626559 
      19   -6.6265598       4.1504       4.1504      41.5036            0           -0            0   -366.58687   -524.55475   -524.55475   -50.651124 -1.9437703e-14 1.9437703e-15 1.1662622e-14   -6.6265598 
      20   -6.6265605       4.1504       4.1504      41.5036            0           -0            0    -364.8804   -523.06821   -523.06821   -48.504788 3.3044095e-14 -2.3325243e-14 6.803196e-14   -6.6265605 
      21   -6.6265612       4.1504       4.1504      41.5036            0           -0            0   -363.24718   -521.64546   -521.64546   -46.450617 -9.5244744e-14 -3.4987865e-14 -2.1381473e-14   -6.6265612 
      22   -6.6265618       4.1504       4.1504      41.5036            0           -0            0   -361.68386   -520.28357   -520.28357   -44.484422 -5.0538028e-14 5.8313109e-15 1.4578277e-14   -6.6265618 
      23   -6.6265623       4.1504       4.1504      41.5036            0           -0            0   -360.18693    -518.9795    -518.9795   -42.601781 -1.5550162e-14 3.6931636e-14 1.6522047e-14   -6.6265623 
      24   -6.6265629       4.1504       4.1504      41.5036            0           -0            0   -358.75349   -517.73072   -517.73072   -40.799044 -6.414442e-14 1.7493933e-14 4.2762946e-14   -6.6265629 
      25   -6.6265633       4.1504       4.1504      41.5036            0           -0            0   -357.38066    -516.5347    -516.5347   -39.072576 2.3325243e-14 2.1381473e-14 -2.9156554e-15   -6.6265633 
      26   -6.6265637       4.1504       4.1504      41.5036            0           -0            0   -356.06585   -515.38921   -515.38921   -37.419114 1.049636e-13 1.9437703e-15 4.0819176e-14   -6.6265637 
      27   -6.6265641       4.1504       4.1504      41.5036            0           -0            0   -354.80653   -514.29205   -514.29205   -35.835488 -4.6650487e-14 -2.7212784e-14 -3.3044095e-14   -6.6265641 
      28   -6.6265645       4.1504       4.1504      41.5036            0           -0            0   -353.60036   -513.24117   -513.24117   -34.318742 1.5550162e-14 1.7493933e-14 2.3325243e-14   -6.6265645 
      29   -6.6265648       4.1504       4.1504      41.5036            0           -0            0   -352.44509   -512.23462   -512.23462   -32.866029            0 2.5269014e-14 -1.4578277e-14   -6.6265648 
      30   -6.6265651       4.1504       4.1504      41.5036            0           -0            0   -351.33856   -511.27052   -511.27052    -31.47465 -1.9437703e-14 -1.1662622e-14 9.7188515e-15   -6.6265651 
      31   -6.6265654       4.1504       4.1504      41.5036            0           -0            0   -350.27873   -510.34709   -510.34709   -30.142016 -3.1100325e-14 -9.7188515e-15 1.3606392e-14   -6.6265654 
      32   -6.6265657       4.1504       4.1504      41.5036            0           -0            0   -349.26363   -509.46262   -509.46262   -28.865655 -6.414442e-14 -1.5550162e-14 3.8875406e-14   -6.6265657 
      33   -6.6265659       4.1504       4.1504      41.5036            0           -0            0   -348.29138   -508.61547   -508.61547   -27.643199 1.1662622e-13 -3.8875406e-15 4.0819176e-14   -6.6265659 
      34   -6.6265661       4.1504       4.1504      41.5036            0           -0            0   -347.36018   -507.80408   -507.80408   -26.472382 8.9413433e-14 -1.5550162e-14 -5.8313109e-14   -6.6265661 
      35   -6.6265663       4.1504       4.1504      41.5036            0           -0            0    -346.4683   -507.02694   -507.02694   -25.351031 -1.5550162e-13 -7.7750812e-15 8.1638352e-14   -6.6265663 
      36   -6.6265665       4.1504       4.1504      41.5036            0           -0            0    -345.6141   -506.28261   -506.28261   -24.277065 -5.8313109e-15 4.2762946e-14 8.1638352e-14   -6.6265665 
      37   -6.6265666       4.1504       4.1504      41.5036            0           -0            0   -344.79598   -505.56973   -505.56973   -23.248491 -6.2200649e-14 -5.8313109e-15 -4.3734832e-14   -6.6265666 
      38   -6.6265668       4.1504       4.1504      41.5036            0           -0            0   -344.01243   -504.88695   -504.88695   -22.263398 -2.5269014e-14 1.9437703e-15 1.9437703e-15   -6.6265668 
      39   -6.6265669       4.1504       4.1504      41.5036            0           -0            0   -343.26201   -504.23303   -504.23303   -21.319957 4.6650487e-14 1.9437703e-15 3.595975e-14   -6.6265669 
      40   -6.6265671       4.1504       4.1504      41.5036            0           -0            0    -342.5433   -503.60674   -503.60674   -20.416414 4.2762946e-14 3.8875406e-14 -9.7188515e-16   -6.6265671 
      41   -6.6265672       4.1504       4.1504      41.5036            0           -0            0   -341.85498   -503.00693   -503.00693   -19.551088 -4.8594257e-14 1.9437703e-15 -1.4578277e-14   -6.6265672 
      42   -6.6265673       4.1504       4.1504      41.5036            0           -0            0   -341.19578   -502.43248   -502.43248   -18.722368 2.3325243e-14 3.8875406e-15 2.2353358e-14   -6.6265673 
      43   -6.6265674       4.1504       4.1504      41.5036            0           -0            0   -340.56445   -501.88232   -501.88232   -17.928712 4.2762946e-14 4.2762946e-14 -1.8465818e-14   -6.6265674 
      44   -6.6265675       4.1504       4.1504      41.5036            0           -0            0   -339.95983   -501.35543   -501.35543   -17.168642 -1.3606392e-14 4.0819176e-14 6.414442e-14   -6.6265675 
      45   -6.6265675       4.1504       4.1504      41.5036            0           -0            0    -339.3808   -500.85083   -500.85083    -16.44074 3.8875406e-15 1.7493933e-14 5.8313109e-15   -6.6265675 
      46   -6.6265676       4.1504       4.1504      41.5036            0           -0            0   -338.82626   -500.36757   -500.36757   -15.743651 1.0301983e-13 5.8313109e-15 3.8875406e-15   -6.6265676 
      47   -6.6265677       4.1504       4.1504      41.5036            0           -0            0    -338.2952   -499.90477   -499.90477   -15.076073 -9.7188515e-15 -1.9437703e-14 -2.9156554e-14   -6.6265677 
      48   -6.6265678       4.1504       4.1504      41.5036            0           -0            0   -337.78662   -499.46155   -499.46155   -14.436762 -8.3582123e-14 -3.4987865e-14 7.7750812e-14   -6.6265678 
      49   -6.6265678       4.1504       4.1504      41.5036            0           -0            0   -337.29957   -499.03709   -499.03709   -13.824523 1.049636e-13 2.7212784e-14 -2.9156554e-15   -6.6265678 
      50   -6.6265679       4.1504       4.1504      41.5036            0           -0            0   -336.83314   -498.63061   -498.63061   -13.238214 5.8313109e-14 -9.7188515e-15 1.9437703e-15   -6.6265679 
      51   -6.6265679       4.1504       4.1504      41.5036            0           -0            0   -336.38647   -498.24133   -498.24133   -12.676738 8.5525893e-14 4.8594257e-14 6.608819e-14   -6.6265679 
      52    -6.626568       4.1504       4.1504      41.5036            0           -0            0   -335.95871   -497.86854   -497.86854   -12.139048 3.6931636e-14 1.5550162e-14 -1.0690737e-14    -6.626568 
      53    -6.626568       4.1504       4.1504      41.5036            0           -0            0   -335.54907   -497.51153   -497.51153   -11.624137 -6.803196e-14 1.5550162e-14 4.8594257e-14    -6.626568 
      54    -6.626568       4.1504       4.1504      41.5036            0           -0            0   -335.15678   -497.16965   -497.16965   -11.131043 3.3044095e-14 7.7750812e-15 6.414442e-14    -6.626568 
      55   -6.6265681       4.1504       4.1504      41.5036            0           -0            0   -334.78111   -496.84225   -496.84225   -10.658843 -4.2762946e-14 5.2481798e-14 2.1381473e-14   -6.6265681 
      56   -6.6265681       4.1504       4.1504      41.5036            0           -0            0   -334.42136   -496.52872   -496.52872   -10.206655 -2.7212784e-14 3.1100325e-14 1.9437703e-15   -6.6265681 
      57   -6.6265681       4.1504       4.1504      41.5036            0           -0            0   -334.07686   -496.22847   -496.22847   -9.7736312 7.3863271e-14 -1.5550162e-14 1.9437703e-15   -6.6265681 
      58   -6.6265682       4.1504       4.1504      41.5036            0           -0            0   -333.74695   -495.94095   -495.94095   -9.3589614 4.0819176e-14 7.7750812e-15 7.9694582e-14   -6.6265682 
      59   -6.6265682       4.1504       4.1504      41.5036            0           -0            0   -333.43103   -495.66561   -495.66561   -8.9618691 7.3863271e-14 -7.9694582e-14 -1.7493933e-14   -6.6265682 
      60   -6.6265682       4.1504       4.1504      41.5036            0           -0            0   -333.12849   -495.40194   -495.40194   -8.5816105 5.0538028e-14 2.5269014e-14 -2.3325243e-14   -6.6265682 
      61   -6.6265682       4.1504       4.1504      41.5036            0           -0            0   -332.83878   -495.14944   -495.14944   -8.2174731 -3.8875406e-15 -2.5269014e-14 1.3606392e-14   -6.6265682 
      62   -6.6265682       4.1504       4.1504      41.5036            0           -0            0   -332.56136   -494.90765   -494.90765   -7.8687747 -3.6931636e-14 1.5550162e-14 -7.3863271e-14   -6.6265682 
      63   -6.6265683       4.1504       4.1504      41.5036            0           -0            0   -332.29569   -494.67611   -494.67611   -7.5348616 -8.9413433e-14 1.7493933e-14 -4.6650487e-14   -6.6265683 
      64   -6.6265683       4.1504       4.1504      41.5036            0           -0            0   -332.04129   -494.45438   -494.45438   -7.2151078 2.1381473e-14            0 -3.1100325e-14   -6.6265683 
      65   -6.6265683       4.1504       4.1504      41.5036            0           -0            0   -331.79767   -494.24205   -494.24205   -6.9089139 6.0256879e-14 7.7750812e-15 -1.9437703e-14   -6.6265683 
      66   -6.6265683       4.1504       4.1504      41.5036            0           -0            0   -331.56439   -494.03873   -494.03873   -6.6157054 -2.5269014e-14 2.3325243e-14 -3.8875406e-14   -6.6265683 
      67   -6.6265683       4.1504       4.1504      41.5036            0           -0            0     -331.341   -493.84403   -493.84403   -6.3349326 1.3606392e-14 -4.8594257e-14 2.1381473e-14   -6.6265683 
      68   -6.6265683       4.1504       4.1504      41.5036            0           -0            0   -331.12708   -493.65759   -493.65759   -6.0660685 3.6931636e-14 -3.8875406e-15 -3.4987865e-14   -6.6265683 
      69   -6.6265683       4.1504       4.1504      41.5036            0           -0            0   -330.92224   -493.47905   -493.47905   -5.8086088 5.8313109e-15 -5.0538028e-14 1.3606392e-14   -6.6265683 
      70   -6.6265684       4.1504       4.1504      41.5036            0           -0            0   -330.72608   -493.30808   -493.30808   -5.5620701 1.9437703e-15 3.8875406e-14 -9.7188515e-15   -6.6265684 
      71   -6.6265684       4.1504       4.1504      41.5036            0           -0            0   -330.53824   -493.14437   -493.14437   -5.3259899 -4.2762946e-14 3.1100325e-14 1.9437703e-14   -6.6265684 
      72   -6.6265684       4.1504       4.1504      41.5036            0           -0            0   -330.35837    -492.9876    -492.9876   -5.0999248 4.6650487e-14 1.1662622e-14 -3.3044095e-14   -6.6265684 
      73   -6.6265684       4.1504       4.1504      41.5036            0           -0            0   -330.18614   -492.83748   -492.83748   -4.8834505 -1.5550162e-14 -7.7750812e-14 1.3606392e-14   -6.6265684 
      74   -6.6265684       4.1504       4.1504      41.5036            0           -0            0   -330.02121   -492.69373   -492.69373   -4.6761604 -6.608819e-14 2.7212784e-14 -6.997573e-14   -6.6265684 
      75   -6.6265684       4.1504       4.1504      41.5036            0           -0            0   -329.86327   -492.55607   -492.55607   -4.4776653 -1.1662622e-14 4.4706717e-14 5.0538028e-14   -6.6265684 
      76   -6.6265684       4.1504       4.1504      41.5036            0           -0            0   -329.71204   -492.42426   -492.42426   -4.2875923 7.7750812e-15 -2.5269014e-14 7.7750812e-15   -6.6265684 
      77   -6.6265684       4.1504       4.1504      41.5036            0           -0            0   -329.56722   -492.29804   -492.29804   -4.1055844 -2.9156554e-14 7.3863271e-14 7.7750812e-15   -6.6265684 
      78   -6.6265684       4.1504       4.1504      41.5036            0           -0            0   -329.42855   -492.17717   -492.17717   -3.9312997 -1.7493933e-14 -1.3606392e-14 -8.1638352e-14   -6.6265684 
      79   -6.6265684       4.1504       4.1504      41.5036            0           -0            0   -329.29576   -492.06144   -492.06144   -3.7644107 -2.1381473e-14 7.7750812e-15 -1.9437703e-15   -6.6265684 
      80   -6.6265684       4.1504       4.1504      41.5036            0           -0            0   -329.16861   -491.95061   -491.95061   -3.6046037 1.9437703e-14 3.8875406e-15 -1.3606392e-14   -6.6265684 
      81   -6.6265684       4.1504       4.1504      41.5036            0           -0            0   -329.04685   -491.84448   -491.84448   -3.4515785 2.1381473e-14 3.8875406e-15 5.0538028e-14   -6.6265684 
      82   -6.6265684       4.1504       4.1504      41.5036            0           -0            0   -328.93026   -491.74286   -491.74286   -3.3050475 -7.7750812e-15 1.1662622e-14 1.9437703e-14   -6.6265684 
      83   -6.6265684       4.1504       4.1504      41.5036            0           -0            0   -328.81861   -491.64555   -491.64555   -3.1647352 5.2481798e-14 4.4706717e-14 1.9437703e-14   -6.6265684 
      84   -6.6265684       4.1504       4.1504      41.5036            0           -0            0   -328.71171   -491.55238   -491.55238   -3.0303779 4.8594257e-14 1.5550162e-14 -4.0819176e-14   -6.6265684 
      85   -6.6265684       4.1504       4.1504      41.5036            0           -0            0   -328.60934   -491.46315   -491.46315    -2.901723 2.9156554e-14 5.8313109e-15 2.3325243e-14   -6.6265684 
      86   -6.6265684       4.1504       4.1504      41.5036            0           -0            0   -328.51132   -491.37771   -491.37771   -2.7785287 -6.997573e-14 1.9437703e-14 6.2200649e-14   -6.6265684 
      87   -6.6265684       4.1504       4.1504      41.5036            0           -0            0   -328.41746    -491.2959    -491.2959   -2.6605632 -7.1919501e-14 -7.7750812e-15 -1.9437703e-15   -6.6265684 
      88   -6.6265684       4.1504       4.1504      41.5036            0           -0            0   -328.32758   -491.21756   -491.21756   -2.5476048 5.8313109e-15 1.7493933e-14            0   -6.6265684 
      89   -6.6265684       4.1504       4.1504      41.5036            0           -0            0   -328.24151   -491.14255   -491.14255    -2.439441 -3.8875406e-15 -1.7493933e-14            0   -6.6265684 
      90   -6.6265684       4.1504       4.1504      41.5036            0           -0            0    -328.1591   -491.07072   -491.07072   -2.3358685 1.7493933e-14 -2.3325243e-14 -1.9437703e-15   -6.6265684 
      91   -6.6265684       4.1504       4.1504      41.5036            0           -0            0   -328.08019   -491.00193   -491.00193   -2.2366924 8.7469663e-14 2.1381473e-14 2.1381473e-14   -6.6265684 
      92   -6.6265684       4.1504       4.1504      41.5036            0           -0            0   -328.00462   -490.93607   -490.93607   -2.1417262 -5.4425568e-14 3.8875406e-14 5.0538028e-14   -6.6265684 
      93   -6.6265684       4.1504       4.1504      41.5036            0           -0            0   -327.93227     -490.873     -490.873   -2.0507913 -5.6369338e-14 1.5550162e-14 6.414442e-14   -6.6265684 
      94   -6.6265684       4.1504       4.1504      41.5036            0           -0            0   -327.86298   -490.81261   -490.81261   -1.9637165 -1.5938916e-13 3.6931636e-14 2.5269014e-14   -6.6265684 
      95   -6.6265684       4.1504       4.1504      41.5036            0           -0            0   -327.79664   -490.75479   -490.75479   -1.8803382 -1.9437703e-15 -3.6931636e-14 -3.8875406e-14   -6.6265684 
      96   -6.6265684       4.1504       4.1504      41.5036            0           -0            0   -327.73311   -490.69942   -490.69942   -1.8004995 5.8313109e-15 -5.2481798e-14 -3.8875406e-14   -6.6265684 
      97   -6.6265684       4.1504       4.1504      41.5036            0           -0            0   -327.67228    -490.6464    -490.6464   -1.7240501 1.9437703e-15 3.8875406e-15 -2.7212784e-14   -6.6265684 
      98   -6.6265684       4.1504       4.1504      41.5036            0           -0            0   -327.61403   -490.59563   -490.59563   -1.6508462 1.9437703e-14 -3.8875406e-15 -1.1662622e-14   -6.6265684 
      99   -6.6265684       4.1504       4.1504      41.5036            0           -0            0   -327.55826   -490.54701   -490.54701   -1.5807501 -3.3044095e-14 -7.5807041e-14 -1.5550162e-14   -6.6265684 
     100   -6.6265684       4.1504       4.1504      41.5036            0           -0            0   -327.50485   -490.50046   -490.50046   -1.5136298 5.8313109e-14 1.1662622e-14 -1.3606392e-14   -6.6265684 
     101   -6.6265684       4.1504       4.1504      41.5036            0           -0            0   -327.45371   -490.45588   -490.45588   -1.4493592 -1.7493933e-14            0 2.7212784e-14   -6.6265684 
     102   -6.6265684       4.1504       4.1504      41.5036            0           -0            0   -327.40474    -490.4132    -490.4132   -1.3878171 -9.9132285e-14 1.5550162e-14 2.5269014e-14   -6.6265684 
     103   -6.6265684       4.1504       4.1504      41.5036            0           -0            0   -327.35785   -490.37233   -490.37233   -1.3288879 -2.1381473e-14 -1.9437703e-14 -2.3325243e-14   -6.6265684 
     104   -6.6265685       4.1504       4.1504      41.5036            0           -0            0   -327.31295    -490.3332    -490.3332   -1.2724606 4.8594257e-14 4.8594257e-14 1.1662622e-14   -6.6265685 
     105   -6.6265685       4.1504       4.1504      41.5036            0           -0            0   -327.26996   -490.29572   -490.29572    -1.218429 -8.1638352e-14 3.8875406e-15 -2.7212784e-14   -6.6265685 
     106   -6.6265685       4.1504       4.1504      41.5036            0           -0            0   -327.22879   -490.25984   -490.25984   -1.1666915 -1.9437703e-15 4.6650487e-14 -7.3863271e-14   -6.6265685 
     107   -6.6265685       4.1504       4.1504      41.5036            0           -0            0   -327.18937   -490.22548   -490.22548   -1.1171506 -1.049636e-13 -4.8594257e-14 9.3300974e-14   -6.6265685 
     108   -6.6265685       4.1504       4.1504      41.5036            0           -0            0   -327.15162   -490.19258   -490.19258   -1.0697132 -4.2762946e-14 9.7188515e-15            0   -6.6265685 
     109   -6.6265685       4.1504       4.1504      41.5036            0           -0            0   -327.11548   -490.16107   -490.16107   -1.0242898 3.4987865e-14 -6.608819e-14 -2.1381473e-14   -6.6265685 
     110   -6.6265685       4.1504       4.1504      41.5036            0           -0            0   -327.08087   -490.13091   -490.13091   -0.9807951 -1.0885114e-13 -2.5269014e-14 2.7212784e-14   -6.6265685 
     111   -6.6265685       4.1504       4.1504      41.5036            0           -0            0   -327.04773   -490.10202   -490.10202  -0.93914714 1.1856999e-13 1.3606392e-14 5.0538028e-14   -6.6265685 
     112   -6.6265685       4.1504       4.1504      41.5036            0           -0            0     -327.016   -490.07436   -490.07436  -0.89926753 5.8313109e-15 1.5550162e-14 -5.0538028e-14   -6.6265685 
     113   -6.6265685       4.1504       4.1504      41.5036            0           -0            0   -326.98561   -490.04788   -490.04788  -0.86108121 -1.3606392e-14 -4.2762946e-14 -9.7188515e-15   -6.6265685 
     114   -6.6265685       4.1504       4.1504      41.5036            0           -0            0   -326.95652   -490.02252   -490.02252  -0.82451629 8.5525893e-14 5.8313109e-15 -5.0538028e-14   -6.6265685 
     115   -6.6265685       4.1504       4.1504      41.5036            0           -0            0   -326.92866   -489.99824   -489.99824  -0.78950394 -1.244013e-13 3.8875406e-15 -4.0819176e-14   -6.6265685 
     116   -6.6265685       4.1504       4.1504      41.5036            0           -0            0   -326.90198   -489.97498   -489.97498  -0.75597825 -2.3325243e-14 -5.2481798e-14 3.4987865e-14   -6.6265685 
     117   -6.6265685       4.1504       4.1504      41.5036            0           -0            0   -326.87644   -489.95272   -489.95272  -0.72387609 3.6931636e-14 1.1662622e-14 -1.1662622e-14   -6.6265685 
     118   -6.6265685       4.1504       4.1504      41.5036            0           -0            0   -326.85198    -489.9314    -489.9314  -0.69313704 -1.7493933e-14 -1.9437703e-14 6.2200649e-14   -6.6265685 
     119   -6.6265685       4.1504       4.1504      41.5036            0           -0            0   -326.82856   -489.91098   -489.91098  -0.66370322 1.049636e-13 -3.8875406e-15 -8.3582123e-14   -6.6265685 
     120   -6.6265685       4.1504       4.1504      41.5036            0           -0            0   -326.80613   -489.89144   -489.89144  -0.63551921 5.6369338e-14 -5.4425568e-14 2.9156554e-14   -6.6265685 
     121   -6.6265685       4.1504       4.1504      41.5036            0           -0            0   -326.78466   -489.87272   -489.87272  -0.60853196 -9.7188515e-15 -1.9437703e-14 -5.8313109e-15   -6.6265685 
     122   -6.6265685       4.1504       4.1504      41.5036            0           -0            0   -326.76409    -489.8548    -489.8548  -0.58269065 -5.8313109e-15 1.9437703e-15 1.7493933e-14   -6.6265685 
     123   -6.6265685       4.1504       4.1504      41.5036            0           -0            0   -326.74441   -489.83763   -489.83763  -0.55794663 -3.6931636e-14 -3.8875406e-15 5.8313109e-14   -6.6265685 
     124   -6.6265685       4.1504       4.1504      41.5036            0           -0            0   -326.72555    -489.8212    -489.8212  -0.53425332 -1.3606392e-14            0 5.0538028e-14   -6.6265685 
     125   -6.6265685       4.1504       4.1504      41.5036            0           -0            0    -326.7075   -489.80547   -489.80547  -0.51156609 4.8594257e-14 1.1662622e-14 -6.0256879e-14   -6.6265685 
     126   -6.6265685       4.1504       4.1504      41.5036            0           -0            0   -326.69021    -489.7904    -489.7904  -0.48984223 -2.3325243e-14 3.3044095e-14 2.7212784e-14   -6.6265685 
     127   -6.6265685       4.1504       4.1504      41.5036            0           -0            0   -326.67366   -489.77597   -489.77597  -0.46904085 -2.9156554e-14 -5.8313109e-15 9.7188515e-15   -6.6265685 
     128   -6.6265685       4.1504       4.1504      41.5036            0           -0            0   -326.65781   -489.76216   -489.76216  -0.44912276 -9.3300974e-14 3.6931636e-14 4.2762946e-14   -6.6265685 
     129   -6.6265685       4.1504       4.1504      41.5036            0           -0            0   -326.64264   -489.74893   -489.74893  -0.43005047 -5.8313109e-14 -3.6931636e-14 3.8875406e-14   -6.6265685 
     130   -6.6265685       4.1504       4.1504      41.5036            0           -0            0    -326.6281   -489.73626   -489.73626  -0.41178806 4.2762946e-14 -3.8875406e-15 1.1662622e-14   -6.6265685 
     131   -6.6265685       4.1504       4.1504      41.5036            0           -0            0   -326.61419   -489.72413   -489.72413  -0.39430115 2.5269014e-14 -5.8313109e-15 1.9437703e-14   -6.6265685 
     132   -6.6265685       4.1504       4.1504      41.5036            0           -0            0   -326.60087   -489.71252   -489.71252  -0.37755681 -4.8594257e-14 -3.4987865e-14 -1.5550162e-14   -6.6265685 
     133   -6.6265685       4.1504       4.1504      41.5036            0           -0            0   -326.58811    -489.7014    -489.7014   -0.3615235 -1.4772654e-13 3.8875406e-15 -3.8875406e-14   -6.6265685 
     134   -6.6265685       4.1504       4.1504      41.5036            0           -0            0   -326.57589   -489.69075   -489.69075  -0.34617104 1.7493933e-14 -1.1662622e-14 3.6931636e-14   -6.6265685 
     135   -6.6265685       4.1504       4.1504      41.5036            0           -0            0   -326.56419   -489.68056   -489.68056  -0.33147052 6.414442e-14 5.8313109e-15 -5.8313109e-15   -6.6265685 
     136   -6.6265685       4.1504       4.1504      41.5036            0           -0            0   -326.55299   -489.67079   -489.67079  -0.31739425 -9.7188515e-15 -4.0819176e-14            0   -6.6265685 
     137   -6.6265685       4.1504       4.1504      41.5036            0           -0            0   -326.54227   -489.66145   -489.66145  -0.30391572 3.6931636e-14 -5.8313109e-15 4.6650487e-14   -6.6265685 
     138   -6.6265685       4.1504       4.1504      41.5036            0           -0            0     -326.532   -489.65249   -489.65249  -0.29100956            0 2.1381473e-14 3.8875406e-14   -6.6265685 
     139   -6.6265685       4.1504       4.1504      41.5036            0           -0            0   -326.52217   -489.64392   -489.64392  -0.27865146 1.5550162e-14 -3.8875406e-15 2.7212784e-14   -6.6265685 
     140   -6.6265685       4.1504       4.1504      41.5036            0           -0            0   -326.51275   -489.63572   -489.63572  -0.26681815 -2.5269014e-14 -3.8875406e-14            0   -6.6265685 
     141   -6.6265685       4.1504       4.1504      41.5036            0           -0            0   -326.50373   -489.62786   -489.62786  -0.25548735 -9.9132285e-14 -1.3606392e-14 4.8594257e-14   -6.6265685 
     142   -6.6265685       4.1504       4.1504      41.5036            0           -0            0    -326.4951   -489.62033   -489.62033  -0.24463771 2.7212784e-14 1.7493933e-14 6.997573e-14   -6.6265685 
     143   -6.6265685       4.1504       4.1504      41.5036            0           -0            0   -326.48683   -489.61313   -489.61313   -0.2342488 4.6650487e-14 3.3044095e-14 2.7212784e-14   -6.6265685 
     144   -6.6265685       4.1504       4.1504      41.5036            0           -0            0   -326.47892   -489.60623   -489.60623  -0.22430107 7.7750812e-15 -2.9156554e-14 -7.7750812e-15   -6.6265685 
     145   -6.6265685       4.1504       4.1504      41.5036            0           -0            0   -326.47134   -489.59962   -489.59962  -0.21477577 3.4987865e-14 6.414442e-14 -5.6369338e-14   -6.6265685 
     146   -6.6265685       4.1504       4.1504      41.5036            0           -0            0   -326.46408   -489.59329   -489.59329  -0.20565497 -7.1919501e-14 -5.4425568e-14 -2.3325243e-14   -6.6265685 
     147   -6.6265685       4.1504       4.1504      41.5036            0           -0            0   -326.45713   -489.58724   -489.58724   -0.1969215 -1.7493933e-14 3.4987865e-14 -5.8313109e-15   -6.6265685 
     148   -6.6265685       4.1504       4.1504      41.5036            0           -0            0   -326.45048   -489.58144   -489.58144  -0.18855889 4.0819176e-14 3.4987865e-14 -5.8313109e-15   -6.6265685 
     149   -6.6265685       4.1504       4.1504      41.5036            0           -0            0   -326.44411   -489.57588   -489.57588  -0.18055142            0 -3.4987865e-14 3.6931636e-14   -6.6265685 
     150   -6.6265685       4.1504       4.1504      41.5036            0           -0            0     -326.438   -489.57057   -489.57057  -0.17288398 2.5269014e-14 -1.9437703e-15 2.5269014e-14   -6.6265685 
     151   -6.6265685       4.1504       4.1504      41.5036            0           -0            0   -326.43216   -489.56547   -489.56547  -0.16554216 4.8594257e-14 -3.6931636e-14 5.4425568e-14   -6.6265685 
     152   -6.6265685       4.1504       4.1504      41.5036            0           -0            0   -326.42657    -489.5606    -489.5606  -0.15851211 -3.4987865e-14 -3.8875406e-15 7.7750812e-15   -6.6265685 
     153   -6.6265685       4.1504       4.1504      41.5036            0           -0            0   -326.42121   -489.55593   -489.55593   -0.1517806 9.1357204e-14 1.7493933e-14 1.9437703e-14   -6.6265685 
     154   -6.6265685       4.1504       4.1504      41.5036            0           -0            0   -326.41608   -489.55146   -489.55146  -0.14533495 1.1662622e-14 9.7188515e-15 2.1381473e-14   -6.6265685 
     155   -6.6265685       4.1504       4.1504      41.5036            0           -0            0   -326.41117   -489.54718   -489.54718  -0.13916303 4.0819176e-14 2.3325243e-14 -1.1662622e-14   -6.6265685 
     156   -6.6265685       4.1504       4.1504      41.5036            0           -0            0   -326.40647   -489.54308   -489.54308   -0.1332532 -1.9437703e-14 1.9437703e-15 -2.1381473e-14   -6.6265685 
     157   -6.6265685       4.1504       4.1504      41.5036            0           -0            0   -326.40197   -489.53915   -489.53915  -0.12759435 -3.8875406e-14 1.9437703e-14 -6.2200649e-14   -6.6265685 
     158   -6.6265685       4.1504       4.1504      41.5036            0           -0            0   -326.39766    -489.5354    -489.5354   -0.1221758 -8.3582123e-14 5.8313109e-15 5.8313109e-15   -6.6265685 
     159   -6.6265685       4.1504       4.1504      41.5036            0           -0            0   -326.39353    -489.5318    -489.5318  -0.11698736 -8.9413433e-14 -3.8875406e-15 3.3044095e-14   -6.6265685 
     160   -6.6265685       4.1504       4.1504      41.5036            0           -0            0   -326.38957   -489.52835   -489.52835  -0.11201926 -3.4987865e-14 5.8313109e-15 -2.5269014e-14   -6.6265685 
     161   -6.6265685       4.1504       4.1504      41.5036            0           -0            0   -326.38579   -489.52505   -489.52505  -0.10726213 5.8313109e-14 -1.5550162e-14 -3.6931636e-14   -6.6265685 
     162   -6.6265685       4.1504       4.1504      41.5036            0           -0            0   -326.38216   -489.52189   -489.52189  -0.10270703 5.8313109e-14 4.2762946e-14 -2.3325243e-14   -6.6265685 
     163   -6.6265685       4.1504       4.1504      41.5036            0           -0            0   -326.37869   -489.51887   -489.51887 -0.098345361 6.803196e-14 -4.4706717e-14 -9.7188515e-15   -6.6265685 
     164   -6.6265685       4.1504       4.1504      41.5036            0           -0            0   -326.37537   -489.51597   -489.51597 -0.094168919 -1.9437703e-15 -3.8875406e-15 -1.1662622e-14   -6.6265685 
     165   -6.6265685       4.1504       4.1504      41.5036            0           -0            0   -326.37219    -489.5132    -489.5132 -0.090169838 -2.1381473e-14 3.6931636e-14 -1.9437703e-14   -6.6265685 
     166   -6.6265685       4.1504       4.1504      41.5036            0           -0            0   -326.36914   -489.51054   -489.51054 -0.086340584 -3.8875406e-14 -1.1662622e-14 -4.8594257e-14   -6.6265685 
     167   -6.6265685       4.1504       4.1504      41.5036            0           -0            0   -326.36622     -489.508     -489.508 -0.082673947 -3.6931636e-14 4.4706717e-14 -1.7493933e-14   -6.6265685 
     168   -6.6265685       4.1504       4.1504      41.5036            0           -0            0   -326.36343   -489.50556   -489.50556  -0.07916302 -8.1638352e-14 2.7212784e-14 -1.9437703e-15   -6.6265685 
     169   -6.6265685       4.1504       4.1504      41.5036            0           -0            0   -326.36075   -489.50323   -489.50323 -0.075801191 1.3606392e-14 3.4987865e-14 3.3044095e-14   -6.6265685 
     170   -6.6265685       4.1504       4.1504      41.5036            0           -0            0   -326.35819     -489.501     -489.501 -0.072582128 -5.0538028e-14 6.803196e-14 9.7188515e-15   -6.6265685 
     171   -6.6265685       4.1504       4.1504      41.5036            0           -0            0   -326.35574   -489.49886   -489.49886 -0.069499768 -5.2481798e-14            0 3.3044095e-14   -6.6265685 
     172   -6.6265685       4.1504       4.1504      41.5036            0           -0            0   -326.35339   -489.49681   -489.49681 -0.066548307 -1.9437703e-14 -3.3044095e-14            0   -6.6265685 
     173   -6.6265685       4.1504       4.1504      41.5036            0           -0            0   -326.35114   -489.49485   -489.49485 -0.063722186            0 -1.9437703e-15 3.3044095e-14   -6.6265685 
     174   -6.6265685       4.1504       4.1504      41.5036            0           -0            0   -326.34899   -489.49298   -489.49298 -0.061016081 -7.7750812e-15 2.1381473e-14 8.3582123e-14   -6.6265685 
     175   -6.6265685       4.1504       4.1504      41.5036            0           -0            0   -326.34693   -489.49118   -489.49118 -0.058424896 6.608819e-14 -5.2481798e-14 4.4706717e-14   -6.6265685 
     176   -6.6265685       4.1504       4.1504      41.5036            0           -0            0   -326.34495   -489.48946   -489.48946 -0.055943752 2.7212784e-14 -2.1381473e-14 5.0538028e-14   -6.6265685 
     177   -6.6265685       4.1504       4.1504      41.5036            0           -0            0   -326.34306   -489.48781   -489.48781 -0.053567974 5.8313109e-15 -1.9437703e-14 5.8313109e-15   -6.6265685 
     178   -6.6265685       4.1504       4.1504      41.5036            0           -0            0   -326.34125   -489.48623   -489.48623 -0.051293088 1.9437703e-15 1.1662622e-14 6.608819e-14   -6.6265685 
     179   -6.6265685       4.1504       4.1504      41.5036            0           -0            0   -326.33952   -489.48472   -489.48472  -0.04911481 -7.7750812e-15 -1.9437703e-15 4.8594257e-14   -6.6265685 
     180   -6.6265685       4.1504       4.1504      41.5036            0           -0            0   -326.33786   -489.48327   -489.48327 -0.047029037 -5.2481798e-14 -3.8875406e-14 -7.7750812e-15   -6.6265685 
     181   -6.6265685       4.1504       4.1504      41.5036            0           -0            0   -326.33627   -489.48189   -489.48189 -0.045031841 1.963208e-13 -9.7188515e-15 -3.1100325e-14   -6.6265685 
     182   -6.6265685       4.1504       4.1504      41.5036            0           -0            0   -326.33475   -489.48056   -489.48056  -0.04311946 3.8875406e-15 -3.8875406e-15 -1.9437703e-14   -6.6265685 
     183   -6.6265685       4.1504       4.1504      41.5036            0           -0            0   -326.33329   -489.47929   -489.47929 -0.041288292 -9.9132285e-14 1.9437703e-14 7.7750812e-15   -6.6265685 
     184   -6.6265685       4.1504       4.1504      41.5036            0           -0            0    -326.3319   -489.47808   -489.47808 -0.039534889 6.997573e-14 1.5550162e-14 -5.8313109e-14   -6.6265685 
     185   -6.6265685       4.1504       4.1504      41.5036            0           -0            0   -326.33056   -489.47691   -489.47691 -0.037855948 1.3606392e-14 -3.3044095e-14 7.7750812e-15   -6.6265685 
     186   -6.6265685       4.1504       4.1504      41.5036            0           -0            0   -326.32928    -489.4758    -489.4758 -0.036248306 1.7493933e-14 3.8875406e-15 8.5525893e-14   -6.6265685 
     187   -6.6265685       4.1504       4.1504      41.5036            0           -0            0   -326.32806   -489.47473   -489.47473 -0.034708937 -7.3863271e-14 4.6650487e-14 1.9437703e-15   -6.6265685 
     188   -6.6265685       4.1504       4.1504      41.5036            0           -0            0   -326.32688   -489.47371   -489.47371 -0.033234941 3.8875406e-14 -5.8313109e-15 -2.1381473e-14   -6.6265685 
     189   -6.6265685       4.1504       4.1504      41.5036            0           -0            0   -326.32576   -489.47273   -489.47273 -0.031823541 9.7188515e-14 -1.1662622e-14 5.8313109e-15   -6.6265685 
     190   -6.6265685       4.1504       4.1504      41.5036            0           -0            0   -326.32468   -489.47179   -489.47179 -0.030472079 6.2200649e-14 1.9437703e-15 -7.7750812e-15   -6.6265685 
     191   -6.6265685       4.1504       4.1504      41.5036            0           -0            0   -326.32366   -489.47089   -489.47089  -0.02917801 -6.2200649e-14 3.4987865e-14 2.1381473e-14   -6.6265685 
     192   -6.6265685       4.1504       4.1504      41.5036            0           -0            0   -326.32267   -489.47003   -489.47003 -0.027938896 1.9437703e-15 1.1662622e-14 -5.8313109e-15   -6.6265685 
     193   -6.6265685       4.1504       4.1504      41.5036            0           -0            0   -326.32173   -489.46921   -489.46921 -0.026752405 1.5550162e-14 -1.3606392e-14 9.7188515e-15   -6.6265685 
     194   -6.6265685       4.1504       4.1504      41.5036            0           -0            0   -326.32082   -489.46842   -489.46842   -0.0256163 5.0538028e-14 -4.2762946e-14 -5.8313109e-14   -6.6265685 
     195   -6.6265685       4.1504       4.1504      41.5036            0           -0            0   -326.31996   -489.46767   -489.46767 -0.024528443 3.1100325e-14 3.8875406e-15 -3.8875406e-14   -6.6265685 
     196   -6.6265685       4.1504       4.1504      41.5036            0           -0            0   -326.31913   -489.46695   -489.46695 -0.023486784 -5.6369338e-14 2.3325243e-14 -2.1381473e-14   -6.6265685 
     197   -6.6265685       4.1504       4.1504      41.5036            0           -0            0   -326.31833   -489.46625   -489.46625 -0.022489361 4.6650487e-14 -6.608819e-14 1.3606392e-14   -6.6265685 
     198   -6.6265685       4.1504       4.1504      41.5036            0           -0            0   -326.31757   -489.46559   -489.46559 -0.021534297 5.8313109e-15 -9.7188515e-15 1.9437703e-14   -6.6265685 
     199   -6.6265685       4.1504       4.1504      41.5036            0           -0            0   -326.31685   -489.46496   -489.46496 -0.020619791 8.1638352e-14 -2.7212784e-14 -1.5550162e-14   -6.6265685 
     200   -6.6265685       4.1504       4.1504      41.5036            0           -0            0   -326.31615   -489.46435   -489.46435 -0.019744122 6.997573e-14 -5.8313109e-15 -1.9437703e-14   -6.6265685 
     201   -6.6265685       4.1504       4.1504      41.5036            0           -0            0   -326.31548   -489.46377   -489.46377  -0.01890564 5.0538028e-14 2.1381473e-14 -6.608819e-14   -6.6265685 
     202   -6.6265685       4.1504       4.1504      41.5036            0           -0            0   -326.31484   -489.46321   -489.46321 -0.018102767 -9.9132285e-14 -9.7188515e-15 -3.3044095e-14   -6.6265685 
     203   -6.6265685       4.1504       4.1504      41.5036            0           -0            0   -326.31423   -489.46268   -489.46268 -0.017333989 2.3325243e-14 -2.1381473e-14 7.3863271e-14   -6.6265685 
     204   -6.6265685       4.1504       4.1504      41.5036            0           -0            0   -326.31364   -489.46217   -489.46217 -0.016597859 1.3606392e-14 -2.1381473e-14 2.5269014e-14   -6.6265685 
     205   -6.6265685       4.1504       4.1504      41.5036            0           -0            0   -326.31308   -489.46168   -489.46168 -0.015892991 1.0301983e-13 9.7188515e-15            0   -6.6265685 
     206   -6.6265685       4.1504       4.1504      41.5036            0           -0            0   -326.31255   -489.46121   -489.46121 -0.015218056 -3.8875406e-15 -5.2481798e-14 1.1662622e-14   -6.6265685 
     207   -6.6265685       4.1504       4.1504      41.5036            0           -0            0   -326.31203   -489.46076   -489.46076 -0.014571785 -2.5269014e-14 -1.3606392e-14 3.1100325e-14   -6.6265685 
     208   -6.6265685       4.1504       4.1504      41.5036            0           -0            0   -326.31154   -489.46033   -489.46033 -0.013952958 -3.8875406e-14 -7.7750812e-15 3.1100325e-14   -6.6265685 
     209   -6.6265685       4.1504       4.1504      41.5036            0           -0            0   -326.31107   -489.45992   -489.45992 -0.013360412 -1.1662622e-14 -2.9156554e-14 -1.9437703e-14   -6.6265685 
     210   -6.6265685       4.1504       4.1504      41.5036            0           -0            0   -326.31062   -489.45953   -489.45953 -0.012793029 -5.0538028e-14 4.6650487e-14 -1.1662622e-14   -6.6265685 
     211   -6.6265685       4.1504       4.1504      41.5036            0           -0            0   -326.31018   -489.45915   -489.45915 -0.012249742 1.5744539e-13 1.5550162e-14 2.3325243e-14   -6.6265685 
     212   -6.6265685       4.1504       4.1504      41.5036            0           -0            0   -326.30977   -489.45879   -489.45879 -0.011729527 5.8313109e-15 -2.3325243e-14 -9.7188515e-15   -6.6265685 
     213   -6.6265685       4.1504       4.1504      41.5036            0           -0            0   -326.30937   -489.45845   -489.45845 -0.011231404 -2.1381473e-14 -2.5269014e-14 5.8313109e-15   -6.6265685 
     214   -6.6265685       4.1504       4.1504      41.5036            0           -0            0   -326.30937   -489.45845   -489.45845 -0.011231404 -2.1381473e-14 -2.5269014e-14 5.8313109e-15   -6.6265685 
Loop time of 0.0603669 on 1 procs for 214 steps with 20 atoms

10.1% CPU use with 1 MPI tasks x no OpenMP threads

Minimization stats:
  Stopping criterion = linesearch alpha is zero
  Energy initial, next-to-last, final = 
        -6.62551290708     -6.62656845554     -6.62656845554
  Force two-norm initial, final = 0.0422431 1.89686e-07
  Force max component initial, final = 0.0153871 5.87572e-08
  Final line search alpha, max atom move = 0.5 2.93786e-08
  Iterations, force evaluations = 214 216

MPI task timing breakdown:
Section |  min time  |  avg time  |  max time  |%varavg| %total
---------------------------------------------------------------
Pair    | 0.0033247  | 0.0033247  | 0.0033247  |   0.0 |  5.51
Neigh   | 0          | 0          | 0          |   0.0 |  0.00
Comm    | 0.00031161 | 0.00031161 | 0.00031161 |   0.0 |  0.52
Output  | 0.056458   | 0.056458   | 0.056458   |   0.0 | 93.52
Modify  | 0          | 0          | 0          |   0.0 |  0.00
Other   |            | 0.000273   |            |       |  0.45

Nlocal:    20 ave 20 max 20 min
Histogram: 1 0 0 0 0 0 0 0 0 0
Nghost:    299 ave 299 max 299 min
Histogram: 1 0 0 0 0 0 0 0 0 0
Neighs:    376 ave 376 max 376 min
Histogram: 1 0 0 0 0 0 0 0 0 0

Total # of neighbors = 376
Ave neighs/atom = 18.8
Neighbor list builds = 0
Dangerous builds = 0
pypospack:output_section:begin
tot_energy = -6.62656845554491
num_atoms = 20
a11 = 4.1504
a22 = 4.1504
a33 = 41.5036
a12 = 0
a13 = -0
a23 = 0
tot_press = -326.30937462875
pxx = -489.458446241114
pyy = -489.458446241114
pzz = -0.0112314040215459
pxy = -2.13814731989529e-14
pxz = -2.52690137805807e-14
pyz = 5.83131087244171e-15
pypospack:output_section:done
pypospack:lammps_sim:done
Total wall time: 0:00:00
