# ['Ni']

20 atoms
1 atom types

    0.0000     3.5138 xlo xhi
    0.0000     3.5138 ylo yhi
    0.0000    35.1376 zlo zhi

    0.0000    -0.0000     0.0000 xy xz yz

Atoms

1 1     0.0000     0.0000     0.0000
2 1     1.7569     1.7569     0.0000
3 1     1.7569     0.0000     1.7569
4 1     0.0000     1.7569     1.7569
5 1     0.0000     0.0000     3.5138
6 1     1.7569     1.7569     3.5138
7 1     1.7569     0.0000     5.2706
8 1     0.0000     1.7569     5.2706
9 1     0.0000     0.0000     7.0275
10 1     1.7569     1.7569     7.0275
11 1     1.7569     0.0000     8.7844
12 1     0.0000     1.7569     8.7844
13 1     0.0000     0.0000    10.5413
14 1     1.7569     1.7569    10.5413
15 1     1.7569     0.0000    12.2982
16 1     0.0000     1.7569    12.2982
17 1     0.0000     0.0000    14.0550
18 1     1.7569     1.7569    14.0550
19 1     1.7569     0.0000    15.8119
20 1     0.0000     1.7569    15.8119
