# ['Ni']

20 atoms
1 atom types

    0.0000     3.5139 xlo xhi
    0.0000     3.5139 ylo yhi
    0.0000    35.1395 zlo zhi

    0.0000    -0.0000     0.0000 xy xz yz

Atoms

1 1     0.0000     0.0000     0.0000
2 1     1.7570     1.7570     0.0000
3 1     1.7570     0.0000     1.7570
4 1     0.0000     1.7570     1.7570
5 1     0.0000     0.0000     3.5139
6 1     1.7570     1.7570     3.5139
7 1     1.7570     0.0000     5.2709
8 1     0.0000     1.7570     5.2709
9 1     0.0000     0.0000     7.0279
10 1     1.7570     1.7570     7.0279
11 1     1.7570     0.0000     8.7849
12 1     0.0000     1.7570     8.7849
13 1     0.0000     0.0000    10.5418
14 1     1.7570     1.7570    10.5418
15 1     1.7570     0.0000    12.2988
16 1     0.0000     1.7570    12.2988
17 1     0.0000     0.0000    14.0558
18 1     1.7570     1.7570    14.0558
19 1     1.7570     0.0000    15.8128
20 1     0.0000     1.7570    15.8128
