# ['Ni']

28 atoms
1 atom types

    0.0000     2.9348 xlo xhi
    0.0000     5.0831 ylo yhi
    0.0000    33.5470 zlo zhi

    0.0000     0.0000     0.0000 xy xz yz

Atoms

1 1     0.0000     0.0000     0.0000
2 1     1.4674     2.5416     0.0000
3 1     1.4674     0.8472     2.3962
4 1     0.0000     3.3888     2.3962
5 1     0.0000     1.6944     4.7924
6 1     1.4674     4.2359     4.7924
7 1     0.0000     0.0000     7.1887
8 1     1.4674     2.5416     7.1887
9 1     1.4674     0.8472     9.5848
10 1     0.0000     3.3888     9.5848
11 1     0.0000     1.6944    11.9811
12 1     1.4674     4.2359    11.9811
13 1     0.0000     0.0000    14.3773
14 1     1.4674     2.5416    14.3773
15 1     0.0000     1.6944    16.7735
16 1     1.4674     4.2359    16.7735
17 1     0.0000     0.0000    19.1697
18 1     1.4674     2.5416    19.1697
19 1     1.4674     0.8472    21.5659
20 1     0.0000     3.3888    21.5659
21 1     0.0000     1.6944    23.9621
22 1     1.4674     4.2359    23.9621
23 1     0.0000     0.0000    26.3583
24 1     1.4674     2.5416    26.3583
25 1     1.4674     0.8472    28.7546
26 1     0.0000     3.3888    28.7546
27 1     0.0000     1.6944    31.1508
28 1     1.4674     4.2359    31.1508
