LAMMPS (11 Aug 2017)
Reading data file ...
  triclinic box = (0 0 0) to (3.6 6.2354 5.8788) with tilt (0 0 0)
  1 by 1 by 1 MPI processor grid
  reading atoms ...
  4 atoms
4 atoms in group Ni
Neighbor list info ...
  update every 1 steps, delay 0 steps, check yes
  max neighbors/atom: 2000, page size: 100000
  master list distance cutoff = 11
  ghost atom cutoff = 11
  binsize = 5.5, bins = 1 2 2
  1 neighbor lists, perpetual/occasional/extra = 1 0 0
  (1) pair eam/alloy, perpetual
      attributes: half, newton on
      pair build: half/bin/newton/tri
      stencil: half/bin/3d/newton/tri
      bin: standard
Setting up cg style minimization ...
  Unit style    : metal
  Current step  : 0
WARNING: Energy due to 3 extra global DOFs will be included in minimizer energies
Per MPI rank memory allocation (min/avg/max) = 4.231 | 4.231 | 4.231 Mbytes
Step PotEng Xhi Xlo Yhi Ylo Zhi Xy Xz Yz Press Pxx Pyy Pzz Pxy Pxz Pyz c_eatoms 
       0   -6.2806794          3.6            0       6.2354            0       5.8788            0            0            0   -123437.17   -123396.67   -123395.71   -123519.11 9.4083579e-12 -9.3858723e-12 -1.3375857e-11   -6.2806794 
      10   -6.5918123    3.5820181  0.017981937    6.2042545  0.031145473     5.849406            0            0            0   -131181.33   -131137.55   -131136.55    -131269.9 -1.0947792e-11 -9.3285089e-13 4.3060939e-11   -6.5918123 
      20   -6.9157057    3.5640366  0.035963393    6.1731099  0.062290117     5.820012            0            0            0   -139285.52    -139238.3   -139237.27   -139380.99 9.6862397e-12 1.0581795e-11 -2.2549044e-11   -6.9157057 
      30   -7.2524906    3.5460556  0.053944387     6.141966  0.093433966     5.790618            0            0            0   -147746.08   -147695.28   -147694.23   -147848.72 -1.8559687e-11 -1.1768262e-11 -5.0724849e-11   -7.2524906 
      40   -7.6022471    3.5280751  0.071924937     6.110823   0.12457705     5.761224            0            0            0   -156544.29   -156489.68    -156488.6   -156654.58 3.2758241e-12 -1.4853266e-11 -9.2639392e-12   -7.6022471 
      50   -7.9649903    3.5100951  0.089904921    6.0796808   0.15571916      5.73183            0            0            0   -165678.27   -165619.17   -165618.06   -165797.58 -3.9244611e-12 2.271829e-11 6.8690796e-11   -7.9649903 
      60   -8.3406643    3.4921157   0.10788426    6.0485398   0.18686016     5.702436            0            0            0   -175128.11   -175064.29   -175063.17   -175256.88 -8.5915486e-13 4.3893906e-11 2.5981635e-11   -8.3406643 
      70   -8.7291265     3.474137   0.12586297    6.0173999   0.21800006     5.673042            0            0            0   -184857.65   -184788.91   -184787.78   -184996.26 2.8744836e-11 -1.4533027e-11 1.1697015e-12   -8.7291265 
      80   -9.1301393    3.4561589   0.14384106    5.9862611   0.24913891     5.643648            0            0            0   -194827.97   -194754.46   -194753.33   -194976.12 -6.6894097e-12 -3.1335413e-11 -2.8791067e-11   -9.1301393 
      90   -9.5433608    3.4381813   0.16181866    5.9551231   0.28027692     5.614254            0            0            0   -205004.29   -204926.21   -204925.09   -205161.58 4.2498446e-12 4.433247e-11 -4.9498521e-11   -9.5433608 
     100    -9.968317    3.4202042   0.17979583    5.9239858   0.31141419      5.58486            0            0            0   -215305.78   -215223.16   -215222.05   -215472.12 -2.5674335e-11 -7.5303726e-11 -4.9208001e-11    -9.968317 
     110   -10.404392    3.4022274   0.19777259    5.8928492   0.34255075     5.555466            0            0            0   -225669.39   -225582.42   -225581.34   -225844.42 3.6298424e-11 3.4431037e-11 5.3684861e-11   -10.404392 
     120   -10.850814     3.384251   0.21574902    5.8617132   0.37368676     5.526072            0            0            0   -236006.21   -235915.28   -235914.23   -236189.12 -1.0577428e-11 1.1576683e-11 2.1140675e-11   -10.850814 
     130   -11.306628    3.3662748   0.23372524    5.8305776    0.4048224     5.496678            0            0            0   -246188.11    -246094.1   -246093.11   -246377.12 -8.8868453e-12 -6.8686221e-12 4.4592683e-11   -11.306628 
     140   -11.770671    3.3482986   0.25170139     5.799442   0.43595795     5.467284            0            0            0    -256090.8   -255994.24   -255993.32   -256284.84 4.0497139e-12 -1.2002457e-11 -4.3081747e-11   -11.770671 
     150   -12.241549    3.3303225   0.26967749    5.7683066   0.46709342      5.43789            0            0            0   -265536.91   -265438.17   -265437.36   -265735.21 4.7778052e-11 8.1947087e-11 6.3178616e-11   -12.241549 
     160   -12.717608    3.3123464   0.28765358    5.7371711   0.49822888     5.408496            0            0            0   -274330.76   -274230.46   -274229.76   -274532.07 2.4723538e-11 1.6949271e-11 3.231633e-11   -12.717608 
     170   -13.196902    3.2943702   0.30562977    5.7060355   0.52936452     5.379102            0            0            0   -282239.46   -282139.18   -282138.62   -282440.56 2.2705613e-11 1.6730081e-11 9.7105022e-11   -13.196902 
     180    -13.67716    3.2763937   0.32360628    5.6748992   0.56050075     5.349708            0            0            0   -288984.31   -288885.61   -288885.22    -289182.1 5.4974239e-11 -2.9678268e-11 -1.8013862e-12    -13.67716 
     190    -14.15575    3.2584167   0.34158327    5.6437622   0.59163782     5.320314            0            0            0   -294220.65   -294124.73   -294124.54   -294412.68 1.0288169e-11 8.6503356e-12 8.5425541e-11    -14.15575 
     200   -14.629629    3.2404392   0.35956075    5.6126242   0.62277577      5.29092            0            0            0   -297574.34   -297482.21   -297482.26   -297758.54 4.8144807e-12 6.7538953e-11 1.6975199e-10   -14.629629 
     210   -15.095304    3.2224611   0.37753894     5.581485   0.65391496     5.261526            0            0            0   -298584.15   -298498.37    -298498.7    -298755.4 3.0226832e-11 -4.3415642e-11 -9.9343793e-11   -15.095304 
     220   -15.548777    3.2044819   0.39551809    5.5503441   0.68505586     5.232132            0            0            0   -296696.29   -296618.96   -296619.61   -296850.29 -7.6506956e-12 7.6435524e-11 8.9250676e-11   -15.548777 
     230   -15.985487    3.1865015   0.41349854     5.519201   0.71619904     5.202738            0            0            0   -291286.94   -291220.97   -291221.99   -291417.87 -6.2658004e-12 6.5254758e-11 8.2981444e-11   -15.985487 
     240   -16.400255    3.1685191   0.43148095    5.4880543   0.74734565     5.173344            0            0            0   -281625.51   -281576.43   -281577.86   -281722.25 -3.8427613e-11 -1.7533936e-11 8.1433808e-11   -16.400255 
     250   -16.787209    3.1505337   0.44946629    5.4569026   0.77849741      5.14395            0            0            0   -266826.13   -266798.05   -266799.96   -266880.38 -1.4333533e-11 -1.9050257e-12 9.4079608e-11   -16.787209 
     260   -17.139699    3.1325444   0.46745557    5.4257439   0.80965605     5.114556            0            0            0   -245934.55   -245930.67   -245933.09   -245939.89 -1.1680931e-11 -7.2096223e-11 -6.1001352e-11   -17.139699 
     270   -17.450222    3.1145496   0.48545042    5.3945755   0.84082446     5.085162            0            0            0    -217726.6   -217751.59   -217754.57   -217673.65 -1.0359013e-10 -2.7873115e-11 6.9266534e-12   -17.450222 
     280   -17.710273    3.0965499   0.50345007    5.3633987   0.87200131    5.0557743            0            0            0   -180793.99    -180851.9   -180855.48   -180674.59 -2.3792739e-12 1.1137912e-10 1.640437e-10   -17.710273 
     290   -17.910271    3.0785504   0.52144964    5.3322217   0.90317831    5.0264108            0            0            0   -133697.36   -133792.05   -133796.22   -133503.82 4.008526e-11 -6.5409316e-11 4.9273414e-11   -17.910271 
     300   -18.039602    3.0605511    0.5394489    5.3010447   0.93435531    4.9971021            0            0            0   -74558.561   -74689.859   -74694.509   -74291.315 8.7624446e-11 1.6597811e-10 -5.0343965e-11   -18.039602 
     310    -18.08651    3.0425539   0.55744608    5.2698677   0.96553231    4.9681332            0            0            0    -1504.745   -1631.0779   -1635.1074   -1248.0497 -5.9087105e-11 5.2649078e-11 -4.1755949e-11    -18.08651 
     320   -18.086528    3.0420373   0.55796272    5.2689717   0.96642834    4.9682018            0            0            0 -1.4185402e-05 3.4003768e-05 4.6423038e-06 -8.1202277e-05 6.7633593e-11 -1.7562974e-11 -4.444598e-11   -18.086528 
     330   -18.086528    3.0420373   0.55796272    5.2689717   0.96642833    4.9682018            0            0            0 3.6340443e-08 7.3287201e-08 2.6373346e-09 3.3096794e-08 6.3849499e-11 1.709912e-10 9.1515839e-11   -18.086528 
     340   -18.086528    3.0420373   0.55796272    5.2689717   0.96642833    4.9682018            0            0            0 -9.9721023e-10 -1.1441877e-09 2.0145375e-09 -3.8619805e-09 -5.8631633e-11 6.1256546e-11 3.2184519e-11   -18.086528 
     347   -18.086528    3.0420373   0.55796272    5.2689717   0.96642833    4.9682018            0            0            0 -1.2531803e-09 -1.1954087e-09 -1.0633309e-09 -1.5008014e-09 1.3185332e-11 -4.6437923e-11 -8.8812099e-11   -18.086528 
Loop time of 0.0311661 on 1 procs for 347 steps with 4 atoms

83.2% CPU use with 1 MPI tasks x no OpenMP threads

Minimization stats:
  Stopping criterion = energy tolerance
  Energy initial, next-to-last, final = 
        -6.28067937343     -18.0865276272     -18.0865276272
  Force two-norm initial, final = 17.6097 8.93879e-14
  Force max component initial, final = 10.1737 5.88561e-14
  Final line search alpha, max atom move = 1 5.88561e-14
  Iterations, force evaluations = 347 384

MPI task timing breakdown:
Section |  min time  |  avg time  |  max time  |%varavg| %total
---------------------------------------------------------------
Pair    | 0.022535   | 0.022535   | 0.022535   |   0.0 | 72.31
Neigh   | 0.00024605 | 0.00024605 | 0.00024605 |   0.0 |  0.79
Comm    | 0.001878   | 0.001878   | 0.001878   |   0.0 |  6.03
Output  | 0.00048614 | 0.00048614 | 0.00048614 |   0.0 |  1.56
Modify  | 0          | 0          | 0          |   0.0 |  0.00
Other   |            | 0.006021   |            |       | 19.32

Nlocal:    4 ave 4 max 4 min
Histogram: 1 0 0 0 0 0 0 0 0 0
Nghost:    1424 ave 1424 max 1424 min
Histogram: 1 0 0 0 0 0 0 0 0 0
Neighs:    848 ave 848 max 848 min
Histogram: 1 0 0 0 0 0 0 0 0 0

Total # of neighbors = 848
Ave neighs/atom = 212
Neighbor list builds = 5
Dangerous builds = 0
pypospack:output_section:begin
tot_energy = -18.0865276271986
num_atoms = 4
a11 = 2.48407455220977
a22 = 4.30254333421624
a33 = 4.05760350211158
a12 = 0
a13 = 0
a23 = 0
tot_press = -1.25318031823933e-09
pxx = -1.19540868167425e-09
pyy = -1.06333085222595e-09
pzz = -1.50080142081779e-09
pxy = 1.31853323588104e-11
pxz = -4.64379227489827e-11
pyz = -8.88120993217374e-11
pypospack:output_section:done
pypospack:lammps_sim:done
Total wall time: 0:00:00
