   2   2   0   0
  0.1090254E+02  0.2793739E-09  0.2793739E-09  0.2793739E-09  0.5000000E-15
  1.000000000000000E-004
  CAR 
 automatically generated by pyflamestk   
     29.83148520     -0.72060780  301      9.24902113      1.00000000
     -0.721  0.0000E+00  0.0000E+00  0.0000E+00  0.0000E+00
     -0.619  0.0000E+00  0.0000E+00  0.0000E+00  0.0000E+00
     -0.517  0.0000E+00  0.0000E+00  0.0000E+00  0.0000E+00
     -0.415 -0.1964E-30  0.0000E+00 -0.2000E-31  0.0000E+00
     -0.313 -0.7956E-27 -0.1721E-27 -0.8104E-28 -0.1753E-28
     -0.211 -0.1911E-23 -0.4563E-24 -0.1947E-24 -0.4649E-25
     -0.110 -0.2721E-20 -0.7172E-21 -0.2773E-21 -0.7308E-22
     -0.008 -0.2293E-17 -0.6675E-18 -0.2338E-18 -0.6805E-19
      0.094 -0.1143E-14 -0.3675E-15 -0.1166E-15 -0.3749E-16
      0.196 -0.3251E-12 -0.1156E-12 -0.3323E-13 -0.1181E-13
      0.298 -0.5601E-10 -0.2203E-10 -0.5738E-11 -0.2255E-11
      0.400 -0.5658E-08 -0.2463E-08 -0.5819E-09 -0.2530E-09
      0.501 -0.3332E-06 -0.1607E-06 -0.3452E-07 -0.1662E-07
      0.603 -0.1134E-04 -0.6074E-05 -0.1190E-05 -0.6352E-06
      0.705 -0.2196E-03 -0.1311E-03 -0.2356E-04 -0.1398E-04
      0.807 -0.2344E-02 -0.1572E-02 -0.2622E-03 -0.1740E-03
      0.909 -0.1275E-01 -0.9818E-02 -0.1561E-02 -0.1174E-02
      1.011 -0.2593E-01 -0.2557E-01 -0.4202E-02 -0.3778E-02
      1.113  0.4332E-01  0.1702E-01  0.2093E-03 -0.2045E-02
      1.214  0.2929E+00  0.2361E+00  0.3004E-01  0.2200E-01
      1.316  0.5064E+00  0.4884E+00  0.8161E-01  0.7174E-01
      1.418  0.3739E+00  0.4231E+00  0.1197E+00  0.1148E+00
      1.520  0.9560E-01  0.1403E+00  0.1294E+00  0.1291E+00
      1.622 -0.2128E-01 -0.1297E-01  0.1273E+00  0.1278E+00
      1.724 -0.1764E-01 -0.2101E-01  0.1255E+00  0.1257E+00
      1.825 -0.4032E-02 -0.5663E-02  0.1250E+00  0.1251E+00
      1.927 -0.4503E-03 -0.7156E-03  0.1250E+00  0.1250E+00
      2.029 -0.2732E-04 -0.4853E-04  0.1250E+00  0.1250E+00
      2.131 -0.9364E-06 -0.1850E-05  0.1250E+00  0.1250E+00
      2.233 -0.1849E-07 -0.4050E-07  0.1250E+00  0.1250E+00
      2.335 -0.2124E-09 -0.5152E-09  0.1250E+00  0.1250E+00
      2.436 -0.5233E-11 -0.1260E-10  0.1250E+00  0.1250E+00
      2.538 -0.5723E-09 -0.1211E-08  0.1250E+00  0.1250E+00
      2.640 -0.5042E-07 -0.9795E-07  0.1250E+00  0.1250E+00
      2.742 -0.2586E-05 -0.4604E-05  0.1250E+00  0.1250E+00
      2.844 -0.7639E-04 -0.1244E-03  0.1250E+00  0.1250E+00
      2.946 -0.1276E-02 -0.1892E-02  0.1249E+00  0.1248E+00
      3.047 -0.1159E-01 -0.1550E-01  0.1237E+00  0.1232E+00
      3.149 -0.5167E-01 -0.6030E-01  0.1184E+00  0.1171E+00
      3.251 -0.6588E-01 -0.4732E-01  0.1117E+00  0.1123E+00
      3.353  0.2721E+00  0.3817E+00  0.1394E+00  0.1511E+00
      3.455  0.1103E+01  0.1231E+01  0.2517E+00  0.2765E+00
      3.557  0.1523E+01  0.1484E+01  0.4068E+00  0.4276E+00
      3.659  0.8991E+00  0.7552E+00  0.4984E+00  0.5045E+00
      3.760  0.1409E+00  0.7069E-01  0.5127E+00  0.5117E+00
      3.862 -0.7745E-01 -0.7767E-01  0.5048E+00  0.5038E+00
      3.964 -0.3939E-01 -0.3197E-01  0.5008E+00  0.5006E+00
      4.066 -0.7375E-02 -0.8110E-02  0.5001E+00  0.4997E+00
      4.168 -0.9323E-03 -0.2116E-01  0.5000E+00  0.4976E+00
      4.270 -0.3153E-02 -0.6878E-01  0.4997E+00  0.4906E+00
      4.371 -0.2216E-01 -0.1535E-01  0.4974E+00  0.4890E+00
      4.473 -0.7059E-01  0.5136E+00  0.4902E+00  0.5413E+00
      4.575 -0.5303E-02  0.1348E+01  0.4897E+00  0.6786E+00
      4.677  0.5480E+00  0.1407E+01  0.5455E+00  0.8219E+00
      4.779  0.1374E+01  0.5797E+00  0.6854E+00  0.8810E+00
      4.881  0.1389E+01 -0.6257E-01  0.8268E+00  0.8746E+00
      4.982  0.5683E+00 -0.6247E-01  0.8847E+00  0.8682E+00
      5.084 -0.1366E-01  0.5569E+00  0.8833E+00  0.9249E+00
      5.186 -0.1332E+00  0.1343E+01  0.8697E+00  0.1062E+01
      5.288 -0.9160E-01  0.1506E+01  0.8604E+00  0.1215E+01
      5.390  0.2845E+00  0.1519E+01  0.8894E+00  0.1370E+01
      5.492  0.1114E+01  0.2010E+01  0.1003E+01  0.1574E+01
      5.593  0.1911E+01  0.2121E+01  0.1197E+01  0.1790E+01
      5.695  0.2511E+01  0.1339E+01  0.1453E+01  0.1927E+01
      5.797  0.2556E+01  0.5011E+00  0.1713E+01  0.1978E+01
      5.899  0.1446E+01  0.6991E+00  0.1861E+01  0.2049E+01
      6.001  0.3027E+00  0.2254E+01  0.1892E+01  0.2279E+01
      6.103  0.2865E+00  0.3921E+01  0.1921E+01  0.2678E+01
      6.205  0.7873E+00  0.4227E+01  0.2001E+01  0.3108E+01
      6.306  0.1148E+01  0.3408E+01  0.2118E+01  0.3455E+01
      6.408  0.1802E+01  0.2067E+01  0.2301E+01  0.3666E+01
      6.510  0.2504E+01  0.1088E+01  0.2556E+01  0.3777E+01
      6.612  0.2823E+01  0.1847E+01  0.2844E+01  0.3965E+01
      6.714  0.3333E+01  0.3232E+01  0.3183E+01  0.4294E+01
      6.816  0.3282E+01  0.2885E+01  0.3518E+01  0.4588E+01
      6.917  0.1879E+01  0.1750E+01  0.3709E+01  0.4766E+01
      7.019  0.7676E+00  0.2390E+01  0.3787E+01  0.5009E+01
      7.121  0.1362E+01  0.3845E+01  0.3926E+01  0.5401E+01
      7.223  0.2812E+01  0.3358E+01  0.4212E+01  0.5743E+01
      7.325  0.3935E+01  0.1502E+01  0.4613E+01  0.5896E+01
      7.427  0.4297E+01  0.4475E+00  0.5051E+01  0.5942E+01
      7.528  0.3895E+01  0.2322E+00  0.5447E+01  0.5965E+01
      7.630  0.2849E+01  0.1151E+00  0.5737E+01  0.5977E+01
      7.732  0.1337E+01  0.6809E+00  0.5873E+01  0.6046E+01
      7.834  0.1831E+00  0.2244E+01  0.5892E+01  0.6275E+01
      7.936 -0.4102E-01  0.3167E+01  0.5888E+01  0.6597E+01
      8.038  0.2411E+00  0.2738E+01  0.5912E+01  0.6876E+01
      8.139  0.5111E+00  0.2948E+01  0.5965E+01  0.7176E+01
      8.241  0.9430E+00  0.4210E+01  0.6061E+01  0.7605E+01
      8.343  0.1702E+01  0.4646E+01  0.6234E+01  0.8078E+01
      8.445  0.2349E+01  0.4267E+01  0.6473E+01  0.8513E+01
      8.547  0.2729E+01  0.3994E+01  0.6751E+01  0.8919E+01
      8.649  0.3219E+01  0.3971E+01  0.7079E+01  0.9324E+01
      8.751  0.4250E+01  0.4461E+01  0.7512E+01  0.9778E+01
      8.852  0.5315E+01  0.4253E+01  0.8053E+01  0.1021E+02
      8.954  0.5345E+01  0.2489E+01  0.8597E+01  0.1046E+02
      9.056  0.4060E+01  0.6227E+00  0.9011E+01  0.1053E+02
      9.158  0.2648E+01 -0.1532E+00  0.9280E+01  0.1051E+02
      9.260  0.2516E+01 -0.2041E+00  0.9537E+01  0.1049E+02
      9.362  0.3231E+01  0.7036E-01  0.9866E+01  0.1050E+02
      9.463  0.3447E+01  0.8261E+00  0.1022E+02  0.1058E+02
      9.565  0.2328E+01  0.1508E+01  0.1045E+02  0.1074E+02
      9.667  0.6778E+00  0.1165E+01  0.1052E+02  0.1086E+02
      9.769 -0.1585E+00  0.3221E+00  0.1051E+02  0.1089E+02
      9.871 -0.1327E+00 -0.5835E-01  0.1049E+02  0.1088E+02
      9.973  0.4946E+00 -0.5578E-01  0.1054E+02  0.1088E+02
     10.074  0.1355E+01 -0.1333E-01  0.1068E+02  0.1088E+02
     10.176  0.1401E+01 -0.1540E-02  0.1082E+02  0.1088E+02
     10.278  0.5902E+00 -0.9637E-04  0.1088E+02  0.1088E+02
     10.380  0.7979E-02 -0.3403E-05  0.1089E+02  0.1088E+02
     10.482 -0.7260E-01 -0.6917E-07  0.1088E+02  0.1088E+02
     10.584 -0.2399E-01 -0.5122E-08  0.1088E+02  0.1087E+02
     10.686 -0.3492E-02 -0.2999E-06  0.1088E+02  0.1087E+02
     10.787 -0.2683E-03 -0.1211E-04  0.1088E+02  0.1087E+02
     10.889 -0.1155E-04 -0.2799E-03  0.1088E+02  0.1087E+02
     10.991 -0.2246E-05 -0.3611E-02  0.1087E+02  0.1087E+02
     11.093 -0.6048E-04 -0.2455E-01  0.1087E+02  0.1087E+02
     11.195 -0.1055E-02 -0.7316E-01  0.1087E+02  0.1086E+02
     11.297 -0.1006E-01  0.1218E-01  0.1087E+02  0.1087E+02
     11.398 -0.4761E-01  0.6028E+00  0.1087E+02  0.1093E+02
     11.500 -0.7137E-01  0.1408E+01  0.1086E+02  0.1107E+02
     11.602  0.2261E+00  0.1337E+01  0.1088E+02  0.1121E+02
     11.704  0.1038E+01  0.4595E+00  0.1099E+02  0.1125E+02
     11.806  0.1524E+01 -0.9280E-01  0.1115E+02  0.1124E+02
     11.908  0.9296E+00  0.1996E+00  0.1124E+02  0.1126E+02
     12.009  0.9046E-01  0.1218E+01  0.1125E+02  0.1139E+02
     12.111 -0.5062E-02  0.1949E+01  0.1125E+02  0.1159E+02
     12.213  0.7938E+00  0.1396E+01  0.1133E+02  0.1173E+02
     12.315  0.1751E+01  0.3623E+00  0.1151E+02  0.1177E+02
     12.417  0.1678E+01 -0.7460E-01  0.1168E+02  0.1176E+02
     12.519  0.7433E+00 -0.6644E-01  0.1175E+02  0.1175E+02
     12.620  0.6771E-01 -0.1588E-01  0.1176E+02  0.1175E+02
     12.722 -0.7347E-01 -0.1859E-02  0.1175E+02  0.1175E+02
     12.824 -0.3369E-01 -0.1186E-03  0.1175E+02  0.1175E+02
     12.926 -0.6654E-02 -0.4285E-05  0.1175E+02  0.1175E+02
     13.028 -0.7107E-03 -0.8935E-07  0.1175E+02  0.1175E+02
     13.130 -0.4327E-04 -0.1085E-08  0.1175E+02  0.1175E+02
     13.232 -0.1528E-05 -0.7728E-11  0.1175E+02  0.1175E+02
     13.333 -0.3155E-07 -0.3270E-13  0.1175E+02  0.1175E+02
     13.435 -0.3822E-09  0.0000E+00  0.1175E+02  0.1175E+02
     13.537 -0.2724E-11  0.0000E+00  0.1175E+02  0.1175E+02
     13.639 -0.1145E-13  0.0000E+00  0.1175E+02  0.1175E+02
     13.741  0.0000E+00  0.0000E+00  0.1175E+02  0.1175E+02
     13.843  0.0000E+00  0.0000E+00  0.1175E+02  0.1175E+02
     13.944  0.0000E+00  0.0000E+00  0.1175E+02  0.1175E+02
     14.046  0.0000E+00 -0.9556E-29  0.1175E+02  0.1175E+02
     14.148  0.0000E+00 -0.3179E-25  0.1175E+02  0.1175E+02
     14.250 -0.1654E-28 -0.6271E-22  0.1175E+02  0.1175E+02
     14.352 -0.5319E-25 -0.7327E-19  0.1175E+02  0.1175E+02
     14.454 -0.1014E-21 -0.5067E-16  0.1175E+02  0.1175E+02
     14.555 -0.1144E-18 -0.2003E-13  0.1175E+02  0.1175E+02
     14.657 -0.7645E-16 -0.4819E-11  0.1175E+02  0.1175E+02
     14.759 -0.2924E-13 -0.6792E-09  0.1175E+02  0.1175E+02
     14.861 -0.6780E-11 -0.5603E-07  0.1175E+02  0.1175E+02
     14.963 -0.9227E-09 -0.2688E-05  0.1175E+02  0.1175E+02
     15.065 -0.7347E-07 -0.7417E-04  0.1175E+02  0.1175E+02
     15.166 -0.3400E-05 -0.1155E-02  0.1175E+02  0.1175E+02
     15.268 -0.9039E-04 -0.9736E-02  0.1175E+02  0.1175E+02
     15.370 -0.1352E-02 -0.3994E-01  0.1175E+02  0.1174E+02
     15.472 -0.1088E-01 -0.4510E-01  0.1175E+02  0.1174E+02
     15.574 -0.4140E-01  0.1890E+00  0.1174E+02  0.1176E+02
     15.676 -0.3133E-01  0.7301E+00  0.1174E+02  0.1183E+02
     15.778  0.2484E+00  0.1224E+01  0.1177E+02  0.1196E+02
     15.879  0.7665E+00  0.1565E+01  0.1184E+02  0.1212E+02
     15.981  0.9644E+00  0.1587E+01  0.1194E+02  0.1228E+02
     16.083  0.9890E+00  0.9137E+00  0.1204E+02  0.1237E+02
     16.185  0.1380E+01  0.1569E+00  0.1218E+02  0.1239E+02
     16.287  0.1367E+01 -0.7923E-01  0.1232E+02  0.1238E+02
     16.389  0.5969E+00 -0.4355E-01  0.1238E+02  0.1238E+02
     16.490  0.1374E-01 -0.8568E-02  0.1239E+02  0.1238E+02
     16.592 -0.7403E-01 -0.8520E-03  0.1238E+02  0.1238E+02
     16.694 -0.2521E-01 -0.4663E-04  0.1238E+02  0.1238E+02
     16.796 -0.3749E-02 -0.6123E-05  0.1238E+02  0.1237E+02
     16.898 -0.3001E-03 -0.1183E-03  0.1238E+02  0.1237E+02
     17.000 -0.1699E-03 -0.1676E-02  0.1237E+02  0.1237E+02
     17.101 -0.2101E-02 -0.1269E-01  0.1237E+02  0.1237E+02
     17.203 -0.1488E-01 -0.4425E-01  0.1237E+02  0.1237E+02
     17.305 -0.4720E-01 -0.1760E-01  0.1237E+02  0.1237E+02
     17.407 -0.2728E-02  0.3146E+00  0.1237E+02  0.1240E+02
     17.509  0.3680E+00  0.8726E+00  0.1241E+02  0.1249E+02
     17.611  0.9166E+00  0.9390E+00  0.1250E+02  0.1258E+02
     17.712  0.9170E+00  0.4136E+00  0.1259E+02  0.1263E+02
     17.814  0.3543E+00  0.1265E+00  0.1263E+02  0.1264E+02
     17.916 -0.4218E-02  0.3384E+00  0.1263E+02  0.1267E+02
     18.018  0.1261E+00  0.4838E+00  0.1264E+02  0.1272E+02
     18.120  0.4349E+00  0.2659E+00  0.1269E+02  0.1275E+02
     18.222  0.4584E+00  0.1057E-01  0.1273E+02  0.1275E+02
     18.324  0.1746E+00 -0.2228E-01  0.1275E+02  0.1275E+02
     18.425  0.7602E-02  0.1883E+00  0.1275E+02  0.1277E+02
     18.527  0.1770E+00  0.4671E+00  0.1277E+02  0.1282E+02
     18.629  0.4619E+00  0.4484E+00  0.1282E+02  0.1286E+02
     18.731  0.4483E+00  0.1562E+00  0.1286E+02  0.1288E+02
     18.833  0.1672E+00 -0.6698E-01  0.1288E+02  0.1287E+02
     18.935 -0.3333E-01 -0.6426E-01  0.1287E+02  0.1286E+02
     19.036 -0.9908E-01  0.4034E+00  0.1286E+02  0.1290E+02
     19.138  0.3522E-01  0.1258E+01  0.1287E+02  0.1303E+02
     19.240  0.6849E+00  0.1470E+01  0.1294E+02  0.1318E+02
     19.342  0.1455E+01  0.7207E+00  0.1309E+02  0.1326E+02
     19.444  0.1287E+01  0.5610E-01  0.1322E+02  0.1326E+02
     19.546  0.4404E+00 -0.7701E-01  0.1326E+02  0.1325E+02
     19.647 -0.3437E-01 -0.3005E-01  0.1326E+02  0.1325E+02
     19.749 -0.6434E-01 -0.4859E-02  0.1325E+02  0.1325E+02
     19.851 -0.1775E-01 -0.4094E-03  0.1325E+02  0.1325E+02
     19.953 -0.2281E-02 -0.4327E-04  0.1325E+02  0.1325E+02
     20.055 -0.1680E-03 -0.5065E-03  0.1325E+02  0.1325E+02
     20.157 -0.2676E-03 -0.5932E-02  0.1325E+02  0.1325E+02
     20.258 -0.3530E-02 -0.3686E-01  0.1325E+02  0.1325E+02
     20.360 -0.2573E-01 -0.1006E+00  0.1325E+02  0.1324E+02
     20.462 -0.8863E-01  0.2918E-01  0.1324E+02  0.1324E+02
     20.564 -0.4683E-01  0.8383E+00  0.1323E+02  0.1332E+02
     20.666  0.5841E+00  0.2018E+01  0.1329E+02  0.1353E+02
     20.768  0.1798E+01  0.2174E+01  0.1348E+02  0.1375E+02
     20.870  0.2289E+01  0.1081E+01  0.1371E+02  0.1386E+02
     20.971  0.1362E+01  0.2818E+00  0.1385E+02  0.1389E+02
     21.073  0.3696E+00  0.7265E+00  0.1389E+02  0.1396E+02
     21.175  0.6005E+00  0.1452E+01  0.1395E+02  0.1411E+02
     21.277  0.1386E+01  0.1162E+01  0.1409E+02  0.1423E+02
     21.379  0.1273E+01  0.3282E+00  0.1422E+02  0.1426E+02
     21.481  0.4405E+00 -0.5718E-01  0.1426E+02  0.1426E+02
     21.582 -0.3399E-01 -0.5637E-01  0.1426E+02  0.1425E+02
     21.684 -0.6448E-01 -0.1359E-01  0.1425E+02  0.1425E+02
     21.786 -0.1783E-01 -0.1582E-02  0.1425E+02  0.1425E+02
     21.888 -0.2296E-02 -0.9958E-04  0.1425E+02  0.1425E+02
     21.990 -0.1583E-03 -0.3537E-05  0.1425E+02  0.1425E+02
     22.092 -0.6132E-05 -0.7241E-07  0.1425E+02  0.1425E+02
     22.193 -0.1366E-06 -0.1327E-07  0.1425E+02  0.1425E+02
     22.295 -0.2512E-07 -0.7603E-06  0.1425E+02  0.1425E+02
     22.397 -0.1322E-05 -0.2693E-04  0.1425E+02  0.1425E+02
     22.499 -0.4318E-04 -0.5433E-03  0.1425E+02  0.1425E+02
     22.601 -0.8013E-03 -0.6060E-02  0.1425E+02  0.1425E+02
     22.703 -0.8165E-02 -0.3477E-01  0.1425E+02  0.1425E+02
     22.805 -0.4200E-01 -0.7818E-01  0.1424E+02  0.1424E+02
     22.906 -0.7620E-01  0.9743E-01  0.1424E+02  0.1425E+02
     23.008  0.1669E+00  0.8139E+00  0.1425E+02  0.1433E+02
     23.110  0.9450E+00  0.1504E+01  0.1435E+02  0.1448E+02
     23.212  0.1529E+01  0.1180E+01  0.1451E+02  0.1460E+02
     23.314  0.1059E+01  0.3352E+00  0.1461E+02  0.1464E+02
     23.416  0.2403E+00 -0.5612E-01  0.1464E+02  0.1463E+02
     23.517 -0.6983E-01 -0.5681E-01  0.1463E+02  0.1463E+02
     23.619 -0.4889E-01 -0.1380E-01  0.1463E+02  0.1463E+02
     23.721 -0.1052E-01 -0.1614E-02  0.1463E+02  0.1463E+02
     23.823 -0.1121E-02 -0.1021E-03  0.1463E+02  0.1463E+02
     23.925 -0.6513E-04 -0.3644E-05  0.1463E+02  0.1463E+02
     24.027 -0.2143E-05 -0.7481E-07  0.1463E+02  0.1463E+02
     24.128 -0.4063E-07 -0.8933E-09  0.1463E+02  0.1463E+02
     24.230 -0.4489E-09 -0.1993E-10  0.1463E+02  0.1462E+02
     24.332 -0.5140E-10 -0.1806E-08  0.1462E+02  0.1462E+02
     24.434 -0.5604E-08 -0.1394E-06  0.1462E+02  0.1462E+02
     24.536 -0.3782E-06 -0.6252E-05  0.1462E+02  0.1462E+02
     24.638 -0.1479E-04 -0.1609E-03  0.1462E+02  0.1462E+02
     24.739 -0.3306E-03 -0.2326E-02  0.1462E+02  0.1462E+02
     24.841 -0.4116E-02 -0.1800E-01  0.1462E+02  0.1462E+02
     24.943 -0.2686E-01 -0.6475E-01  0.1462E+02  0.1462E+02
     25.045 -0.7511E-01 -0.3283E-01  0.1461E+02  0.1461E+02
     25.147  0.3004E-01  0.4468E+00  0.1462E+02  0.1466E+02
     25.249  0.6538E+00  0.1293E+01  0.1468E+02  0.1479E+02
     25.351  0.1439E+01  0.1451E+01  0.1483E+02  0.1494E+02
     25.452  0.1312E+01  0.6780E+00  0.1496E+02  0.1501E+02
     25.554  0.4683E+00  0.3353E-01  0.1501E+02  0.1501E+02
     25.656 -0.3450E-01 -0.1098E+00  0.1501E+02  0.1500E+02
     25.758 -0.1049E+00 -0.1061E+00  0.1500E+02  0.1499E+02
     25.860 -0.9655E-01  0.8465E-01  0.1499E+02  0.1500E+02
     25.962  0.1321E+00  0.7957E+00  0.1500E+02  0.1508E+02
     26.063  0.8871E+00  0.1498E+01  0.1509E+02  0.1523E+02
     26.165  0.1521E+01  0.1196E+01  0.1525E+02  0.1535E+02
     26.267  0.1114E+01  0.3488E+00  0.1536E+02  0.1539E+02
     26.369  0.2779E+00 -0.5702E-01  0.1539E+02  0.1538E+02
     26.471 -0.8444E-01 -0.8137E-01  0.1538E+02  0.1537E+02
     26.573 -0.1198E+00 -0.8639E-01  0.1537E+02  0.1537E+02
     26.674 -0.3376E-01  0.2634E-02  0.1536E+02  0.1537E+02
     26.776  0.4885E+00  0.5789E+00  0.1541E+02  0.1542E+02
     26.878  0.1330E+01  0.1395E+01  0.1555E+02  0.1557E+02
     26.980  0.1426E+01  0.1367E+01  0.1569E+02  0.1571E+02
     27.082  0.6309E+00  0.5393E+00  0.1576E+02  0.1576E+02
     27.184  0.2178E-01 -0.8102E-02  0.1576E+02  0.1576E+02
     27.285 -0.7519E-01 -0.7259E-01  0.1575E+02  0.1575E+02
     27.387 -0.3388E-01 -0.3834E-01  0.1575E+02  0.1575E+02
     27.489 -0.3915E-01 -0.5199E-01  0.1575E+02  0.1574E+02
     27.591 -0.4286E-01  0.9334E-02  0.1574E+02  0.1574E+02
     27.693  0.1912E+00  0.4062E+00  0.1576E+02  0.1579E+02
     27.795  0.7478E+00  0.9423E+00  0.1584E+02  0.1588E+02
     27.897  0.1013E+01  0.8971E+00  0.1594E+02  0.1597E+02
     27.998  0.5857E+00  0.3401E+00  0.1600E+02  0.1601E+02
     28.100  0.8663E-01 -0.1089E-01  0.1601E+02  0.1601E+02
     28.202 -0.5187E-01 -0.4571E-01  0.1600E+02  0.1600E+02
     28.304 -0.2550E-01 -0.1371E-01  0.1600E+02  0.1600E+02
     28.406 -0.4687E-02 -0.1868E-02  0.1600E+02  0.1600E+02
     28.508 -0.4393E-03 -0.1355E-03  0.1600E+02  0.1600E+02
     28.609 -0.2269E-04 -0.5506E-05  0.1600E+02  0.1600E+02
     28.711 -0.6665E-06 -0.1283E-06  0.1600E+02  0.1600E+02
     28.813 -0.1132E-07 -0.1734E-08  0.1600E+02  0.1600E+02
     28.915 -0.1120E-09 -0.1371E-10  0.1600E+02  0.1600E+02
     29.017 -0.6503E-12 -0.6377E-13  0.1600E+02  0.1600E+02
     29.119 -0.2180E-14  0.0000E+00  0.1600E+02  0.1600E+02
     29.220  0.0000E+00  0.0000E+00  0.1600E+02  0.1600E+02
     29.322  0.0000E+00  0.0000E+00  0.1600E+02  0.1600E+02
     29.424  0.0000E+00  0.0000E+00  0.1600E+02  0.1600E+02
     29.526  0.0000E+00  0.0000E+00  0.1600E+02  0.1600E+02
     29.628  0.0000E+00  0.0000E+00  0.1600E+02  0.1600E+02
     29.730  0.0000E+00  0.0000E+00  0.1600E+02  0.1600E+02
     29.831  0.0000E+00  0.0000E+00  0.1600E+02  0.1600E+02
