    2    2    1    2
  0.1090254E+02  0.2793739E-09  0.2793739E-09  0.2793739E-09  0.5000000E-15
  1.000000000000000E-004
  CAR 
 automatically generated by pyflamestk   
     20      4     16
 
  0.1250000E+00  0.1250000E+00  0.1250000E+00  0.1250000E+00
    1        1.279392      1.298656   1.000000   1.000000
    2        5.712779      5.412277   1.000000   1.000000
    3        5.712779      5.412277   1.000000   1.000000
    4        7.364882      6.789322   1.000000   1.000000
    5        7.364882      6.789322   1.000000   1.000000
    6        8.062788      7.457612   1.000000   1.000000
    7        8.536534      7.940989   1.000003   1.000000
    8        8.765730      8.308263   1.001668   1.000000
    9        8.765730      8.308263   1.001668   1.000000
   10        9.440196      8.791833  -0.019921   1.002855
   11        9.440196      8.791833  -0.019921   1.002855
   12       17.611499     17.519561   0.000000   0.000000
   13       17.611499     17.519561   0.000000   0.000000
   14       18.623682     18.522234   0.000000   0.000000
   15       27.831485     27.788656   0.000000   0.000000
   16       27.831485     27.788656   0.000000   0.000000
 
  0.3750000E+00  0.1250000E+00  0.1250000E+00  0.3750000E+00
    1        3.493961      3.477728   1.000000   1.000000
    2        5.758255      5.537312   1.000000   1.000000
    3        6.434106      6.083016   1.000000   1.000000
    4        7.132385      6.639165   1.000000   1.000000
    5        7.253667      6.703213   1.000000   1.000000
    6        7.600926      7.059859   1.000000   1.000000
    7        8.314630      7.829104   1.000000   1.000000
    8        8.484745      7.906323   1.000000   1.000000
    9        8.835966      8.224755   1.006438   1.000000
   10        9.189803      8.686157   0.738811   1.000254
   11        9.314419      8.729723   0.238996   1.000744
   12       11.750634     11.494964  -0.000000  -0.000000
   13       20.766029     20.640268   0.000000   0.000000
   14       21.262230     21.144711   0.000000   0.000000
   15       25.339272     25.262783   0.000000   0.000000
   16       26.127452     26.035894   0.000000   0.000000
 
  0.3750000E+00  0.3750000E+00  0.1250000E+00  0.3750000E+00
    1        4.780108      4.580677   1.000000   1.000000
    2        5.516281      5.177401   1.000000   1.000000
    3        6.670675      6.133547   1.000000   1.000000
    4        6.807999      6.281302   1.000000   1.000000
    5        7.369639      7.069956   1.000000   1.000000
    6        7.500081      7.178857   1.000000   1.000000
    7        8.644664      8.127691   1.000083   1.000000
    8        8.779435      8.272907   1.002223   1.000000
    9        8.962779      8.493954   1.030577   1.000001
   10        9.462898      8.865352  -0.030910   1.010314
   11       10.078220      9.533823  -0.000000  -0.030862
   12       12.285709     12.085813  -0.000000  -0.000000
   13       16.191844     15.926047   0.000000   0.000000
   14       19.326982     19.157209   0.000000   0.000000
   15       23.167545     23.080513   0.000000   0.000000
   16       26.886691     26.875711   0.000000   0.000000
 
  0.3750000E+00  0.3750000E+00  0.3750000E+00  0.1250000E+00
    1        6.166899      5.692891   1.000000   1.000000
    2        6.202328      5.938936   1.000000   1.000000
    3        6.493665      6.016214   1.000000   1.000000
    4        6.493665      6.016214   1.000000   1.000000
    5        6.731316      6.338691   1.000000   1.000000
    6        6.731316      6.338691   1.000000   1.000000
    7        8.966341      8.479907   1.031272   1.000000
    8        8.966341      8.479907   1.031272   1.000000
    9        8.984086      8.487249   1.034119   1.000001
   10        8.984086      8.487249   1.034119   1.000001
   11       12.392350     12.008941  -0.000000  -0.000000
   12       15.899329     15.702339   0.000000   0.000000
   13       15.899329     15.702339   0.000000   0.000000
   14       18.124461     17.947545   0.000000   0.000000
   15       20.862463     20.740047   0.000000   0.000000
   16       20.862463     20.740047   0.000000   0.000000
