       N       E                     dE             d eps       ncg     rms          rms(c)
DAV:   1    -0.457729163414E+03   -0.45773E+03   -0.17119E+04   256   0.264E+03
DAV:   2    -0.468565927730E+03   -0.10837E+02   -0.10902E+02   512   0.106E+02
DAV:   3    -0.468578731731E+03   -0.12804E-01   -0.12804E-01   256   0.511E+00
DAV:   4    -0.468578842951E+03   -0.11122E-03   -0.11122E-03   432   0.372E-01
DAV:   5    -0.468578843266E+03   -0.31561E-06   -0.31617E-06   256   0.200E-02    0.961E+01
DAV:   6    -0.557528709132E+02    0.41283E+03   -0.35788E+02   448   0.181E+02    0.480E+01
DAV:   7    -0.131252664218E+03   -0.75500E+02   -0.20975E+03   256   0.361E+02    0.762E+01
DAV:   8    -0.142957011698E+02    0.11696E+03   -0.11477E+03   256   0.487E+02    0.185E+01
DAV:   9    -0.154686518917E+02   -0.11730E+01   -0.80101E+00   304   0.309E+01    0.168E+01
DAV:  10    -0.113046188993E+02    0.41640E+01   -0.16411E+01   256   0.442E+01    0.560E+00
DAV:  11    -0.113206552893E+02   -0.16036E-01   -0.23229E-02   256   0.182E+00    0.543E+00
DAV:  12    -0.109368754463E+02    0.38378E+00   -0.98289E-01   256   0.113E+01    0.281E+00
DAV:  13    -0.108131508101E+02    0.12372E+00   -0.88737E-01   256   0.109E+01    0.218E-01
DAV:  14    -0.108148319070E+02   -0.16811E-02   -0.68264E-03   352   0.102E+00    0.334E-01
DAV:  15    -0.108134262881E+02    0.14056E-02   -0.47283E-03   256   0.817E-01    0.142E-01
DAV:  16    -0.108131763583E+02    0.24993E-03   -0.18011E-03   256   0.498E-01    0.188E-02
DAV:  17    -0.108131744741E+02    0.18842E-05   -0.21652E-05   384   0.490E-02    0.355E-03
DAV:  18    -0.108131747316E+02   -0.25742E-06   -0.71028E-07   144   0.949E-03
   1 F= -.10813175E+02 E0= -.10816400E+02  d E =0.967485E-02  mag=    -0.9868
