LAMMPS (11 Aug 2017)
Reading data file ...
  triclinic box = (0 0 0) to (3.5135 2.5151 25.151) with tilt (0 0 0)
  1 by 1 by 1 MPI processor grid
  reading atoms ...
  10 atoms
10 atoms in group Ni
Neighbor list info ...
  update every 1 steps, delay 0 steps, check yes
  max neighbors/atom: 2000, page size: 100000
  master list distance cutoff = 11
  ghost atom cutoff = 11
  binsize = 5.5, bins = 1 1 5
  1 neighbor lists, perpetual/occasional/extra = 1 0 0
  (1) pair eam/alloy, perpetual
      attributes: half, newton on
      pair build: half/bin/newton/tri
      stencil: half/bin/3d/newton/tri
      bin: standard
Setting up cg style minimization ...
  Unit style    : metal
  Current step  : 0
Per MPI rank memory allocation (min/avg/max) = 4.341 | 4.341 | 4.341 Mbytes
Step PotEng Lx Ly Lz Xy Xz Yz Press Pxx Pyy Pzz Pxy Pxz Pyz c_eatoms 
       0   -41.858974       3.5135       2.5151       25.151            0            0            0   -35598.997   -42502.825   -38983.238   -25310.928  0.001081407    1.2867014   0.57958035   -41.858974 
       1   -41.888007       3.5135       2.5151       25.151            0            0            0   -28652.325   -35076.866   -33586.026   -17294.081 5.8431289e-05  -0.40613512    0.2490337   -41.888007 
       2   -41.898991       3.5135       2.5151       25.151            0            0            0   -24302.245   -30739.678    -30682.22   -11484.836 -0.0011184563    3.2670778 -0.049291992   -41.898991 
       3   -41.911076       3.5135       2.5151       25.151            0            0            0   -17981.738    -24856.07   -26725.571   -2363.5729 0.00033218497   -5.1249945  -0.08678884   -41.911076 
       4   -41.912199       3.5135       2.5151       25.151            0            0            0    -17349.01   -24324.112    -26384.74   -1338.1787 0.00011845434    3.4885702 0.0028921283   -41.912199 
       5   -41.912273       3.5135       2.5151       25.151            0            0            0   -17054.872   -24088.285   -26228.149   -848.18303 -5.5177513e-05   -4.5769471  0.052902225   -41.912273 
       6   -41.912306       3.5135       2.5151       25.151            0            0            0   -16768.868   -23833.849   -26060.998   -411.75782 -0.00012991808    5.4691884  0.093081681   -41.912306 
       7   -41.912333       3.5135       2.5151       25.151            0            0            0   -16506.921   -23572.935   -25883.406   -64.421934 3.0244419e-05  -0.41111476   0.10508406   -41.912333 
       8   -41.912335       3.5135       2.5151       25.151            0            0            0    -16459.82   -23521.693   -25846.431   -11.335991 1.2859961e-06   0.14541042  0.090351087   -41.912335 
       9   -41.912335       3.5135       2.5151       25.151            0            0            0   -16451.185   -23512.098   -25839.813   -1.6428381 1.4234002e-07   0.30173921  0.075009009   -41.912335 
      10   -41.912335       3.5135       2.5151       25.151            0            0            0   -16450.733   -23511.614   -25839.482   -1.1043806 4.1302164e-07   0.15098332  0.070527838   -41.912335 
      11   -41.912335       3.5135       2.5151       25.151            0            0            0   -16450.609   -23511.476    -25839.39  -0.96195989 3.0722282e-07   0.13283032   0.06492328   -41.912335 
      12   -41.912335       3.5135       2.5151       25.151            0            0            0   -16450.498    -23511.35   -25839.306  -0.83770846 2.2710797e-07   0.10589815  0.059343107   -41.912335 
      13   -41.912335       3.5135       2.5151       25.151            0            0            0   -16450.097   -23510.963   -25839.038  -0.28999565 1.2780079e-07  0.047392082  0.049466324   -41.912335 
      14   -41.912335       3.5135       2.5151       25.151            0            0            0   -16449.968   -23510.854   -25838.967 -0.082116832 1.1438932e-07  0.041322431   0.04712288   -41.912335 
      15   -41.912335       3.5135       2.5151       25.151            0            0            0   -16449.945    -23510.84   -25838.959 -0.035089709 1.1365075e-07  0.042207536  0.047301383   -41.912335 
      16   -41.912335       3.5135       2.5151       25.151            0            0            0   -16449.921   -23510.818   -25838.943 -0.0030529022 1.095186e-07  0.051770592  0.047856606   -41.912335 
      17   -41.912335       3.5135       2.5151       25.151            0            0            0   -16449.905     -23510.8   -25838.931  0.016175356 9.9350714e-08  0.052439283   0.04701804   -41.912335 
      18   -41.912335       3.5135       2.5151       25.151            0            0            0     -16449.9   -23510.795   -25838.927    0.0221816 8.6310305e-08  0.046960167  0.045568461   -41.912335 
      19   -41.912335       3.5135       2.5151       25.151            0            0            0   -16449.907   -23510.801   -25838.932  0.012079569 1.4044469e-08  0.011376096  0.036167362   -41.912335 
      20   -41.912335       3.5135       2.5151       25.151            0            0            0   -16449.919   -23510.813    -25838.94 -0.0039713505 -2.2922802e-08  -0.01686641  0.029623557   -41.912335 
      21   -41.912335       3.5135       2.5151       25.151            0            0            0   -16449.916   -23510.811   -25838.938 0.00042429611 -2.8883271e-08 -0.022673175  0.028400336   -41.912335 
      22   -41.912335       3.5135       2.5151       25.151            0            0            0   -16449.919   -23510.814   -25838.941 -0.0013503069 -2.9914953e-08 -0.023563124  0.027064767   -41.912335 
      23   -41.912335       3.5135       2.5151       25.151            0            0            0   -16449.921   -23510.816   -25838.942 -0.0052180728 -2.7299206e-08 -0.024477536  0.024304999   -41.912335 
      24   -41.912335       3.5135       2.5151       25.151            0            0            0   -16449.919   -23510.813   -25838.939 -0.0061408345 -1.9800061e-08 -0.022683588  0.019546329   -41.912335 
      25   -41.912335       3.5135       2.5151       25.151            0            0            0   -16449.918   -23510.813    -25838.94 -0.0018847269 -1.2768075e-08 -0.021074816   0.01584578   -41.912335 
      26   -41.912335       3.5135       2.5151       25.151            0            0            0   -16449.917   -23510.813    -25838.94 0.00035471474 -9.1620237e-09 -0.019069781  0.014342647   -41.912335 
      27   -41.912335       3.5135       2.5151       25.151            0            0            0   -16449.919   -23510.814    -25838.94 -0.0025930753 -6.544199e-09 -0.015821653  0.012852447   -41.912335 
      28   -41.912335       3.5135       2.5151       25.151            0            0            0   -16449.916   -23510.811   -25838.938 -0.0001097787 -3.4909407e-09 -0.012169998 0.0098372162   -41.912335 
      29   -41.912335       3.5135       2.5151       25.151            0            0            0    -16449.91   -23510.804   -25838.934 0.0079326058 -2.3730338e-10 -0.0030672167  0.002900627   -41.912335 
      30   -41.912335       3.5135       2.5151       25.151            0            0            0   -16449.915    -23510.81   -25838.938 0.0023002503 -2.0540539e-10 -0.0029124394 0.0023997262   -41.912335 
      31   -41.912335       3.5135       2.5151       25.151            0            0            0   -16449.915    -23510.81   -25838.938  0.001894003 -1.5686038e-10 -0.0026134365 0.0021137965   -41.912335 
      32   -41.912335       3.5135       2.5151       25.151            0            0            0   -16449.916   -23510.811   -25838.938 0.0016852514 -1.911453e-10 -0.0023260791  0.001737207   -41.912335 
      33   -41.912335       3.5135       2.5151       25.151            0            0            0   -16449.916   -23510.811   -25838.938 0.00086270428 -1.5379168e-10 -0.0019066276 0.0014544399   -41.912335 
      34   -41.912335       3.5135       2.5151       25.151            0            0            0   -16449.917   -23510.811   -25838.939 -0.00033223276 -6.1276679e-11 -0.0014880592 0.0012405204   -41.912335 
Loop time of 0.00921798 on 1 procs for 34 steps with 10 atoms

99.8% CPU use with 1 MPI tasks x no OpenMP threads

Minimization stats:
  Stopping criterion = energy tolerance
  Energy initial, next-to-last, final = 
        -41.8589740559     -41.9123351572     -41.9123351572
  Force two-norm initial, final = 0.566094 7.03058e-08
  Force max component initial, final = 0.391841 2.21172e-08
  Final line search alpha, max atom move = 1 2.21172e-08
  Iterations, force evaluations = 34 68

MPI task timing breakdown:
Section |  min time  |  avg time  |  max time  |%varavg| %total
---------------------------------------------------------------
Pair    | 0.0081708  | 0.0081708  | 0.0081708  |   0.0 | 88.64
Neigh   | 0          | 0          | 0          |   0.0 |  0.00
Comm    | 0.00047755 | 0.00047755 | 0.00047755 |   0.0 |  5.18
Output  | 0.00043058 | 0.00043058 | 0.00043058 |   0.0 |  4.67
Modify  | 0          | 0          | 0          |   0.0 |  0.00
Other   |            | 0.000139   |            |       |  1.51

Nlocal:    10 ave 10 max 10 min
Histogram: 1 0 0 0 0 0 0 0 0 0
Nghost:    1357 ave 1357 max 1357 min
Histogram: 1 0 0 0 0 0 0 0 0 0
Neighs:    1766 ave 1766 max 1766 min
Histogram: 1 0 0 0 0 0 0 0 0 0

Total # of neighbors = 1766
Ave neighs/atom = 176.6
Neighbor list builds = 0
Dangerous builds = 0
pypospack:output_section:begin
tot_energy = -41.9123351572128
num_atoms = 10
a11 = 3.5135
a22 = 2.5151
a33 = 25.151
a12 = 0
a13 = 0
a23 = 0
tot_press = -16449.9168739921
pxx = -23510.8114936415
pyy = -25838.9387961021
pzz = -0.000332232764456431
pxy = -6.12766793683127e-11
pxz = -0.00148805922014533
pyz = 0.0012405204074383
pypospack:output_section:done
pypospack:lammps_sim:done
Total wall time: 0:00:00
