LAMMPS (10 Feb 2015)
# ---- initialize simulations
clear
units metal
dimension 3
boundary p p p
atom_style charge
atom_modify map array
# ---- create atoms
read_data /Users/eugeneragasa/pyflamestk_git/pypospack/tests/tests_integration/workflow/WorkflowLammpsThermalExpansion/param_4927/MgO_NaCl_unit.npt.T1500/lammps.structure
  triclinic box = (0 0 0) to (4.2565 4.2565 4.2565) with tilt (0 0 0)
  1 by 1 by 1 MPI processor grid
  reading atoms ...
  8 atoms
# ---- define interatomic potential
include potential.mod
mass 1 24.305
mass 2 15.999

group Mg type 1
4 atoms in group Mg
group O type 2
4 atoms in group O

set group Mg charge 1.66679564584
  4 settings made for charge
set group O charge -1.66679564584
  4 settings made for charge

variable R_cut equal 10.0

pair_style buck/coul/long ${R_cut}
pair_style buck/coul/long 10
pair_coeff 1 1 0.0 0.5 0.0 ${R_cut}
pair_coeff 1 1 0.0 0.5 0.0 10
pair_coeff 1 2 1241.53975785 0.290586946924 0.0 ${R_cut}
pair_coeff 1 2 1241.53975785 0.290586946924 0.0 10
pair_coeff 2 2 7336.97641517 0.111647641293 25.3936876208 ${R_cut}
pair_coeff 2 2 7336.97641517 0.111647641293 25.3936876208 10

kspace_style pppm 1.0e-5

neighbor 1.0 bin
neigh_modify every 1 delay 0 check yes
# ---- define settings
compute eng all pe/atom
compute eatoms all reduce sum c_eng
# ---- run minimization
reset_timestep 0
fix 1 all box/relax iso 0.0 vmax 0.001
thermo 10
thermo_style custom step pe lx ly lz xy xz yz press pxx pyy pzz pxy pxz pyz c_eatoms
min_style cg
minimize 1e-25 1e-25 5000 10000
PPPM initialization ...
  G vector (1/distance) = 0.352901
  grid = 8 8 8
  stencil order = 5
  estimated absolute RMS force accuracy = 3.98348e-05
  estimated relative force accuracy = 2.76637e-06
  using double precision FFTs
  3d grid and FFT values/proc = 3375 512
Neighbor list info ...
  1 neighbor list requests
  update every 1 steps, delay 0 steps, check yes
  master list distance cutoff = 11
Memory usage per processor = 4.06549 Mbytes
Step PotEng Lx Ly Lz Xy Xz Yz Press Pxx Pyy Pzz Pxy Pxz Pyz eatoms 
       0    -112.5899       4.2565       4.2565       4.2565            0            0            0    58061.201    58061.201    58061.201    58061.201 6.8070985e-11 -1.221979e-10 1.2952011e-11    -112.5899 
      10   -112.63526     4.299065     4.299065     4.299065            0            0            0    6762.9013    6762.9013    6762.9013    6762.9013 -3.6532134e-11 6.5076144e-11 2.4224675e-10   -112.63526 
      13     -112.636    4.3051131    4.3051131    4.3051131            0            0            0   -6.5125139   -6.5125139   -6.5125139   -6.5125139 2.4815902e-11 -1.1583773e-10 3.0521581e-11     -112.636 
Loop time of 0.0112751 on 1 procs for 13 steps with 8 atoms

Minimization stats:
  Stopping criterion = linesearch alpha is zero
  Energy initial, next-to-last, final = 
        -112.589903458     -112.636003249     -112.636003249
  Force two-norm initial, final = 8.38407 0.00186563
  Force max component initial, final = 8.38407 0.000962014
  Final line search alpha, max atom move = 0.00390625 3.75787e-06
  Iterations, force evaluations = 13 30

Pair  time (%) = 0.00299168 (26.5336)
Kspce time (%) = 0.00183225 (16.2504)
Neigh time (%) = 0 (0)
Comm  time (%) = 0.0003438 (3.04921)
Outpt time (%) = 1.40667e-05 (0.124759)
Other time (%) = 0.00609326 (54.042)

Nlocal:    8 ave 8 max 8 min
Histogram: 1 0 0 0 0 0 0 0 0 0
Nghost:    2189 ave 2189 max 2189 min
Histogram: 1 0 0 0 0 0 0 0 0 0
Neighs:    2344 ave 2344 max 2344 min
Histogram: 1 0 0 0 0 0 0 0 0 0

Total # of neighbors = 2344
Ave neighs/atom = 293
Neighbor list builds = 0
Dangerous builds = 0
unfix 1
# ---- define output variables ----
variable natoms equal "count(all)"
variable tot_energy equal "c_eatoms"
variable length_x equal "lx"
variable length_y equal "ly"
variable length_z equal "lz"
variable tilt_xy equal "xy"
variable tilt_xz equal "xz"
variable tilt_yz equal "yz"
variable tot_press equal "press"
variable press_xx equal "pxx"
variable press_yy equal "pyy"
variable press_zz equal "pzz"
variable press_xy equal "pxy"
variable press_xz equal "pxz"
variable press_yz equal "pyz"

# ---- output ----
print "pypospack:output_section:begin"
pypospack:output_section:begin
print "tot_energy = ${tot_energy}"
tot_energy = -112.63600324896
print "num_atoms = ${natoms}"
num_atoms = 8
print "xx = ${length_x}"
xx = 4.30511307073731
print "yy = ${length_y}"
yy = 4.30511307073731
print "zz = ${length_z}"
zz = 4.30511307073731
print "xy = ${tilt_xy}"
xy = 0
print "xz = ${tilt_xz}"
xz = 0
print "yz = ${tilt_yz}"
yz = 0
print "tot_press = ${tot_press}"
tot_press = -6.51251387968517
print "pxx = ${press_xx}"
pxx = -6.51251387980119
print "pyy = ${press_yy}"
pyy = -6.51251387961014
print "pzz = ${press_zz}"
pzz = -6.51251387964418
print "pxy = ${press_xy}"
pxy = 2.48159019880152e-11
print "pxz = ${press_xz}"
pxz = -1.15837732664817e-10
print "pyz = ${press_yz}"
pyz = 3.05215812050655e-11
print "pypospack:output_section:done"
pypospack:output_section:done
print "pypospack:lammps_sim:done"
pypospack:lammps_sim:done
#------------------------------------------------------------------------------
# RUN THERMOSTAT
# running using an NPT Nose-Hoover style thermostat
#------------------------------------------------------------------------------
variable tempdamp equal 0.1
variable pressdamp equal 1.0
# set initial velocities
velocity all create 1500 9485422 mom yes dist gaussian loop all
# fix for Nose-Hoover style thermostat
fix 20 all npt temp 1500 1500 0.1 aniso 0.0 0.0 1.0 drag 1.0 couple xyz
variable boxx equal lx
variable boxy equal ly
variable boxz equal lz
variable boxp equal press
variable boxt equal temp
# calculate averages every 10000 steps
reset_timestep 0
fix 21 all ave/time 10 10 100 v_boxx v_boxy v_boxz v_boxp v_boxt file lattice.out
thermo_style custom step temp pe ke etotal press lx ly lz press pxx pyy pzz pxy pxz pyz vol
thermo_modify flush yes
thermo 100
run 100000
PPPM initialization ...
  G vector (1/distance) = 0.352409
  grid = 8 8 8
  stencil order = 5
  estimated absolute RMS force accuracy = 4.075e-05
  estimated relative force accuracy = 2.82993e-06
  using double precision FFTs
  3d grid and FFT values/proc = 3375 512
Memory usage per processor = 3.06549 Mbytes
Step Temp PotEng KinEng TotEng Press Lx Ly Lz Press Pxx Pyy Pzz Pxy Pxz Pyz Volume 
       0         1500   -112.63601    1.3572315   -111.27878    18160.519    4.3051131    4.3051131    4.3051131    18160.519    6711.4663    22987.333    24782.759   -6028.9927    289.96067    11709.076    79.790959 
     100    521.13767   -111.58095   0.47153631   -111.10942    30293.867     4.340575     4.340575     4.340575    30293.867   -26356.505    64980.461    52257.646    5067.2491   -8264.7369   -8431.2142    81.779001 
     200    961.22257   -111.61827   0.86973438   -110.74854    -31727.13    4.3911546    4.3911546    4.3911546    -31727.13   -70051.845    16419.136   -41548.682    4910.9374   -2968.1886    6071.6339    84.671293 
     300    1159.1732   -111.45447    1.0488443   -110.40562   -10130.014    4.3891994    4.3891994    4.3891994   -10130.014   -45211.845    64123.189   -49301.387   -2382.9518   -639.71242    -9677.783    84.558242 
     400    1203.2896   -111.23189    1.0887617   -110.14313    29884.266    4.3601986    4.3601986    4.3601986    29884.266   -38854.236    1060.8425    127446.19    8874.9602    10310.449   -17429.903    82.893185 
     500     1953.247   -111.75588    1.7673389   -109.98854   -3770.8198    4.3701427    4.3701427    4.3701427   -3770.8198   -46770.874    19183.391    16275.023    6228.9836    1241.8447    9255.8831    83.461629 
     600    1454.2636   -111.22291    1.3158483   -109.90706   -5886.2614    4.3981788    4.3981788    4.3981788   -5886.2614   -56995.442    16868.448     22468.21     7549.529    -4120.826    7816.9894    85.078266 
     700    1270.2236   -110.99474     1.149325   -109.84541   -22990.951    4.4087397    4.4087397    4.4087397   -22990.951   -79602.014    40014.558   -29385.398    4648.1845     3679.889    24818.834    85.692608 
     800    1783.2904   -111.44714    1.6135586   -109.83358   -8265.8966    4.3964494    4.3964494    4.3964494   -8265.8966    -50798.83     27588.39    -1587.249   -1208.3217    3598.8171   -14252.395    84.977947 
     900    1726.1124   -111.40014    1.5618228   -109.83831    13563.599    4.3750762    4.3750762    4.3750762    13563.599   -23116.797    6953.0834    56854.509     3571.055    -16437.03    4689.3747    83.744612 
    1000    1014.6708   -110.79568   0.91809544   -109.87759    16055.224    4.3790193    4.3790193    4.3790193    16055.224   -24926.861     33897.29    39195.242   -5086.1499    21553.787   -11310.326    83.971245 
    1100    1418.0533   -111.16601    1.2830845   -109.88293   -19263.072    4.4002136    4.4002136    4.4002136   -19263.072   -33846.879   -3245.7801   -20696.556   -2027.8674      4673.17   -4785.3419    85.196405 
    1200    1834.9479   -111.51149    1.6602995   -109.85119   -35608.817    4.4079888    4.4079888    4.4079888   -35608.817   -50916.267   -31302.454    -24607.73   -14058.952   -15891.362    3582.7662     85.64883 
    1300    1723.0026   -111.39644    1.5590089   -109.83743   -1455.3781    4.3839602    4.3839602    4.3839602   -1455.3781     2895.153   -35998.122    28736.835   -3294.3558    24241.531    23507.805    84.255801 
    1400    1463.5663   -111.18292    1.3242655   -109.85866    13389.493     4.370788     4.370788     4.370788    13389.493    58862.864    12576.361   -31270.747    6247.3343   -18673.828     6541.017    83.498606 
    1500    1498.2686    -111.2499    1.3556649   -109.89424   -37481.996    4.3915306    4.3915306    4.3915306   -37481.996   -31953.189   -54500.808    -25991.99   -2913.6758    7806.8206    11631.952    84.693045 
    1600    1682.9263   -111.39699    1.5227471   -109.87424   -10585.039    4.3989209    4.3989209    4.3989209   -10585.039    774.67616   -41732.449    9202.6554    5246.9763    2549.4602     19115.07    85.121342 
    1700    2017.8425   -111.68131    1.8257863   -109.85552   -33221.758    4.3971925    4.3971925    4.3971925   -33221.758   -21429.576   -44178.723   -34056.974   -15957.385   -8126.9453   -11102.025    85.021046 
    1800    1010.4921   -110.77289   0.91431446   -109.85858    8220.3652    4.3842934    4.3842934    4.3842934    8220.3652    36370.622   -19548.948    7839.4215   -1879.8511    16991.797   -12129.384    84.275015 
    1900    1400.9468   -111.13279    1.2676061   -109.86518   -6330.1228    4.3652841    4.3652841    4.3652841   -6330.1228    2972.1295   -6967.8888   -14994.609   -19251.952    8030.7344     12810.46     83.18357 
    2000      1467.77   -111.23863    1.3280691   -109.91056   -2100.4972    4.3704166    4.3704166    4.3704166   -2100.4972    18371.726   -36886.185    12212.967   -2263.2155   -11131.118   -16015.578    83.477323 
    2100    1864.8134    -111.5916    1.6873223   -109.90428   -29070.305    4.3988661    4.3988661    4.3988661   -29070.305   -11099.597    -64261.98    -11849.34   -9979.2923   -11325.673    11428.382    85.118158 
    2200      1412.18   -111.14446    1.2777702   -109.86669    14248.352    4.3929287    4.3929287    4.3929287    14248.352    11407.029   -15779.241    47117.268   -6436.3979   -1751.4654    2954.8312    84.773957 
    2300    1282.3152   -111.01399    1.1602658   -109.85372    895.13807    4.3834791    4.3834791    4.3834791    895.13807   -9481.5301    -14609.13    26776.074    10645.517   -1663.8628   -4075.6565    84.228064 
    2400    1031.8584    -110.7967   0.93364713   -109.86305    15403.714    4.3898257    4.3898257    4.3898257    15403.714    22403.412    18224.883    5582.8482    18532.561    1723.6145   -7269.3896    84.594444 
    2500    1580.2968   -111.30212    1.4298858   -109.87224   -5917.6993    4.3896423    4.3896423    4.3896423   -5917.6993   -36342.878     -13254.3     31844.08   -13092.483   -40480.702    1024.2774     84.58384 
    2600    1198.0235   -110.95785    1.0839968   -109.87386    37966.013    4.3806259    4.3806259    4.3806259    37966.013    49512.627    23432.061     40953.35    884.14817   -1911.2021    7173.3904    84.063701 
    2700    1548.7163   -111.27172    1.4013111   -109.87041   -649.76019    4.3897792    4.3897792    4.3897792   -649.76019   -23065.672     21904.47   -788.07927   -3618.0208    6848.8451    6748.0776    84.591754 
    2800    1087.2878   -110.84338   0.98380087   -109.85958   -17968.246    4.4057251    4.4057251    4.4057251   -17968.246   -34668.088   -642.28208   -18594.367    -769.6397   -5974.5125    11826.848    85.516949 
    2900    1571.0852   -111.25972    1.4215509   -109.83817     11968.88    4.3941015    4.3941015    4.3941015     11968.88    34509.904    15912.045    -14515.31    8380.2237    7074.0208    13956.538    84.841873 
    3000    1345.7933   -111.07266    1.2177021   -109.85495    27557.146    4.3829392    4.3829392    4.3829392    27557.146   -39140.098    64011.367    57800.167   -7494.9094   -15758.175   -1285.3188    84.196946 
    3100     1652.208   -111.35873    1.4949525   -109.86378    2152.0325    4.3829568    4.3829568    4.3829568    2152.0325   -22273.914    43268.001   -14537.989    10941.295   -11746.544   -198.50358    84.197963 
    3200    962.96431   -110.74218   0.87131035   -109.87087    38933.645    4.3874332    4.3874332    4.3874332    38933.645    39657.613    45104.634    32038.688    307.42543    4916.2832   -7051.9062    84.456201 
    3300    837.66367      -110.63   0.75793569   -109.87206    37960.705    4.3980554    4.3980554    4.3980554    37960.705    40323.573     49513.73    24044.812    3570.3623    7878.9608   -18601.788    85.071106 
    3400    1691.2371   -111.37936    1.5302669    -109.8491   -3259.0663     4.399919     4.399919     4.399919   -3259.0663   -31698.791    43257.097   -21335.505    6078.6635   -11336.573   -6869.3176    85.179295 
    3500    1893.6389   -111.54522    1.7134042   -109.83182   -23775.824    4.3874051    4.3874051    4.3874051   -23775.824   -58558.015   -24378.537     11609.08   -1785.1341   -10777.366   -14125.817    84.454581 
    3600    1506.8361   -111.19585    1.3634169   -109.83243     4887.197    4.3777858    4.3777858    4.3777858     4887.197   -2556.5623    45234.726   -28016.573   -1085.6593   -4688.5308   -16792.187    83.900302 
    3700    1262.9593   -111.00295    1.1427521    -109.8602    535.84924    4.3948555    4.3948555    4.3948555    535.84924    22503.684    3829.3022   -24725.438    7854.1057    7895.4328    3246.0237    84.885554 
    3800    1962.0271   -111.62331    1.7752834   -109.84802   -30594.868    4.3960015    4.3960015    4.3960015   -30594.868   -20528.152   -35485.379   -35771.073    1764.9211   -6588.3042   -6577.0849    84.951976 
    3900     1443.896   -111.15412    1.3064675   -109.84765    16131.756    4.3705061    4.3705061    4.3705061    16131.756   -4033.2131    76970.108   -24541.626      4473.44   -11706.525    2397.1672    83.482452 
    4000    1381.5601   -111.12294    1.2500646   -109.87287   -3074.2657    4.3765704    4.3765704    4.3765704   -3074.2657    40489.056   -1353.5772   -48358.276   -8935.5514   -3692.9534   -3295.1064     83.83044 
    4100    1361.7052   -111.09632    1.2320995   -109.86422   -948.48079    4.3867088    4.3867088    4.3867088   -948.48079    2146.3829    35031.269   -40023.094   -32856.577    6801.0237   -20119.367    84.414375 
    4200    1670.8935   -111.36552    1.5118595   -109.85366   -7665.7999    4.3791376    4.3791376    4.3791376   -7665.7999   -7046.0294   -4114.4713   -11836.899    3377.9079   -1126.1337   -4554.2798    83.978046 
    4300    1544.8997   -111.25467    1.3978577   -109.85681     14627.59     4.374638     4.374638     4.374638     14627.59     34477.33    47056.188   -37650.749   -11805.734   -21504.984   -1894.5684    83.719448 
    4400    1073.4001   -110.84674   0.97123494    -109.8755    2766.7375    4.3812821    4.3812821    4.3812821    2766.7375    12051.741    41385.421    -45136.95   -23509.638    1959.8091   -8857.8036     84.10148 
    4500    1422.3582   -111.16431    1.2869796   -109.87733   -9598.8124    4.3877691    4.3877691    4.3877691   -9598.8124   -5037.9716   -11696.896   -12061.569   -873.88561   -5263.8266    7270.2242    84.475605 
    4600    1825.1304    -111.5129    1.6514163   -109.86148    3205.9265    4.3869532    4.3869532    4.3869532    3205.9265   -12115.633     34571.94   -12838.527     7277.899   -15752.976   -20990.878    84.428485 
    4700     1580.586   -111.28521    1.4301474   -109.85506   -17857.856    4.3819049    4.3819049    4.3819049   -17857.856    6269.2337   -42391.157   -17451.644   -19299.312    7313.7792   -4732.3192    84.137354 
    4800    1176.1003   -110.92688    1.0641602   -109.86272    16862.311    4.3751536    4.3751536    4.3751536    16862.311    9105.8383    11247.435    30233.659    8098.9411    2465.9578    5223.6738    83.749057 
    4900    1979.3012    -111.6575    1.7909134   -109.86659    -37472.53    4.3832564    4.3832564    4.3832564    -37472.53    -28293.62   -19874.382   -64249.588    11520.653    2127.1337    -15136.18    84.215228 
    5000    1432.7213   -111.16883    1.2963563   -109.87247   -5810.6573     4.389472     4.389472     4.389472   -5810.6573   -5181.4972   -10143.302   -2107.1731    -8744.888     11024.98    8087.2031    84.573993 
    5100    1354.0355   -111.08777    1.2251597   -109.86261    15218.434    4.3812591    4.3812591    4.3812591    15218.434   -29801.719    112418.58   -36961.555    8702.1219   -6474.0855   -1880.9723    84.100158 
    5200     1465.142   -111.19802    1.3256913   -109.87233   -19316.799    4.3782735    4.3782735    4.3782735   -19316.799   -18891.167     18131.14   -57190.369   -7876.0307    7875.4741    1956.4948    83.928343 
    5300    1550.2043   -111.28955    1.4026575    -109.8869   -21001.262    4.3915159    4.3915159    4.3915159   -21001.262   -31361.626    25094.868   -56737.027   -7691.9891   -1453.7112    8541.3397    84.692193 
    5400    1352.5892    -111.1074    1.2238511   -109.88355    4276.6838     4.392845     4.392845     4.392845    4276.6838   -20781.958    95551.126   -61939.117    7172.6177    15063.838   -6521.2872    84.769113 
    5500    1408.9394   -111.17347     1.274838   -109.89863    5884.6571    4.3773866    4.3773866    4.3773866    5884.6571   -30909.567     83588.07   -35024.532    -15258.67    9281.4433    3372.6644    83.877351 
    5600    1242.9547   -111.04928    1.1246515   -109.92463    5318.7602    4.3809548    4.3809548    4.3809548    5318.7602    9141.4452    28305.355    -21490.52   -4200.9882   -9876.5706    2619.4461    84.082633 
    5700    1515.5444   -111.29897    1.3712964   -109.92768   -27925.442    4.4002884    4.4002884    4.4002884   -27925.442   -18523.456   -208.10694   -65044.764    7651.4445    2142.2699    11114.933    85.200749 
    5800    1441.7105   -111.19941      1.30449   -109.89492   -9809.9934     4.397622     4.397622     4.397622   -9809.9934    19329.872   -748.54704   -48011.305   -10408.279    6527.1945    7241.9932    85.045962 
    5900     1499.949   -111.22868    1.3571854    -109.8715    24336.748    4.3812149    4.3812149    4.3812149    24336.748    14984.083    112942.34    -54916.18   -4398.7841    7911.2631   -10098.629     84.09761 
    6000    1673.5367   -111.41148    1.5142512   -109.89723   -15368.106    4.3971961    4.3971961    4.3971961   -15368.106    18970.916    2475.8068    -67551.04    19690.592   -4390.1424   -646.18756    85.021253 
    6100    1289.5372   -111.06251    1.1668004    -109.8957   -13114.727    4.4122114    4.4122114    4.4122114   -13114.727    28139.831   -183.10829   -67300.902   -13375.408   -3680.9619   -11986.409    85.895205 
    6200    2009.9326   -111.70281    1.8186293   -109.88418    -4829.736    4.3871024    4.3871024    4.3871024    -4829.736   -13925.812    45922.686   -46486.082    22705.591   -10543.441   -13960.378    84.437102 
    6300     943.3012   -110.75777   0.85351875   -109.90425    43274.239    4.3685673    4.3685673    4.3685673    43274.239    11804.695    148038.42     -30020.4    4460.7429   -3846.2595    13823.079      83.3714 
    6400    1242.2764   -111.07657    1.1240378   -109.95254     23998.62    4.3869163    4.3869163    4.3869163     23998.62    69106.098    34133.111   -31243.349   -7431.4738   -2331.6019   -11882.646    84.426356 
    6500    1698.4316     -111.473    1.5367766   -109.93622   -13681.699    4.3995423    4.3995423    4.3995423   -13681.699   -906.35829   -3527.2566   -36611.481    8.5636176    10711.563   -11507.339    85.157421 
    6600    1595.2603   -111.36697     1.443425   -109.92355   -27524.201    4.3932338    4.3932338    4.3932338   -27524.201   -37740.522    28497.305   -73329.386   -8390.6502    7213.6727     9739.364    84.791621 
    6700    1408.8809   -111.18385     1.274785   -109.90907    25578.997    4.3852313    4.3852313    4.3852313    25578.997    50705.765    91759.049   -65727.821   -6638.9467   -454.50108    1144.7574    84.329109 
    6800     1292.177   -111.08955    1.1691889   -109.92036   -21898.476    4.4001505    4.4001505    4.4001505   -21898.476     27731.41   -9479.3063   -83947.531    1312.6205   -11241.296      12091.5    85.192741 
    6900    1915.1107   -111.62026    1.7328324   -109.88743   -24642.014    4.3972692    4.3972692    4.3972692   -24642.014   -7118.3751   -11697.895   -55109.773    11034.969     2230.365    11589.629    85.025494 
    7000    1019.0504   -110.80386   0.92205826    -109.8818    25471.209    4.3850929    4.3850929    4.3850929    25471.209    41011.564    72226.629   -36824.567   -2946.8742   -1616.2356   -7023.1108    84.321124 
    7100    1250.2183   -111.02066    1.1312238   -109.88944    2328.0867    4.3935869    4.3935869    4.3935869    2328.0867   -36485.102    70741.125   -27271.762    19256.854   -2575.2738   -1144.9609    84.812067 
    7200    1891.5524   -111.59462    1.7115163   -109.88311   -27814.434    4.3989162    4.3989162    4.3989162   -27814.434   -887.68244    -19866.27   -62689.349    543.22721   -7937.5613    12992.388    85.121067 
    7300    1705.0605   -111.42947    1.5427746    -109.8867   -10575.804    4.3807192    4.3807192    4.3807192   -10575.804   -32343.228    52363.733   -51747.915       3489.3   -1981.2235    18374.723    84.069072 
    7400    687.38722   -110.51458    0.6219624   -109.89262    52009.978    4.3659737    4.3659737    4.3659737    52009.978    24193.474     174643.6   -42807.142    23810.824   -15037.783    5571.2338    83.222996 
    7500    1424.4094   -111.21437    1.2888355   -109.92553   -10424.587    4.3904462    4.3904462    4.3904462   -10424.587   -33185.124     67239.04   -65327.678    5938.4489   -4200.0623   -5687.7446     84.63032 
    7600     1518.544   -111.26908    1.3740105   -109.89507   -17784.988    4.4025945    4.4025945    4.4025945   -17784.988   -9208.9384   -6607.9349   -37538.089    1809.8153   -10008.623    984.08751     85.33478 
    7700      1649.52   -111.34658    1.4925203   -109.85406    12244.953    4.3813981    4.3813981    4.3813981    12244.953    7175.4277    41724.717   -12165.286   -13211.575   -11712.192    14813.169    84.108162 
    7800     1235.822   -110.97861    1.1181977   -109.86041    22121.329    4.3788073    4.3788073    4.3788073    22121.329    47859.667    58464.931   -39960.611   -32.908658    2782.9934    10553.768    83.959049 
    7900    1515.9298   -111.24934    1.3716451    -109.8777   -15275.404    4.3882885    4.3882885    4.3882885   -15275.404    10373.725    1671.5226    -57871.46    12910.953   -9835.5152    4199.3178    84.505607 
    8000    2112.8132   -111.77995    1.9117178   -109.86823   -14129.614    4.3891161    4.3891161    4.3891161   -14129.614    25443.059   -26957.714   -40874.187   -8020.5081   -14046.048    15828.778    84.553425 
    8100     1443.382   -111.17142    1.3060024   -109.86542   -17497.265    4.3886418    4.3886418    4.3886418   -17497.265   -15761.844    16416.983   -53146.934    3004.8245   -13164.869    9402.3374    84.526015 
    8200    1289.7384   -111.03132    1.1669824   -109.86433   -2562.0449    4.3841403    4.3841403    4.3841403   -2562.0449    58696.882   -5198.0758   -61184.941    17962.189    15961.872    800.31679    84.266186 
    8300    1513.0896   -111.24619    1.3690753   -109.87711   -2314.4967    4.3804642    4.3804642    4.3804642   -2314.4967    31167.796    2428.7554   -40540.041   -12141.301    5046.1019    17808.824    84.054393 
    8400    1542.8138   -111.28553    1.3959704   -109.88956    21313.617    4.3803501    4.3803501    4.3803501    21313.617    66802.281    24302.222   -27163.651   -10417.499   -17039.769   -4212.3645    84.047821 
    8500    1741.4186   -111.47346    1.5756721   -109.89779   -32266.028    4.3990629    4.3990629    4.3990629   -32266.028   -752.68639   -39682.347   -56363.049    18408.314   -2143.8367    7123.4282    85.129583 
    8600    1570.5958   -111.29238     1.421108   -109.87127   -34636.374    4.4080402    4.4080402    4.4080402   -34636.374   -20067.649   -3287.9971   -80553.477   -2013.6532   -13328.941    7214.7976     85.65183 
    8700    1194.8984   -110.93985    1.0811692   -109.85868    6290.2522    4.3922038    4.3922038    4.3922038    6290.2522     48956.34    10688.287   -40773.871   -12825.093    -1441.777    3971.0835    84.731999 
    8800    1693.7669     -111.395    1.5325559   -109.86245    12472.653    4.3779404    4.3779404    4.3779404    12472.653    60110.941   -4886.0722   -17806.912    14105.046   -11697.455    154.17956     83.90919 
    8900    1134.1106   -110.91047    1.0261671    -109.8843    21166.254    4.3923592    4.3923592    4.3923592    21166.254    61443.797    50316.976   -48262.012   -7240.7799   -8860.4215   -13858.373    84.740994 
    9000    1583.2555   -111.31024    1.4325628   -109.87768   -41714.286    4.4070929    4.4070929    4.4070929   -41714.286    715.71941   -30080.764   -95777.814    1010.8527   -9950.6221    10366.554     85.59662 
    9100    1480.8884   -111.19823     1.339939   -109.85829    7232.1679    4.3943917    4.3943917    4.3943917    7232.1679    35192.466    27484.656   -40980.618   -3596.0444   -2088.4931   -12506.365    84.858683 
    9200    1560.6026    -111.2896     1.412066   -109.87753    6733.8523    4.3859294    4.3859294    4.3859294    6733.8523    53158.738   -2954.4032   -30002.778   -7667.1646   -15995.713   -6693.9024     84.36939 
    9300    1208.6813   -110.98593    1.0936402   -109.89229      19772.9    4.3982753    4.3982753    4.3982753      19772.9    69278.738    60550.102   -70510.139   -9939.6212    -11242.12   -1738.1649    85.083869 
    9400    1482.1484   -111.22297     1.341079   -109.88189   -18254.552    4.4101644    4.4101644    4.4101644   -18254.552   -3595.6824    34479.945    -85647.92    4604.8985    172.19687    10437.896    85.775714 
    9500    1687.7824    -111.3917     1.527141   -109.86456   -14447.022    4.4050485    4.4050485    4.4050485   -14447.022     11753.54   -1692.0192   -53402.588    10806.998   -10911.785   -5350.3297    85.477551 
    9600    979.65046   -110.74908   0.88640833   -109.86267    28183.837    4.3837941    4.3837941    4.3837941    28183.837    47354.901    96081.601   -58884.993    1975.2507    5571.7519   -3816.2506    84.246223 
    9700    1706.2188   -111.41447    1.5438226   -109.87065   -23310.422    4.3719254    4.3719254    4.3719254   -23310.422   -13743.959    8134.7277   -64322.036    17125.411   -6272.4688    13232.036     83.56381 
    9800    1515.6102   -111.28488     1.371356   -109.91352   -6050.3299    4.3939536    4.3939536    4.3939536   -6050.3299    12897.546    32798.914   -63847.449   -13809.312    13046.667   -9323.0555     84.83331 
    9900    1264.9723   -111.03045    1.1445735   -109.88588   -29962.002    4.4175915    4.4175915    4.4175915   -29962.002   -13758.505   -4093.1263   -72034.375    18742.905    22888.212    1874.0139    86.209806 
   10000    1969.4193    -111.6393     1.781972   -109.85733   -39786.134    4.3877262    4.3877262    4.3877262   -39786.134   -37026.221   -29109.333   -53222.847    11496.442    6850.0933    11093.577    84.473127 
   10100    1720.8744   -111.41854    1.5570833   -109.86146    9654.7265    4.3580604    4.3580604    4.3580604    9654.7265    40394.301    52679.078     -64109.2    5170.5093     3888.101    196.75689    82.771294 
   10200    1147.6813    -110.9479    1.0384462   -109.90946    35313.681    4.3690273    4.3690273    4.3690273    35313.681    9858.5694    130096.68   -34014.211    -4623.629   -1361.3837    15741.311     83.39774 
   10300    1880.6002   -111.62391    1.7016065    -109.9223   -30446.315    4.4087071    4.4087071    4.4087071   -30446.315   -7857.2975     -43850.8   -39630.847    5200.5831   -4114.3334   -10274.127    85.690709 
   10400    1589.0447   -111.30053     1.437801   -109.86273    -28015.29    4.4107861    4.4107861    4.4107861    -28015.29   -22204.327    36652.974   -98494.516    890.53886    6445.1223   -561.48016    85.811993 
   10500    1380.9193   -111.07747    1.2494848   -109.82799   -1863.8566    4.3656947    4.3656947    4.3656947   -1863.8566    -12621.27    35690.347   -28660.647    25531.586    4591.3039   -7828.8219    83.207045 
   10600    1187.9534   -110.94033    1.0748852   -109.86544    66179.279    4.3523268    4.3523268    4.3523268    66179.279    26491.354    154647.95    17398.532    27575.176   -3221.8053    9424.5841    82.445032 
   10700    1644.3028   -111.41763    1.4877997   -109.92983   -13783.339    4.3953189    4.3953189    4.3953189   -13783.339   -18059.212   -5312.9796   -17977.825    9426.2568   -5978.6366   -18206.674    84.912413 
   10800     416.3251   -110.27423    0.3766997   -109.89753    -16572.14    4.4069099    4.4069099    4.4069099    -16572.14   -4877.5662    16828.495   -61667.348    17001.351   -710.18593   -33374.031    85.585956 
   10900     2100.854   -111.74198    1.9008968   -109.84108   -3840.1357    4.3628275    4.3628275    4.3628275   -3840.1357    4898.4933    18007.248   -34426.148   -3666.2295   -4273.4389   -2337.7371     83.04321 
   11000    1276.1853   -111.03154    1.1547192   -109.87682    30676.331    4.3555422    4.3555422    4.3555422    30676.331    31142.072    70613.836   -9726.9167    33038.279    13068.353    3289.6474    82.627893 
   11100    1705.7036   -111.46809    1.5433564   -109.92474   -15013.036    4.3903626    4.3903626    4.3903626   -15013.036   -8478.3349    16493.968    -53054.74    24113.684   -1998.6241     49.29725    84.625484 
   11200    1385.4186   -111.14352    1.2535559   -109.88997   -23819.797    4.4079473    4.4079473    4.4079473   -23819.797    18830.746    10596.832   -100886.97    -9121.703   -3304.0268    21865.226    85.646413 
   11300    1171.6928   -110.91636    1.0601723   -109.85619    5082.8115    4.3633498    4.3633498    4.3633498    5082.8115    49167.044   -9850.4663   -24068.143    15584.894    7248.3894    4804.4203    83.073038 
   11400    1625.7843   -111.32697    1.4710438   -109.85592    48598.975    4.3500351    4.3500351    4.3500351    48598.975    41256.872    94006.785    10533.269    17215.376   -11134.113   -4713.7254     82.31487 
   11500    1542.8677   -111.28027    1.3960191   -109.88425   -3148.0849    4.3959536    4.3959536    4.3959536   -3148.0849    22832.462   -15938.474   -16338.243     4167.968    1400.1055   -2972.1944    84.949203 
   11600    579.70962   -110.36621   0.52453345   -109.84168    19190.231    4.4086152    4.4086152    4.4086152    19190.231    36371.048    51172.146   -29972.499    55709.133    13449.264   -11178.456    85.685352 
   11700    1270.2878   -110.97123    1.1493831   -109.82185     23910.94     4.389557     4.389557     4.389557     23910.94    121826.04   -3998.6927   -46094.531    13131.579     14848.76   -8615.6473    84.578906 
   11800     1616.767    -111.2981    1.4628848   -109.83522    27623.835    4.3688735    4.3688735    4.3688735    27623.835    32297.647    37183.844    13390.013     6597.206    10458.013    571.69371     83.38893 
   11900    1536.2776   -111.27279    1.3900563   -109.88274    10871.907    4.3869286    4.3869286    4.3869286    10871.907    1883.0416    45310.081   -14577.403    18803.383    2092.1244   -9036.4081    84.427069 
   12000    1407.6829   -111.13645    1.2737011   -109.86275   -18119.901    4.4196492    4.4196492    4.4196492   -18119.901    1554.1684    -23316.36   -32597.511    1725.8832    7129.1738   -18765.001    86.330327 
   12100    1005.0455   -110.74896   0.90938633   -109.83957   -14351.672    4.3940472    4.3940472    4.3940472   -14351.672   -19914.859   -23523.499    383.34159    31073.188     4998.548   -10926.987    84.838727 
   12200    2040.4085   -111.64599    1.8462045   -109.79978    32841.032    4.3468798    4.3468798    4.3468798    32841.032    79301.806    16727.099    2494.1907   -4582.1598    -12463.49    9152.7553    82.135878 
   12300    1728.4965   -111.43954    1.5639799   -109.87556   -4782.9303    4.3717901    4.3717901    4.3717901   -4782.9303    771.71074   -27777.049    12656.547    18439.819    6270.8755     -9260.84    83.556051 
   12400    1618.8507    -111.3395    1.4647701   -109.87473   -58162.634    4.4011864    4.4011864    4.4011864   -58162.634   -55542.722   -59201.329   -59743.851    15445.003   -2442.0757   -2653.5117    85.252926 
   12500    1518.8026   -111.22164    1.3742445    -109.8474   -20493.995    4.3930369    4.3930369    4.3930369   -20493.995    12871.976   -25274.025   -49079.936   -9740.0848    23074.705   -597.45821    84.780221 
   12600    1726.3889   -111.40495    1.5620729   -109.84288   -19435.896    4.3717011    4.3717011    4.3717011   -19435.896   -29905.507   -16171.491    -12230.69    16781.589    4893.7327   -5020.7823    83.550946 
   12700    1567.6078    -111.2873    1.4184045   -109.86889    -7212.442    4.3648312    4.3648312    4.3648312    -7212.442   -4252.0123    -16500.37   -884.94335    4170.7591   -15668.436   -8347.1292    83.157677 
   12800    1241.4152   -111.01779    1.1232586   -109.89453    22064.391    4.3743473    4.3743473    4.3743473    22064.391    45081.569    61004.446    -39892.84    -182.8051    8888.7814    10166.351    83.702762 
   12900    1470.6218   -111.22995    1.3306495    -109.8993   -7909.2987    4.3868241    4.3868241    4.3868241   -7909.2987    33547.361   -7087.0951   -50188.161    25495.303    14348.506    524.89847    84.421035 
   13000    1477.2994     -111.217    1.3366916   -109.88031    7687.7507    4.3871035    4.3871035    4.3871035    7687.7507     2126.339     64102.17   -43165.257    -5415.303    2693.0069   -6900.5767    84.437165 
   13100    1411.3719   -111.15421     1.277039   -109.87717    2332.7002    4.3777262    4.3777262    4.3777262    2332.7002      36191.5    3141.0237   -32334.423   -11446.443   -13209.088    2155.4289    83.896873 
   13200     1527.172    -111.2722    1.3818173   -109.89039   -2817.2583    4.3688026    4.3688026    4.3688026   -2817.2583   -19560.025    24466.335   -13358.085    32645.238    4125.5461   -15514.642    83.384871 
   13300    1822.9948   -111.55038     1.649484   -109.90089   -2773.0908     4.381678     4.381678     4.381678   -2773.0908    30622.091    3038.9386   -41980.302   -15944.591   -448.90957    4866.0647    84.124283 
   13400    1274.2758   -111.04825    1.1529915   -109.89525    17577.975    4.3936889    4.3936889    4.3936889    17577.975    6229.4519    51955.408    -5450.934    -4575.923   -2864.2549   -11650.559    84.817978 
   13500    1641.2553   -111.36161    1.4850423   -109.87657   -38064.626    4.3871605    4.3871605    4.3871605   -38064.626    -33885.09   -41122.343   -39186.444    7567.6296    11186.731   -16719.003    84.440458 
   13600     1052.007   -110.82553   0.95187807   -109.87365    59900.231    4.3553988    4.3553988    4.3553988    59900.231    64255.328    92029.096     23416.27   -15003.168   -20714.659    17432.106    82.619734 
   13700    1731.1834   -111.46722    1.5664111   -109.90081    5210.5311    4.3588821    4.3588821    4.3588821    5210.5311    10626.359   -2071.6083    7076.8422    6029.6755    8055.3134   -19441.436    82.818119 
   13800    1063.5696   -110.87571   0.96234014   -109.91337   -651.63616    4.3829488    4.3829488    4.3829488   -651.63616    25825.216    18731.146    -46511.27   -5366.5185     3323.551   -12231.122    84.197499 
   13900    1587.4319   -111.32284    1.4363417    -109.8865    6008.5156    4.3882251    4.3882251    4.3882251    6008.5156   -10295.994    16457.701     11863.84   -3267.8942    1565.5312   -3555.8248     84.50194 
   14000    1492.9101   -111.22323    1.3508164   -109.87241   -12322.081    4.3774711    4.3774711    4.3774711   -12322.081    -9773.895   -23839.402   -3352.9443     19436.85    8185.3376   -8465.2709     83.88221 
   14100    984.17367   -110.76381   0.89050102    -109.8733    22159.136    4.3665351    4.3665351    4.3665351    22159.136    44745.857     8116.239    13615.313   -5616.7382    10176.527    1468.1175    83.255105 
   14200    1805.1428    -111.5166    1.6333312   -109.88327     1124.444    4.3747686    4.3747686    4.3747686     1124.444   -17511.196    35046.887   -14162.359    4371.5153    3697.6967   -10175.122    83.726945 
   14300    1189.4864   -110.96577    1.0762723    -109.8895   -28929.773    4.3897938    4.3897938    4.3897938   -28929.773   -52988.635   -24643.396    -9157.288    17762.495   -7522.5396    10438.871    84.592597 
   14400     1743.904   -111.44249    1.5779209   -109.86457   -9587.7205    4.3824873    4.3824873    4.3824873   -9587.7205   -27554.659    41434.957   -42643.458   -2495.6797   -5105.8944    15424.062    84.170908 
   14500    1389.6787   -111.11631    1.2574104    -109.8589    4840.5565    4.3758046    4.3758046    4.3758046    4840.5565    16070.983    38582.529   -40131.842    288.59259    3171.6737   -24496.197    83.786446 
   14600    1135.8255   -110.89752    1.0277188    -109.8698   -802.15301    4.3723827    4.3723827    4.3723827   -802.15301   -14802.074    41.444615    12354.171    7300.0744    2125.3563   -10994.277    83.590037 
   14700    1500.2763   -111.23853    1.3574816   -109.88104    29306.733    4.3835178    4.3835178    4.3835178    29306.733    54381.077    11948.415    21590.706   -23105.077   -20253.906    1939.4873    84.230293 
   14800    1232.0954   -110.99137    1.1148258   -109.87655   -30515.796    4.4141101    4.4141101    4.4141101   -30515.796   -52351.308     15389.45   -54585.531    15130.304   -1719.2346   -5635.8546    86.006143 
   14900    1498.1135    -111.1856    1.3555246   -109.83008   -26064.962    4.3997965    4.3997965    4.3997965   -26064.962   -17170.468   -4383.7088    -56640.71   -14041.256     14463.64    22518.184     85.17218 
   15000    1503.9787   -111.17202    1.3608316   -109.81119    57081.797    4.3564941    4.3564941    4.3564941    57081.797    86255.391    68291.489    16698.512    4815.9957     22997.74   -3489.5041    82.682082 
   15100    1408.7813    -111.1576    1.2746949    -109.8829   -1318.3893    4.3671905    4.3671905    4.3671905   -1318.3893   -29326.926    3454.2314    21917.527    34147.745    15866.741   -1627.2638    83.292596 
   15200    1613.3068   -111.34615    1.4597539    -109.8864   -8738.8512    4.3974641    4.3974641    4.3974641   -8738.8512   -17177.056    2212.1886   -11251.686    8158.5812   -5056.3079    -10954.45    85.036798 
   15300    810.09223   -110.60061   0.73298847   -109.86762    29584.222    4.3940752    4.3940752    4.3940752    29584.222    49743.599    87886.436   -48877.368    20423.026    14674.568   -19550.892    84.840348 
   15400    1816.1032   -111.49427    1.6432483   -109.85102   -10285.438    4.3849303    4.3849303    4.3849303   -10285.438   -32171.777    11374.014   -10058.552    11017.996    13794.785   -7151.4556    84.311744 
   15500    2089.8603    -111.7449    1.8909495   -109.85395   -10034.463    4.3789281    4.3789281    4.3789281   -10034.463   -32941.218    28431.204   -25593.376   -2516.0025   -3076.0093   -21437.245    83.965998 
   15600    1520.2904   -111.23725    1.3755907   -109.86166    9174.5826    4.3703203    4.3703203    4.3703203    9174.5826   -24365.975    25945.213     25944.51    24955.341    12146.064   -7376.1726    83.471803 
   15700    1522.6924   -111.25704    1.3777641   -109.87928    15486.883    4.4001623    4.4001623    4.4001623    15486.883   -1519.3051    56490.749   -8510.7952   -7400.6322     17655.28   -4663.4202    85.193424 
   15800    1641.3133   -111.34127    1.4850947   -109.85617   -60902.195    4.4072924    4.4072924    4.4072924   -60902.195   -36126.853   -65321.797   -81257.936     5526.225    25567.374    628.70234    85.608243 
   15900     1191.976   -110.91813    1.0785249   -109.83961    31523.875    4.3512691    4.3512691    4.3512691    31523.875   -11434.279    26670.539    79335.364    17649.081    6987.6691    304.40591     82.38494 
   16000    1812.9253   -111.50253    1.6403729   -109.86215    40271.439    4.3504108    4.3504108    4.3504108    40271.439    36545.686    53128.533    31140.099   -5045.6637    21914.229    8425.8838    82.336198 
   16100    1024.3155   -110.81616   0.92682218   -109.88933   -30703.104    4.3997819    4.3997819    4.3997819   -30703.104   -71343.931    -25844.79    5079.4096    31706.397    4819.3566    5556.0494    85.171332 
   16200    1845.3763    -111.5076    1.6697352   -109.83787   -24774.386     4.404965     4.404965     4.404965   -24774.386   -37895.236    -32240.12   -4187.8011   -6122.5634    1875.3184   -6389.6932    85.472691 
   16300     1735.589   -111.38611    1.5703974   -109.81571    7073.6964    4.3814544    4.3814544    4.3814544    7073.6964   -18409.639    34872.637    4758.0914    4871.6501    22936.107    8046.4787    84.111406 
   16400    952.34152   -110.71124   0.86169862   -109.84954   -15949.863    4.3719822    4.3719822    4.3719822   -15949.863   -44130.833   -25068.967    21350.211    34958.037    28278.335   -177.28077    83.567066 
   16500    1931.3674   -111.62248    1.7475418   -109.87494    21119.327    4.3679431    4.3679431    4.3679431    21119.327    19195.638    16151.702    28010.642   -20075.594   -375.50353    3637.9596    83.335666 
   16600    1483.8041   -111.25565    1.3425771   -109.91307   -24947.092    4.3905982    4.3905982    4.3905982   -24947.092   -46992.658   -55040.142    27191.525    24985.823    4639.7594    3231.3369    84.639111 
   16700     833.1391   -110.64566   0.75384176   -109.89182    4321.1914    4.3867267    4.3867267    4.3867267    4321.1914    22974.428    -33875.61    23864.757    11379.173    13535.563   -9872.5755    84.415408 
   16800    1932.0866   -111.60697    1.7481925   -109.85878     24502.54    4.3594196    4.3594196    4.3594196     24502.54   -5715.5945    43442.352    35780.862    449.41535   -21873.084   -4203.8441    82.848761 
   16900    1335.4015   -111.10636    1.2082994   -109.89806   -33272.555    4.3795525    4.3795525    4.3795525   -33272.555   -37896.183   -18767.758   -43153.725    20151.587    29606.027    3287.0128    84.001919 
   17000    1599.5613   -111.31726    1.4473167   -109.86994    -12780.53    4.3954979    4.3954979    4.3954979    -12780.53   -12014.825    -3064.786   -23261.981   -681.89253    12640.878   -7401.4863    84.922785 
   17100    1773.0861   -111.45352    1.6043255   -109.84919   -15013.836    4.3839458    4.3839458    4.3839458   -15013.836   -30125.438   -17720.592    2804.5216    14415.261    11887.446   -15370.106     84.25497 
   17200     1208.135   -110.94849    1.0931459   -109.85535   -8924.4187      4.37478      4.37478      4.37478   -8924.4187   -1779.8459    -9975.136   -15018.274    31524.127    2074.8979   -3774.2396    83.727602 
   17300    1736.9291   -111.42761      1.57161     -109.856    13793.492    4.3642895    4.3642895    4.3642895    13793.492    -9622.116    59616.666    -8614.074   -10341.672    5180.0201    1355.0133    83.126724 
   17400    1100.4036   -110.89031   0.99566828   -109.89464     -8596.88    4.3839053    4.3839053    4.3839053     -8596.88   -8862.1145   -21120.022     4191.496    23439.469    15709.284    2016.4502    84.252634 
   17500    1595.5239   -111.30083    1.4436636   -109.85717   -22712.884    4.3959969    4.3959969    4.3959969   -22712.884   -9299.0908   -13412.247   -45427.314    28083.433   -1122.5647    5034.6189     84.95171 
   17600    1399.2365    -111.0998    1.2660586   -109.83374    30195.419    4.3683477    4.3683477    4.3683477    30195.419    75194.909    13390.137    2001.2104    26553.479    2623.3145   -3361.2454    83.358827 
   17700    974.69881   -110.75027   0.88192797   -109.86834    33715.865     4.371049     4.371049     4.371049    33715.865    105911.51   -17374.592    12610.681    9785.0777    14140.029    7659.6655    83.513565 
   17800    1843.9144   -111.54034    1.6684125   -109.87193    -22979.74    4.3878441    4.3878441    4.3878441    -22979.74   -9330.6956     -35739.4   -23869.124    7341.0447   -5739.8338   -6716.0145    84.479936 
   17900    1349.1086   -111.09986    1.2207018   -109.87915    12314.339    4.3766379    4.3766379    4.3766379    12314.339    30257.992   -1860.1777    8545.2034    14796.256    12380.494   -2989.0607    83.834323 
   18000    1391.6847   -111.14776    1.2592256   -109.88854    10144.832     4.385702     4.385702     4.385702    10144.832    46991.612   -15050.017   -1507.0991    8933.9443    3321.9163    148.74505    84.356267 
   18100    1559.7947   -111.29002     1.411335   -109.87868   -21807.173    4.3898279    4.3898279    4.3898279   -21807.173   -32057.732   -24510.718   -8853.0683    9201.2739   -4983.3345   -757.59105    84.594568 
   18200     1304.453   -111.04099    1.1802965   -109.86069    23976.422    4.3715286    4.3715286    4.3715286    23976.422    68376.209   -20697.888    24250.945     6019.539    7541.9201     1805.986    83.541056 
   18300     1764.274   -111.45983    1.5963522   -109.86348     4286.119    4.3688503    4.3688503    4.3688503     4286.119    12277.022    2328.8642   -1747.5291    -8713.149   -7128.6852     -5996.31    83.387604 
   18400    1512.5417   -111.24802    1.3685795   -109.87944   -14141.456    4.3886321    4.3886321    4.3886321   -14141.456    7473.4122   -39531.644   -10366.136    463.49073   -17273.119    9011.4091    84.525457 
   18500    1786.4359   -111.48376    1.6164048   -109.86736   -27524.382    4.3918923    4.3918923    4.3918923   -27524.382    22950.419    -59659.86   -45863.704      4355.06     9146.779   -8301.6113    84.713971 
   18600    1825.5162   -111.51985    1.6517654   -109.86809   -10271.873    4.3748357    4.3748357    4.3748357   -10271.873   -16629.906   -20436.734    6251.0211   -2889.7858   -18511.061    15600.998    83.730802 
   18700    1394.2503   -111.15495     1.261547    -109.8934   -6378.0818    4.3698498    4.3698498    4.3698498   -6378.0818    26570.369   -53146.835    7442.2211   -718.08963    11963.021   -24466.233    83.444847 
   18800    1766.9106   -111.51442    1.5987378   -109.91568   -135.57191    4.3744179    4.3744179    4.3744179   -135.57191    60260.391   -27629.273   -33037.833    4283.1946    4233.1727    -6757.739    83.706813 
   18900    1098.2558   -110.93035   0.99372491   -109.93663    26979.921    4.3837639    4.3837639    4.3837639    26979.921    54968.183   -9121.7055    35093.285   -2213.5195   -13148.581   -9814.3698    84.244481 
   19000    1726.4135   -111.48621    1.5620952   -109.92412   -12161.786    4.3982512    4.3982512    4.3982512   -12161.786    22740.115   -44048.207   -15177.265    8099.6433    17977.296   -13983.614    85.082471 
   19100    1646.6661    -111.3881    1.4899381   -109.89816     -1445.18    4.3921577    4.3921577    4.3921577     -1445.18    25895.683   -47176.628    16945.405    -2618.154   -17904.872    6919.0005     84.72933 
   19200    1367.9016   -111.12844    1.2377061   -109.89073    9725.2416    4.3753093    4.3753093    4.3753093    9725.2416    36856.681    -30885.65    23204.694    1509.0064   -19103.844   -5914.9488    83.757994 
   19300    1846.0466   -111.56475    1.6703418   -109.89441   -6165.7394    4.3787717    4.3787717    4.3787717   -6165.7394    54821.453   -40321.494   -32997.177   -8054.6276    15309.278    2671.6179    83.956998 
   19400    1248.4115    -111.0502     1.129589   -109.92061    1812.7613    4.3924836    4.3924836    4.3924836    1812.7613    3479.5879   -26689.688    28648.384    4986.5011   -6922.3267    3235.9255    84.748192 
   19500    1605.3163    -111.3542    1.4525239   -109.90167   -43823.712    4.3949238    4.3949238    4.3949238   -43823.712    -27473.91   -35922.722   -68074.503    20679.978    17408.904   -20168.878    84.889514 
   19600    1238.9973   -110.99718    1.1210708   -109.87611    43241.054    4.3608359    4.3608359    4.3608359    43241.054    41836.583    21343.689    66542.891     -6058.24   -8185.3746   -7904.3904    82.929538 
   19700    1240.3187   -111.02008    1.1222665   -109.89781    23170.369    4.3670526    4.3670526    4.3670526    23170.369    31754.277    23814.415    13942.414   -1268.7938   -21041.084   -16892.592    83.284706 
   19800    1361.5827   -111.11821    1.2319887   -109.88622   -19538.914    4.4065837    4.4065837    4.4065837   -19538.914   -12582.984   -8900.0425   -37133.714   -167.88042    17945.407     3001.505    85.566952 
   19900    1897.0621   -111.55575    1.7165017   -109.83925   -8813.0136    4.3950935    4.3950935    4.3950935   -8813.0136   -16823.767   -2437.7762   -7177.4972   -8378.0518    5994.7067     5352.559     84.89935 
   20000    1358.6749   -111.06477    1.2293576   -109.83542    17688.004    4.3722659    4.3722659    4.3722659    17688.004    8711.7151    5898.6342    38453.661    20147.848   -26856.889   -9186.8411    83.583335 
   20100    1180.7153   -110.93381     1.068336   -109.86547    20673.368    4.3771785    4.3771785    4.3771785    20673.368    76337.797    30805.371   -45123.063   -5932.6443     20931.96    17960.418    83.865388 
   20200    1640.4305   -111.36641     1.484296   -109.88211   -9746.3499    4.3897292    4.3897292    4.3897292   -9746.3499   -46335.103    1106.0875    15989.966    2141.9616    2361.2188   -9110.1188    84.588862 
   20300    1193.5439   -110.96203    1.0799436   -109.88209    5215.6768    4.3854622    4.3854622    4.3854622    5215.6768    45319.867   -10433.887   -19238.949     6184.513   -12445.966    4053.3968    84.342433 
   20400    1660.3715   -111.36905     1.502339   -109.86671   -8831.7069    4.3742427    4.3742427    4.3742427   -8831.7069   -181.59848   -5956.6854   -20356.837   -21703.228    1892.1353   -7825.1028    83.696757 
   20500    1067.5095   -110.84644   0.96590499   -109.88054    26442.316     4.379363     4.379363     4.379363    26442.316    45708.287   -3259.6136    36878.275    13789.982   -16827.745   -21930.778    83.991015 
   20600     1612.807   -111.33188    1.4593016   -109.87258   -24668.063    4.3897018    4.3897018    4.3897018   -24668.063   -45180.803   -3861.9418   -24961.444    6549.3287    8025.7622    7078.1909    84.587279 
   20700    1185.1262   -110.93936     1.072327   -109.86703    35132.938     4.379715     4.379715     4.379715    35132.938    67103.451    7603.9921     30691.37    -3299.057    17378.315   -17294.524     84.01127 
   20800    1191.9239   -110.95286    1.0784778   -109.87438    33633.142    4.3827864    4.3827864    4.3827864    33633.142    49089.571   -25923.244    77733.101     9331.391    20867.593    -8113.261    84.188141 
   20900    1667.9948   -111.37502    1.5092368   -109.86578   -15971.682    4.3923375    4.3923375    4.3923375   -15971.682    34955.671   -56091.129   -26779.588    9942.9661     24574.06   -6263.9746    84.739734 
   21000    1470.9952   -111.18955    1.3309874   -109.85856   -21428.562    4.3931688    4.3931688    4.3931688   -21428.562    42653.387   -68621.177   -38317.895    7569.4173    3031.9789   -33580.439    84.787857 
   21100    1494.3797   -111.19703    1.3521461   -109.84488    44622.136    4.3645667    4.3645667    4.3645667    44622.136    53960.294    19329.346    60576.768    8535.9037    3587.9467    5751.4556    83.142563 
   21200    1191.3724   -110.97164    1.0779788   -109.89366    9637.7666    4.3755827    4.3755827    4.3755827    9637.7666    67173.261   -33487.029   -4772.9329   -11759.483   -16245.423   -24702.837    83.773701 
   21300    1865.5136   -111.55285    1.6879559   -109.86489   -7481.7538    4.4018222    4.4018222    4.4018222   -7481.7538    58469.754   -65055.528   -15859.488    10417.268     -26617.9    12358.581     85.28988 
   21400    1131.8569   -110.88574    1.0241279   -109.86161    4463.5947    4.3852452    4.3852452    4.3852452    4463.5947    32627.896   -27792.214    8555.1019   -7858.6657     5947.485    -6720.426    84.329911 
   21500    1169.0359   -110.92761    1.0577682   -109.86984     13268.63     4.367268     4.367268     4.367268     13268.63    91459.122   -28992.934   -22660.297   -15541.716    25270.693   -4047.7708    83.297034 
   21600    2026.9868    -111.7221    1.8340602   -109.88804   -6998.8565     4.371261     4.371261     4.371261   -6998.8565    45676.942   -44604.127   -22069.385   -10863.886   -248.82579   -6936.4562    83.525715 
   21700    1232.0337   -111.02072      1.11477   -109.90595   -22540.241    4.3940115    4.3940115    4.3940115   -22540.241    38424.522   -76623.824   -29421.423   -14619.034    13968.594   -21278.262    84.836662 
   21800    1768.9224   -111.47482    1.6005581   -109.87427   -26035.386    4.3903771    4.3903771    4.3903771   -26035.386    19500.136   -62694.286   -34912.007   -3584.4387   -891.82912    5406.1129    84.626325 
   21900    1361.4384   -111.10215     1.231858    -109.8703    5901.3956     4.369067     4.369067     4.369067    5901.3956    84883.756   -52791.148    -14388.42    -11590.29    -14071.84   -19506.509    83.400012 
   22000    1615.0938    -111.3428    1.4613708   -109.88143   -10742.882    4.3687375    4.3687375    4.3687375   -10742.882    19512.595   -48997.754   -2743.4858   -19541.045   -13353.518    19528.753    83.381147 
   22100    1444.4855   -111.20513    1.3070009   -109.89813    24133.033    4.3782931    4.3782931    4.3782931    24133.033    68431.437   -32144.717    36112.379    10197.857    10018.514    2218.6365    83.929471 
   22200    1518.5049    -111.2685    1.3739752   -109.89453    6540.7417    4.3863835    4.3863835    4.3863835    6540.7417   -5764.7029   -25950.393     51337.32   -3246.7795   -10861.291   -1542.6021    84.395601 
   22300     837.4798    -110.6408   0.75776932   -109.88303    3802.3485    4.3875133    4.3875133    4.3875133    3802.3485    76295.901   -34863.916   -30024.939   -12834.887    7531.2945    16906.847    84.460831 
   22400    2204.7091   -111.85782    1.9948671   -109.86295   -5732.5201    4.3619641    4.3619641    4.3619641   -5732.5201   -2821.5197   -19136.142    4760.1011    5635.0681    13938.708    -3476.659    82.993918 
   22500    1145.6745   -110.92742    1.0366304   -109.89079    61399.524    4.3508198    4.3508198    4.3508198    61399.524     146600.7    8964.4168    28633.457   -9966.5875   -29365.182    20010.216    82.359422 
   22600    1188.8171   -111.00489    1.0756667   -109.92922   -14471.913    4.3858084    4.3858084    4.3858084   -14471.913    535.15322     -49603.8    5652.9089    17582.771    16081.021    8371.9408    84.362408 
   22700    1875.6063   -111.58591     1.697088   -109.88882   -24982.638    4.3867144    4.3867144    4.3867144   -24982.638    2509.3683   -32199.741    -45257.54    18808.121   -10351.453   -2242.2623    84.414699 
   22800    866.60164   -110.67566   0.78411938   -109.89154    9204.5788    4.3656428    4.3656428    4.3656428    9204.5788     96898.95   -47301.855   -21983.358   -24766.366    -2736.834    9822.7882    83.204072 
   22900    2210.6629   -111.88856    2.0002543   -109.88831   -18413.341    4.3543443    4.3543443    4.3543443   -18413.341   -6151.7238   -41033.625   -8054.6742   -7038.1095    24283.919   -6925.4282    82.559735 
   23000    1454.5791   -111.23019    1.3161337   -109.91405    2427.3717    4.3725526    4.3725526    4.3725526    2427.3717    98987.198   -43969.208   -47735.875   -5579.1633   -18697.616    6703.2871    83.599776 
   23100    1207.2385   -111.00082    1.0923348   -109.90849   -12433.043    4.3825504    4.3825504    4.3825504   -12433.043    59188.665   -49750.907   -46736.886   -18890.563    15067.443   -3641.3618    84.174542 
   23200    1521.0837   -111.27736    1.3763085   -109.90105   -1971.0984    4.3677766    4.3677766    4.3677766   -1971.0984    23257.968   -38713.361    9542.0978    11912.679    4783.8252     3106.066    83.326139 
   23300      1534.82   -111.28427    1.3887374   -109.89553    8348.8814    4.3619078    4.3619078    4.3619078    8348.8814    52003.043   -26507.198   -449.20033    1851.5139   -23056.913    18419.322    82.990702 
   23400    1714.8798   -111.44788    1.5516593   -109.89622   -627.50219    4.3721307    4.3721307    4.3721307   -627.50219    32533.674   -52371.786    17955.605   -12957.977   -10397.293   -9624.7168    83.575582 
   23500    1331.1459   -111.10583    1.2044488   -109.90138   -146.26784    4.3782472    4.3782472    4.3782472   -146.26784    78118.702   -53142.736    -25414.77     1809.274   -9910.4931     15645.27    83.926834 
   23600    1320.3221   -111.09899    1.1946552   -109.90433   -4762.7172    4.3738042    4.3738042    4.3738042   -4762.7172    46162.151   -18081.706   -42368.597    3558.8255   -33246.904    8336.4354    83.671591 
   23700    1967.9527    -111.6714    1.7806449   -109.89075    14446.786    4.3688081    4.3688081    4.3688081    14446.786    45458.396    12015.453   -14133.492    10017.089     11654.54    12806.471    83.385188 
   23800    1098.6605   -110.89907    0.9940911   -109.90498   -27061.399    4.3856335    4.3856335    4.3856335   -27061.399   -9031.4277    11636.781   -83789.552    748.82886   -45544.971    9288.3556    84.352316 
   23900    1707.2438   -111.41843    1.5447501   -109.87368   -3021.6426    4.3779525    4.3779525    4.3779525   -3021.6426    18236.385    6615.7732   -33917.086    5437.5222   -5654.2923    3096.4904    83.909888 
   24000     1726.494   -111.43317     1.562168     -109.871   -7230.8797    4.3786329    4.3786329    4.3786329   -7230.8797    16793.786    3720.0797   -42206.505    7157.6889   -4651.4302    17306.004    83.949014 
   24100    1360.1482   -111.09831    1.2306907   -109.86762   -11065.594    4.3886875    4.3886875    4.3886875   -11065.594    36525.138   -14140.648   -55581.271    1887.8007   -31424.321    1125.8139    84.528657 
   24200    1846.6201   -111.52283    1.6708606   -109.85197   -12444.396    4.3848954    4.3848954    4.3848954   -12444.396    42049.378   -50314.812   -29067.753      2291.29    22125.257   -5235.7454    84.309733 
   24300    1220.9283   -110.96695    1.1047216   -109.86223   -14260.424    4.3714452    4.3714452    4.3714452   -14260.424   -18779.908    12911.186    -36912.55   -3165.2098   -53351.476    2350.4954    83.536277 
   24400    1782.3144   -111.49277    1.6126755    -109.8801    4052.4504    4.3646902    4.3646902    4.3646902    4052.4504    14088.663    20115.472   -22046.784   -7181.6081   -5620.3365   -6201.6234    83.149619 
   24500     1404.449   -111.16763     1.270775   -109.89685    9343.0871    4.3814312    4.3814312    4.3814312    9343.0871    51373.024   -9292.0594   -14051.703     2814.829   -719.56446   -537.46175    84.110068 
   24600    1124.4587   -110.89405    1.0174338   -109.87662   -803.96657    4.4000918    4.4000918    4.4000918   -803.96657   -5670.3481    26323.331   -23064.883   -6966.6735   -39075.462   -8128.1485    85.189334 
   24700    1363.2812   -111.06956    1.2335255   -109.83604   -5914.2542    4.3948832    4.3948832    4.3948832   -5914.2542   -24359.118    35910.065    -29293.71   -4685.5543    7653.8421   -3663.9689    84.887162 
   24800    1365.5473   -111.06304    1.2355759   -109.82747   -2714.3725    4.3696892    4.3696892    4.3696892   -2714.3725   -28156.048    20418.072   -405.14192   -5659.7566   -23024.485    19262.836     83.43565 
   24900    1909.6285   -111.56837     1.727872   -109.84049    3771.4092    4.3738663    4.3738663    4.3738663    3771.4092   -5623.5394    37725.358    -20787.59   -6918.5094    9020.2039    -16015.39    83.675151 
   25000    1070.5873   -110.83578   0.96868988   -109.86709   -7874.2405    4.3881561    4.3881561    4.3881561   -7874.2405   -53268.059    -2838.109    32483.446   -15095.632   -13129.279    5117.3572    84.497959 
   25100    1980.3933   -111.65382    1.7919015   -109.86192   -25181.915    4.3876618    4.3876618    4.3876618   -25181.915    2195.1465   -27145.529   -50595.362   -8754.9993    4397.2543    9553.3668    84.469408 
   25200    1367.1415   -111.10699    1.2370183   -109.86997    773.09885    4.3794293    4.3794293    4.3794293    773.09885   -44051.046    39321.931    7048.4123    3547.2364   -12427.154   -12720.062    83.994832 
   25300    1340.6039   -111.09022    1.2130066   -109.87722   -22485.319    4.3673117    4.3673117    4.3673117   -22485.319    9587.1195   -14837.634   -62205.442    9849.2295   -23891.948    8711.2033    83.299536 
   25400    1402.5713   -111.14691     1.269076   -109.87784     52239.53    4.3634129    4.3634129    4.3634129     52239.53    33835.756    91263.244    31619.592    -2363.062    1538.0073   -9400.1817    83.076643 
   25500    1353.6591   -111.12619    1.2248192   -109.90137   -25656.174    4.3890037    4.3890037    4.3890037   -25656.174   -44652.072    46873.317   -79189.769    5508.9419   -25261.942   -389.20057    84.546931 
   25600     1820.428   -111.50324    1.6471615   -109.85608   -13354.372    4.3902717    4.3902717    4.3902717   -13354.372    -10915.02   -21330.163   -7817.9316     155.1863    897.92892   -3116.1245    84.620226 
   25700    1313.9577   -111.02602    1.1888966   -109.83712    29017.447    4.3674111    4.3674111    4.3674111    29017.447    19162.181    60052.391     7837.767   -11495.031   -16961.533   -8680.6114    83.305221 
   25800    1287.1425   -111.03038    1.1646336   -109.86575   -6220.0957    4.3666326    4.3666326    4.3666326   -6220.0957   -19998.382    10578.861   -9240.7663    2006.9084   -11321.085   -978.95069     83.26068 
   25900    1908.4222   -111.60331    1.7267805   -109.87653    11308.023    4.3762411    4.3762411    4.3762411    11308.023    22112.624    13258.068   -1446.6219   -22515.045   -4242.3999    8272.0026     83.81152 
   26000    1005.0828   -110.79753   0.90942007   -109.88811   -18506.142    4.3980137    4.3980137    4.3980137   -18506.142    -14895.77   -12321.274   -28301.381   -13210.338   -16760.803    8217.5369     85.06869 
   26100    1721.2126   -111.40719    1.5573893    -109.8498   -7943.2347    4.3817513    4.3817513    4.3817513   -7943.2347    7515.8406   -4235.0991   -27110.446   -12361.639    11763.899    18200.749    84.128506 
   26200    1057.0738   -110.80279   0.95646262   -109.84632     31571.78    4.3614411    4.3614411    4.3614411     31571.78    86878.334    11287.918   -3450.9121   -17594.722   -15562.484   -6788.3488    82.964065 
   26300    1672.4017   -111.39603    1.5132242   -109.88281   -17351.797    4.3791963    4.3791963    4.3791963   -17351.797   -18995.218      14603.3   -47663.473   -2467.9893   -18306.174    923.37932    83.981424 
   26400    1229.1364   -110.97933    1.1121485   -109.86718    13107.126    4.3976515    4.3976515    4.3976515    13107.126    54663.001    -18166.18    2824.5568    10033.096   -433.32616   -16295.359    85.047674 
   26500     1353.055   -111.08026    1.2242726   -109.85599   -42342.952    4.3925173    4.3925173    4.3925173   -42342.952   -71064.204   -20899.608   -35065.045   -7790.3144   -18896.027   -10472.452    84.750145 
   26600    1626.0744   -111.31311    1.4713063   -109.84181    42845.517    4.3613879    4.3613879    4.3613879    42845.517    91297.873   -5365.6459    42604.322   -5941.1779    19149.708   -2161.9315    82.961034 
   26700    1332.4035   -111.09383    1.2055867   -109.88824   -5186.0886    4.3691019    4.3691019    4.3691019   -5186.0886   -15676.394   -7388.0518    7506.1796    6905.4952   -15039.528   -15881.997    83.402009 
   26800    1279.2709   -111.04811    1.1575112    -109.8906   -33394.418    4.3941111    4.3941111    4.3941111   -33394.418   -21087.909   -39976.679   -39118.666    -4455.591   -29102.077     8587.398    84.842432 
   26900    2002.5376   -111.65993    1.8119381   -109.84799    7276.1367    4.3793326    4.3793326    4.3793326    7276.1367    22659.738   -18875.927    18044.599    3885.8537   -9659.6069   -13310.884    83.989268 
   27000    1529.2876   -111.23578    1.3837316   -109.85204   -18154.109    4.3801573    4.3801573    4.3801573   -18154.109    12496.708   -35779.559   -31179.476    8603.1983   -29360.485   -13821.696    84.036728 
   27100    1501.9127   -111.20506    1.3589621    -109.8461   -21419.226     4.392104     4.392104     4.392104   -21419.226    3706.8453   -41271.108   -26693.417    14473.004   -1712.1526    602.12974    84.726222 
   27200    1796.2591    -111.4614     1.625293   -109.83611    10287.206    4.3611293    4.3611293    4.3611293    10287.206    2506.2907    8621.5508    19733.777    12198.167   -7690.2159   -9333.5832    82.946275 
   27300    1184.8074   -110.95367    1.0720387   -109.88163     22160.35    4.3656986    4.3656986    4.3656986     22160.35    67544.976    3665.2278   -4729.1546   -1896.2991   -18558.784    4108.2759    83.207268 
   27400    1840.4312   -111.54672    1.6652609   -109.88146    -27788.67    4.4031934    4.4031934    4.4031934    -27788.67   -5270.7294   -75590.502   -2504.7782    13659.604    9887.7277   -8855.3205    85.369604 
   27500    1425.3068   -111.17418    1.2896476   -109.88453   -6684.7649    4.3763423    4.3763423    4.3763423   -6684.7649   -5338.4685   -22572.079    7856.2524   -9459.9676   -9474.7646   -16346.819    83.817336 
   27600    1329.6926   -111.05749    1.2031338   -109.85436    57183.748    4.3399463    4.3399463    4.3399463    57183.748    95855.577     61011.79    14683.876   -10480.073   -14958.321    2368.8172    81.743471 
   27700    1579.7899   -111.33058    1.4294271   -109.90115    3934.6247     4.376334     4.376334     4.376334    3934.6247    39533.919   -43350.694    15620.648    14312.028     5196.498   -16856.098    83.816856 
   27800    1358.3445   -111.10896    1.2290586    -109.8799    1105.3404    4.3949686    4.3949686    4.3949686    1105.3404    42421.417   -6366.9564   -32738.439   -16403.889   -23979.059    123.90385    84.892109 
   27900    1678.4158   -111.37263    1.5186659   -109.85397   -7483.3835    4.3785445    4.3785445    4.3785445   -7483.3835   -37358.992    15503.379   -594.53843    4882.1563   -5692.9669   -3323.7991    83.943931 
   28000    1713.5185   -111.39719    1.5504276   -109.84676    25513.174    4.3701386    4.3701386    4.3701386    25513.174    90447.987    1907.6248    -15816.09    1734.7476     7716.453   -22910.503    83.461391 
   28100    1066.9376   -110.83677   0.96538757   -109.87138   -11814.975    4.3884865    4.3884865    4.3884865   -11814.975   -49136.672    3498.6742    10193.073    16961.546   -15760.799    70.502736    84.517045 
   28200    1883.2254   -111.56017    1.7039819   -109.85618   -29075.584    4.3893809    4.3893809    4.3893809   -29075.584   -35223.202   -62878.461    10874.911   -2509.3206    909.48327   -11030.207    84.568732 
   28300    1417.0619    -111.1365    1.2821874   -109.85431    37282.654    4.3655022    4.3655022    4.3655022    37282.654    65354.383    46931.439   -437.85937   -23583.275   -14558.403   -5113.7339    83.196039 
   28400    1383.1658   -111.11206    1.2515175   -109.86055    20248.425    4.3655896    4.3655896    4.3655896    20248.425   -18613.557     14277.04    65081.792    5800.9973   -6540.6941   -4740.1184    83.201036 
   28500    1962.9111   -111.62837    1.7760832   -109.85228   -19309.436    4.3948686    4.3948686    4.3948686   -19309.436   -11541.409   -17300.567   -29086.332    3872.3648   -7561.9906   -9374.2695    84.886313 
   28600     1294.139   -111.01166    1.1709641    -109.8407   -34885.676    4.3947338    4.3947338    4.3947338   -34885.676   -30414.882   -14807.819   -59434.327    12136.574   -25745.517   -7523.4546    84.878504 
   28700    1205.3452   -110.92839    1.0906217   -109.83777    54243.835    4.3707494    4.3707494    4.3707494    54243.835    25970.547    60404.273    76356.685   -8967.5519    20125.792   -10463.936    83.496395 
   28800    1423.6272    -111.1465    1.2881278   -109.85837    7700.0978    4.3655443    4.3655443    4.3655443    7700.0978   -12310.509     49963.06   -14552.258   -24092.418   -20202.478     6789.621    83.198444 
   28900    1695.9504    -111.4055    1.5345316   -109.87097   -8908.9877    4.3793175    4.3793175    4.3793175   -8908.9877   -21361.939   -3476.1037   -1888.9201    11771.289      -2913.8      8752.64    83.988398 
   29000    1655.8502   -111.34829     1.498248   -109.85004   -17063.468    4.3986909    4.3986909    4.3986909   -17063.468   -46661.463     16174.82    -20703.76   -5060.8396   -2144.1898   -19607.958     85.10799 
   29100    651.75029   -110.43377   0.58971736   -109.84405   -780.85663    4.3846578    4.3846578    4.3846578   -780.85663   -6012.1933   -8756.7274    12426.351   -11189.254   -34115.987   -1802.6967    84.296028 
   29200    1960.2656   -111.59463    1.7736895   -109.82094    22018.383    4.3531446    4.3531446    4.3531446    22018.383    21555.236    16721.966    27777.947    16856.018    8426.3565     2670.672    82.491513 
   29300    1589.1069   -111.31089    1.4378573   -109.87303   -14327.557    4.3654775    4.3654775    4.3654775   -14327.557     4388.925    8334.2408   -55705.837   -22009.703   -8766.7886   -2808.9834    83.194625 
   29400    1411.8136   -111.14973    1.2774386   -109.87229   -19006.093     4.401279     4.401279     4.401279   -19006.093   -21546.861   -12440.049   -23031.369   -9455.7311    6203.1896   -7388.5455    85.258308 
   29500    1340.2834   -111.04541    1.2127166   -109.83269   -5765.4084    4.3940178    4.3940178    4.3940178   -5765.4084     -24993.2    29913.747   -22216.773   -2795.9747    15299.713   -10919.373    84.837023 
   29600     1551.568   -111.21852    1.4038914   -109.81463    88.446056    4.3673134    4.3673134    4.3673134    88.446056   -35121.049    59673.188   -24286.801   -20536.993   -9148.4009    2677.7581    83.299631 
   29700    1915.1996   -111.57539    1.7329128   -109.84248   -683.58236    4.3777806    4.3777806    4.3777806   -683.58236   -8543.7424    27028.133   -20535.137    5272.2882    16928.607   -4778.4291    83.900005 
   29800    1319.6828   -111.04735    1.1940768   -109.85327   -17642.218    4.3944635    4.3944635    4.3944635   -17642.218   -63965.929    55825.151   -44785.877   -9989.8707    14058.142   -20883.521    84.862847 
   29900    1833.9084    -111.4835    1.6593589   -109.82414   -13486.887     4.401206     4.401206     4.401206   -13486.887   -8817.6572    -3314.322   -28328.682   -43.361007   -5397.1652   -3472.2095    85.254063 
   30000    1215.6685   -110.91631    1.0999624   -109.81634   -7878.7529    4.3861203    4.3861203    4.3861203   -7878.7529    8488.6634   -25466.631   -6658.2906    9733.8189    17032.736   -9484.9495    84.380408 
   30100    1472.3378   -111.14976    1.3322022   -109.81756    5373.0002    4.3626799    4.3626799    4.3626799    5373.0002   -15688.519    33771.797   -1964.2777   -6645.1546    8995.7213   -11482.893     83.03478 
   30200    2022.1651   -111.66772    1.8296975   -109.83802    19121.323    4.3656811    4.3656811    4.3656811    19121.323    25792.968    3151.9161    28419.085     2030.749    3982.4825    7614.5578    83.206267 
   30300     1090.589     -110.858   0.98678781   -109.87121    10631.807    4.3820764    4.3820764    4.3820764    10631.807    46080.814   -23307.832    9122.4404   -11915.225    14599.317   -11231.375    84.147233 
   30400    1819.3303   -111.50889    1.6461683   -109.86272   -34542.728    4.3888717    4.3888717    4.3888717   -34542.728   -37079.279   -46264.402   -20284.502   -7182.8043    9617.0585   -10199.856    84.539299 
   30500    1557.3178   -111.26193    1.4090939   -109.85283    22981.166     4.363094     4.363094     4.363094    22981.166    35351.483    -22468.41    56060.426    23380.458   -4261.2064     9986.091    83.058429 
   30600     1436.224   -111.16344    1.2995256   -109.86391    21688.676    4.3564719    4.3564719    4.3564719    21688.676    46926.618   -21995.729    40135.137   -21649.017    7631.3523   -9405.3288    82.680813 
   30700    1598.2617   -111.32109    1.4461408   -109.87495   -40611.501    4.3860016    4.3860016    4.3860016   -40611.501   -34128.267   -63268.434     -24437.8    27441.929    1710.2506    17272.237    84.373555 
   30800    1679.7239   -111.37665    1.5198495    -109.8568    4115.1988    4.3699737    4.3699737    4.3699737    4115.1988    57850.485   -50411.098    4906.2099    27450.975     13056.51   -10599.475    83.451949 
   30900    1315.7319    -111.0606    1.1905019    -109.8701   -3125.5661    4.3617767    4.3617767    4.3617767   -3125.5661   -8250.5283   -31376.413    30250.243    -19423.47   -3007.8495   -2784.1069    82.983221 
   31000    1130.8678   -110.91139     1.023233   -109.88815   -19113.241    4.3702317    4.3702317    4.3702317   -19113.241   -10459.785   -29111.521   -17768.418    23737.574    18033.912    9760.1346    83.466727 
   31100    1546.5126   -111.27823    1.3993171   -109.87892    23940.491    4.3659731    4.3659731    4.3659731    23940.491    14278.314   -15489.411    73032.569   -398.78239    2042.3398   -5438.3782    83.222963 
   31200     1775.148   -111.48758    1.6061912   -109.88139   -41221.316    4.3866381    4.3866381    4.3866381   -41221.316   -44308.943   -40241.999   -39113.006   -8711.0041    18852.544    7655.4103    84.410296 
   31300    1303.0395    -111.0547    1.1790175   -109.87569   -33097.482    4.3748425    4.3748425    4.3748425   -33097.482   -69922.268   -31988.187    2618.0095    19536.084    6510.0014    6587.4446    83.731191 
   31400    1608.7985   -111.30776    1.4556747   -109.85209    52210.351    4.3405401    4.3405401    4.3405401    52210.351    44180.242    33658.619    78792.191   -6911.9086   -1304.6852   -24693.023    81.777028 
   31500     1722.455    -111.4543    1.5585134   -109.89579   -25411.279    4.3700676    4.3700676    4.3700676   -25411.279   -45210.605   -30781.537   -241.69537    7970.6869     8434.288    3722.6621    83.457325 
   31600     1487.113   -111.21997    1.3455711    -109.8744   -16650.722     4.387368     4.387368     4.387368   -16650.722   -43492.929   -10187.687    3728.4493    11763.753   -22027.867   -4668.8548    84.452435 
   31700    1788.9539   -111.46802    1.6186831   -109.84933    11602.033    4.3755498    4.3755498    4.3755498    11602.033     21305.37   -32329.848    45830.577   -5655.4947    4910.5053    -22138.69    83.771809 
   31800    1415.0255   -111.14058    1.2803448   -109.86023   -26404.117    4.3756692    4.3756692    4.3756692   -26404.117   -42835.415   -959.03673   -35417.899     20118.25   -12603.396    8887.1395    83.778669 
   31900    1839.6138   -111.51927    1.6645212   -109.85475   -7459.6938    4.3745966    4.3745966    4.3745966   -7459.6938    3693.1762     -4272.01   -21800.248    2792.2447   -7468.7745   -15587.801    83.717073 
   32000    2006.5977   -111.67314    1.8156117   -109.85753   -22952.697    4.3808689    4.3808689    4.3808689   -22952.697    18025.626   -37594.779   -49288.939    8129.4253     13336.49   -3522.5049    84.077688 
   32100    1294.1217   -111.03526    1.1709486   -109.86431    -30496.82    4.3786684    4.3786684    4.3786684    -30496.82   -46007.721    16970.751   -62453.491    27567.522   -22112.842     12216.16     83.95106 
   32200    1810.0223   -111.48552    1.6377462   -109.84777    8915.9099    4.3573698    4.3573698    4.3573698    8915.9099    21669.581   -1585.1857    6663.3346   -3415.3918    622.47052   -16087.245    82.731947 
   32300    1258.7564   -111.02313    1.1389493   -109.88418   -15762.549    4.3766163    4.3766163    4.3766163   -15762.549    -29650.16    10027.756   -27665.244   -16153.719   -2703.8661    6911.4878    83.833081 
   32400    1401.4431   -111.13449    1.2680552   -109.86643    6957.4704    4.3775398    4.3775398    4.3775398    6957.4704    61835.181   -3880.7536   -37082.017    1012.0451   -19582.455    12921.756    83.886161 
   32500    1570.4462   -111.27488    1.4209727   -109.85391    3819.1542    4.3631728    4.3631728    4.3631728    3819.1542   -4262.3794    28996.871   -13277.029   -13340.471    33203.658   -10321.341    83.062927 
   32600    1337.4181   -111.07853     1.210124   -109.86841   -13864.692    4.3696773    4.3696773    4.3696773   -13864.692   -39227.456    12390.684   -14757.304   -3408.0565   -35386.782   -9758.3506    83.434967 
   32700    1655.0909   -111.35792     1.497561   -109.86036    14146.473    4.3665135    4.3665135    4.3665135    14146.473    46397.748    23960.245   -27918.573   -140.51212    15411.028    429.64924    83.253871 
   32800    1321.6897   -111.08061    1.1958926   -109.88472   -9153.6379    4.3768281    4.3768281    4.3768281   -9153.6379   -39819.361    25108.695   -12750.248   -2829.8821    2945.0654   -7682.3598     83.84525 
   32900    1620.3117   -111.34287    1.4660921   -109.87678    -23718.25    4.3758404    4.3758404    4.3758404    -23718.25   -50186.825    46736.503   -67704.427   -518.92617   -43720.664   -1198.0839    83.788503 
   33000    1080.2749   -110.84881    0.9774554   -109.87135    54818.247     4.347952     4.347952     4.347952    54818.247    58475.983    86336.146    19642.613   -11540.019     25382.13    3672.4401    82.196668 
   33100    1213.7172   -111.00099    1.0981968    -109.9028    22739.917    4.3683769    4.3683769    4.3683769    22739.917    36036.577    69504.283    -37321.11   -22367.531   -25384.349    -15542.86    83.360498 
   33200    1448.4055   -111.17933    1.3105478   -109.86878   -8821.7245    4.4024109    4.4024109    4.4024109   -8821.7245    24030.369    10898.116   -61393.659   -18291.415   -3754.6323   -453.20184    85.324101 
   33300    1102.1085   -110.83609   0.99721094   -109.83888    7350.7588    4.3897781    4.3897781    4.3897781    7350.7588    27938.169    29012.096   -34897.988   -13144.964    336.85319    1165.8388    84.591688 
   33400    1849.4663   -111.50394     1.673436   -109.83051   -6500.6148    4.3598802    4.3598802    4.3598802   -6500.6148   -8953.4085    15059.564       -25608     -18354.3    -9990.308   -2735.3665    82.875025 
   33500    1289.0345   -111.02557    1.1663455   -109.85922    16122.868     4.347331     4.347331     4.347331    16122.868    9191.5042    35392.788    3784.3107   -2906.8699    9416.1587    22410.843    82.161453 
   33600    1384.8315   -111.15091    1.2530247   -109.89788    18703.032    4.3678897    4.3678897    4.3678897    18703.032    52948.658    22420.621   -19260.182   -14513.071   -32591.673   -7343.9205     83.33261 
[...]
   91300    1773.6679   -111.47487     1.604852   -109.87002    9963.8943    4.3370625    4.3370625    4.3370625    9963.8943   -4175.3012   -3007.3565     37074.34    6597.7517   -29428.967   -9344.6297    81.580626 
   91400    1662.7392    -111.3806    1.5044814   -109.87612   -17702.375    4.3369511    4.3369511    4.3369511   -17702.375   -51121.016    27526.462   -29512.569    2926.8875    33250.125    7275.5902    81.574339 
   91500    1570.5994   -111.30077    1.4211114   -109.87966    10711.504    4.3273709    4.3273709    4.3273709    10711.504    16045.121    12717.335    3372.0569       -17730    39813.079   -4733.2961     81.03495 
   91600    1379.3568   -111.13683     1.248071   -109.88876   -11540.369    4.3370367    4.3370367    4.3370367   -11540.369   -5518.5346   -8349.4222   -20753.149   -2029.1535   -37259.412   -6915.3428    81.579174 
   91700    1222.9914   -110.99408    1.1065883    -109.8875   -2278.5627    4.3378771    4.3378771    4.3378771   -2278.5627   -20811.995    45130.876   -31154.569    5903.1435    41001.696   -4394.3696    81.626603 
   91800     1558.227   -111.29014    1.4099166   -109.88022     8399.806    4.3406788    4.3406788    4.3406788     8399.806     33099.32    -9436.847    1536.9448   -39999.681   -10695.449   -3254.1231    81.784866 
   91900    1395.6703   -111.13149    1.2628318   -109.86866    -6589.957    4.3504743    4.3504743    4.3504743    -6589.957    14517.478    2109.4932   -36396.842    4174.6243    -4625.524   -9794.1647    82.339805 
   92000    1729.2504   -111.42495    1.5646621   -109.86029    17799.726    4.3291837    4.3291837    4.3291837    17799.726    7263.1685    31017.288    15118.722   -18241.684    35711.423    -6164.794    81.136829 
   92100    893.93867   -110.69021    0.8088545   -109.88135    17467.242    4.3197148    4.3197148    4.3197148    17467.242    42785.251    14869.687   -5253.2112   -37921.241   -24557.947   -11822.679      80.6056 
   92200    1749.9121   -111.46927    1.5833572   -109.88592   -12383.582    4.3396691    4.3396691    4.3396691   -12383.582    4267.5297    172.76387   -41591.041    4561.6548   -11871.192   -1860.6356    81.727806 
   92300    1421.9349   -111.16953    1.2865965   -109.88293    27946.684    4.3402021    4.3402021    4.3402021    27946.684    31129.435   -2072.2864    54782.905   -21159.188    22390.356   -9114.5983    81.757922 
   92400     1017.179   -110.80311   0.92036494   -109.88274   -6253.5767    4.3498259    4.3498259    4.3498259   -6253.5767    24887.149   -27193.174   -16454.705   -17386.056    -27215.48   -17598.637    82.302993 
   92500    2023.2286   -111.68528    1.8306597   -109.85462    5054.4774    4.3490239    4.3490239    4.3490239    5054.4774   -13136.392     35186.29   -6886.4656    5848.5593    1362.1384    11765.152    82.257475 
   92600    1182.8596    -110.9396    1.0702763   -109.86933    17777.325     4.325962     4.325962     4.325962    17777.325    6622.1737    3468.7802    43241.022    -17631.72   -8898.0706   -25129.458    80.955823 
   92700    1461.7017    -111.2056    1.3225784   -109.88303    11092.977    4.3290799    4.3290799    4.3290799    11092.977   -10782.037    19733.865    24327.103   -868.93556   -38867.134   -13805.579    81.130997 
   92800    1685.9115   -111.40782    1.5254481   -109.88237     7793.708     4.338252     4.338252     4.338252     7793.708   -9901.6015    5008.4618    28274.264    13461.073    4666.1061      5749.13    81.647772 
   92900    922.21018    -110.7244   0.83443515   -109.88997    11855.002    4.3483268    4.3483268    4.3483268    11855.002   -8138.1632   -24168.212    67871.381   -16504.866   -5426.1177   -38729.315     82.21793 
   93000    1910.3295   -111.58195    1.7285063   -109.85344    10118.132    4.3597411    4.3597411    4.3597411    10118.132   -26653.717    17254.868    39753.246    11447.526    -12867.62   -40.427139    82.867092 
   93100    835.85278   -110.62543   0.75629716   -109.86913    11312.575    4.3371024    4.3371024    4.3371024    11312.575   -36611.467    1266.8174    69282.375    -13782.11    10270.943   -22096.891    81.582882 
   93200    1733.5517   -111.42814     1.568554   -109.85959    33725.769    4.3276686    4.3276686    4.3276686    33725.769    13708.265    47633.337    39835.704   -9175.1981    9243.8284   -37539.956    81.051673 
   93300     1571.543   -111.30007    1.4219652   -109.87811    379.88914     4.347872     4.347872     4.347872    379.88914    -34912.36    3272.7858    32779.242    17146.808     -3744.69    16742.764    82.192132 
   93400    881.99228   -110.67818   0.79804515   -109.88013   -17996.747       4.3519       4.3519       4.3519   -17996.747   -59277.522   -14628.143    19915.422   -20604.682    14920.164   -21371.139    82.420781 
   93500    1804.5047   -111.48564    1.6327537   -109.85289    20476.872    4.3362735    4.3362735    4.3362735    20476.872   -1643.6404    49213.663    13860.593    12071.349   -2930.8711   -12851.879    81.536114 
   93600    1016.1351   -110.79716   0.91942039   -109.87774   -26215.443    4.3389353    4.3389353    4.3389353   -26215.443   -51860.365    -53620.97    26835.005    -14676.15    6775.5954    27983.027    81.686354 
   93700    1636.2415   -111.35517    1.4805057   -109.87466    4965.7919    4.3389364    4.3389364    4.3389364    4965.7919   -15325.216   -10371.166    40593.758   -3903.2275     14315.82   -14317.554    81.686419 
   93800    1791.1303   -111.49773    1.6206524   -109.87707    358.73289    4.3394025    4.3394025    4.3394025    358.73289    -13695.21   -9264.7408    24036.149    6649.3187   -20567.591    15937.682    81.712748 
   93900    803.41441    -110.6256   0.72694625   -109.89866   -31163.883    4.3429235    4.3429235    4.3429235   -31163.883   -25142.743   -87919.367     19570.46   -29737.969   -593.23966    21827.651    81.911815 
   94000    2241.1675   -111.90595    2.0278554   -109.87809    26933.403    4.3246131    4.3246131    4.3246131    26933.403    -780.0868     26667.85    54912.446    5911.0328   -5870.4918   -8742.9592     80.88012 
   94100    954.39715   -110.77285    0.8635586   -109.90929     4438.257    4.3337409    4.3337409    4.3337409     4438.257   -6469.6585   -2549.9536    22334.383   -28687.457    -9549.329    22633.426    81.393334 
   94200    1416.0669   -111.17644    1.2812871   -109.89516   -10577.679    4.3567109    4.3567109    4.3567109   -10577.679   -44080.652   -1458.4954    13806.112   -17181.634   -6906.4697     6425.961    82.694423 
   94300    1846.5329   -111.53332    1.6707818   -109.86253    5353.8804    4.3568496    4.3568496    4.3568496    5353.8804   -26121.142    37490.305    4692.4777    3174.2101    11607.307    -6797.993    82.702324 
   94400    902.22278   -110.69943   0.81635013   -109.88308   -12043.068    4.3339633    4.3339633    4.3339633   -12043.068   -40506.244   -14459.646    18836.686   -41334.133   -8755.1653    13446.444    81.405864 
   94500    1601.9899   -111.32584    1.4495141   -109.87633    23608.337    4.3138608    4.3138608    4.3138608    23608.337   -22220.555    63269.194    29776.371   -8900.9642    22262.281    8805.2527    80.278342 
   94600    1889.4985    -111.6071    1.7096579   -109.89744    7991.8881    4.3307913    4.3307913    4.3307913    7991.8881    998.48355   -13850.131    36827.312    60.606733    8128.7707    -15723.62    81.227252 
   94700    1153.8632   -110.95622    1.0440397   -109.91218    -35156.27    4.3580167    4.3580167    4.3580167    -35156.27    -26753.74    -60391.14   -18323.929   -37131.166   -1133.0985    22091.928    82.768802 
   94800    1905.3327   -111.61357    1.7239851   -109.88958   -2344.1635    4.3463455    4.3463455    4.3463455   -2344.1635   -41584.078    14703.788    19847.799     9359.803    19176.254    8321.8177     82.10559 
   94900    1463.1522   -111.20551    1.3238908   -109.88162    24228.692    4.3228758    4.3228758    4.3228758    24228.692   -8992.9476    12731.408    68947.616   -18269.423   -12291.666    6302.4918    80.782683 
   95000    1238.1519   -111.01833    1.1203058   -109.89802   -14314.529    4.3275114    4.3275114    4.3275114   -14314.529   -16779.178   -18733.333   -7431.0771   -35272.494    8624.8707    39219.089    81.042841 
   95100    2058.8618   -111.75934    1.8629015   -109.89643    10164.011    4.3376845    4.3376845    4.3376845    10164.011    -33670.41    25831.462     38330.98    23300.931   -3590.9127   -15123.462    81.615732 
   95200    1186.9462   -110.98459    1.0739739   -109.91061   -5026.5274     4.343068     4.343068     4.343068   -5026.5274   -40684.281    21514.411    4090.2878   -30503.429   -15467.464    11072.552     81.91999 
   95300    1484.6831   -111.25513    1.3433725   -109.91175   -18739.465    4.3369488    4.3369488    4.3369488   -18739.465   -14589.944   -25674.738   -15953.712   -27618.837    1206.5343    24998.678    81.574212 
   95400    1899.3381   -111.61723     1.718561   -109.89867     38693.87    4.3199498    4.3199498    4.3199498     38693.87   -9200.1588    73905.955    51375.812    31155.989   -5163.2208   -18658.716     80.61876 
   95500    1024.9986   -110.85151   0.92744024   -109.92407   -26882.895    4.3288912    4.3288912    4.3288912   -26882.895   -51530.327   -48307.916    19189.559   -38194.334   -7730.3086    18354.362    81.120385 
   95600     1623.273    -111.3825    1.4687715   -109.91373   -6940.4119    4.3414498    4.3414498    4.3414498   -6940.4119   -12691.111   -4849.5446     -3280.58   -2661.3406   -6325.8697    25425.088    81.828454 
   95700    1962.3561   -111.65954     1.775581   -109.88396   -18673.983     4.354961     4.354961     4.354961   -18673.983   -55990.549   -6717.4967    6686.0954    7674.4383    2590.5674   -8841.0787    82.594819 
   95800    745.27962   -110.56431   0.67434466   -109.88996   -35868.038     4.345492     4.345492     4.345492   -35868.038   -34837.766   -62263.749   -10502.599   -45202.762   -5598.9909    27010.968    82.057234 
   95900    1844.0739   -111.53125    1.6685568   -109.86269    17231.854    4.3225516    4.3225516    4.3225516    17231.854    27596.203     38473.06   -14373.701    17893.033    6867.1893    18544.351    80.764509 
   96000    1618.3271   -111.34357    1.4642964   -109.87927    646.27554    4.3328242    4.3328242    4.3328242    646.27554   -37403.104   -10681.267    50023.198   -37255.104     1653.667   -7612.7012    81.341695 
   96100    1216.2563   -110.99414    1.1004942   -109.89365    3132.0107    4.3433141    4.3433141    4.3433141    3132.0107   -12721.616   -11549.999    33667.647   -3003.8915   -8448.6223    53397.934    81.933918 
   96200    1658.6938   -111.38071     1.500821   -109.87989    3929.7935    4.3504343    4.3504343    4.3504343    3929.7935   -47249.451    26002.457    33036.375   -10582.325    11936.119   -4450.9906    82.337531 
   96300    1322.8179   -111.07831    1.1969134    -109.8814   -12190.561     4.341237     4.341237     4.341237   -12190.561   -47380.917   -52718.396    63527.629   -34387.235    531.95721    4595.9396    81.816421 
   96400    1055.4706   -110.82974   0.95501201   -109.87473    6788.2192     4.319796     4.319796     4.319796    6788.2192    12486.079    -1613.389    9491.9681    16684.557    2642.0667    49739.492    80.610144 
   96500     1890.532    -111.5946    1.7105931   -109.88401    5679.5394    4.3284035    4.3284035    4.3284035    5679.5394   -26599.808    34067.715    9570.7116   -25805.542    14871.561   -35338.426    81.092971 
   96600    1673.5328     -111.401    1.5142477   -109.88675   -19475.427    4.3443816    4.3443816    4.3443816   -19475.427   -9139.6951   -31436.575   -17850.011    2403.0604   -9117.7506     49911.25    81.994343 
   96700    1196.8522   -110.97874    1.0829371    -109.8958    4055.3105    4.3295641    4.3295641    4.3295641    4055.3105   -15264.725    15262.696     12167.96    8995.6268    9801.7468    18632.182    81.158222 
   96800    1833.0596   -111.53914    1.6585908   -109.88055    15120.086    4.3284102    4.3284102    4.3284102    15120.086   -7722.0442    6928.2612    46154.041    -9826.873    5615.6901   -10518.407     81.09335 
   96900    841.64753   -110.65949   0.76154037   -109.89794   -22502.389    4.3370291    4.3370291    4.3370291   -22502.389    15870.026   -60891.927   -22485.267    12322.309   -5503.5742    91561.862    81.578741 
   97000    1984.0551   -111.68058    1.7952148   -109.88537    674.41925    4.3384815    4.3384815    4.3384815    674.41925   -36213.742    4480.7881    33756.211   -64.211906    13049.455   -20961.055     81.66073 
   97100    1475.6131   -111.23222    1.3351658   -109.89706   -24896.984    4.3361917    4.3361917    4.3361917   -24896.984    7603.6249   -45242.173   -37052.403   -5709.0704    5493.6419     69268.14    81.531495 
   97200     1252.962   -111.02423    1.1337064   -109.89052    27813.354    4.3193391    4.3193391    4.3193391    27813.354    22645.864    -24134.76    84928.959    10914.778   -2202.7855    43278.736    80.584569 
   97300     2099.847   -111.78634    1.8999857   -109.88635   -9272.7647    4.3335412    4.3335412    4.3335412   -9272.7647   -12904.543   -25866.257    10952.506   -93.028098    15664.488   -4197.5473    81.382081 
   97400    807.58434   -110.62569   0.73071928   -109.89497   -35607.293    4.3463411    4.3463411    4.3463411   -35607.293    31624.725   -82802.302   -55644.302   -916.33696    6038.0491    89629.938    82.105341 
   97500    1977.2914   -111.65686    1.7890948   -109.86777    24154.458    4.3376823    4.3376823    4.3376823    24154.458   -2126.7067    13127.197    61462.883   -268.06628    1796.2987   -32364.962     81.61561 
   97600    1296.2118   -111.05379    1.1728397   -109.88095   -2664.2705    4.3324072    4.3324072    4.3324072   -2664.2705    22314.271   -42806.258    12499.175    1832.4018   -612.65023    55916.727    81.318208 
   97700     1495.793   -111.23535    1.3534249   -109.88192    8976.3709    4.3234383    4.3234383    4.3234383    8976.3709    5200.8674   -14297.079    36025.324   -3671.5392    2846.8482    26006.036    80.814221 
   97800    1555.7741   -111.30099    1.4076971   -109.89329    7561.8834    4.3264186    4.3264186    4.3264186    7561.8834    15548.614   -9333.4434     16470.48   -5273.6074     -4179.75   -26680.439     80.98146 
   97900    1638.0625   -111.37217    1.4821534   -109.89001   -14918.887    4.3459654    4.3459654    4.3459654   -14918.887    27551.929   -47711.863   -24596.726    -1774.536    984.02208    26565.294    82.084054 
   98000    1511.6692   -111.24575      1.36779   -109.87796   -20095.204    4.3446957    4.3446957    4.3446957   -20095.204   -39848.247   -20839.929    402.56427    -14793.66    8007.7923   -1489.5401     82.01213 
   98100    1330.4012   -111.08159     1.203775   -109.87782    -1084.973     4.323081     4.323081     4.323081    -1084.973    20288.836   -22342.631   -1201.1247    7035.7593   -3136.6504   -38481.809    80.794187 
   98200    1855.5552   -111.55377    1.6789454   -109.87482    782.23221    4.3202247    4.3202247    4.3202247    782.23221    10892.038   -14208.306     5662.965   -13854.666    7822.5365    13787.661     80.63415 
   98300    948.22522   -110.75694   0.85797411   -109.89897   -11419.273    4.3355597    4.3355597    4.3355597   -11419.273   -31199.819   -26617.531    23559.531   -33028.094   -4142.9166   -16507.135    81.495852 
   98400    1770.5537   -111.49108    1.6020342   -109.88905   -32549.967    4.3467001    4.3467001    4.3467001   -32549.967    9651.4842   -57343.175   -49958.211    29957.789    9887.7622    -51261.52    82.125692 
   98500    2015.1489   -111.70589     1.823349   -109.88255    11258.002    4.3295009    4.3295009    4.3295009    11258.002   -15108.683    22364.852    26517.836   -35566.085   -5604.0772    18448.399    81.154665 
   98600    1035.9052   -110.83037   0.93730881   -109.89306    7248.9137     4.316983     4.316983     4.316983    7248.9137    14257.789   -22456.854    29945.806   -14904.853   -774.06395   -61668.099    80.452775 
   98700    1518.1772   -111.26285    1.3736786   -109.88918    7507.8664    4.3277676    4.3277676    4.3277676    7507.8664    11853.225   -17828.703    28499.077    13990.073    1.1344125   -15877.525    81.057235 
   98800    1309.3039   -111.07578    1.1846857   -109.89109     15856.09    4.3354875    4.3354875    4.3354875     15856.09   -10082.941    26505.371    31145.839   -23682.353   -6885.5288    9665.5562    81.491784 
   98900    1552.8702   -111.28965    1.4050696   -109.88458    5030.9968    4.3435483    4.3435483    4.3435483    5030.9968    14340.587   -23914.711    24667.115    1345.6545    7796.5815   -64843.272    81.947171 
   99000    1885.1236   -111.58001    1.7056995   -109.87431    8124.3441    4.3348756    4.3348756    4.3348756    8124.3441    8207.4116    7301.7304    8863.8903   -6689.4593    9023.3361    39125.653    81.457283 
   99100    1061.9151   -110.84638   0.96084309   -109.88554    12062.656     4.321195     4.321195     4.321195    12062.656    19689.749   -9376.3822    25874.601   -24611.325   -8888.1338   -11120.465     80.68849 
   99200    1992.7367   -111.67913    1.8030701   -109.87606    2666.2472    4.3365739    4.3365739    4.3365739    2666.2472   -1890.2283   -25841.899    35730.869    10110.194    10954.385   -13324.285    81.553058 
   99300    1032.9809     -110.825   0.93466283   -109.89034   -11089.385    4.3380585    4.3380585    4.3380585   -11089.385   -17317.896   -7255.7313   -8694.5265    5676.1296    1476.6402     42260.45    81.636845 
   99400    1717.8545   -111.43394    1.5543509   -109.87959    26868.939    4.3234829    4.3234829    4.3234829    26868.939    4057.0831    17870.933    58678.801   -30791.665   -2869.4435   -10379.981    80.816722 
   99500    1773.3595   -111.48869    1.6045729   -109.88412   -4645.9924    4.3322991    4.3322991    4.3322991   -4645.9924   -9059.6164   -37571.315    32692.954    42434.129   -5431.7198     6659.447     81.31212 
   99600    1007.8677    -110.8051   0.91193984   -109.89316    3666.8552    4.3378128    4.3378128    4.3378128    3666.8552    -2986.359    967.58698    13019.338   -16931.152    7038.1711    26542.131    81.622972 
   99700    1823.2642   -111.52058    1.6497278   -109.87086   -3106.8176    4.3440468    4.3440468    4.3440468   -3106.8176   -24437.057   -16711.568    31828.172     16902.28   -6794.5374   -2468.7889    81.975387 
   99800    1213.0318   -110.97927    1.0975767    -109.8817   -24311.835    4.3376243    4.3376243    4.3376243   -24311.835   -40735.821   -43999.257    11799.574    44005.527   -3946.2267    10676.231    81.612335 
   99900      1868.24    -111.5567    1.6904228   -109.86628    30975.612     4.311467     4.311467     4.311467    30975.612    32691.224    51709.549    8526.0622   -20206.845   -670.21155    23705.404     80.14477 
  100000    1349.3345    -111.1116    1.2209062   -109.89069   -4265.2365    4.3278291    4.3278291    4.3278291   -4265.2365   -33600.911    -26404.69    47209.892    64653.456    2488.6897   -20004.934    81.060694 
Loop time of 22.135 on 1 procs for 100000 steps with 8 atoms

Pair  time (%) = 6.74513 (30.4727)
Kspce time (%) = 5.42615 (24.5139)
Neigh time (%) = 0.154575 (0.698328)
Comm  time (%) = 1.04568 (4.7241)
Outpt time (%) = 0.0270391 (0.122155)
Other time (%) = 8.73645 (39.4689)

Nlocal:    8 ave 8 max 8 min
Histogram: 1 0 0 0 0 0 0 0 0 0
Nghost:    2147 ave 2147 max 2147 min
Histogram: 1 0 0 0 0 0 0 0 0 0
Neighs:    2208 ave 2208 max 2208 min
Histogram: 1 0 0 0 0 0 0 0 0 0

Total # of neighbors = 2208
Ave neighs/atom = 276
Neighbor list builds = 1844
Dangerous builds = 0
unfix 20
unfix 21
print "seeds:9485422"
seeds:9485422
