# ['Ni']

107 atoms
1 atom types

    0.0000     9.7036 xlo xhi
    0.0000     9.7036 ylo yhi
    0.0000     9.7036 zlo zhi

    0.0000    -0.0000    -0.0000 xy xz yz

Atoms

1 1     1.6173     1.6173     0.0000
2 1     1.6173     0.0000     1.6173
3 1     0.0000     1.6173     1.6173
4 1     0.0000     0.0000     3.2345
5 1     1.6173     1.6173     3.2345
6 1     1.6173     0.0000     4.8518
7 1     0.0000     1.6173     4.8518
8 1     0.0000     0.0000     6.4691
9 1     1.6173     1.6173     6.4691
10 1     1.6173     0.0000     8.0863
11 1     0.0000     1.6173     8.0863
12 1     0.0000     3.2345     0.0000
13 1     1.6173     4.8518     0.0000
14 1     1.6173     3.2345     1.6173
15 1     0.0000     4.8518     1.6173
16 1     0.0000     3.2345     3.2345
17 1     1.6173     4.8518     3.2345
18 1     1.6173     3.2345     4.8518
19 1     0.0000     4.8518     4.8518
20 1     0.0000     3.2345     6.4691
21 1     1.6173     4.8518     6.4691
22 1     1.6173     3.2345     8.0863
23 1     0.0000     4.8518     8.0863
24 1     0.0000     6.4691     0.0000
25 1     1.6173     8.0863     0.0000
26 1     1.6173     6.4691     1.6173
27 1     0.0000     8.0863     1.6173
28 1     0.0000     6.4691     3.2345
29 1     1.6173     8.0863     3.2345
30 1     1.6173     6.4691     4.8518
31 1     0.0000     8.0863     4.8518
32 1     0.0000     6.4691     6.4691
33 1     1.6173     8.0863     6.4691
34 1     1.6173     6.4691     8.0863
35 1     0.0000     8.0863     8.0863
36 1     3.2345     0.0000     0.0000
37 1     4.8518     1.6173     0.0000
38 1     4.8518     0.0000     1.6173
39 1     3.2345     1.6173     1.6173
40 1     3.2345     0.0000     3.2345
41 1     4.8518     1.6173     3.2345
42 1     4.8518     0.0000     4.8518
43 1     3.2345     1.6173     4.8518
44 1     3.2345     0.0000     6.4691
45 1     4.8518     1.6173     6.4691
46 1     4.8518     0.0000     8.0863
47 1     3.2345     1.6173     8.0863
48 1     3.2345     3.2345     0.0000
49 1     4.8518     4.8518     0.0000
50 1     4.8518     3.2345     1.6173
51 1     3.2345     4.8518     1.6173
52 1     3.2345     3.2345     3.2345
53 1     4.8518     4.8518     3.2345
54 1     4.8518     3.2345     4.8518
55 1     3.2345     4.8518     4.8518
56 1     3.2345     3.2345     6.4691
57 1     4.8518     4.8518     6.4691
58 1     4.8518     3.2345     8.0863
59 1     3.2345     4.8518     8.0863
60 1     3.2345     6.4691     0.0000
61 1     4.8518     8.0863     0.0000
62 1     4.8518     6.4691     1.6173
63 1     3.2345     8.0863     1.6173
64 1     3.2345     6.4691     3.2345
65 1     4.8518     8.0863     3.2345
66 1     4.8518     6.4691     4.8518
67 1     3.2345     8.0863     4.8518
68 1     3.2345     6.4691     6.4691
69 1     4.8518     8.0863     6.4691
70 1     4.8518     6.4691     8.0863
71 1     3.2345     8.0863     8.0863
72 1     6.4691     0.0000     0.0000
73 1     8.0863     1.6173     0.0000
74 1     8.0863     0.0000     1.6173
75 1     6.4691     1.6173     1.6173
76 1     6.4691     0.0000     3.2345
77 1     8.0863     1.6173     3.2345
78 1     8.0863     0.0000     4.8518
79 1     6.4691     1.6173     4.8518
80 1     6.4691     0.0000     6.4691
81 1     8.0863     1.6173     6.4691
82 1     8.0863     0.0000     8.0863
83 1     6.4691     1.6173     8.0863
84 1     6.4691     3.2345     0.0000
85 1     8.0863     4.8518     0.0000
86 1     8.0863     3.2345     1.6173
87 1     6.4691     4.8518     1.6173
88 1     6.4691     3.2345     3.2345
89 1     8.0863     4.8518     3.2345
90 1     8.0863     3.2345     4.8518
91 1     6.4691     4.8518     4.8518
92 1     6.4691     3.2345     6.4691
93 1     8.0863     4.8518     6.4691
94 1     8.0863     3.2345     8.0863
95 1     6.4691     4.8518     8.0863
96 1     6.4691     6.4691     0.0000
97 1     8.0863     8.0863     0.0000
98 1     8.0863     6.4691     1.6173
99 1     6.4691     8.0863     1.6173
100 1     6.4691     6.4691     3.2345
101 1     8.0863     8.0863     3.2345
102 1     8.0863     6.4691     4.8518
103 1     6.4691     8.0863     4.8518
104 1     6.4691     6.4691     6.4691
105 1     8.0863     8.0863     6.4691
106 1     8.0863     6.4691     8.0863
107 1     6.4691     8.0863     8.0863
