   2   2   0   0
  0.9563318E+01  0.3001819E-09  0.3001820E-09  0.3001819E-09  0.5000000E-15
  1.000000000000000E-004
  CAR 
 automatically generated by pyflamestk   
     44.07543059    -16.33565210  301      3.62517647      1.00000000
    -16.336  0.0000E+00  0.0000E+00
    -16.134  0.0000E+00  0.0000E+00
    -15.933  0.0000E+00  0.0000E+00
    -15.732  0.0000E+00  0.0000E+00
    -15.530  0.0000E+00  0.0000E+00
    -15.329  0.0000E+00  0.0000E+00
    -15.127  0.0000E+00  0.0000E+00
    -14.926  0.0000E+00  0.0000E+00
    -14.725  0.0000E+00  0.0000E+00
    -14.523  0.0000E+00  0.0000E+00
    -14.322  0.0000E+00  0.0000E+00
    -14.121  0.0000E+00  0.0000E+00
    -13.919  0.0000E+00  0.0000E+00
    -13.718  0.4493E-04  0.9048E-05
    -13.516  0.3044E+00  0.6130E-01
    -13.315  0.1039E-01  0.6339E-01
    -13.114  0.9258E+00  0.2498E+00
    -12.912  0.6623E+00  0.3832E+00
    -12.711  0.7892E+00  0.5421E+00
    -12.510  0.2474E+01  0.1040E+01
    -12.308  0.2851E+01  0.1614E+01
    -12.107  0.1916E+01  0.2000E+01
    -11.906  0.9904E-06  0.2000E+01
    -11.704  0.0000E+00  0.2000E+01
    -11.503  0.0000E+00  0.2000E+01
    -11.301  0.0000E+00  0.2000E+01
    -11.100  0.0000E+00  0.2000E+01
    -10.899  0.0000E+00  0.2000E+01
    -10.697  0.0000E+00  0.2000E+01
    -10.496  0.0000E+00  0.2000E+01
    -10.295  0.0000E+00  0.2000E+01
    -10.093  0.0000E+00  0.2000E+01
     -9.892  0.0000E+00  0.2000E+01
     -9.690  0.0000E+00  0.2000E+01
     -9.489  0.0000E+00  0.2000E+01
     -9.288  0.0000E+00  0.2000E+01
     -9.086  0.0000E+00  0.2000E+01
     -8.885  0.0000E+00  0.2000E+01
     -8.684  0.0000E+00  0.2000E+01
     -8.482  0.0000E+00  0.2000E+01
     -8.281  0.0000E+00  0.2000E+01
     -8.079  0.0000E+00  0.2000E+01
     -7.878  0.0000E+00  0.2000E+01
     -7.677  0.0000E+00  0.2000E+01
     -7.475  0.0000E+00  0.2000E+01
     -7.274  0.0000E+00  0.2000E+01
     -7.073  0.0000E+00  0.2000E+01
     -6.871  0.0000E+00  0.2000E+01
     -6.670  0.0000E+00  0.2000E+01
     -6.469  0.0000E+00  0.2000E+01
     -6.267  0.0000E+00  0.2000E+01
     -6.066  0.0000E+00  0.2000E+01
     -5.864  0.0000E+00  0.2000E+01
     -5.663  0.0000E+00  0.2000E+01
     -5.462  0.0000E+00  0.2000E+01
     -5.260  0.0000E+00  0.2000E+01
     -5.059  0.0000E+00  0.2000E+01
     -4.858  0.0000E+00  0.2000E+01
     -4.656  0.0000E+00  0.2000E+01
     -4.455  0.0000E+00  0.2000E+01
     -4.253  0.0000E+00  0.2000E+01
     -4.052  0.0000E+00  0.2000E+01
     -3.851  0.0000E+00  0.2000E+01
     -3.649  0.0000E+00  0.2000E+01
     -3.448  0.0000E+00  0.2000E+01
     -3.247  0.0000E+00  0.2000E+01
     -3.045  0.0000E+00  0.2000E+01
     -2.844  0.0000E+00  0.2000E+01
     -2.642  0.0000E+00  0.2000E+01
     -2.441  0.0000E+00  0.2000E+01
     -2.240  0.0000E+00  0.2000E+01
     -2.038  0.0000E+00  0.2000E+01
     -1.837  0.0000E+00  0.2000E+01
     -1.636  0.0000E+00  0.2000E+01
     -1.434  0.0000E+00  0.2000E+01
     -1.233  0.0000E+00  0.2000E+01
     -1.032  0.1116E-07  0.2000E+01
     -0.830  0.5082E+00  0.2102E+01
     -0.629  0.4338E+00  0.2190E+01
     -0.427  0.3493E+00  0.2260E+01
     -0.226  0.2165E+01  0.2696E+01
     -0.025  0.2046E+01  0.3108E+01
      0.177  0.2227E+01  0.3556E+01
      0.378  0.9506E+00  0.3748E+01
      0.579  0.1077E-01  0.3750E+01
      0.781  0.1410E-08  0.3750E+01
      0.982  0.6787E+00  0.3887E+01
      1.184  0.2540E+01  0.4398E+01
      1.385  0.5061E+00  0.4500E+01
      1.586  0.3037E-04  0.4500E+01
      1.788  0.2588E+01  0.5021E+01
      1.989  0.2179E+00  0.5065E+01
      2.190  0.2278E+01  0.5524E+01
      2.392  0.2401E+01  0.6007E+01
      2.593  0.4245E+01  0.6862E+01
      2.795  0.1623E+01  0.7189E+01
      2.996  0.2580E+01  0.7708E+01
      3.197  0.8275E+00  0.7875E+01
      3.399  0.6155E+00  0.7999E+01
      3.600  0.4954E-02  0.8000E+01
      3.801  0.0000E+00  0.8000E+01
      4.003  0.0000E+00  0.8000E+01
      4.204  0.0000E+00  0.8000E+01
      4.405  0.0000E+00  0.8000E+01
      4.607  0.0000E+00  0.8000E+01
      4.808  0.0000E+00  0.8000E+01
      5.010  0.0000E+00  0.8000E+01
      5.211  0.0000E+00  0.8000E+01
      5.412  0.0000E+00  0.8000E+01
      5.614  0.0000E+00  0.8000E+01
      5.815  0.0000E+00  0.8000E+01
      6.016  0.0000E+00  0.8000E+01
      6.218  0.0000E+00  0.8000E+01
      6.419  0.0000E+00  0.8000E+01
      6.621  0.0000E+00  0.8000E+01
      6.822  0.0000E+00  0.8000E+01
      7.023  0.0000E+00  0.8000E+01
      7.225  0.0000E+00  0.8000E+01
      7.426  0.0000E+00  0.8000E+01
      7.627  0.0000E+00  0.8000E+01
      7.829  0.0000E+00  0.8000E+01
      8.030  0.0000E+00  0.8000E+01
      8.232  0.0000E+00  0.8000E+01
      8.433  0.0000E+00  0.8000E+01
      8.634  0.9037E-08  0.8000E+01
      8.836  0.1884E+00  0.8038E+01
      9.037  0.1220E+00  0.8062E+01
      9.238  0.0000E+00  0.8062E+01
      9.440  0.0000E+00  0.8062E+01
      9.641  0.0000E+00  0.8062E+01
      9.842  0.0000E+00  0.8062E+01
     10.044  0.0000E+00  0.8062E+01
     10.245  0.4118E-06  0.8063E+01
     10.447  0.7284E+00  0.8209E+01
     10.648  0.2027E+00  0.8250E+01
     10.849  0.5724E-08  0.8250E+01
     11.051  0.1786E+00  0.8286E+01
     11.252  0.6425E+00  0.8415E+01
     11.453  0.4203E+00  0.8500E+01
     11.655  0.1604E-06  0.8500E+01
     11.856  0.6752E+00  0.8636E+01
     12.058  0.2559E+00  0.8687E+01
     12.259  0.3750E-02  0.8688E+01
     12.460  0.9263E+00  0.8875E+01
     12.662  0.1530E+00  0.8906E+01
     12.863  0.1722E+01  0.9252E+01
     13.064  0.9196E+00  0.9437E+01
     13.266  0.9162E+00  0.9622E+01
     13.467  0.1500E-01  0.9625E+01
     13.669  0.8338E+00  0.9793E+01
     13.870  0.1035E+01  0.1000E+02
     14.071  0.1839E+01  0.1037E+02
     14.273  0.1688E-01  0.1038E+02
     14.474  0.0000E+00  0.1038E+02
     14.675  0.5405E-10  0.1038E+02
     14.877  0.6299E+00  0.1050E+02
     15.078  0.3095E+01  0.1112E+02
     15.279  0.1955E-01  0.1113E+02
     15.481  0.1848E+01  0.1150E+02
     15.682  0.2713E+01  0.1205E+02
     15.884  0.1317E+01  0.1231E+02
     16.085  0.2085E-01  0.1232E+02
     16.286  0.1525E+01  0.1262E+02
     16.488  0.3165E+00  0.1269E+02
     16.689  0.0000E+00  0.1269E+02
     16.890  0.8260E-07  0.1269E+02
     17.092  0.1184E+01  0.1293E+02
     17.293  0.9927E+00  0.1313E+02
     17.495  0.9238E+00  0.1331E+02
     17.696  0.3301E-02  0.1331E+02
     17.897  0.5352E-05  0.1331E+02
     18.099  0.8424E+00  0.1348E+02
     18.300  0.8876E-01  0.1350E+02
     18.501  0.5825E-13  0.1350E+02
     18.703  0.4015E-01  0.1351E+02
     18.904  0.8909E+00  0.1369E+02
     19.106  0.3208E-04  0.1369E+02
     19.307  0.1915E-03  0.1369E+02
     19.508  0.6927E+00  0.1383E+02
     19.710  0.2336E+01  0.1430E+02
     19.911  0.1830E+01  0.1467E+02
     20.112  0.1022E+01  0.1487E+02
     20.314  0.1619E+01  0.1520E+02
     20.515  0.1201E+01  0.1544E+02
     20.716  0.9195E+00  0.1562E+02
     20.918  0.2598E+00  0.1568E+02
     21.119  0.6750E+00  0.1581E+02
     21.321  0.9417E+00  0.1600E+02
     21.522  0.9170E+00  0.1619E+02
     21.723  0.1803E+01  0.1655E+02
     21.925  0.5919E-01  0.1656E+02
     22.126  0.1918E-03  0.1656E+02
     22.327  0.9167E+00  0.1675E+02
     22.529  0.1425E-01  0.1675E+02
     22.730  0.8985E+00  0.1693E+02
     22.932  0.1883E+01  0.1731E+02
     23.133  0.4517E+00  0.1740E+02
     23.334  0.1423E+01  0.1769E+02
     23.536  0.1747E-04  0.1769E+02
     23.737  0.5909E+00  0.1781E+02
     23.938  0.9495E+00  0.1800E+02
     24.140  0.1159E-01  0.1800E+02
     24.341  0.3079E+00  0.1806E+02
     24.543  0.9346E+00  0.1825E+02
     24.744  0.6196E+00  0.1837E+02
     24.945  0.5626E-02  0.1838E+02
     25.147  0.1230E+01  0.1862E+02
     25.348  0.5672E-02  0.1863E+02
     25.549  0.1509E+01  0.1893E+02
     25.751  0.1233E+01  0.1918E+02
     25.952  0.5172E-01  0.1919E+02
     26.153  0.8937E+00  0.1937E+02
     26.355  0.9685E+00  0.1956E+02
     26.556  0.2063E+00  0.1960E+02
     26.758  0.2587E+01  0.2012E+02
     26.959  0.2048E-02  0.2013E+02
     27.160  0.9389E+00  0.2031E+02
     27.362  0.9223E+00  0.2050E+02
     27.563  0.3091E+00  0.2056E+02
     27.764  0.3880E-03  0.2056E+02
     27.966  0.0000E+00  0.2056E+02
     28.167  0.0000E+00  0.2056E+02
     28.369  0.0000E+00  0.2056E+02
     28.570  0.0000E+00  0.2056E+02
     28.771  0.3471E-03  0.2056E+02
     28.973  0.6354E+00  0.2069E+02
     29.174  0.2715E+01  0.2124E+02
     29.375  0.9922E+00  0.2144E+02
     29.577  0.6401E+00  0.2157E+02
     29.778  0.2931E+00  0.2162E+02
     29.980  0.3124E-06  0.2163E+02
     30.181  0.1822E+01  0.2199E+02
     30.382  0.1800E+01  0.2235E+02
     30.584  0.1215E+01  0.2260E+02
     30.785  0.7490E+00  0.2275E+02
     30.986  0.6116E-06  0.2275E+02
     31.188  0.3952E+00  0.2283E+02
     31.389  0.1467E+01  0.2312E+02
     31.590  0.7443E+00  0.2327E+02
     31.792  0.1448E+01  0.2357E+02
     31.993  0.2464E+01  0.2406E+02
     32.195  0.1257E+01  0.2432E+02
     32.396  0.1253E+01  0.2457E+02
     32.597  0.4246E+01  0.2542E+02
     32.799  0.1706E+00  0.2546E+02
     33.000  0.2700E+01  0.2600E+02
     33.201  0.9248E+00  0.2619E+02
     33.403  0.7117E+00  0.2633E+02
     33.604  0.1772E+01  0.2669E+02
     33.806  0.7093E-06  0.2669E+02
     34.007  0.0000E+00  0.2669E+02
     34.208  0.0000E+00  0.2669E+02
     34.410  0.0000E+00  0.2669E+02
     34.611  0.0000E+00  0.2669E+02
     34.812  0.1384E-08  0.2669E+02
     35.014  0.4049E+00  0.2677E+02
     35.215  0.2388E+01  0.2725E+02
     35.417  0.4218E-03  0.2725E+02
     35.618  0.8069E+00  0.2741E+02
     35.819  0.2772E+01  0.2797E+02
     36.021  0.6945E+00  0.2811E+02
     36.222  0.3824E+00  0.2819E+02
     36.423  0.9283E-03  0.2819E+02
     36.625  0.1925E+01  0.2858E+02
     36.826  0.8674E+00  0.2875E+02
     37.027  0.2109E+00  0.2879E+02
     37.229  0.4098E+00  0.2887E+02
     37.430  0.7671E+00  0.2903E+02
     37.632  0.1100E+01  0.2925E+02
     37.833  0.9255E+00  0.2944E+02
     38.034  0.7883E+00  0.2960E+02
     38.236  0.1075E+01  0.2981E+02
     38.437  0.8612E+00  0.2999E+02
     38.638  0.6997E-01  0.3000E+02
     38.840  0.8096E-11  0.3000E+02
     39.041  0.1903E+00  0.3004E+02
     39.243  0.3802E+01  0.3080E+02
     39.444  0.4288E-01  0.3081E+02
     39.645  0.0000E+00  0.3081E+02
     39.847  0.0000E+00  0.3081E+02
     40.048  0.2068E-15  0.3081E+02
     40.249  0.6843E-02  0.3081E+02
     40.451  0.9238E+00  0.3100E+02
     40.652  0.5263E-03  0.3100E+02
     40.854  0.7658E-09  0.3100E+02
     41.055  0.1362E+00  0.3103E+02
     41.256  0.1569E+01  0.3134E+02
     41.458  0.3261E+01  0.3200E+02
     41.659  0.3011E-03  0.3200E+02
     41.860  0.0000E+00  0.3200E+02
     42.062  0.0000E+00  0.3200E+02
     42.263  0.0000E+00  0.3200E+02
     42.464  0.0000E+00  0.3200E+02
     42.666  0.0000E+00  0.3200E+02
     42.867  0.0000E+00  0.3200E+02
     43.069  0.0000E+00  0.3200E+02
     43.270  0.0000E+00  0.3200E+02
     43.471  0.0000E+00  0.3200E+02
     43.673  0.0000E+00  0.3200E+02
     43.874  0.0000E+00  0.3200E+02
     44.075  0.0000E+00  0.3200E+02
