# ['Ni']

107 atoms
1 atom types

    0.0000    24.4927 xlo xhi
    0.0000    24.4927 ylo yhi
    0.0000    24.4927 zlo zhi

    0.0000    -0.0000    -0.0000 xy xz yz

Atoms

1 1     4.0821     4.0821     0.0000
2 1     4.0821     0.0000     4.0821
3 1     0.0000     4.0821     4.0821
4 1     0.0000     0.0000     8.1642
5 1     4.0821     4.0821     8.1642
6 1     4.0821     0.0000    12.2464
7 1     0.0000     4.0821    12.2464
8 1     0.0000     0.0000    16.3285
9 1     4.0821     4.0821    16.3285
10 1     4.0821     0.0000    20.4106
11 1     0.0000     4.0821    20.4106
12 1     0.0000     8.1642     0.0000
13 1     4.0821    12.2464     0.0000
14 1     4.0821     8.1642     4.0821
15 1     0.0000    12.2464     4.0821
16 1     0.0000     8.1642     8.1642
17 1     4.0821    12.2464     8.1642
18 1     4.0821     8.1642    12.2464
19 1     0.0000    12.2464    12.2464
20 1     0.0000     8.1642    16.3285
21 1     4.0821    12.2464    16.3285
22 1     4.0821     8.1642    20.4106
23 1     0.0000    12.2464    20.4106
24 1     0.0000    16.3285     0.0000
25 1     4.0821    20.4106     0.0000
26 1     4.0821    16.3285     4.0821
27 1     0.0000    20.4106     4.0821
28 1     0.0000    16.3285     8.1642
29 1     4.0821    20.4106     8.1642
30 1     4.0821    16.3285    12.2464
31 1     0.0000    20.4106    12.2464
32 1     0.0000    16.3285    16.3285
33 1     4.0821    20.4106    16.3285
34 1     4.0821    16.3285    20.4106
35 1     0.0000    20.4106    20.4106
36 1     8.1642     0.0000     0.0000
37 1    12.2464     4.0821     0.0000
38 1    12.2464     0.0000     4.0821
39 1     8.1642     4.0821     4.0821
40 1     8.1642     0.0000     8.1642
41 1    12.2464     4.0821     8.1642
42 1    12.2464     0.0000    12.2464
43 1     8.1642     4.0821    12.2464
44 1     8.1642     0.0000    16.3285
45 1    12.2464     4.0821    16.3285
46 1    12.2464     0.0000    20.4106
47 1     8.1642     4.0821    20.4106
48 1     8.1642     8.1642     0.0000
49 1    12.2464    12.2464     0.0000
50 1    12.2464     8.1642     4.0821
51 1     8.1642    12.2464     4.0821
52 1     8.1642     8.1642     8.1642
53 1    12.2464    12.2464     8.1642
54 1    12.2464     8.1642    12.2464
55 1     8.1642    12.2464    12.2464
56 1     8.1642     8.1642    16.3285
57 1    12.2464    12.2464    16.3285
58 1    12.2464     8.1642    20.4106
59 1     8.1642    12.2464    20.4106
60 1     8.1642    16.3285     0.0000
61 1    12.2464    20.4106     0.0000
62 1    12.2464    16.3285     4.0821
63 1     8.1642    20.4106     4.0821
64 1     8.1642    16.3285     8.1642
65 1    12.2464    20.4106     8.1642
66 1    12.2464    16.3285    12.2464
67 1     8.1642    20.4106    12.2464
68 1     8.1642    16.3285    16.3285
69 1    12.2464    20.4106    16.3285
70 1    12.2464    16.3285    20.4106
71 1     8.1642    20.4106    20.4106
72 1    16.3285     0.0000     0.0000
73 1    20.4106     4.0821     0.0000
74 1    20.4106     0.0000     4.0821
75 1    16.3285     4.0821     4.0821
76 1    16.3285     0.0000     8.1642
77 1    20.4106     4.0821     8.1642
78 1    20.4106     0.0000    12.2464
79 1    16.3285     4.0821    12.2464
80 1    16.3285     0.0000    16.3285
81 1    20.4106     4.0821    16.3285
82 1    20.4106     0.0000    20.4106
83 1    16.3285     4.0821    20.4106
84 1    16.3285     8.1642     0.0000
85 1    20.4106    12.2464     0.0000
86 1    20.4106     8.1642     4.0821
87 1    16.3285    12.2464     4.0821
88 1    16.3285     8.1642     8.1642
89 1    20.4106    12.2464     8.1642
90 1    20.4106     8.1642    12.2464
91 1    16.3285    12.2464    12.2464
92 1    16.3285     8.1642    16.3285
93 1    20.4106    12.2464    16.3285
94 1    20.4106     8.1642    20.4106
95 1    16.3285    12.2464    20.4106
96 1    16.3285    16.3285     0.0000
97 1    20.4106    20.4106     0.0000
98 1    20.4106    16.3285     4.0821
99 1    16.3285    20.4106     4.0821
100 1    16.3285    16.3285     8.1642
101 1    20.4106    20.4106     8.1642
102 1    20.4106    16.3285    12.2464
103 1    16.3285    20.4106    12.2464
104 1    16.3285    16.3285    16.3285
105 1    20.4106    20.4106    16.3285
106 1    20.4106    16.3285    20.4106
107 1    16.3285    20.4106    20.4106
