# ['Ni']

107 atoms
1 atom types

    0.0000    11.0097 xlo xhi
    0.0000    11.0097 ylo yhi
    0.0000    11.0097 zlo zhi

    0.0000    -0.0000    -0.0000 xy xz yz

Atoms

1 1     1.8350     1.8350     0.0000
2 1     1.8350     0.0000     1.8350
3 1     0.0000     1.8350     1.8350
4 1     0.0000     0.0000     3.6699
5 1     1.8350     1.8350     3.6699
6 1     1.8350     0.0000     5.5048
7 1     0.0000     1.8350     5.5048
8 1     0.0000     0.0000     7.3398
9 1     1.8350     1.8350     7.3398
10 1     1.8350     0.0000     9.1747
11 1     0.0000     1.8350     9.1747
12 1     0.0000     3.6699     0.0000
13 1     1.8350     5.5048     0.0000
14 1     1.8350     3.6699     1.8350
15 1     0.0000     5.5048     1.8350
16 1     0.0000     3.6699     3.6699
17 1     1.8350     5.5048     3.6699
18 1     1.8350     3.6699     5.5048
19 1     0.0000     5.5048     5.5048
20 1     0.0000     3.6699     7.3398
21 1     1.8350     5.5048     7.3398
22 1     1.8350     3.6699     9.1747
23 1     0.0000     5.5048     9.1747
24 1     0.0000     7.3398     0.0000
25 1     1.8350     9.1747     0.0000
26 1     1.8350     7.3398     1.8350
27 1     0.0000     9.1747     1.8350
28 1     0.0000     7.3398     3.6699
29 1     1.8350     9.1747     3.6699
30 1     1.8350     7.3398     5.5048
31 1     0.0000     9.1747     5.5048
32 1     0.0000     7.3398     7.3398
33 1     1.8350     9.1747     7.3398
34 1     1.8350     7.3398     9.1747
35 1     0.0000     9.1747     9.1747
36 1     3.6699     0.0000     0.0000
37 1     5.5048     1.8350     0.0000
38 1     5.5048     0.0000     1.8350
39 1     3.6699     1.8350     1.8350
40 1     3.6699     0.0000     3.6699
41 1     5.5048     1.8350     3.6699
42 1     5.5048     0.0000     5.5048
43 1     3.6699     1.8350     5.5048
44 1     3.6699     0.0000     7.3398
45 1     5.5048     1.8350     7.3398
46 1     5.5048     0.0000     9.1747
47 1     3.6699     1.8350     9.1747
48 1     3.6699     3.6699     0.0000
49 1     5.5048     5.5048     0.0000
50 1     5.5048     3.6699     1.8350
51 1     3.6699     5.5048     1.8350
52 1     3.6699     3.6699     3.6699
53 1     5.5048     5.5048     3.6699
54 1     5.5048     3.6699     5.5048
55 1     3.6699     5.5048     5.5048
56 1     3.6699     3.6699     7.3398
57 1     5.5048     5.5048     7.3398
58 1     5.5048     3.6699     9.1747
59 1     3.6699     5.5048     9.1747
60 1     3.6699     7.3398     0.0000
61 1     5.5048     9.1747     0.0000
62 1     5.5048     7.3398     1.8350
63 1     3.6699     9.1747     1.8350
64 1     3.6699     7.3398     3.6699
65 1     5.5048     9.1747     3.6699
66 1     5.5048     7.3398     5.5048
67 1     3.6699     9.1747     5.5048
68 1     3.6699     7.3398     7.3398
69 1     5.5048     9.1747     7.3398
70 1     5.5048     7.3398     9.1747
71 1     3.6699     9.1747     9.1747
72 1     7.3398     0.0000     0.0000
73 1     9.1747     1.8350     0.0000
74 1     9.1747     0.0000     1.8350
75 1     7.3398     1.8350     1.8350
76 1     7.3398     0.0000     3.6699
77 1     9.1747     1.8350     3.6699
78 1     9.1747     0.0000     5.5048
79 1     7.3398     1.8350     5.5048
80 1     7.3398     0.0000     7.3398
81 1     9.1747     1.8350     7.3398
82 1     9.1747     0.0000     9.1747
83 1     7.3398     1.8350     9.1747
84 1     7.3398     3.6699     0.0000
85 1     9.1747     5.5048     0.0000
86 1     9.1747     3.6699     1.8350
87 1     7.3398     5.5048     1.8350
88 1     7.3398     3.6699     3.6699
89 1     9.1747     5.5048     3.6699
90 1     9.1747     3.6699     5.5048
91 1     7.3398     5.5048     5.5048
92 1     7.3398     3.6699     7.3398
93 1     9.1747     5.5048     7.3398
94 1     9.1747     3.6699     9.1747
95 1     7.3398     5.5048     9.1747
96 1     7.3398     7.3398     0.0000
97 1     9.1747     9.1747     0.0000
98 1     9.1747     7.3398     1.8350
99 1     7.3398     9.1747     1.8350
100 1     7.3398     7.3398     3.6699
101 1     9.1747     9.1747     3.6699
102 1     9.1747     7.3398     5.5048
103 1     7.3398     9.1747     5.5048
104 1     7.3398     7.3398     7.3398
105 1     9.1747     9.1747     7.3398
106 1     9.1747     7.3398     9.1747
107 1     7.3398     9.1747     9.1747
