LAMMPS (11 Aug 2017)
Reading data file ...
  triclinic box = (0 0 0) to (2.3953 4.1487 27.3803) with tilt (0 0 0)
  1 by 1 by 1 MPI processor grid
  reading atoms ...
  28 atoms
28 atoms in group Ni
Neighbor list info ...
  update every 1 steps, delay 0 steps, check yes
  max neighbors/atom: 2000, page size: 100000
  master list distance cutoff = 5.64464
  ghost atom cutoff = 5.64464
  binsize = 2.82232, bins = 1 2 10
  1 neighbor lists, perpetual/occasional/extra = 1 0 0
  (1) pair eam/alloy, perpetual
      attributes: half, newton on
      pair build: half/bin/newton/tri
      stencil: half/bin/3d/newton/tri
      bin: standard
Setting up cg style minimization ...
  Unit style    : metal
  Current step  : 0
WARNING: Energy due to 3 extra global DOFs will be included in minimizer energies
Per MPI rank memory allocation (min/avg/max) = 4.219 | 4.219 | 4.219 Mbytes
Step PotEng Lx Ly Lz Xy Xz Yz Press Pxx Pyy Pzz Pxy Pxz Pyz c_eatoms 
       0   -128.42316       2.3953       4.1487      27.3803            0            0            0    846.87526    223.45669    253.34738    2063.8217 -0.0038773673 -0.0011277458   -5.7156975   -128.42316 
     100   -128.42387    2.3949316    4.1481433    27.403246            0            0            0 -0.00057803848 -2.0370056e-05 -0.0011350307 -0.00057871471 -5.6551228e-07 -8.6347437e-08 0.00020290937   -128.42387 
     112   -128.42387    2.3949316    4.1481433    27.403246            0            0            0 3.6729997e-05 0.00014522766 -7.2367393e-05 3.732972e-05 6.7647061e-07  6.24692e-08 4.4860806e-05   -128.42387 
Loop time of 0.0160482 on 1 procs for 112 steps with 28 atoms

100.0% CPU use with 1 MPI tasks x no OpenMP threads

Minimization stats:
  Stopping criterion = energy tolerance
  Energy initial, next-to-last, final = 
        -128.423163373     -128.423869483     -128.423869483
  Force two-norm initial, final = 0.361121 2.89661e-08
  Force max component initial, final = 0.350487 2.46805e-08
  Final line search alpha, max atom move = 1 2.46805e-08
  Iterations, force evaluations = 112 224

MPI task timing breakdown:
Section |  min time  |  avg time  |  max time  |%varavg| %total
---------------------------------------------------------------
Pair    | 0.012073   | 0.012073   | 0.012073   |   0.0 | 75.23
Neigh   | 0          | 0          | 0          |   0.0 |  0.00
Comm    | 0.00090909 | 0.00090909 | 0.00090909 |   0.0 |  5.66
Output  | 2.5034e-05 | 2.5034e-05 | 2.5034e-05 |   0.0 |  0.16
Modify  | 0          | 0          | 0          |   0.0 |  0.00
Other   |            | 0.003042   |            |       | 18.95

Nlocal:    28 ave 28 max 28 min
Histogram: 1 0 0 0 0 0 0 0 0 0
Nghost:    778 ave 778 max 778 min
Histogram: 1 0 0 0 0 0 0 0 0 0
Neighs:    1072 ave 1072 max 1072 min
Histogram: 1 0 0 0 0 0 0 0 0 0

Total # of neighbors = 1072
Ave neighs/atom = 38.2857
Neighbor list builds = 0
Dangerous builds = 0
Setting up cg style minimization ...
  Unit style    : metal
  Current step  : 112
Per MPI rank memory allocation (min/avg/max) = 4.344 | 4.344 | 4.344 Mbytes
Step PotEng Lx Ly Lz Xy Xz Yz Press Pxx Pyy Pzz Pxy Pxz Pyz c_eatoms 
     112   -128.42387    2.3949316    4.1481433    27.403246            0            0            0 3.6730072e-05 0.00014522769 -7.2367296e-05 3.7329824e-05 6.7647109e-07 6.2448191e-08 4.4860789e-05   -128.42387 
     122   -128.42387    2.3949316    4.1481433    27.403246            0            0            0 3.7593834e-05 0.00014572048 -7.1874565e-05 3.8935587e-05 6.7655308e-07 6.2532099e-08 4.4860748e-05   -128.42387 
Loop time of 0.00121784 on 1 procs for 10 steps with 28 atoms

98.2% CPU use with 1 MPI tasks x no OpenMP threads

Minimization stats:
  Stopping criterion = energy tolerance
  Energy initial, next-to-last, final = 
        -128.423869483     -128.423869483     -128.423869483
  Force two-norm initial, final = 4.52423e-09 1.7402e-12
  Force max component initial, final = 1.55698e-09 6.40318e-13
  Final line search alpha, max atom move = 1 6.40318e-13
  Iterations, force evaluations = 10 20

MPI task timing breakdown:
Section |  min time  |  avg time  |  max time  |%varavg| %total
---------------------------------------------------------------
Pair    | 0.0010788  | 0.0010788  | 0.0010788  |   0.0 | 88.59
Neigh   | 0          | 0          | 0          |   0.0 |  0.00
Comm    | 8.1539e-05 | 8.1539e-05 | 8.1539e-05 |   0.0 |  6.70
Output  | 0          | 0          | 0          |   0.0 |  0.00
Modify  | 5.0068e-06 | 5.0068e-06 | 5.0068e-06 |   0.0 |  0.41
Other   |            | 5.245e-05  |            |       |  4.31

Nlocal:    28 ave 28 max 28 min
Histogram: 1 0 0 0 0 0 0 0 0 0
Nghost:    778 ave 778 max 778 min
Histogram: 1 0 0 0 0 0 0 0 0 0
Neighs:    1072 ave 1072 max 1072 min
Histogram: 1 0 0 0 0 0 0 0 0 0

Total # of neighbors = 1072
Ave neighs/atom = 38.2857
Neighbor list builds = 0
Dangerous builds = 0
pypospack:output_section:begin
tot_energy = -128.423869482846
num_atoms = 28
a11 = 2.39493164244852
a22 = 4.1481432859219
a33 = 27.4032459028585
a12 = 0
a13 = 0
a23 = 0
tot_press = 3.75938344803556e-05
pxx = 0.000145720481879944
pyy = -7.18745653691561e-05
pzz = 3.89355869302785e-05
pxy = 6.76553077373525e-07
pxz = 6.25320993674862e-08
pyz = 4.48607483328507e-05
pypospack:output_section:done
pypospack:lammps_sim:done
Total wall time: 0:00:00
