# ['Ni']

18 atoms
1 atom types

    0.0000     2.3825 xlo xhi
    0.0000     4.1267 ylo yhi
    0.0000    35.0100 zlo zhi

    0.0000     0.0000    -0.0004 xy xz yz

Atoms

1 1     0.0000     0.0000     0.0000
2 1     1.1913     0.6878     1.9450
3 1     0.0000     1.3756     3.8900
4 1     1.1913     2.0633     0.0000
5 1     0.0000     2.7511     1.9450
6 1     1.1913     3.4389     3.8900
7 1     0.0000     0.0000     5.8350
8 1     1.1913     0.6878     7.7800
9 1     0.0000     1.3756     9.7250
10 1     1.1913     2.0633     5.8350
11 1     0.0000     2.7511     7.7800
12 1     1.1913     3.4389     9.7250
13 1     0.0000     0.0000    11.6700
14 1     1.1913     0.6878    13.6150
15 1     0.0000     1.3756    15.5600
16 1     1.1913     2.0633    11.6700
17 1     0.0000     2.7511    13.6150
18 1     1.1913     3.4389    15.5600
