# ['Ni']

107 atoms
1 atom types

    0.0000    10.5277 xlo xhi
    0.0000    10.5277 ylo yhi
    0.0000    10.5277 zlo zhi

    0.0000    -0.0000    -0.0000 xy xz yz

Atoms

1 1     1.7546     1.7546     0.0000
2 1     1.7546     0.0000     1.7546
3 1     0.0000     1.7546     1.7546
4 1     0.0000     0.0000     3.5092
5 1     1.7546     1.7546     3.5092
6 1     1.7546     0.0000     5.2639
7 1     0.0000     1.7546     5.2639
8 1     0.0000     0.0000     7.0185
9 1     1.7546     1.7546     7.0185
10 1     1.7546     0.0000     8.7731
11 1     0.0000     1.7546     8.7731
12 1     0.0000     3.5092     0.0000
13 1     1.7546     5.2639     0.0000
14 1     1.7546     3.5092     1.7546
15 1     0.0000     5.2639     1.7546
16 1     0.0000     3.5092     3.5092
17 1     1.7546     5.2639     3.5092
18 1     1.7546     3.5092     5.2639
19 1     0.0000     5.2639     5.2639
20 1     0.0000     3.5092     7.0185
21 1     1.7546     5.2639     7.0185
22 1     1.7546     3.5092     8.7731
23 1     0.0000     5.2639     8.7731
24 1     0.0000     7.0185     0.0000
25 1     1.7546     8.7731     0.0000
26 1     1.7546     7.0185     1.7546
27 1     0.0000     8.7731     1.7546
28 1     0.0000     7.0185     3.5092
29 1     1.7546     8.7731     3.5092
30 1     1.7546     7.0185     5.2639
31 1     0.0000     8.7731     5.2639
32 1     0.0000     7.0185     7.0185
33 1     1.7546     8.7731     7.0185
34 1     1.7546     7.0185     8.7731
35 1     0.0000     8.7731     8.7731
36 1     3.5092     0.0000     0.0000
37 1     5.2639     1.7546     0.0000
38 1     5.2639     0.0000     1.7546
39 1     3.5092     1.7546     1.7546
40 1     3.5092     0.0000     3.5092
41 1     5.2639     1.7546     3.5092
42 1     5.2639     0.0000     5.2639
43 1     3.5092     1.7546     5.2639
44 1     3.5092     0.0000     7.0185
45 1     5.2639     1.7546     7.0185
46 1     5.2639     0.0000     8.7731
47 1     3.5092     1.7546     8.7731
48 1     3.5092     3.5092     0.0000
49 1     5.2639     5.2639     0.0000
50 1     5.2639     3.5092     1.7546
51 1     3.5092     5.2639     1.7546
52 1     3.5092     3.5092     3.5092
53 1     5.2639     5.2639     3.5092
54 1     5.2639     3.5092     5.2639
55 1     3.5092     5.2639     5.2639
56 1     3.5092     3.5092     7.0185
57 1     5.2639     5.2639     7.0185
58 1     5.2639     3.5092     8.7731
59 1     3.5092     5.2639     8.7731
60 1     3.5092     7.0185     0.0000
61 1     5.2639     8.7731     0.0000
62 1     5.2639     7.0185     1.7546
63 1     3.5092     8.7731     1.7546
64 1     3.5092     7.0185     3.5092
65 1     5.2639     8.7731     3.5092
66 1     5.2639     7.0185     5.2639
67 1     3.5092     8.7731     5.2639
68 1     3.5092     7.0185     7.0185
69 1     5.2639     8.7731     7.0185
70 1     5.2639     7.0185     8.7731
71 1     3.5092     8.7731     8.7731
72 1     7.0185     0.0000     0.0000
73 1     8.7731     1.7546     0.0000
74 1     8.7731     0.0000     1.7546
75 1     7.0185     1.7546     1.7546
76 1     7.0185     0.0000     3.5092
77 1     8.7731     1.7546     3.5092
78 1     8.7731     0.0000     5.2639
79 1     7.0185     1.7546     5.2639
80 1     7.0185     0.0000     7.0185
81 1     8.7731     1.7546     7.0185
82 1     8.7731     0.0000     8.7731
83 1     7.0185     1.7546     8.7731
84 1     7.0185     3.5092     0.0000
85 1     8.7731     5.2639     0.0000
86 1     8.7731     3.5092     1.7546
87 1     7.0185     5.2639     1.7546
88 1     7.0185     3.5092     3.5092
89 1     8.7731     5.2639     3.5092
90 1     8.7731     3.5092     5.2639
91 1     7.0185     5.2639     5.2639
92 1     7.0185     3.5092     7.0185
93 1     8.7731     5.2639     7.0185
94 1     8.7731     3.5092     8.7731
95 1     7.0185     5.2639     8.7731
96 1     7.0185     7.0185     0.0000
97 1     8.7731     8.7731     0.0000
98 1     8.7731     7.0185     1.7546
99 1     7.0185     8.7731     1.7546
100 1     7.0185     7.0185     3.5092
101 1     8.7731     8.7731     3.5092
102 1     8.7731     7.0185     5.2639
103 1     7.0185     8.7731     5.2639
104 1     7.0185     7.0185     7.0185
105 1     8.7731     8.7731     7.0185
106 1     8.7731     7.0185     8.7731
107 1     7.0185     8.7731     8.7731
