# ['Al']

4 atoms
1 atom types

    0.0000     4.0500 xlo xhi
    0.0000     4.0500 ylo yhi
    0.0000     4.0500 zlo zhi

    0.0000    -0.0000     0.0000 xy xz yz

Atoms

1 1    -0.0000     0.0000     0.0000
2 1     2.0250     2.0250     0.0000
3 1     2.0250     0.0000     2.0250
4 1     0.0000     2.0250     2.0250
