# ['Ni']

10 atoms
1 atom types

    0.0000     3.5165 xlo xhi
    0.0000     2.5173 ylo yhi
    0.0000    25.1728 zlo zhi

    0.0000     0.0000     0.0000 xy xz yz

Atoms

1 1     0.0000     0.0000     0.0000
2 1     1.7583     1.2586     1.2586
3 1     0.0000     0.0000     2.5173
4 1     1.7583     1.2586     3.7759
5 1     0.0000     0.0000     5.0346
6 1     1.7583     1.2586     6.2932
7 1     0.0000     0.0000     7.5518
8 1     1.7583     1.2586     8.8105
9 1     0.0000     0.0000    10.0691
10 1     1.7583     1.2586    11.3278
