<?xml version="1.0" encoding="ISO-8859-1"?>
<modeling>
 <generator>
  <i name="program" type="string">vasp </i>
  <i name="version" type="string">5.4.1  </i>
  <i name="subversion" type="string">24Jun15 (build Jun 05 2017 10:38:15) complex                          parallel </i>
  <i name="platform" type="string">IFC91_ompi </i>
  <i name="date" type="string">2017 08 15 </i>
  <i name="time" type="string">17:44:00 </i>
 </generator>
 <incar>
  <i type="string" name="SYSTEM"> automatically generated by pyflamestk</i>
  <i type="int" name="ISTART">     0</i>
  <i type="string" name="PREC">high                   ! avoid wrap aro</i>
  <i type="string" name="ALGO"> Normal                 ! blocked Davids</i>
  <i type="int" name="ISPIN">     2</i>
  <i type="int" name="ICHARG">     0</i>
  <i type="int" name="NELM">    40</i>
  <i name="EDIFF">      0.00000100</i>
  <i name="ENCUT">    325.00000000</i>
  <v name="MAGMOM">      1.00000000      1.00000000</v>
  <i type="logical" name="LREAL"> F  </i>
  <i type="int" name="ISMEAR">     1</i>
  <i name="SIGMA">      0.20000000</i>
  <i type="logical" name="LWAVE"> F  </i>
  <i type="logical" name="LCHARG"> F  </i>
  <i type="logical" name="LVTOT"> F  </i>
  <v type="int" name="KPOINT_BSE">    -1     0     0     0</v>
  <i type="int" name="NELM">    40</i>
 </incar>
 <kpoints>
  <generation param="Monkhorst-Pack">
   <v type="int" name="divisions">       4        4        4 </v>
   <v name="usershift">      0.00000000       0.00000000       0.00000000 </v>
   <v name="genvec1">      0.25000000       0.00000000       0.00000000 </v>
   <v name="genvec2">      0.00000000       0.25000000       0.00000000 </v>
   <v name="genvec3">      0.00000000       0.00000000       0.25000000 </v>
   <v name="shift">      0.50000000       0.50000000       0.50000000 </v>
  </generation>
  <varray name="kpointlist" >
   <v>       0.12500000       0.12500000       0.12500000 </v>
   <v>       0.37500000       0.12500000       0.12500000 </v>
   <v>       0.37500000       0.37500000       0.12500000 </v>
   <v>       0.37500000       0.37500000       0.37500000 </v>
  </varray>
  <varray name="weights" >
   <v>       0.12500000 </v>
   <v>       0.37500000 </v>
   <v>       0.37500000 </v>
   <v>       0.12500000 </v>
  </varray>
 </kpoints>
 <parameters>
  <separator name="general" >
   <i type="string" name="SYSTEM">automatically generated by pyflamestk</i>
   <i type="logical" name="LCOMPAT"> F  </i>
  </separator>
  <separator name="electronic" >
   <i type="string" name="PREC">high</i>
   <i name="ENMAX">    325.00000000</i>
   <i name="ENAUG">    544.56500000</i>
   <i name="EDIFF">      0.00000100</i>
   <i type="int" name="IALGO">    38</i>
   <i type="int" name="IWAVPR">    10</i>
   <i type="int" name="NBANDS">    16</i>
   <i name="NELECT">     20.00000000</i>
   <i type="int" name="TURBO">     0</i>
   <i type="int" name="IRESTART">     0</i>
   <i type="int" name="NREBOOT">     0</i>
   <i type="int" name="NMIN">     0</i>
   <i name="EREF">      0.00000000</i>
   <separator name="electronic smearing" >
    <i type="int" name="ISMEAR">     1</i>
    <i name="SIGMA">      0.20000000</i>
    <i name="KSPACING">      0.50000000</i>
    <i type="logical" name="KGAMMA"> T  </i>
   </separator>
   <separator name="electronic projectors" >
    <i type="logical" name="LREAL"> F  </i>
    <v name="ROPT">      0.00000000</v>
    <i type="int" name="LMAXPAW">  -100</i>
    <i type="int" name="LMAXMIX">     2</i>
    <i type="logical" name="NLSPLINE"> F  </i>
   </separator>
   <separator name="electronic startup" >
    <i type="int" name="ISTART">     0</i>
    <i type="int" name="ICHARG">     0</i>
    <i type="int" name="INIWAV">     1</i>
   </separator>
   <separator name="electronic spin" >
    <i type="int" name="ISPIN">     2</i>
    <i type="logical" name="LNONCOLLINEAR"> F  </i>
    <v name="MAGMOM">      1.00000000      1.00000000</v>
    <i name="NUPDOWN">     -1.00000000</i>
    <i type="logical" name="LSORBIT"> F  </i>
    <v name="SAXIS">      0.00000000      0.00000000      1.00000000</v>
    <i type="logical" name="LSPIRAL"> F  </i>
    <v name="QSPIRAL">      0.00000000      0.00000000      0.00000000</v>
    <i type="logical" name="LZEROZ"> F  </i>
   </separator>
   <separator name="electronic exchange-correlation" >
    <i type="logical" name="LASPH"> F  </i>
    <i type="logical" name="LMETAGGA"> F  </i>
   </separator>
   <separator name="electronic convergence" >
    <i type="int" name="NELM">    40</i>
    <i type="int" name="NELMDL">    -5</i>
    <i type="int" name="NELMIN">     2</i>
    <i name="ENINI">    325.00000000</i>
    <separator name="electronic convergence detail" >
     <i type="logical" name="LDIAG"> T  </i>
     <i type="logical" name="LSUBROT"> F  </i>
     <i name="WEIMIN">      0.00000000</i>
     <i name="EBREAK">      0.00000002</i>
     <i name="DEPER">      0.30000000</i>
     <i type="int" name="NRMM">     4</i>
     <i name="TIME">      0.40000000</i>
    </separator>
   </separator>
   <separator name="electronic mixer" >
    <i name="AMIX">      0.40000000</i>
    <i name="BMIX">      1.00000000</i>
    <i name="AMIN">      0.10000000</i>
    <i name="AMIX_MAG">      1.60000000</i>
    <i name="BMIX_MAG">      1.00000000</i>
    <separator name="electronic mixer details" >
     <i type="int" name="IMIX">     4</i>
     <i type="logical" name="MIXFIRST"> F  </i>
     <i type="int" name="MAXMIX">   -45</i>
     <i name="WC">    100.00000000</i>
     <i type="int" name="INIMIX">     1</i>
     <i type="int" name="MIXPRE">     1</i>
     <i type="int" name="MREMOVE">     5</i>
    </separator>
   </separator>
   <separator name="electronic dipolcorrection" >
    <i type="logical" name="LDIPOL"> F  </i>
    <i type="logical" name="LMONO"> F  </i>
    <i type="int" name="IDIPOL">     0</i>
    <i name="EPSILON">      1.00000000</i>
    <v name="DIPOL">   -100.00000000   -100.00000000   -100.00000000</v>
    <i name="EFIELD">      0.00000000</i>
   </separator>
  </separator>
  <separator name="grids" >
   <i type="int" name="NGX">    16</i>
   <i type="int" name="NGY">    16</i>
   <i type="int" name="NGZ">    16</i>
   <i type="int" name="NGXF">    28</i>
   <i type="int" name="NGYF">    28</i>
   <i type="int" name="NGZF">    28</i>
   <i type="logical" name="ADDGRID"> F  </i>
  </separator>
  <separator name="ionic" >
   <i type="int" name="NSW">     0</i>
   <i type="int" name="IBRION">    -1</i>
   <i type="int" name="ISIF">     2</i>
   <i name="PSTRESS">      0.00000000</i>
   <i name="EDIFFG">      0.00001000</i>
   <i type="int" name="NFREE">     0</i>
   <i name="POTIM">      0.50000000</i>
   <i name="SMASS">     -3.00000000</i>
   <i name="SCALEE">      1.00000000</i>
  </separator>
  <separator name="ionic md" >
   <i name="TEBEG">      0.00010000</i>
   <i name="TEEND">      0.00010000</i>
   <i type="int" name="NBLOCK">     1</i>
   <i type="int" name="KBLOCK">     1</i>
   <i type="int" name="NPACO">   256</i>
   <i name="APACO">     16.00000000</i>
  </separator>
  <separator name="symmetry" >
   <i type="int" name="ISYM">     2</i>
   <i name="SYMPREC">      0.00001000</i>
  </separator>
  <separator name="dos" >
   <i type="logical" name="LORBIT"> F  </i>
   <v name="RWIGS">     -1.00000000</v>
   <i type="int" name="NEDOS">   301</i>
   <i name="EMIN">     10.00000000</i>
   <i name="EMAX">    -10.00000000</i>
   <i name="EFERMI">      0.00000000</i>
  </separator>
  <separator name="writing" >
   <i type="int" name="NWRITE">     2</i>
   <i type="logical" name="LWAVE"> F  </i>
   <i type="logical" name="LCHARG"> F  </i>
   <i type="logical" name="LPARD"> F  </i>
   <i type="logical" name="LVTOT"> F  </i>
   <i type="logical" name="LVHAR"> F  </i>
   <i type="logical" name="LELF"> F  </i>
   <i type="logical" name="LOPTICS"> F  </i>
   <v name="STM">      0.00000000      0.00000000      0.00000000      0.00000000      0.00000000      0.00000000      0.00000000</v>
  </separator>
  <separator name="performance" >
   <i type="int" name="NPAR">    16</i>
   <i type="int" name="NSIM">     4</i>
   <i type="int" name="NBLK">    -1</i>
   <i type="logical" name="LPLANE"> T  </i>
   <i type="logical" name="LSCALAPACK"> T  </i>
   <i type="logical" name="LSCAAWARE"> F  </i>
   <i type="logical" name="LSCALU"> F  </i>
   <i type="logical" name="LASYNC"> F  </i>
   <i type="logical" name="LORBITALREAL"> F  </i>
  </separator>
  <separator name="miscellaneous" >
   <i type="int" name="IDIOT">     3</i>
   <i type="logical" name="LMUSIC"> F  </i>
   <v name="POMASS">     58.69000000</v>
   <v name="DARWINR">      0.00000000</v>
   <v name="DARWINV">      1.00000000</v>
   <i type="logical" name="LCORR"> T  </i>
  </separator>
  <i type="logical" name="GGA_COMPAT"> T  </i>
  <i type="logical" name="LBERRY"> F  </i>
  <i type="int" name="ICORELEVEL">     0</i>
  <i type="logical" name="LDAU"> F  </i>
  <i type="int" name="I_CONSTRAINED_M">     0</i>
  <separator name="electronic exchange-correlation" >
   <i type="string" name="GGA">--</i>
   <i type="int" name="VOSKOWN">     0</i>
   <i type="logical" name="LHFCALC"> F  </i>
   <i type="string" name="PRECFOCK"></i>
   <i type="logical" name="LSYMGRAD"> F  </i>
   <i type="logical" name="LHFONE"> F  </i>
   <i type="logical" name="LRHFCALC"> F  </i>
   <i type="logical" name="LTHOMAS"> F  </i>
   <i type="logical" name="LMODELHF"> F  </i>
   <i name="ENCUT4O">     -1.00000000</i>
   <i type="int" name="EXXOEP">     0</i>
   <i type="int" name="FOURORBIT">     0</i>
   <i name="AEXX">      0.00000000</i>
   <i name="HFALPHA">      0.00000000</i>
   <i name="MCALPHA">      0.00000000</i>
   <i name="ALDAX">      1.00000000</i>
   <i name="AGGAX">      1.00000000</i>
   <i name="ALDAC">      1.00000000</i>
   <i name="AGGAC">      1.00000000</i>
   <i type="int" name="NKREDX">     1</i>
   <i type="int" name="NKREDY">     1</i>
   <i type="int" name="NKREDZ">     1</i>
   <i type="logical" name="SHIFTRED"> F  </i>
   <i type="logical" name="ODDONLY"> F  </i>
   <i type="logical" name="EVENONLY"> F  </i>
   <i type="int" name="LMAXFOCK">     0</i>
   <i type="int" name="NMAXFOCKAE">     0</i>
   <i type="logical" name="LFOCKAEDFT"> F  </i>
   <i name="HFSCREEN">      0.00000000</i>
   <i name="HFSCREENC">      0.00000000</i>
   <i type="int" name="NBANDSGWLOW">     0</i>
  </separator>
  <separator name="vdW DFT" >
   <i type="logical" name="LUSE_VDW"> F  </i>
   <i name="Zab_VDW">     -0.84910000</i>
   <i name="PARAM1">      0.12340000</i>
   <i name="PARAM2">      1.00000000</i>
   <i name="PARAM3">      0.00000000</i>
  </separator>
  <separator name="model GW" >
   <i type="int" name="MODEL_GW">     0</i>
   <i name="MODEL_EPS0">      6.54152109</i>
   <i name="MODEL_ALPHA">      1.00000000</i>
  </separator>
  <separator name="linear response parameters" >
   <i type="logical" name="LEPSILON"> F  </i>
   <i type="logical" name="LRPA"> F  </i>
   <i type="logical" name="LNABLA"> F  </i>
   <i type="logical" name="LVEL"> F  </i>
   <i type="int" name="KINTER">     0</i>
   <i name="CSHIFT">      0.10000000</i>
   <i name="OMEGAMAX">     -1.00000000</i>
   <i name="DEG_THRESHOLD">      0.00200000</i>
  </separator>
  <separator name="orbital magnetization" >
   <i type="logical" name="NUCIND"> F  </i>
   <v name="MAGPOS">      0.00000000      0.00000000      0.00000000</v>
   <i type="logical" name="LNICSALL"> T  </i>
   <i type="logical" name="ORBITALMAG"> F  </i>
   <i type="logical" name="LMAGBLOCH"> F  </i>
   <i type="logical" name="LCHIMAG"> F  </i>
   <i type="logical" name="LGAUGE"> T  </i>
   <i type="int" name="MAGATOM">     0</i>
   <v name="MAGDIPOL">      0.00000000      0.00000000      0.00000000</v>
   <v name="AVECCONST">      0.00000000      0.00000000      0.00000000</v>
  </separator>
  <separator name="response functions" >
   <i type="logical" name="LADDER"> F  </i>
   <i type="logical" name="LFXC"> F  </i>
   <i type="logical" name="LHARTREE"> T  </i>
   <i type="int" name="IBSE">     0</i>
   <v type="int" name="KPOINT">    -1     0     0     0</v>
   <i type="logical" name="LTCTE"> F  </i>
   <i type="logical" name="LTETE"> F  </i>
   <i type="logical" name="LTRIPLET"> F  </i>
   <i type="logical" name="LFXCEPS"> F  </i>
   <i type="logical" name="LFXHEG"> F  </i>
   <i type="int" name="NATURALO">     0</i>
   <i type="logical" name="L2ORDER"> F  </i>
   <i type="logical" name="LUSEW"> F  </i>
   <i name="ENCUTGW">     -2.00000000</i>
   <i name="ENCUTGWSOFT">     -2.00000000</i>
   <i name="ENCUTLF">     -1.00000000</i>
   <i type="int" name="LMAXMP2">    -1</i>
   <i name="SCISSOR">      0.00000000</i>
   <i type="int" name="NOMEGA">     0</i>
   <i type="int" name="NOMEGAR">     0</i>
   <i type="int" name="NBANDSGW">    -1</i>
   <i type="int" name="NBANDSO">    -1</i>
   <i type="int" name="NBANDSV">    -1</i>
   <i type="int" name="NELM">    40</i>
   <i type="int" name="NELMHF">     1</i>
   <i type="int" name="DIM">     3</i>
   <i type="int" name="ANTIRES">     0</i>
   <i name="OMEGAMAX">    -30.00000000</i>
   <i name="OMEGAMIN">    -30.00000000</i>
   <i name="OMEGATL">   -200.00000000</i>
   <i type="int" name="OMEGAGRID">     0</i>
   <i name="CSHIFT">     -0.10000000</i>
   <i type="logical" name="SELFENERGY"> F  </i>
   <i type="logical" name="LSPECTRAL"> F  </i>
   <i type="logical" name="LSPECTRALGW"> F  </i>
   <i type="logical" name="LSINGLES"> F  </i>
   <i type="logical" name="LFERMIGW"> F  </i>
   <i type="logical" name="ODDONLYGW"> F  </i>
   <i type="logical" name="EVENONLYGW"> F  </i>
   <i type="int" name="NKREDLFX">     1</i>
   <i type="int" name="NKREDLFY">     1</i>
   <i type="int" name="NKREDLFZ">     1</i>
   <i type="int" name="MAXMEM">  1800</i>
   <i type="int" name="TELESCOPE">     0</i>
   <i type="int" name="TAUPAR">     1</i>
   <i type="int" name="OMEGAPAR">    -1</i>
   <i name="LAMBDA">      1.00000000</i>
  </separator>
  <separator name="External order field" >
   <i name="OFIELD_KAPPA">      0.00000000</i>
   <v name="OFIELD_K">      0.00000000      0.00000000      0.00000000</v>
   <i name="OFIELD_Q6_NEAR">      0.00000000</i>
   <i name="OFIELD_Q6_FAR">      0.00000000</i>
   <i name="OFIELD_A">      0.00000000</i>
  </separator>
 </parameters>
 <atominfo>
  <atoms>       2 </atoms>
  <types>       1 </types>
  <array name="atoms" >
   <dimension dim="1">ion</dimension>
   <field type="string">element</field>
   <field type="int">atomtype</field>
   <set>
    <rc><c>Ni</c><c>   1</c></rc>
    <rc><c>Ni</c><c>   1</c></rc>
   </set>
  </array>
  <array name="atomtypes" >
   <dimension dim="1">type</dimension>
   <field type="int">atomspertype</field>
   <field type="string">element</field>
   <field>mass</field>
   <field>valence</field>
   <field type="string">pseudopotential</field>
   <set>
    <rc><c>   2</c><c>Ni</c><c>     58.69000000</c><c>     10.00000000</c><c>  PAW_PBE Ni 02Aug2007                  </c></rc>
   </set>
  </array>
 </atominfo>
 <structure name="initialpos" >
  <crystal>
   <varray name="basis" >
    <v>       2.79373900       0.00000000       0.00000000 </v>
    <v>       0.00000000       2.79373900       0.00000000 </v>
    <v>       0.00000000       0.00000000       2.79373900 </v>
   </varray>
   <i name="volume">     21.80507032 </i>
   <varray name="rec_basis" >
    <v>       0.35794324       0.00000000       0.00000000 </v>
    <v>       0.00000000       0.35794324       0.00000000 </v>
    <v>       0.00000000       0.00000000       0.35794324 </v>
   </varray>
  </crystal>
  <varray name="positions" >
   <v>       0.00000000       0.00000000       0.00000000 </v>
   <v>       0.50000000       0.50000000       0.50000000 </v>
  </varray>
 </structure>
 <calculation>
  <scstep>
   <time name="dav">    0.03    0.03</time>
   <time name="total">    0.04    0.05</time>
   <energy>
    <i name="alphaZ">     93.55617618 </i>
    <i name="ewald">  -1875.77248328 </i>
    <i name="hartreedc">    -58.53225372 </i>
    <i name="XCdc">     43.68795334 </i>
    <i name="pawpsdc">  92579.51712978 </i>
    <i name="pawaedc"> -92609.46842999 </i>
    <i name="eentropy">      0.00868320 </i>
    <i name="bandstr">   -778.77905938 </i>
    <i name="atom">   2155.28861074 </i>
    <i name="e_fr_energy">   -450.49367312 </i>
    <i name="e_wo_entrp">   -450.50235632 </i>
    <i name="e_0_energy">   -450.49656752 </i>
   </energy>
  </scstep>
  <scstep>
   <time name="dav">    0.06    0.06</time>
   <time name="total">    0.06    0.06</time>
   <energy>
    <i name="e_fr_energy">   -457.65630369 </i>
    <i name="e_wo_entrp">   -457.78115307 </i>
    <i name="e_0_energy">   -457.69792015 </i>
   </energy>
  </scstep>
  <scstep>
   <time name="dav">    0.03    0.03</time>
   <time name="total">    0.03    0.03</time>
   <energy>
    <i name="e_fr_energy">   -457.66426140 </i>
    <i name="e_wo_entrp">   -457.78909795 </i>
    <i name="e_0_energy">   -457.70587359 </i>
   </energy>
  </scstep>
  <scstep>
   <time name="dav">    0.04    0.04</time>
   <time name="total">    0.04    0.05</time>
   <energy>
    <i name="e_fr_energy">   -457.66432323 </i>
    <i name="e_wo_entrp">   -457.78915962 </i>
    <i name="e_0_energy">   -457.70593536 </i>
   </energy>
  </scstep>
  <scstep>
   <time name="dav">    0.03    0.03</time>
   <time name="total">    0.04    0.04</time>
   <energy>
    <i name="e_fr_energy">   -457.66432421 </i>
    <i name="e_wo_entrp">   -457.78916058 </i>
    <i name="e_0_energy">   -457.70593633 </i>
   </energy>
  </scstep>
  <scstep>
   <time name="dav">    0.04    0.04</time>
   <time name="total">    0.06    0.06</time>
   <energy>
    <i name="e_fr_energy">    -55.03990685 </i>
    <i name="e_wo_entrp">    -55.05798087 </i>
    <i name="e_0_energy">    -55.04593153 </i>
   </energy>
  </scstep>
  <scstep>
   <time name="dav">    0.02    0.03</time>
   <time name="total">    0.04    0.04</time>
   <energy>
    <i name="e_fr_energy">   -129.54946907 </i>
    <i name="e_wo_entrp">   -129.51609523 </i>
    <i name="e_0_energy">   -129.53834445 </i>
   </energy>
  </scstep>
  <scstep>
   <time name="dav">    0.03    0.03</time>
   <time name="total">    0.04    0.04</time>
   <energy>
    <i name="e_fr_energy">    -27.09262434 </i>
    <i name="e_wo_entrp">    -27.10978938 </i>
    <i name="e_0_energy">    -27.09834602 </i>
   </energy>
  </scstep>
  <scstep>
   <time name="dav">    0.02    0.03</time>
   <time name="total">    0.04    0.04</time>
   <energy>
    <i name="e_fr_energy">    -10.76212102 </i>
    <i name="e_wo_entrp">    -10.73955178 </i>
    <i name="e_0_energy">    -10.75459794 </i>
   </energy>
  </scstep>
  <scstep>
   <time name="dav">    0.02    0.02</time>
   <time name="total">    0.04    0.04</time>
   <energy>
    <i name="e_fr_energy">    -14.33562093 </i>
    <i name="e_wo_entrp">    -14.33316932 </i>
    <i name="e_0_energy">    -14.33480373 </i>
   </energy>
  </scstep>
  <scstep>
   <time name="dav">    0.03    0.03</time>
   <time name="total">    0.04    0.04</time>
   <energy>
    <i name="e_fr_energy">    -11.25317496 </i>
    <i name="e_wo_entrp">    -11.25673552 </i>
    <i name="e_0_energy">    -11.25436181 </i>
   </energy>
  </scstep>
  <scstep>
   <time name="dav">    0.02    0.03</time>
   <time name="total">    0.04    0.04</time>
   <energy>
    <i name="e_fr_energy">    -10.98688887 </i>
    <i name="e_wo_entrp">    -10.99206014 </i>
    <i name="e_0_energy">    -10.98861263 </i>
   </energy>
  </scstep>
  <scstep>
   <time name="dav">    0.03    0.03</time>
   <time name="total">    0.04    0.04</time>
   <energy>
    <i name="e_fr_energy">    -10.83854664 </i>
    <i name="e_wo_entrp">    -10.84619714 </i>
    <i name="e_0_energy">    -10.84109681 </i>
   </energy>
  </scstep>
  <scstep>
   <time name="dav">    0.04    0.04</time>
   <time name="total">    0.05    0.06</time>
   <energy>
    <i name="e_fr_energy">    -10.85016852 </i>
    <i name="e_wo_entrp">    -10.85780495 </i>
    <i name="e_0_energy">    -10.85271400 </i>
   </energy>
  </scstep>
  <scstep>
   <time name="dav">    0.02    0.03</time>
   <time name="total">    0.04    0.04</time>
   <energy>
    <i name="e_fr_energy">    -10.83312807 </i>
    <i name="e_wo_entrp">    -10.84242955 </i>
    <i name="e_0_energy">    -10.83622856 </i>
   </energy>
  </scstep>
  <scstep>
   <time name="dav">    0.02    0.03</time>
   <time name="total">    0.04    0.04</time>
   <energy>
    <i name="e_fr_energy">    -10.83438515 </i>
    <i name="e_wo_entrp">    -10.84475783 </i>
    <i name="e_0_energy">    -10.83784271 </i>
   </energy>
  </scstep>
  <scstep>
   <time name="dav">    0.03    0.03</time>
   <time name="total">    0.04    0.05</time>
   <energy>
    <i name="e_fr_energy">    -10.83361227 </i>
    <i name="e_wo_entrp">    -10.84376294 </i>
    <i name="e_0_energy">    -10.83699583 </i>
   </energy>
  </scstep>
  <scstep>
   <time name="dav">    0.02    0.02</time>
   <time name="total">    0.04    0.04</time>
   <energy>
    <i name="e_fr_energy">    -10.83289547 </i>
    <i name="e_wo_entrp">    -10.84272773 </i>
    <i name="e_0_energy">    -10.83617289 </i>
   </energy>
  </scstep>
  <scstep>
   <time name="dav">    0.03    0.03</time>
   <time name="total">    0.04    0.04</time>
   <energy>
    <i name="e_fr_energy">    -10.83279335 </i>
    <i name="e_wo_entrp">    -10.84259984 </i>
    <i name="e_0_energy">    -10.83606218 </i>
   </energy>
  </scstep>
  <scstep>
   <time name="dav">    0.02    0.02</time>
   <time name="total">    0.04    0.04</time>
   <energy>
    <i name="e_fr_energy">    -10.83275453 </i>
    <i name="e_wo_entrp">    -10.84251636 </i>
    <i name="e_0_energy">    -10.83600847 </i>
   </energy>
  </scstep>
  <scstep>
   <time name="dav">    0.02    0.03</time>
   <time name="total">    0.04    0.04</time>
   <energy>
    <i name="e_fr_energy">    -10.83274165 </i>
    <i name="e_wo_entrp">    -10.84249972 </i>
    <i name="e_0_energy">    -10.83599434 </i>
   </energy>
  </scstep>
  <scstep>
   <time name="dav">    0.02    0.02</time>
   <time name="total">    0.03    0.03</time>
   <energy>
    <i name="alphaZ">     93.55617618 </i>
    <i name="ewald">  -1875.77248328 </i>
    <i name="hartreedc">   -450.06964552 </i>
    <i name="XCdc">     61.42105725 </i>
    <i name="pawpsdc">   2129.64125634 </i>
    <i name="pawaedc">  -2267.01445655 </i>
    <i name="eentropy">      0.00975185 </i>
    <i name="bandstr">    142.10699087 </i>
    <i name="atom">   2155.28861074 </i>
    <i name="e_fr_energy">    -10.83274212 </i>
    <i name="e_wo_entrp">    -10.84249397 </i>
    <i name="e_0_energy">    -10.83599274 </i>
   </energy>
  </scstep>
  <structure>
   <crystal>
    <varray name="basis" >
     <v>       2.79373900       0.00000000       0.00000000 </v>
     <v>       0.00000000       2.79373900       0.00000000 </v>
     <v>       0.00000000       0.00000000       2.79373900 </v>
    </varray>
    <i name="volume">     21.80507032 </i>
    <varray name="rec_basis" >
     <v>       0.35794324       0.00000000       0.00000000 </v>
     <v>       0.00000000       0.35794324       0.00000000 </v>
     <v>       0.00000000       0.00000000       0.35794324 </v>
    </varray>
   </crystal>
   <varray name="positions" >
    <v>       0.00000000       0.00000000       0.00000000 </v>
    <v>       0.50000000       0.50000000       0.50000000 </v>
   </varray>
  </structure>
  <varray name="forces" >
   <v>       0.00000000      -0.00000000       0.00000000 </v>
   <v>      -0.00000000       0.00000000      -0.00000000 </v>
  </varray>
  <varray name="stress" >
   <v>       5.78963059       0.00000000       0.00000000 </v>
   <v>       0.00000000       5.78963059       0.00000000 </v>
   <v>       0.00000000       0.00000000       5.78963059 </v>
  </varray>
  <energy>
   <i name="e_fr_energy">    -10.83274212 </i>
   <i name="e_wo_entrp">    -10.83599274 </i>
   <i name="e_0_energy">      0.00975185 </i>
  </energy>
  <time name="totalsc">    0.96    1.04</time>
  <eigenvalues>
   <array>
    <dimension dim="1">band</dimension>
    <dimension dim="2">kpoint</dimension>
    <dimension dim="3">spin</dimension>
    <field>eigene</field>
    <field>occ</field>
    <set>
     <set comment="spin 1">
      <set comment="kpoint 1">
       <r>    1.2969    1.0000 </r>
       <r>    5.4200    1.0000 </r>
       <r>    5.4200    1.0000 </r>
       <r>    6.7984    1.0000 </r>
       <r>    6.7984    1.0000 </r>
       <r>    7.4673    1.0000 </r>
       <r>    7.9510    1.0000 </r>
       <r>    8.3185    1.0000 </r>
       <r>    8.3185    1.0000 </r>
       <r>    8.8026    1.0029 </r>
       <r>    8.8026    1.0029 </r>
       <r>   17.5213    0.0000 </r>
       <r>   17.5213    0.0000 </r>
       <r>   18.5216    0.0000 </r>
       <r>   27.8009    0.0000 </r>
       <r>   27.8009    0.0000 </r>
      </set>
      <set comment="kpoint 2">
       <r>    3.4769    1.0000 </r>
       <r>    5.5424    1.0000 </r>
       <r>    6.0913    1.0000 </r>
       <r>    6.6477    1.0000 </r>
       <r>    6.7118    1.0000 </r>
       <r>    7.0689    1.0000 </r>
       <r>    7.8390    1.0000 </r>
       <r>    7.9162    1.0000 </r>
       <r>    8.2350    1.0000 </r>
       <r>    8.6968    1.0003 </r>
       <r>    8.7395    1.0007 </r>
       <r>   11.4990   -0.0000 </r>
       <r>   20.6456    0.0000 </r>
       <r>   21.1461    0.0000 </r>
       <r>   25.2690    0.0000 </r>
       <r>   26.0380    0.0000 </r>
      </set>
      <set comment="kpoint 3">
       <r>    4.5840    1.0000 </r>
       <r>    5.1838    1.0000 </r>
       <r>    6.1417    1.0000 </r>
       <r>    6.2897    1.0000 </r>
       <r>    7.0768    1.0000 </r>
       <r>    7.1843    1.0000 </r>
       <r>    8.1377    1.0000 </r>
       <r>    8.2831    1.0000 </r>
       <r>    8.5044    1.0000 </r>
       <r>    8.8759    1.0103 </r>
       <r>    9.5422   -0.0313 </r>
       <r>   12.0892   -0.0000 </r>
       <r>   15.9296    0.0000 </r>
       <r>   19.1607    0.0000 </r>
       <r>   23.0839    0.0000 </r>
       <r>   26.8790    0.0000 </r>
      </set>
      <set comment="kpoint 4">
       <r>    5.7002    1.0000 </r>
       <r>    5.9433    1.0000 </r>
       <r>    6.0240    1.0000 </r>
       <r>    6.0240    1.0000 </r>
       <r>    6.3459    1.0000 </r>
       <r>    6.3459    1.0000 </r>
       <r>    8.4904    1.0000 </r>
       <r>    8.4904    1.0000 </r>
       <r>    8.4978    1.0000 </r>
       <r>    8.4978    1.0000 </r>
       <r>   12.0146   -0.0000 </r>
       <r>   15.7061    0.0000 </r>
       <r>   15.7061    0.0000 </r>
       <r>   17.9477    0.0000 </r>
       <r>   20.7450    0.0000 </r>
       <r>   20.7450    0.0000 </r>
      </set>
     </set>
     <set comment="spin 2">
      <set comment="kpoint 1">
       <r>    1.2772    1.0000 </r>
       <r>    5.7208    1.0000 </r>
       <r>    5.7208    1.0000 </r>
       <r>    7.3737    1.0000 </r>
       <r>    7.3737    1.0000 </r>
       <r>    8.0723    1.0000 </r>
       <r>    8.5463    1.0000 </r>
       <r>    8.7767    1.0017 </r>
       <r>    8.7767    1.0017 </r>
       <r>    9.4509   -0.0200 </r>
       <r>    9.4509   -0.0200 </r>
       <r>   17.6130    0.0000 </r>
       <r>   17.6130    0.0000 </r>
       <r>   18.6226    0.0000 </r>
       <r>   27.8430    0.0000 </r>
       <r>   27.8430    0.0000 </r>
      </set>
      <set comment="kpoint 2">
       <r>    3.4926    1.0000 </r>
       <r>    5.7630    1.0000 </r>
       <r>    6.4427    1.0000 </r>
       <r>    7.1409    1.0000 </r>
       <r>    7.2620    1.0000 </r>
       <r>    7.6098    1.0000 </r>
       <r>    8.3250    1.0000 </r>
       <r>    8.4946    1.0000 </r>
       <r>    8.8462    1.0064 </r>
       <r>    9.2003    0.7391 </r>
       <r>    9.3250    0.2390 </r>
       <r>   11.7552   -0.0000 </r>
       <r>   20.7710    0.0000 </r>
       <r>   21.2633    0.0000 </r>
       <r>   25.3451    0.0000 </r>
       <r>   26.1291    0.0000 </r>
      </set>
      <set comment="kpoint 3">
       <r>    4.7825    1.0000 </r>
       <r>    5.5225    1.0000 </r>
       <r>    6.6785    1.0000 </r>
       <r>    6.8161    1.0000 </r>
       <r>    7.3762    1.0000 </r>
       <r>    7.5052    1.0000 </r>
       <r>    8.6550    1.0001 </r>
       <r>    8.7902    1.0022 </r>
       <r>    8.9739    1.0307 </r>
       <r>    9.4734   -0.0309 </r>
       <r>   10.0871   -0.0000 </r>
       <r>   12.2896   -0.0000 </r>
       <r>   16.1954    0.0000 </r>
       <r>   19.3303    0.0000 </r>
       <r>   23.1704    0.0000 </r>
       <r>   26.8895    0.0000 </r>
      </set>
      <set comment="kpoint 4">
       <r>    6.1738    1.0000 </r>
       <r>    6.2058    1.0000 </r>
       <r>    6.5011    1.0000 </r>
       <r>    6.5011    1.0000 </r>
       <r>    6.7382    1.0000 </r>
       <r>    6.7382    1.0000 </r>
       <r>    8.9775    1.0314 </r>
       <r>    8.9775    1.0314 </r>
       <r>    8.9951    1.0342 </r>
       <r>    8.9951    1.0342 </r>
       <r>   12.3985   -0.0000 </r>
       <r>   15.9031    0.0000 </r>
       <r>   15.9031    0.0000 </r>
       <r>   18.1242    0.0000 </r>
       <r>   20.8671    0.0000 </r>
       <r>   20.8671    0.0000 </r>
      </set>
     </set>
    </set>
   </array>
  </eigenvalues>
  <separator name="orbital magnetization" >
   <v name="MAGDIPOLOUT">      0.00000000      0.00000000      0.00000000</v>
  </separator>
  <dos>
   <i name="efermi">      9.25954412 </i>
   <total>
    <array>
     <dimension dim="1">gridpoints</dimension>
     <dimension dim="2">spin</dimension>
     <field>energy</field>
     <field>total</field>
     <field>integrated</field>
     <set>
      <set comment="spin 1">
       <r>    -0.7228     0.0000     0.0000 </r>
       <r>    -0.6209     0.0000     0.0000 </r>
       <r>    -0.5191     0.0000     0.0000 </r>
       <r>    -0.4172     0.0000     0.0000 </r>
       <r>    -0.3153    -0.0000    -0.0000 </r>
       <r>    -0.2134    -0.0000    -0.0000 </r>
       <r>    -0.1115    -0.0000    -0.0000 </r>
       <r>    -0.0096    -0.0000    -0.0000 </r>
       <r>     0.0923    -0.0000    -0.0000 </r>
       <r>     0.1941    -0.0000    -0.0000 </r>
       <r>     0.2960    -0.0000    -0.0000 </r>
       <r>     0.3979    -0.0000    -0.0000 </r>
       <r>     0.4998    -0.0000    -0.0000 </r>
       <r>     0.6017    -0.0000    -0.0000 </r>
       <r>     0.7036    -0.0001    -0.0000 </r>
       <r>     0.8055    -0.0016    -0.0002 </r>
       <r>     0.9073    -0.0099    -0.0012 </r>
       <r>     1.0092    -0.0256    -0.0038 </r>
       <r>     1.1111     0.0174    -0.0020 </r>
       <r>     1.2130     0.2372     0.0222 </r>
       <r>     1.3149     0.4889     0.0720 </r>
       <r>     1.4168     0.4220     0.1150 </r>
       <r>     1.5187     0.1390     0.1291 </r>
       <r>     1.6206    -0.0133     0.1278 </r>
       <r>     1.7224    -0.0209     0.1256 </r>
       <r>     1.8243    -0.0056     0.1251 </r>
       <r>     1.9262    -0.0007     0.1250 </r>
       <r>     2.0281    -0.0000     0.1250 </r>
       <r>     2.1300    -0.0000     0.1250 </r>
       <r>     2.2319    -0.0000     0.1250 </r>
       <r>     2.3338    -0.0000     0.1250 </r>
       <r>     2.4356    -0.0000     0.1250 </r>
       <r>     2.5375    -0.0000     0.1250 </r>
       <r>     2.6394    -0.0000     0.1250 </r>
       <r>     2.7413    -0.0000     0.1250 </r>
       <r>     2.8432    -0.0001     0.1250 </r>
       <r>     2.9451    -0.0019     0.1248 </r>
       <r>     3.0470    -0.0156     0.1232 </r>
       <r>     3.1488    -0.0604     0.1170 </r>
       <r>     3.2507    -0.0468     0.1123 </r>
       <r>     3.3526     0.3844     0.1514 </r>
       <r>     3.4545     1.2337     0.2771 </r>
       <r>     3.5564     1.4828     0.4282 </r>
       <r>     3.6583     0.7508     0.5047 </r>
       <r>     3.7602     0.0686     0.5117 </r>
       <r>     3.8620    -0.0776     0.5038 </r>
       <r>     3.9639    -0.0317     0.5006 </r>
       <r>     4.0658    -0.0078     0.4998 </r>
       <r>     4.1677    -0.0201     0.4977 </r>
       <r>     4.2696    -0.0673     0.4909 </r>
       <r>     4.3715    -0.0224     0.4886 </r>
       <r>     4.4734     0.4881     0.5383 </r>
       <r>     4.5752     1.3283     0.6736 </r>
       <r>     4.6771     1.4233     0.8187 </r>
       <r>     4.7790     0.6080     0.8806 </r>
       <r>     4.8809    -0.0513     0.8754 </r>
       <r>     4.9828    -0.0795     0.8673 </r>
       <r>     5.0847     0.5081     0.9190 </r>
       <r>     5.1866     1.3079     1.0523 </r>
       <r>     5.2884     1.5072     1.2059 </r>
       <r>     5.3903     1.5043     1.3591 </r>
       <r>     5.4922     1.9929     1.5622 </r>
       <r>     5.5941     2.1466     1.7809 </r>
       <r>     5.6960     1.3886     1.9224 </r>
       <r>     5.7979     0.5279     1.9762 </r>
       <r>     5.8998     0.6427     2.0416 </r>
       <r>     6.0017     2.1143     2.2571 </r>
       <r>     6.1035     3.8263     2.6469 </r>
       <r>     6.2054     4.2478     3.0797 </r>
       <r>     6.3073     3.4918     3.4355 </r>
       <r>     6.4092     2.1696     3.6565 </r>
       <r>     6.5111     1.1014     3.7687 </r>
       <r>     6.6130     1.7311     3.9451 </r>
       <r>     6.7149     3.1688     4.2680 </r>
       <r>     6.8167     2.9700     4.5706 </r>
       <r>     6.9186     1.7993     4.7539 </r>
       <r>     7.0205     2.3075     4.9890 </r>
       <r>     7.1224     3.8150     5.3777 </r>
       <r>     7.2243     3.4607     5.7303 </r>
       <r>     7.3262     1.5883     5.8921 </r>
       <r>     7.4281     0.4592     5.9389 </r>
       <r>     7.5299     0.2418     5.9635 </r>
       <r>     7.6318     0.1162     5.9754 </r>
       <r>     7.7337     0.5885     6.0353 </r>
       <r>     7.8356     2.1114     6.2504 </r>
       <r>     7.9375     3.1552     6.5719 </r>
       <r>     8.0394     2.7780     6.8549 </r>
       <r>     8.1413     2.8676     7.1471 </r>
       <r>     8.2431     4.1123     7.5661 </r>
       <r>     8.3450     4.6534     8.0402 </r>
       <r>     8.4469     4.2927     8.4776 </r>
       <r>     8.5488     4.0099     8.8861 </r>
       <r>     8.6507     3.9542     9.2890 </r>
       <r>     8.7526     4.4215     9.7395 </r>
       <r>     8.8545     4.3320    10.1809 </r>
       <r>     8.9563     2.6632    10.4522 </r>
       <r>     9.0582     0.7387    10.5275 </r>
       <r>     9.1601    -0.1277    10.5145 </r>
       <r>     9.2620    -0.2120    10.4929 </r>
       <r>     9.3639     0.0399    10.4969 </r>
       <r>     9.4658     0.7713    10.5755 </r>
       <r>     9.5677     1.4918    10.7275 </r>
       <r>     9.6695     1.2112    10.8509 </r>
       <r>     9.7714     0.3630    10.8879 </r>
       <r>     9.8733    -0.0511    10.8827 </r>
       <r>     9.9752    -0.0589    10.8767 </r>
       <r>    10.0771    -0.0148    10.8752 </r>
       <r>    10.1790    -0.0018    10.8750 </r>
       <r>    10.2809    -0.0001    10.8750 </r>
       <r>    10.3827    -0.0000    10.8750 </r>
       <r>    10.4846    -0.0000    10.8750 </r>
       <r>    10.5865    -0.0000    10.8750 </r>
       <r>    10.6884    -0.0000    10.8750 </r>
       <r>    10.7903    -0.0000    10.8750 </r>
       <r>    10.8922    -0.0003    10.8750 </r>
       <r>    10.9941    -0.0035    10.8746 </r>
       <r>    11.0960    -0.0242    10.8721 </r>
       <r>    11.1978    -0.0728    10.8647 </r>
       <r>    11.2997     0.0098    10.8657 </r>
       <r>    11.4016     0.5961    10.9265 </r>
       <r>    11.5035     1.4042    11.0695 </r>
       <r>    11.6054     1.3417    11.2062 </r>
       <r>    11.7073     0.4652    11.2536 </r>
       <r>    11.8092    -0.0933    11.2441 </r>
       <r>    11.9110     0.1933    11.2638 </r>
       <r>    12.0129     1.2150    11.3876 </r>
       <r>    12.1148     1.9535    11.5866 </r>
       <r>    12.2167     1.4005    11.7293 </r>
       <r>    12.3186     0.3624    11.7663 </r>
       <r>    12.4205    -0.0752    11.7586 </r>
       <r>    12.5224    -0.0665    11.7518 </r>
       <r>    12.6242    -0.0158    11.7502 </r>
       <r>    12.7261    -0.0018    11.7500 </r>
       <r>    12.8280    -0.0001    11.7500 </r>
       <r>    12.9299    -0.0000    11.7500 </r>
       <r>    13.0318    -0.0000    11.7500 </r>
       <r>    13.1337    -0.0000    11.7500 </r>
       <r>    13.2356    -0.0000    11.7500 </r>
       <r>    13.3374    -0.0000    11.7500 </r>
       <r>    13.4393     0.0000    11.7500 </r>
       <r>    13.5412     0.0000    11.7500 </r>
       <r>    13.6431     0.0000    11.7500 </r>
       <r>    13.7450     0.0000    11.7500 </r>
       <r>    13.8469     0.0000    11.7500 </r>
       <r>    13.9488     0.0000    11.7500 </r>
       <r>    14.0506    -0.0000    11.7500 </r>
       <r>    14.1525    -0.0000    11.7500 </r>
       <r>    14.2544    -0.0000    11.7500 </r>
       <r>    14.3563    -0.0000    11.7500 </r>
       <r>    14.4582    -0.0000    11.7500 </r>
       <r>    14.5601    -0.0000    11.7500 </r>
       <r>    14.6620    -0.0000    11.7500 </r>
       <r>    14.7638    -0.0000    11.7500 </r>
       <r>    14.8657    -0.0000    11.7500 </r>
       <r>    14.9676    -0.0000    11.7500 </r>
       <r>    15.0695    -0.0001    11.7500 </r>
       <r>    15.1714    -0.0012    11.7499 </r>
       <r>    15.2733    -0.0099    11.7489 </r>
       <r>    15.3752    -0.0404    11.7447 </r>
       <r>    15.4770    -0.0443    11.7402 </r>
       <r>    15.5789     0.1943    11.7600 </r>
       <r>    15.6808     0.7380    11.8352 </r>
       <r>    15.7827     1.2305    11.9606 </r>
       <r>    15.8846     1.5705    12.1206 </r>
       <r>    15.9865     1.5821    12.2818 </r>
       <r>    16.0884     0.8983    12.3733 </r>
       <r>    16.1903     0.1480    12.3884 </r>
       <r>    16.2921    -0.0797    12.3803 </r>
       <r>    16.3940    -0.0426    12.3759 </r>
       <r>    16.4959    -0.0082    12.3751 </r>
       <r>    16.5978    -0.0008    12.3750 </r>
       <r>    16.6997    -0.0000    12.3750 </r>
       <r>    16.8016    -0.0000    12.3750 </r>
       <r>    16.9035    -0.0001    12.3750 </r>
       <r>    17.0053    -0.0018    12.3748 </r>
       <r>    17.1072    -0.0136    12.3734 </r>
       <r>    17.2091    -0.0455    12.3688 </r>
       <r>    17.3110    -0.0118    12.3676 </r>
       <r>    17.4129     0.3365    12.4019 </r>
       <r>    17.5148     0.8900    12.4925 </r>
       <r>    17.6167     0.9243    12.5867 </r>
       <r>    17.7185     0.3917    12.6266 </r>
       <r>    17.8204     0.1314    12.6400 </r>
       <r>    17.9223     0.3547    12.6761 </r>
       <r>    18.0242     0.4794    12.7250 </r>
       <r>    18.1261     0.2474    12.7502 </r>
       <r>    18.2280     0.0014    12.7503 </r>
       <r>    18.3299    -0.0152    12.7488 </r>
       <r>    18.4317     0.2091    12.7701 </r>
       <r>    18.5336     0.4787    12.8189 </r>
       <r>    18.6355     0.4332    12.8630 </r>
       <r>    18.7374     0.1366    12.8769 </r>
       <r>    18.8393    -0.0736    12.8694 </r>
       <r>    18.9412    -0.0579    12.8635 </r>
       <r>    19.0431     0.4277    12.9071 </r>
       <r>    19.1449     1.2809    13.0376 </r>
       <r>    19.2468     1.4578    13.1861 </r>
       <r>    19.3487     0.6921    13.2567 </r>
       <r>    19.4506     0.0445    13.2612 </r>
       <r>    19.5525    -0.0763    13.2534 </r>
       <r>    19.6544    -0.0286    13.2505 </r>
       <r>    19.7563    -0.0045    13.2500 </r>
       <r>    19.8581    -0.0004    13.2500 </r>
       <r>    19.9600    -0.0000    13.2500 </r>
       <r>    20.0619    -0.0005    13.2499 </r>
       <r>    20.1638    -0.0062    13.2493 </r>
       <r>    20.2657    -0.0379    13.2455 </r>
       <r>    20.3676    -0.1014    13.2351 </r>
       <r>    20.4695     0.0368    13.2389 </r>
       <r>    20.5714     0.8619    13.3267 </r>
       <r>    20.6732     2.0373    13.5343 </r>
       <r>    20.7751     2.1602    13.7544 </r>
       <r>    20.8770     1.0536    13.8617 </r>
       <r>    20.9789     0.2948    13.8917 </r>
       <r>    21.0808     0.7800    13.9712 </r>
       <r>    21.1827     1.4668    14.1207 </r>
       <r>    21.2846     1.1129    14.2340 </r>
       <r>    21.3864     0.2869    14.2633 </r>
       <r>    21.4883    -0.0638    14.2568 </r>
       <r>    21.5902    -0.0530    14.2514 </r>
       <r>    21.6921    -0.0121    14.2501 </r>
       <r>    21.7940    -0.0014    14.2500 </r>
       <r>    21.8959    -0.0001    14.2500 </r>
       <r>    21.9978    -0.0000    14.2500 </r>
       <r>    22.0996    -0.0000    14.2500 </r>
       <r>    22.2015    -0.0000    14.2500 </r>
       <r>    22.3034    -0.0000    14.2500 </r>
       <r>    22.4053    -0.0000    14.2500 </r>
       <r>    22.5072    -0.0006    14.2499 </r>
       <r>    22.6091    -0.0067    14.2493 </r>
       <r>    22.7110    -0.0371    14.2455 </r>
       <r>    22.8128    -0.0780    14.2375 </r>
       <r>    22.9147     0.1195    14.2497 </r>
       <r>    23.0166     0.8588    14.3372 </r>
       <r>    23.1185     1.5152    14.4916 </r>
       <r>    23.2204     1.1391    14.6076 </r>
       <r>    23.3223     0.3004    14.6382 </r>
       <r>    23.4242    -0.0619    14.6319 </r>
       <r>    23.5260    -0.0540    14.6264 </r>
       <r>    23.6279    -0.0125    14.6252 </r>
       <r>    23.7298    -0.0014    14.6250 </r>
       <r>    23.8317    -0.0001    14.6250 </r>
       <r>    23.9336    -0.0000    14.6250 </r>
       <r>    24.0355    -0.0000    14.6250 </r>
       <r>    24.1374    -0.0000    14.6250 </r>
       <r>    24.2392    -0.0000    14.6250 </r>
       <r>    24.3411    -0.0000    14.6250 </r>
       <r>    24.4430    -0.0000    14.6250 </r>
       <r>    24.5449    -0.0000    14.6250 </r>
       <r>    24.6468    -0.0002    14.6250 </r>
       <r>    24.7487    -0.0025    14.6247 </r>
       <r>    24.8506    -0.0189    14.6228 </r>
       <r>    24.9524    -0.0663    14.6160 </r>
       <r>    25.0543    -0.0268    14.6133 </r>
       <r>    25.1562     0.4715    14.6614 </r>
       <r>    25.2581     1.3148    14.7953 </r>
       <r>    25.3600     1.4366    14.9417 </r>
       <r>    25.4619     0.6492    15.0078 </r>
       <r>    25.5638     0.0217    15.0100 </r>
       <r>    25.6657    -0.1123    14.9986 </r>
       <r>    25.7675    -0.1046    14.9879 </r>
       <r>    25.8694     0.1178    14.9999 </r>
       <r>    25.9713     0.8631    15.0879 </r>
       <r>    26.0732     1.5161    15.2423 </r>
       <r>    26.1751     1.1349    15.3580 </r>
       <r>    26.2770     0.2967    15.3882 </r>
       <r>    26.3789    -0.0663    15.3815 </r>
       <r>    26.4807    -0.0797    15.3733 </r>
       <r>    26.5826    -0.0869    15.3645 </r>
       <r>    26.6845     0.0222    15.3667 </r>
       <r>    26.7864     0.6363    15.4316 </r>
       <r>    26.8883     1.4293    15.5772 </r>
       <r>    26.9902     1.3250    15.7122 </r>
       <r>    27.0921     0.4837    15.7615 </r>
       <r>    27.1939    -0.0238    15.7591 </r>
       <r>    27.2958    -0.0693    15.7520 </r>
       <r>    27.3977    -0.0355    15.7484 </r>
       <r>    27.4996    -0.0511    15.7432 </r>
       <r>    27.6015     0.0061    15.7438 </r>
       <r>    27.7034     0.3965    15.7842 </r>
       <r>    27.8053     0.9365    15.8796 </r>
       <r>    27.9071     0.9037    15.9717 </r>
       <r>    28.0090     0.3486    16.0072 </r>
       <r>    28.1109    -0.0085    16.0063 </r>
       <r>    28.2128    -0.0462    16.0016 </r>
       <r>    28.3147    -0.0140    16.0002 </r>
       <r>    28.4166    -0.0019    16.0000 </r>
       <r>    28.5185    -0.0001    16.0000 </r>
       <r>    28.6203    -0.0000    16.0000 </r>
       <r>    28.7222    -0.0000    16.0000 </r>
       <r>    28.8241    -0.0000    16.0000 </r>
       <r>    28.9260    -0.0000    16.0000 </r>
       <r>    29.0279    -0.0000    16.0000 </r>
       <r>    29.1298     0.0000    16.0000 </r>
       <r>    29.2317     0.0000    16.0000 </r>
       <r>    29.3335     0.0000    16.0000 </r>
       <r>    29.4354     0.0000    16.0000 </r>
       <r>    29.5373     0.0000    16.0000 </r>
       <r>    29.6392     0.0000    16.0000 </r>
       <r>    29.7411     0.0000    16.0000 </r>
       <r>    29.8430     0.0000    16.0000 </r>
      </set>
      <set comment="spin 2">
       <r>    -0.7228     0.0000     0.0000 </r>
       <r>    -0.6209     0.0000     0.0000 </r>
       <r>    -0.5191     0.0000     0.0000 </r>
       <r>    -0.4172    -0.0000    -0.0000 </r>
       <r>    -0.3153    -0.0000    -0.0000 </r>
       <r>    -0.2134    -0.0000    -0.0000 </r>
       <r>    -0.1115    -0.0000    -0.0000 </r>
       <r>    -0.0096    -0.0000    -0.0000 </r>
       <r>     0.0923    -0.0000    -0.0000 </r>
       <r>     0.1941    -0.0000    -0.0000 </r>
       <r>     0.2960    -0.0000    -0.0000 </r>
       <r>     0.3979    -0.0000    -0.0000 </r>
       <r>     0.4998    -0.0000    -0.0000 </r>
       <r>     0.6017    -0.0000    -0.0000 </r>
       <r>     0.7036    -0.0002    -0.0000 </r>
       <r>     0.8055    -0.0024    -0.0003 </r>
       <r>     0.9073    -0.0129    -0.0016 </r>
       <r>     1.0092    -0.0259    -0.0042 </r>
       <r>     1.1111     0.0446     0.0003 </r>
       <r>     1.2130     0.2954     0.0304 </r>
       <r>     1.3149     0.5069     0.0821 </r>
       <r>     1.4168     0.3713     0.1199 </r>
       <r>     1.5187     0.0935     0.1294 </r>
       <r>     1.6206    -0.0216     0.1272 </r>
       <r>     1.7224    -0.0174     0.1254 </r>
       <r>     1.8243    -0.0040     0.1250 </r>
       <r>     1.9262    -0.0004     0.1250 </r>
       <r>     2.0281    -0.0000     0.1250 </r>
       <r>     2.1300    -0.0000     0.1250 </r>
       <r>     2.2319    -0.0000     0.1250 </r>
       <r>     2.3338    -0.0000     0.1250 </r>
       <r>     2.4356    -0.0000     0.1250 </r>
       <r>     2.5375    -0.0000     0.1250 </r>
       <r>     2.6394    -0.0000     0.1250 </r>
       <r>     2.7413    -0.0000     0.1250 </r>
       <r>     2.8432    -0.0001     0.1250 </r>
       <r>     2.9451    -0.0013     0.1249 </r>
       <r>     3.0470    -0.0118     0.1237 </r>
       <r>     3.1488    -0.0521     0.1183 </r>
       <r>     3.2507    -0.0651     0.1117 </r>
       <r>     3.3526     0.2782     0.1401 </r>
       <r>     3.4545     1.1110     0.2533 </r>
       <r>     3.5564     1.5212     0.4082 </r>
       <r>     3.6583     0.8894     0.4989 </r>
       <r>     3.7602     0.1355     0.5127 </r>
       <r>     3.8620    -0.0776     0.5048 </r>
       <r>     3.9639    -0.0388     0.5008 </r>
       <r>     4.0658    -0.0072     0.5001 </r>
       <r>     4.1677    -0.0009     0.5000 </r>
       <r>     4.2696    -0.0030     0.4997 </r>
       <r>     4.3715    -0.0214     0.4975 </r>
       <r>     4.4734    -0.0696     0.4904 </r>
       <r>     4.5752    -0.0106     0.4893 </r>
       <r>     4.6771     0.5304     0.5434 </r>
       <r>     4.7790     1.3611     0.6820 </r>
       <r>     4.8809     1.3998     0.8247 </r>
       <r>     4.9828     0.5855     0.8843 </r>
       <r>     5.0847    -0.0068     0.8836 </r>
       <r>     5.1866    -0.1306     0.8703 </r>
       <r>     5.2884    -0.0976     0.8604 </r>
       <r>     5.3903     0.2495     0.8858 </r>
       <r>     5.4922     1.0623     0.9940 </r>
       <r>     5.5941     1.8706     1.1846 </r>
       <r>     5.6960     2.4882     1.4381 </r>
       <r>     5.7979     2.5899     1.7020 </r>
       <r>     5.8998     1.5222     1.8571 </r>
       <r>     6.0017     0.3345     1.8912 </r>
       <r>     6.1035     0.2696     1.9186 </r>
       <r>     6.2054     0.7676     1.9968 </r>
       <r>     6.3073     1.1059     2.1095 </r>
       <r>     6.4092     1.7275     2.2855 </r>
       <r>     6.5111     2.4716     2.5373 </r>
       <r>     6.6130     2.8108     2.8237 </r>
       <r>     6.7149     3.3040     3.1604 </r>
       <r>     6.8167     3.3280     3.4994 </r>
       <r>     6.9186     1.9816     3.7013 </r>
       <r>     7.0205     0.7839     3.7812 </r>
       <r>     7.1224     1.2734     3.9109 </r>
       <r>     7.2243     2.7234     4.1884 </r>
       <r>     7.3262     3.9068     4.5865 </r>
       <r>     7.4281     4.3253     5.0272 </r>
       <r>     7.5299     3.9357     5.4281 </r>
       <r>     7.6318     2.9051     5.7241 </r>
       <r>     7.7337     1.4189     5.8687 </r>
       <r>     7.8356     0.2311     5.8922 </r>
       <r>     7.9375    -0.0486     5.8873 </r>
       <r>     8.0394     0.2188     5.9096 </r>
       <r>     8.1413     0.4882     5.9593 </r>
       <r>     8.2431     0.8892     6.0499 </r>
       <r>     8.3450     1.6380     6.2168 </r>
       <r>     8.4469     2.3139     6.4526 </r>
       <r>     8.5488     2.7017     6.7278 </r>
       <r>     8.6507     3.1508     7.0488 </r>
       <r>     8.7526     4.1377     7.4704 </r>
       <r>     8.8545     5.2432     8.0046 </r>
       <r>     8.9563     5.3898     8.5538 </r>
       <r>     9.0582     4.2007     8.9818 </r>
       <r>     9.1601     2.7362     9.2605 </r>
       <r>     9.2620     2.4835     9.5136 </r>
       <r>     9.3639     3.1730     9.8369 </r>
       <r>     9.4658     3.4749    10.1909 </r>
       <r>     9.5677     2.4593    10.4415 </r>
       <r>     9.6695     0.7895    10.5219 </r>
       <r>     9.7714    -0.1303    10.5086 </r>
       <r>     9.8733    -0.1542    10.4929 </r>
       <r>     9.9752     0.4395    10.5377 </r>
       <r>    10.0771     1.3148    10.6717 </r>
       <r>    10.1790     1.4324    10.8176 </r>
       <r>    10.2809     0.6427    10.8831 </r>
       <r>    10.3827     0.0259    10.8857 </r>
       <r>    10.4846    -0.0747    10.8781 </r>
       <r>    10.5865    -0.0263    10.8754 </r>
       <r>    10.6884    -0.0040    10.8750 </r>
       <r>    10.7903    -0.0003    10.8750 </r>
       <r>    10.8922    -0.0000    10.8750 </r>
       <r>    10.9941    -0.0000    10.8750 </r>
       <r>    11.0960    -0.0001    10.8750 </r>
       <r>    11.1978    -0.0010    10.8749 </r>
       <r>    11.2997    -0.0098    10.8739 </r>
       <r>    11.4016    -0.0469    10.8691 </r>
       <r>    11.5035    -0.0721    10.8618 </r>
       <r>    11.6054     0.2188    10.8841 </r>
       <r>    11.7073     1.0278    10.9888 </r>
       <r>    11.8092     1.5245    11.1441 </r>
       <r>    11.9110     0.9398    11.2398 </r>
       <r>    12.0129     0.0967    11.2497 </r>
       <r>    12.1148    -0.0063    11.2491 </r>
       <r>    12.2167     0.7868    11.3292 </r>
       <r>    12.3186     1.7424    11.5067 </r>
       <r>    12.4205     1.6773    11.6776 </r>
       <r>    12.5224     0.7509    11.7541 </r>
       <r>    12.6242     0.0736    11.7616 </r>
       <r>    12.7261    -0.0724    11.7543 </r>
       <r>    12.8280    -0.0341    11.7508 </r>
       <r>    12.9299    -0.0069    11.7501 </r>
       <r>    13.0318    -0.0007    11.7500 </r>
       <r>    13.1337    -0.0000    11.7500 </r>
       <r>    13.2356    -0.0000    11.7500 </r>
       <r>    13.3374    -0.0000    11.7500 </r>
       <r>    13.4393    -0.0000    11.7500 </r>
       <r>    13.5412    -0.0000    11.7500 </r>
       <r>    13.6431    -0.0000    11.7500 </r>
       <r>    13.7450     0.0000    11.7500 </r>
       <r>    13.8469     0.0000    11.7500 </r>
       <r>    13.9488     0.0000    11.7500 </r>
       <r>    14.0506     0.0000    11.7500 </r>
       <r>    14.1525     0.0000    11.7500 </r>
       <r>    14.2544    -0.0000    11.7500 </r>
       <r>    14.3563    -0.0000    11.7500 </r>
       <r>    14.4582    -0.0000    11.7500 </r>
       <r>    14.5601    -0.0000    11.7500 </r>
       <r>    14.6620    -0.0000    11.7500 </r>
       <r>    14.7638    -0.0000    11.7500 </r>
       <r>    14.8657    -0.0000    11.7500 </r>
       <r>    14.9676    -0.0000    11.7500 </r>
       <r>    15.0695    -0.0000    11.7500 </r>
       <r>    15.1714    -0.0000    11.7500 </r>
       <r>    15.2733    -0.0001    11.7500 </r>
       <r>    15.3752    -0.0014    11.7498 </r>
       <r>    15.4770    -0.0111    11.7487 </r>
       <r>    15.5789    -0.0418    11.7445 </r>
       <r>    15.6808    -0.0300    11.7414 </r>
       <r>    15.7827     0.2545    11.7673 </r>
       <r>    15.8846     0.7724    11.8460 </r>
       <r>    15.9865     0.9647    11.9443 </r>
       <r>    16.0884     0.9946    12.0456 </r>
       <r>    16.1903     1.3872    12.1870 </r>
       <r>    16.2921     1.3574    12.3253 </r>
       <r>    16.3940     0.5812    12.3845 </r>
       <r>    16.4959     0.0083    12.3854 </r>
       <r>    16.5978    -0.0733    12.3779 </r>
       <r>    16.6997    -0.0244    12.3754 </r>
       <r>    16.8016    -0.0036    12.3750 </r>
       <r>    16.9035    -0.0003    12.3750 </r>
       <r>    17.0053    -0.0002    12.3750 </r>
       <r>    17.1072    -0.0023    12.3747 </r>
       <r>    17.2091    -0.0159    12.3731 </r>
       <r>    17.3110    -0.0483    12.3682 </r>
       <r>    17.4129     0.0050    12.3687 </r>
       <r>    17.5148     0.3926    12.4087 </r>
       <r>    17.6167     0.9330    12.5038 </r>
       <r>    17.7185     0.8987    12.5953 </r>
       <r>    17.8204     0.3283    12.6288 </r>
       <r>    17.9223    -0.0066    12.6281 </r>
       <r>    18.0242     0.1448    12.6429 </r>
       <r>    18.1261     0.4482    12.6885 </r>
       <r>    18.2280     0.4457    12.7339 </r>
       <r>    18.3299     0.1558    12.7498 </r>
       <r>    18.4317     0.0094    12.7508 </r>
       <r>    18.5336     0.1991    12.7711 </r>
       <r>    18.6355     0.4747    12.8194 </r>
       <r>    18.7374     0.4322    12.8635 </r>
       <r>    18.8393     0.1470    12.8784 </r>
       <r>    18.9412    -0.0400    12.8744 </r>
       <r>    19.0431    -0.0986    12.8643 </r>
       <r>    19.1449     0.0478    12.8692 </r>
       <r>    19.2468     0.7149    12.9420 </r>
       <r>    19.3487     1.4685    13.0916 </r>
       <r>    19.4506     1.2627    13.2203 </r>
       <r>    19.5525     0.4136    13.2624 </r>
       <r>    19.6544    -0.0406    13.2583 </r>
       <r>    19.7563    -0.0625    13.2519 </r>
       <r>    19.8581    -0.0167    13.2502 </r>
       <r>    19.9600    -0.0021    13.2500 </r>
       <r>    20.0619    -0.0002    13.2500 </r>
       <r>    20.1638    -0.0003    13.2500 </r>
       <r>    20.2657    -0.0037    13.2496 </r>
       <r>    20.3676    -0.0267    13.2469 </r>
       <r>    20.4695    -0.0902    13.2377 </r>
       <r>    20.5714    -0.0411    13.2335 </r>
       <r>    20.6732     0.6093    13.2956 </r>
       <r>    20.7751     1.8263    13.4817 </r>
       <r>    20.8770     2.2810    13.7141 </r>
       <r>    20.9789     1.3281    13.8494 </r>
       <r>    21.0808     0.3711    13.8872 </r>
       <r>    21.1827     0.6545    13.9539 </r>
       <r>    21.2846     1.4132    14.0979 </r>
       <r>    21.3864     1.2266    14.2228 </r>
       <r>    21.4883     0.3910    14.2627 </r>
       <r>    21.5902    -0.0452    14.2581 </r>
       <r>    21.6921    -0.0611    14.2518 </r>
       <r>    21.7940    -0.0159    14.2502 </r>
       <r>    21.8959    -0.0020    14.2500 </r>
       <r>    21.9978    -0.0001    14.2500 </r>
       <r>    22.0996    -0.0000    14.2500 </r>
       <r>    22.2015    -0.0000    14.2500 </r>
       <r>    22.3034    -0.0000    14.2500 </r>
       <r>    22.4053    -0.0000    14.2500 </r>
       <r>    22.5072    -0.0001    14.2500 </r>
       <r>    22.6091    -0.0009    14.2499 </r>
       <r>    22.7110    -0.0091    14.2490 </r>
       <r>    22.8128    -0.0448    14.2444 </r>
       <r>    22.9147    -0.0741    14.2369 </r>
       <r>    23.0166     0.1965    14.2569 </r>
       <r>    23.1185     0.9939    14.3581 </r>
       <r>    23.2204     1.5311    14.5141 </r>
       <r>    23.3223     1.0105    14.6171 </r>
       <r>    23.4242     0.2071    14.6382 </r>
       <r>    23.5260    -0.0732    14.6307 </r>
       <r>    23.6279    -0.0458    14.6261 </r>
       <r>    23.7298    -0.0094    14.6251 </r>
       <r>    23.8317    -0.0010    14.6250 </r>
       <r>    23.9336    -0.0001    14.6250 </r>
       <r>    24.0355    -0.0000    14.6250 </r>
       <r>    24.1374    -0.0000    14.6250 </r>
       <r>    24.2392    -0.0000    14.6250 </r>
       <r>    24.3411    -0.0000    14.6250 </r>
       <r>    24.4430    -0.0000    14.6250 </r>
       <r>    24.5449    -0.0000    14.6250 </r>
       <r>    24.6468    -0.0000    14.6250 </r>
       <r>    24.7487    -0.0004    14.6250 </r>
       <r>    24.8506    -0.0044    14.6245 </r>
       <r>    24.9524    -0.0283    14.6216 </r>
       <r>    25.0543    -0.0761    14.6139 </r>
       <r>    25.1562     0.0416    14.6181 </r>
       <r>    25.2581     0.6848    14.6879 </r>
       <r>    25.3600     1.4544    14.8361 </r>
       <r>    25.4619     1.2875    14.9673 </r>
       <r>    25.5638     0.4394    15.0120 </r>
       <r>    25.6657    -0.0429    15.0077 </r>
       <r>    25.7675    -0.1070    14.9968 </r>
       <r>    25.8694    -0.0934    14.9872 </r>
       <r>    25.9713     0.1726    15.0048 </r>
       <r>    26.0732     0.9586    15.1025 </r>
       <r>    26.1751     1.5296    15.2583 </r>
       <r>    26.2770     1.0448    15.3648 </r>
       <r>    26.3789     0.2271    15.3879 </r>
       <r>    26.4807    -0.0931    15.3784 </r>
       <r>    26.5826    -0.1185    15.3664 </r>
       <r>    26.6845    -0.0154    15.3648 </r>
       <r>    26.7864     0.5474    15.4206 </r>
       <r>    26.8883     1.3740    15.5606 </r>
       <r>    26.9902     1.3879    15.7020 </r>
       <r>    27.0921     0.5686    15.7599 </r>
       <r>    27.1939     0.0009    15.7600 </r>
       <r>    27.2958    -0.0724    15.7526 </r>
       <r>    27.3977    -0.0309    15.7495 </r>
       <r>    27.4996    -0.0382    15.7456 </r>
       <r>    27.6015    -0.0434    15.7411 </r>
       <r>    27.7034     0.1870    15.7602 </r>
       <r>    27.8053     0.7427    15.8359 </r>
       <r>    27.9071     1.0137    15.9392 </r>
       <r>    28.0090     0.5907    15.9993 </r>
       <r>    28.1109     0.0892    16.0084 </r>
       <r>    28.2128    -0.0518    16.0032 </r>
       <r>    28.3147    -0.0257    16.0005 </r>
       <r>    28.4166    -0.0048    16.0000 </r>
       <r>    28.5185    -0.0004    16.0000 </r>
       <r>    28.6203    -0.0000    16.0000 </r>
       <r>    28.7222    -0.0000    16.0000 </r>
       <r>    28.8241    -0.0000    16.0000 </r>
       <r>    28.9260    -0.0000    16.0000 </r>
       <r>    29.0279    -0.0000    16.0000 </r>
       <r>    29.1298    -0.0000    16.0000 </r>
       <r>    29.2317     0.0000    16.0000 </r>
       <r>    29.3335     0.0000    16.0000 </r>
       <r>    29.4354     0.0000    16.0000 </r>
       <r>    29.5373     0.0000    16.0000 </r>
       <r>    29.6392     0.0000    16.0000 </r>
       <r>    29.7411     0.0000    16.0000 </r>
       <r>    29.8430     0.0000    16.0000 </r>
      </set>
     </set>
    </array>
   </total>
  </dos>
 </calculation>
 <structure name="finalpos" >
  <crystal>
   <varray name="basis" >
    <v>       2.79373900       0.00000000       0.00000000 </v>
    <v>       0.00000000       2.79373900       0.00000000 </v>
    <v>       0.00000000       0.00000000       2.79373900 </v>
   </varray>
   <i name="volume">     21.80507032 </i>
   <varray name="rec_basis" >
    <v>       0.35794324       0.00000000       0.00000000 </v>
    <v>       0.00000000       0.35794324       0.00000000 </v>
    <v>       0.00000000       0.00000000       0.35794324 </v>
   </varray>
  </crystal>
  <varray name="positions" >
   <v>       0.00000000       0.00000000       0.00000000 </v>
   <v>       0.50000000       0.50000000       0.50000000 </v>
  </varray>
 </structure>
</modeling>
