# ['Ni']

28 atoms
1 atom types

    0.0000     2.4890 xlo xhi
    0.0000     4.3111 ylo yhi
    0.0000    28.4518 zlo zhi

    0.0000     0.0000     0.0000 xy xz yz

Atoms

1 1     0.0000     0.0000     0.0000
2 1     1.2445     2.1556     0.0000
3 1     1.2445     0.7185     2.0323
4 1     0.0000     2.8741     2.0323
5 1     0.0000     1.4370     4.0645
6 1     1.2445     3.5926     4.0645
7 1     0.0000     0.0000     6.0968
8 1     1.2445     2.1556     6.0968
9 1     1.2445     0.7185     8.1291
10 1     0.0000     2.8741     8.1291
11 1     0.0000     1.4370    10.1614
12 1     1.2445     3.5926    10.1614
13 1     0.0000     0.0000    12.1936
14 1     1.2445     2.1556    12.1936
15 1     0.0000     1.4370    14.2259
16 1     1.2445     3.5926    14.2259
17 1     0.0000     0.0000    16.2582
18 1     1.2445     2.1556    16.2582
19 1     1.2445     0.7185    18.2905
20 1     0.0000     2.8741    18.2905
21 1     0.0000     1.4370    20.3227
22 1     1.2445     3.5926    20.3227
23 1     0.0000     0.0000    22.3550
24 1     1.2445     2.1556    22.3550
25 1     1.2445     0.7185    24.3873
26 1     0.0000     2.8741    24.3873
27 1     0.0000     1.4370    26.4195
28 1     1.2445     3.5926    26.4195
