LAMMPS (11 Aug 2017)
Reading data file ...
  triclinic box = (0 0 0) to (3.5167 3.5167 3.5167) with tilt (0 -0 0)
  1 by 1 by 1 MPI processor grid
  reading atoms ...
  4 atoms
4 atoms in group Ni
Neighbor list info ...
  update every 1 steps, delay 0 steps, check yes
  max neighbors/atom: 2000, page size: 100000
  master list distance cutoff = 5.64464
  ghost atom cutoff = 5.64464
  binsize = 2.82232, bins = 2 2 2
  1 neighbor lists, perpetual/occasional/extra = 1 0 0
  (1) pair eam/alloy, perpetual
      attributes: half, newton on
      pair build: half/bin/newton/tri
      stencil: half/bin/3d/newton/tri
      bin: standard
Setting up cg style minimization ...
  Unit style    : metal
  Current step  : 0
WARNING: Energy due to 3 extra global DOFs will be included in minimizer energies
Per MPI rank memory allocation (min/avg/max) = 4.086 | 4.086 | 4.086 Mbytes
Step Temp PotEng Press Pxx Pyy Pzz Pxy Pxz Pyz Lx Ly Lz Volume 
       0            0    -32.31678   -703459.62   -703459.62   -703459.62   -703459.62 -8.8444481e-11 2.249455e-11 1.1247275e-11       3.5167       3.5167       3.5167    43.491658 
       1            0   -32.322509   -703534.97   -703534.97   -703534.97   -703534.97 3.0683591e-12 3.4263343e-11 3.1706377e-11    3.5163483    3.5163483    3.5163483    43.478612 
       2            0   -32.328237   -703610.05   -703610.05   -703610.05   -703610.05 8.6962929e-12 -2.3019599e-11 -2.1996506e-11    3.5159967    3.5159967    3.5159967    43.465568 
       3            0   -32.333964   -703684.87   -703684.87   -703684.87   -703684.87 -3.172541e-11 -7.2661424e-11 -6.191572e-11     3.515645     3.515645     3.515645    43.452527 
       4            0   -32.339691   -703759.43   -703759.43   -703759.43   -703759.43 -8.4967723e-11 8.3944016e-11 3.685347e-11    3.5152933    3.5152933    3.5152933    43.439489 
       5            0   -32.345417   -703833.72   -703833.72   -703833.72   -703833.72 -8.7041259e-12 -4.0960592e-11 -9.5745384e-11    3.5149417    3.5149417    3.5149417    43.426453 
       6            0   -32.351143   -703907.74   -703907.74   -703907.74   -703907.74 -4.5582339e-11 -5.9410689e-11 -8.4506584e-11      3.51459      3.51459      3.51459     43.41342 
       7            0   -32.356868    -703981.5    -703981.5    -703981.5    -703981.5 6.1477786e-12 -9.4778254e-11 -9.3753624e-11    3.5142383    3.5142383    3.5142383    43.400389 
       8            0   -32.362593   -704054.99   -704054.99   -704054.99   -704054.99 -7.4307964e-11 -7.174562e-12 -1.4861593e-11    3.5138866    3.5138866    3.5138866    43.387362 
       9            0   -32.368317   -704128.21   -704128.21   -704128.21   -704128.21 -2.4605885e-11 -9.7910919e-11 -1.1380222e-10     3.513535     3.513535     3.513535    43.374336 
      10            0    -32.37404   -704201.16   -704201.16   -704201.16   -704201.16 -1.5896074e-11 -8.8710346e-11 -1.051192e-10    3.5131833    3.5131833    3.5131833    43.361313 
      11            0   -32.379763   -704273.85   -704273.85   -704273.85   -704273.85 -4.1034447e-11 -8.2068894e-11 -9.1301644e-11    3.5128316    3.5128316    3.5128316    43.348293 
      12            0   -32.385486   -704346.27   -704346.27   -704346.27   -704346.27 2.308881e-11 -1.1287863e-11 1.0261693e-12      3.51248      3.51248      3.51248    43.335276 
      13            0   -32.391208   -704418.42   -704418.42   -704418.42   -704418.42 5.1323881e-13 9.6488896e-11 1.1701845e-10    3.5121283    3.5121283    3.5121283    43.322261 
      14            0   -32.396929    -704490.3    -704490.3    -704490.3    -704490.3 6.1607161e-11 3.5937511e-12 -1.026786e-12    3.5117766    3.5117766    3.5117766    43.309249 
      15            0    -32.40265   -704561.91   -704561.91   -704561.91   -704561.91 -5.64902e-11 3.1839931e-11 -1.0270945e-12     3.511425     3.511425     3.511425    43.296239 
      16            0    -32.40837   -704633.25   -704633.25   -704633.25   -704633.25 -7.1918224e-12 -3.2876902e-11 -1.1250065e-10    3.5110733    3.5110733    3.5110733    43.283232 
      17            0    -32.41409   -704704.31   -704704.31   -704704.31   -704704.31 -9.7118782e-11 1.1304832e-11 -7.4509118e-11    3.5107216    3.5107216    3.5107216    43.270227 
      18            0   -32.419809   -704775.11   -704775.11   -704775.11   -704775.11 5.9111201e-11 5.808318e-11 -2.1074428e-11    3.5103699    3.5103699    3.5103699    43.257226 
      19            0   -32.425527   -704845.63   -704845.63   -704845.63   -704845.63 -9.2549691e-12 -9.6148846e-11 -4.3704021e-11    3.5100183    3.5100183    3.5100183    43.244226 
      20            0   -32.431245   -704915.89   -704915.89   -704915.89   -704915.89 -5.1431953e-13 6.8404497e-11 1.3886627e-11    3.5096666    3.5096666    3.5096666     43.23123 
      21            0   -32.436962   -704985.87   -704985.87   -704985.87   -704985.87 -2.6238182e-11 9.1576401e-11 6.4823744e-11    3.5093149    3.5093149    3.5093149    43.218236 
      22            0   -32.442679   -705055.57   -705055.57   -705055.57   -705055.57 -2.0585154e-11 -5.7638432e-11 1.5438866e-11    3.5089633    3.5089633    3.5089633    43.205244 
      23            0   -32.448395      -705125      -705125      -705125      -705125 -3.5005286e-11 2.419483e-11 -3.6034853e-11    3.5086116    3.5086116    3.5086116    43.192255 
      24            0   -32.454111   -705194.16   -705194.16   -705194.16   -705194.16 1.8022845e-11 -3.5530752e-11 5.3553598e-11    3.5082599    3.5082599    3.5082599    43.179269 
      25            0   -32.459826   -705263.05   -705263.05   -705263.05   -705263.05 4.3267839e-11 1.8028266e-11 -3.1420693e-11    3.5079083    3.5079083    3.5079083    43.166285 
      26            0    -32.46554   -705331.66   -705331.66   -705331.66   -705331.66 -1.8548938e-11 2.3701421e-11 4.2250358e-11    3.5075566    3.5075566    3.5075566    43.153304 
      27            0   -32.471254   -705399.99   -705399.99   -705399.99   -705399.99 -5.7209764e-11 7.5248879e-11 2.7831777e-11    3.5072049    3.5072049    3.5072049    43.140326 
      28            0   -32.476967   -705468.05   -705468.05   -705468.05   -705468.05 6.8569261e-11 1.4951192e-11 5.4649185e-11    3.5068532    3.5068532    3.5068532     43.12735 
      29            0    -32.48268   -705535.83   -705535.83   -705535.83   -705535.83 4.9508495e-11 -3.3521376e-11 -2.9911382e-11    3.5065016    3.5065016    3.5065016    43.114377 
      30            0   -32.488392   -705603.33   -705603.33   -705603.33   -705603.33 -2.9920383e-11 1.5991929e-11 1.036896e-10    3.5061499    3.5061499    3.5061499    43.101406 
      31            0   -32.494103   -705670.56   -705670.56   -705670.56   -705670.56 -6.7083112e-11 -9.959262e-11 -1.3261815e-10    3.5057982    3.5057982    3.5057982    43.088438 
      32            0   -32.499814   -705737.51   -705737.51   -705737.51   -705737.51 -6.245769e-11 -8.0523964e-11 -1.1975359e-10    3.5054466    3.5054466    3.5054466    43.075473 
      33            0   -32.505524   -705804.18   -705804.18   -705804.18   -705804.18 -7.2803184e-11 -9.2940235e-12 1.0843027e-11    3.5050949    3.5050949    3.5050949     43.06251 
      34            0   -32.511234   -705870.57   -705870.57   -705870.57   -705870.57 2.1692584e-11 1.2344113e-10 7.1275632e-11    3.5047432    3.5047432    3.5047432     43.04955 
      35            0   -32.516943   -705936.69   -705936.69   -705936.69   -705936.69 -1.0332912e-12 1.9632532e-11 7.3363674e-11    3.5043916    3.5043916    3.5043916    43.036592 
      36            0   -32.522651   -706002.52   -706002.52   -706002.52   -706002.52 6.2016139e-12 -5.3747321e-11 -1.2403228e-11    3.5040399    3.5040399    3.5040399    43.023637 
      37            0   -32.528359   -706068.07   -706068.07   -706068.07   -706068.07 -3.3602191e-11 -6.5136556e-11 -7.2890908e-11    3.5036882    3.5036882    3.5036882    43.010685 
      38            0   -32.534066   -706133.35   -706133.35   -706133.35   -706133.35 -1.1376475e-11 -4.6023011e-11 -2.2235837e-11    3.5033365    3.5033365    3.5033365    42.997735 
      39            0   -32.539773   -706198.34   -706198.34   -706198.34   -706198.34 -1.6035316e-11 -3.6208777e-12 -1.5518047e-12    3.5029849    3.5029849    3.5029849    42.984788 
      40            0   -32.545479   -706263.05   -706263.05   -706263.05   -706263.05 -3.7771956e-11 -2.3801507e-11 -2.3801507e-11    3.5026332    3.5026332    3.5026332    42.971843 
      41            0   -32.551184   -706327.48   -706327.48   -706327.48   -706327.48 -2.2773518e-11 7.0390872e-11 8.4883111e-11    3.5022815    3.5022815    3.5022815    42.958901 
      42            0   -32.556889   -706391.62   -706391.62   -706391.62   -706391.62 -2.1227171e-11  2.01917e-11 -2.3815851e-11    3.5019299    3.5019299    3.5019299    42.945961 
      43            0   -32.562593   -706455.49   -706455.49   -706455.49   -706455.49 3.0555622e-11 2.175146e-11 5.4378649e-11    3.5015782    3.5015782    3.5015782    42.933025 
      44            0   -32.568296   -706519.07   -706519.07   -706519.07   -706519.07 1.5541439e-12 5.2322844e-11 4.9214557e-11    3.5012265    3.5012265    3.5012265     42.92009 
      45            0   -32.573999   -706582.36   -706582.36   -706582.36   -706582.36 -3.3683266e-11            0 -1.9691756e-11    3.5008749    3.5008749    3.5008749    42.907159 
      46            0   -32.579701   -706645.37   -706645.37   -706645.37   -706645.37 3.3175059e-11 6.7905198e-11 5.1836029e-11    3.5005232    3.5005232    3.5005232     42.89423 
      47            0   -32.585403    -706708.1    -706708.1    -706708.1    -706708.1 -2.851841e-11 2.1777695e-11 2.0222145e-11    3.5001715    3.5001715    3.5001715    42.881303 
      48            0   -32.591104   -706770.54   -706770.54   -706770.54   -706770.54 4.6680558e-12 -1.0840263e-10 -8.4025005e-11    3.4998198    3.4998198    3.4998198    42.868379 
      49            0   -32.596804    -706832.7    -706832.7    -706832.7    -706832.7 -1.0895414e-11 -4.3062828e-11 -1.0376585e-12    3.4994682    3.4994682    3.4994682    42.855458 
      50            0   -32.602503   -706894.57   -706894.57   -706894.57   -706894.57 -1.6607542e-11 8.6151627e-11 5.6569442e-11    3.4991165    3.4991165    3.4991165     42.84254 
      51            0   -32.608202   -706956.15   -706956.15   -706956.15   -706956.15 3.3225102e-11 2.9071964e-11 7.3718194e-11    3.4987648    3.4987648    3.4987648    42.829624 
      52            0   -32.613901   -707017.45   -707017.45   -707017.45   -707017.45 5.1929878e-12 -2.1810549e-11 -1.1476503e-10    3.4984132    3.4984132    3.4984132     42.81671 
      53            0   -32.619598   -707078.46   -707078.46   -707078.46   -707078.46 2.3894949e-11 4.5192622e-11 7.376267e-11    3.4980615    3.4980615    3.4980615    42.803799 
      54            0   -32.625295   -707139.18   -707139.18   -707139.18   -707139.18 -2.1304097e-11 7.9500654e-11 4.1568969e-12    3.4977098    3.4977098    3.4977098    42.790891 
      55            0   -32.630991   -707199.61   -707199.61   -707199.61   -707199.61 -4.6779199e-12 4.6779199e-11 1.7152373e-11    3.4973582    3.4973582    3.4973582    42.777985 
      56            0   -32.636687   -707259.76   -707259.76   -707259.76   -707259.76 6.8630193e-11 -8.1628336e-11 -4.9392942e-11    3.4970065    3.4970065    3.4970065    42.765082 
      57            0   -32.642382   -707319.61   -707319.61   -707319.61   -707319.61 3.0684873e-11 3.5365616e-11 -6.7090654e-11    3.4966548    3.4966548    3.4966548    42.752182 
      58            0   -32.648076   -707379.17   -707379.17   -707379.17   -707379.17 -1.5086947e-11 1.9769103e-11 4.4220361e-11    3.4963031    3.4963031    3.4963031    42.739284 
      59            0    -32.65377   -707438.45   -707438.45   -707438.45   -707438.45 4.0070535e-11 -4.3713311e-11 -1.1396685e-10    3.4959515    3.4959515    3.4959515    42.726389 
      60            0   -32.659463   -707497.43   -707497.43   -707497.43   -707497.43 4.4767613e-11 -3.5397647e-11 -4.7890934e-11    3.4955998    3.4955998    3.4955998    42.713496 
      61            0   -32.665155   -707556.12   -707556.12   -707556.12   -707556.12 -1.7183456e-11 -6.4047425e-11 -3.4887622e-11    3.4952481    3.4952481    3.4952481    42.700606 
      62            0   -32.670847   -707614.52   -707614.52   -707614.52   -707614.52 6.7712837e-12 4.375291e-11 -1.9792983e-11    3.4948965    3.4948965    3.4948965    42.687718 
      63            0   -32.676538   -707672.63   -707672.63   -707672.63   -707672.63 7.8153787e-12 -1.0420505e-12 4.2203045e-11    3.4945448    3.4945448    3.4945448    42.674833 
      64            0   -32.682228   -707730.44   -707730.44   -707730.44   -707730.44 4.0652241e-11 -4.9512345e-11 -5.2118258e-11    3.4941931    3.4941931    3.4941931    42.661951 
      65            0   -32.687918   -707787.97   -707787.97   -707787.97   -707787.97 -7.2987596e-12 7.1423576e-11 1.0166129e-10    3.4938415    3.4938415    3.4938415    42.649071 
      66            0   -32.693607   -707845.19   -707845.19   -707845.19   -707845.19 -1.5644923e-11 -3.8069312e-11 -1.616642e-11    3.4934898    3.4934898    3.4934898    42.636194 
      67            0   -32.699295   -707902.13   -707902.13   -707902.13   -707902.13 1.7736268e-11 -5.2165495e-12 -5.3208805e-11    3.4931381    3.4931381    3.4931381     42.62332 
      68            0   -32.704983   -707958.76   -707958.76   -707958.76   -707958.76 1.3045313e-11 9.8100756e-11 1.2366957e-10    3.4927864    3.4927864    3.4927864    42.610448 
      69            0   -32.710669   -708015.11   -708015.11   -708015.11   -708015.11 1.3049254e-11 1.7225016e-11 8.4559169e-11    3.4924348    3.4924348    3.4924348    42.597578 
      70            0   -32.716356   -708071.15   -708071.15   -708071.15   -708071.15 3.1327673e-12 4.8557894e-11 8.0407695e-11    3.4920831    3.4920831    3.4920831    42.584712 
      71            0   -32.722041   -708126.91   -708126.91   -708126.91   -708126.91 3.969371e-11 3.7604568e-11 3.0292568e-11    3.4917314    3.4917314    3.4917314    42.571847 
      72            0   -32.727726   -708182.36   -708182.36   -708182.36   -708182.36 -6.2170777e-11 -8.8815395e-12 3.2913941e-11    3.4913798    3.4913798    3.4913798    42.558986 
      73            0    -32.73341   -708237.52   -708237.52   -708237.52   -708237.52 1.0452028e-12 9.0932644e-11 8.2571021e-11    3.4910281    3.4910281    3.4910281    42.546127 
      74            0   -32.739093   -708292.38   -708292.38   -708292.38   -708292.38 2.9797284e-11 -1.1500706e-11 -1.3591744e-11    3.4906764    3.4906764    3.4906764     42.53327 
      75            0   -32.744776   -708346.94   -708346.94   -708346.94   -708346.94 -3.1375044e-11 -6.2750087e-11 -3.1375044e-11    3.4903248    3.4903248    3.4903248    42.520417 
      76            0   -32.750458    -708401.2    -708401.2    -708401.2    -708401.2 -4.1846039e-12 2.3015321e-11 8.4738229e-11    3.4899731    3.4899731    3.4899731    42.507565 
      77            0   -32.756139   -708455.17   -708455.17   -708455.17   -708455.17 5.2323364e-12 1.0203056e-10 7.3775944e-11    3.4896214    3.4896214    3.4896214    42.494717 
      78            0    -32.76182   -708508.83   -708508.83   -708508.83   -708508.83 1.3084797e-11 6.3330416e-11 1.0520176e-10    3.4892697    3.4892697    3.4892697    42.481871 
      79            0   -32.767499    -708562.2    -708562.2    -708562.2    -708562.2 3.1413009e-12 -3.0889459e-11 2.3036207e-11    3.4889181    3.4889181    3.4889181    42.469027 
      80            0   -32.773178   -708615.26   -708615.26   -708615.26   -708615.26 4.189668e-11 -2.4090591e-11 2.5661716e-11    3.4885664    3.4885664    3.4885664    42.456186 
      81            0   -32.778857   -708668.02   -708668.02   -708668.02   -708668.02 -2.881268e-11 -1.9383076e-11 -1.1525072e-11    3.4882147    3.4882147    3.4882147    42.443348 
      82            0   -32.784534   -708720.49   -708720.49   -708720.49   -708720.49 -7.8603807e-12 -7.493563e-11 -7.5459655e-11    3.4878631    3.4878631    3.4878631    42.430512 
      83            0   -32.790211   -708772.64   -708772.64   -708772.64   -708772.64 2.3588277e-11 -3.1975219e-11 -5.2418392e-13    3.4875114    3.4875114    3.4875114    42.417679 
      84            0   -32.795888    -708824.5    -708824.5    -708824.5    -708824.5 3.1460552e-12 1.1011193e-11 2.6217126e-12    3.4871597    3.4871597    3.4871597    42.404849 
      85            0   -32.801563   -708876.05   -708876.05   -708876.05   -708876.05 4.5107103e-11 -4.0911093e-11 1.1171875e-10    3.4868081    3.4868081    3.4868081    42.392021 
      86            0   -32.807238   -708927.31   -708927.31   -708927.31   -708927.31 1.5739798e-11 7.7649669e-11 -1.4690478e-11    3.4864564    3.4864564    3.4864564    42.379195 
      87            0   -32.812912   -708978.25   -708978.25   -708978.25   -708978.25 2.2567205e-11 -3.8836585e-11 3.1489123e-12    3.4861047    3.4861047    3.4861047    42.366373 
      88            0   -32.818585   -709028.89   -709028.89   -709028.89   -709028.89 -1.942417e-11 -1.6116812e-10 -8.242148e-11     3.485753     3.485753     3.485753    42.353553 
      89            0   -32.824257   -709079.23   -709079.23   -709079.23   -709079.23 -4.1485784e-11 -1.1027867e-11 -6.0915834e-11    3.4854014    3.4854014    3.4854014    42.340735 
      90            0   -32.829929   -709129.26   -709129.26   -709129.26   -709129.26 -1.5233569e-11 -1.9961229e-11 3.4144207e-11    3.4850497    3.4850497    3.4850497     42.32792 
      91            0     -32.8356   -709178.99   -709178.99   -709178.99   -709178.99 -2.3645454e-11    4.624e-11 5.8850909e-11     3.484698     3.484698     3.484698    42.315108 
      92            0   -32.841271    -709228.4    -709228.4    -709228.4    -709228.4 4.2049093e-11 4.1523479e-11 2.8908751e-11    3.4843464    3.4843464    3.4843464    42.302298 
      93            0    -32.84694   -709277.52   -709277.52   -709277.52   -709277.52 -3.4701007e-11 -6.9402015e-11 -8.9907155e-11    3.4839947    3.4839947    3.4839947    42.289491 
      94            0   -32.852609   -709326.32   -709326.32   -709326.32   -709326.32 4.5230159e-11 -4.8911684e-11 -1.9459487e-11     3.483643     3.483643     3.483643    42.276686 
      95            0   -32.858277   -709374.82   -709374.82   -709374.82   -709374.82 -1.2100102e-11 -4.4191677e-11 7.2074521e-11    3.4832914    3.4832914    3.4832914    42.263884 
      96            0   -32.863944      -709423      -709423      -709423      -709423 4.104756e-11 -2.1576281e-11 -2.6312538e-12    3.4829397    3.4829397    3.4829397    42.251084 
      97            0   -32.869611   -709470.88   -709470.88   -709470.88   -709470.88 -4.7903329e-11 1.1791589e-10 1.1001973e-10     3.482588     3.482588     3.482588    42.238287 
      98            0   -32.875276   -709518.45   -709518.45   -709518.45   -709518.45 -6.2135225e-11 7.108691e-11 3.8966158e-11    3.4822363    3.4822363    3.4822363    42.225493 
      99            0   -32.880941   -709565.71   -709565.71   -709565.71   -709565.71 3.1077027e-11 8.3223225e-11 7.4795557e-11    3.4818847    3.4818847    3.4818847    42.212701 
     100            0   -32.886605   -709612.66   -709612.66   -709612.66   -709612.66 -3.9516668e-11 -7.5872002e-11 -3.4774668e-11     3.481533     3.481533     3.481533    42.199912 
Loop time of 0.036386 on 1 procs for 100 steps with 4 atoms

8.1% CPU use with 1 MPI tasks x no OpenMP threads

Minimization stats:
  Stopping criterion = max iterations
  Energy initial, next-to-last, final = 
        -32.3167803175      -32.880941239     -32.8866054331
  Force two-norm initial, final = 33.0747 32.7
  Force max component initial, final = 19.0957 18.8794
  Final line search alpha, max atom move = 5.29607e-06 9.99864e-05
  Iterations, force evaluations = 100 100

MPI task timing breakdown:
Section |  min time  |  avg time  |  max time  |%varavg| %total
---------------------------------------------------------------
Pair    | 0.00099421 | 0.00099421 | 0.00099421 |   0.0 |  2.73
Neigh   | 0          | 0          | 0          |   0.0 |  0.00
Comm    | 0.00019908 | 0.00019908 | 0.00019908 |   0.0 |  0.55
Output  | 0.034524   | 0.034524   | 0.034524   |   0.0 | 94.88
Modify  | 0          | 0          | 0          |   0.0 |  0.00
Other   |            | 0.0006688  |            |       |  1.84

Nlocal:    4 ave 4 max 4 min
Histogram: 1 0 0 0 0 0 0 0 0 0
Nghost:    360 ave 360 max 360 min
Histogram: 1 0 0 0 0 0 0 0 0 0
Neighs:    156 ave 156 max 156 min
Histogram: 1 0 0 0 0 0 0 0 0 0

Total # of neighbors = 156
Ave neighs/atom = 39
Neighbor list builds = 0
Dangerous builds = 0
System init for write_restart ...
Reading restart file ...
  restart file = 11 Aug 2017, LAMMPS = 11 Aug 2017
  triclinic box = (0.0175835 0.0175835 0.0175835) to (3.49912 3.49912 3.49912) with tilt (0 -0 0)
  1 by 1 by 1 MPI processor grid
  4 atoms
4 atoms in group Ni
Changing box ...
  triclinic box = (0.0175835 0.0175835 0.0175835) to (3.49911 3.49912 3.49912) with tilt (0 -0 0)
Neighbor list info ...
  update every 1 steps, delay 0 steps, check yes
  max neighbors/atom: 2000, page size: 100000
  master list distance cutoff = 5.64464
  ghost atom cutoff = 5.64464
  binsize = 2.82232, bins = 2 2 2
  1 neighbor lists, perpetual/occasional/extra = 1 0 0
  (1) pair eam/alloy, perpetual
      attributes: half, newton on
      pair build: half/bin/newton/tri
      stencil: half/bin/3d/newton/tri
      bin: standard
Setting up cg style minimization ...
  Unit style    : metal
  Current step  : 100
Per MPI rank memory allocation (min/avg/max) = 4.086 | 4.086 | 4.086 Mbytes
Step Temp PotEng Press Pxx Pyy Pzz Pxy Pxz Pyz Lx Ly Lz Volume 
     100            0   -32.886624   -709612.81   -709612.69   -709612.88   -709612.88 -3.1613366e-12 -6.5861179e-11 1.1644256e-10    3.4815295     3.481533     3.481533     42.19987 
     101            0   -32.886624   -709612.82   -709612.69   -709612.88   -709612.88 3.8462928e-11 8.0087193e-11 6.1119174e-11    3.4815295     3.481533     3.481533     42.19987 
     102            0   -32.886624   -709612.82   -709612.69   -709612.88   -709612.88 -8.324853e-11 -9.4840097e-12 8.5882977e-11    3.4815295     3.481533     3.481533     42.19987 
Loop time of 7.9155e-05 on 1 procs for 2 steps with 4 atoms

68.2% CPU use with 1 MPI tasks x no OpenMP threads

Minimization stats:
  Stopping criterion = force tolerance
  Energy initial, next-to-last, final = 
        -32.8866241236     -32.8866241309     -32.8866241309
  Force two-norm initial, final = 0.000169047 2.02171e-13
  Force max component initial, final = 4.88002e-05 5.91749e-14
  Final line search alpha, max atom move = 1 5.91749e-14
  Iterations, force evaluations = 2 4

MPI task timing breakdown:
Section |  min time  |  avg time  |  max time  |%varavg| %total
---------------------------------------------------------------
Pair    | 4.673e-05  | 4.673e-05  | 4.673e-05  |   0.0 | 59.04
Neigh   | 0          | 0          | 0          |   0.0 |  0.00
Comm    | 1.0252e-05 | 1.0252e-05 | 1.0252e-05 |   0.0 | 12.95
Output  | 7.8678e-06 | 7.8678e-06 | 7.8678e-06 |   0.0 |  9.94
Modify  | 0          | 0          | 0          |   0.0 |  0.00
Other   |            | 1.431e-05  |            |       | 18.07

Nlocal:    4 ave 4 max 4 min
Histogram: 1 0 0 0 0 0 0 0 0 0
Nghost:    360 ave 360 max 360 min
Histogram: 1 0 0 0 0 0 0 0 0 0
Neighs:    156 ave 156 max 156 min
Histogram: 1 0 0 0 0 0 0 0 0 0

Total # of neighbors = 156
Ave neighs/atom = 39
Neighbor list builds = 0
Dangerous builds = 0
Reading restart file ...
  restart file = 11 Aug 2017, LAMMPS = 11 Aug 2017
  triclinic box = (0.0175835 0.0175835 0.0175835) to (3.49912 3.49912 3.49912) with tilt (0 -0 0)
  1 by 1 by 1 MPI processor grid
  4 atoms
4 atoms in group Ni
Changing box ...
  triclinic box = (0.0175835 0.0175835 0.0175835) to (3.49912 3.49912 3.49912) with tilt (0 -0 0)
Neighbor list info ...
  update every 1 steps, delay 0 steps, check yes
  max neighbors/atom: 2000, page size: 100000
  master list distance cutoff = 5.64464
  ghost atom cutoff = 5.64464
  binsize = 2.82232, bins = 2 2 2
  1 neighbor lists, perpetual/occasional/extra = 1 0 0
  (1) pair eam/alloy, perpetual
      attributes: half, newton on
      pair build: half/bin/newton/tri
      stencil: half/bin/3d/newton/tri
      bin: standard
Setting up cg style minimization ...
  Unit style    : metal
  Current step  : 100
Per MPI rank memory allocation (min/avg/max) = 4.086 | 4.086 | 4.086 Mbytes
Step Temp PotEng Press Pxx Pyy Pzz Pxy Pxz Pyz Lx Ly Lz Volume 
     100            0   -32.886587   -709612.51   -709612.63   -709612.44   -709612.44 1.1591544e-11 -7.3764373e-12 3.8462851e-11    3.4815365     3.481533     3.481533    42.199954 
     101            0   -32.886587   -709612.51   -709612.64   -709612.45   -709612.45 -1.0537768e-12 -9.4839908e-12 -1.8441093e-11    3.4815365     3.481533     3.481533    42.199954 
     102            0   -32.886587   -709612.51   -709612.64   -709612.45   -709612.45 7.9033256e-12 -4.7419954e-11 8.9571024e-12    3.4815365     3.481533     3.481533    42.199954 
Loop time of 8.08239e-05 on 1 procs for 2 steps with 4 atoms

73.0% CPU use with 1 MPI tasks x no OpenMP threads

Minimization stats:
  Stopping criterion = force tolerance
  Energy initial, next-to-last, final = 
        -32.8865867425     -32.8865867497     -32.8865867497
  Force two-norm initial, final = 0.000169041 2.04266e-13
  Force max component initial, final = 4.87981e-05 5.9619e-14
  Final line search alpha, max atom move = 1 5.9619e-14
  Iterations, force evaluations = 2 4

MPI task timing breakdown:
Section |  min time  |  avg time  |  max time  |%varavg| %total
---------------------------------------------------------------
Pair    | 4.8876e-05 | 4.8876e-05 | 4.8876e-05 |   0.0 | 60.47
Neigh   | 0          | 0          | 0          |   0.0 |  0.00
Comm    | 9.7752e-06 | 9.7752e-06 | 9.7752e-06 |   0.0 | 12.09
Output  | 9.0599e-06 | 9.0599e-06 | 9.0599e-06 |   0.0 | 11.21
Modify  | 0          | 0          | 0          |   0.0 |  0.00
Other   |            | 1.311e-05  |            |       | 16.22

Nlocal:    4 ave 4 max 4 min
Histogram: 1 0 0 0 0 0 0 0 0 0
Nghost:    360 ave 360 max 360 min
Histogram: 1 0 0 0 0 0 0 0 0 0
Neighs:    156 ave 156 max 156 min
Histogram: 1 0 0 0 0 0 0 0 0 0

Total # of neighbors = 156
Ave neighs/atom = 39
Neighbor list builds = 0
Dangerous builds = 0
Reading restart file ...
  restart file = 11 Aug 2017, LAMMPS = 11 Aug 2017
  triclinic box = (0.0175835 0.0175835 0.0175835) to (3.49912 3.49912 3.49912) with tilt (0 -0 0)
  1 by 1 by 1 MPI processor grid
  4 atoms
4 atoms in group Ni
Changing box ...
  triclinic box = (0.0175835 0.0175835 0.0175835) to (3.49912 3.49911 3.49912) with tilt (0 -0 0)
Neighbor list info ...
  update every 1 steps, delay 0 steps, check yes
  max neighbors/atom: 2000, page size: 100000
  master list distance cutoff = 5.64464
  ghost atom cutoff = 5.64464
  binsize = 2.82232, bins = 2 2 2
  1 neighbor lists, perpetual/occasional/extra = 1 0 0
  (1) pair eam/alloy, perpetual
      attributes: half, newton on
      pair build: half/bin/newton/tri
      stencil: half/bin/3d/newton/tri
      bin: standard
Setting up cg style minimization ...
  Unit style    : metal
  Current step  : 100
Per MPI rank memory allocation (min/avg/max) = 4.086 | 4.086 | 4.086 Mbytes
Step Temp PotEng Press Pxx Pyy Pzz Pxy Pxz Pyz Lx Ly Lz Volume 
     100            0   -32.886624   -709612.81   -709612.88   -709612.69   -709612.88 -3.8989818e-11 1.4120637e-10 7.6398967e-11     3.481533    3.4815295     3.481533     42.19987 
     101            0   -32.886624   -709612.82   -709612.88   -709612.69   -709612.88 -2.6344472e-12 -5.0581385e-11 -3.1613366e-12     3.481533    3.4815295     3.481533     42.19987 
     102            0   -32.886624   -709612.82   -709612.88   -709612.69   -709612.88 -4.636627e-11 8.5882977e-11 4.9000717e-11     3.481533    3.4815295     3.481533     42.19987 
Loop time of 7.79629e-05 on 1 procs for 2 steps with 4 atoms

77.0% CPU use with 1 MPI tasks x no OpenMP threads

Minimization stats:
  Stopping criterion = force tolerance
  Energy initial, next-to-last, final = 
        -32.8866241236     -32.8866241309     -32.8866241309
  Force two-norm initial, final = 0.000169047 2.04255e-13
  Force max component initial, final = 4.88002e-05 6.02522e-14
  Final line search alpha, max atom move = 1 6.02522e-14
  Iterations, force evaluations = 2 4

MPI task timing breakdown:
Section |  min time  |  avg time  |  max time  |%varavg| %total
---------------------------------------------------------------
Pair    | 4.8161e-05 | 4.8161e-05 | 4.8161e-05 |   0.0 | 61.77
Neigh   | 0          | 0          | 0          |   0.0 |  0.00
Comm    | 9.7752e-06 | 9.7752e-06 | 9.7752e-06 |   0.0 | 12.54
Output  | 8.1062e-06 | 8.1062e-06 | 8.1062e-06 |   0.0 | 10.40
Modify  | 0          | 0          | 0          |   0.0 |  0.00
Other   |            | 1.192e-05  |            |       | 15.29

Nlocal:    4 ave 4 max 4 min
Histogram: 1 0 0 0 0 0 0 0 0 0
Nghost:    360 ave 360 max 360 min
Histogram: 1 0 0 0 0 0 0 0 0 0
Neighs:    156 ave 156 max 156 min
Histogram: 1 0 0 0 0 0 0 0 0 0

Total # of neighbors = 156
Ave neighs/atom = 39
Neighbor list builds = 0
Dangerous builds = 0
Reading restart file ...
  restart file = 11 Aug 2017, LAMMPS = 11 Aug 2017
  triclinic box = (0.0175835 0.0175835 0.0175835) to (3.49912 3.49912 3.49912) with tilt (0 -0 0)
  1 by 1 by 1 MPI processor grid
  4 atoms
4 atoms in group Ni
Changing box ...
  triclinic box = (0.0175835 0.0175835 0.0175835) to (3.49912 3.49912 3.49912) with tilt (0 -0 0)
Neighbor list info ...
  update every 1 steps, delay 0 steps, check yes
  max neighbors/atom: 2000, page size: 100000
  master list distance cutoff = 5.64464
  ghost atom cutoff = 5.64464
  binsize = 2.82232, bins = 2 2 2
  1 neighbor lists, perpetual/occasional/extra = 1 0 0
  (1) pair eam/alloy, perpetual
      attributes: half, newton on
      pair build: half/bin/newton/tri
      stencil: half/bin/3d/newton/tri
      bin: standard
Setting up cg style minimization ...
  Unit style    : metal
  Current step  : 100
Per MPI rank memory allocation (min/avg/max) = 4.086 | 4.086 | 4.086 Mbytes
Step Temp PotEng Press Pxx Pyy Pzz Pxy Pxz Pyz Lx Ly Lz Volume 
     100            0   -32.886587   -709612.51   -709612.44   -709612.63   -709612.44 8.9571024e-12 -5.6377056e-11 1.0537768e-11     3.481533    3.4815365     3.481533    42.199954 
     101            0   -32.886587   -709612.51   -709612.45   -709612.64   -709612.45 1.3172209e-11 -7.4291261e-11 -5.2688838e-11     3.481533    3.4815365     3.481533    42.199954 
     102            0   -32.886587   -709612.51   -709612.45   -709612.64   -709612.45 2.1602423e-11 -9.4839908e-12 3.898974e-11     3.481533    3.4815365     3.481533    42.199954 
Loop time of 7.79629e-05 on 1 procs for 2 steps with 4 atoms

79.5% CPU use with 1 MPI tasks x no OpenMP threads

Minimization stats:
  Stopping criterion = force tolerance
  Energy initial, next-to-last, final = 
        -32.8865867425     -32.8865867497     -32.8865867497
  Force two-norm initial, final = 0.000169041 2.04268e-13
  Force max component initial, final = 4.87981e-05 6.03406e-14
  Final line search alpha, max atom move = 1 6.03406e-14
  Iterations, force evaluations = 2 4

MPI task timing breakdown:
Section |  min time  |  avg time  |  max time  |%varavg| %total
---------------------------------------------------------------
Pair    | 4.8161e-05 | 4.8161e-05 | 4.8161e-05 |   0.0 | 61.77
Neigh   | 0          | 0          | 0          |   0.0 |  0.00
Comm    | 8.8215e-06 | 8.8215e-06 | 8.8215e-06 |   0.0 | 11.31
Output  | 9.0599e-06 | 9.0599e-06 | 9.0599e-06 |   0.0 | 11.62
Modify  | 0          | 0          | 0          |   0.0 |  0.00
Other   |            | 1.192e-05  |            |       | 15.29

Nlocal:    4 ave 4 max 4 min
Histogram: 1 0 0 0 0 0 0 0 0 0
Nghost:    360 ave 360 max 360 min
Histogram: 1 0 0 0 0 0 0 0 0 0
Neighs:    156 ave 156 max 156 min
Histogram: 1 0 0 0 0 0 0 0 0 0

Total # of neighbors = 156
Ave neighs/atom = 39
Neighbor list builds = 0
Dangerous builds = 0
Reading restart file ...
  restart file = 11 Aug 2017, LAMMPS = 11 Aug 2017
  triclinic box = (0.0175835 0.0175835 0.0175835) to (3.49912 3.49912 3.49912) with tilt (0 -0 0)
  1 by 1 by 1 MPI processor grid
  4 atoms
4 atoms in group Ni
Changing box ...
  triclinic box = (0.0175835 0.0175835 0.0175835) to (3.49912 3.49912 3.49911) with tilt (0 -0 0)
Neighbor list info ...
  update every 1 steps, delay 0 steps, check yes
  max neighbors/atom: 2000, page size: 100000
  master list distance cutoff = 5.64464
  ghost atom cutoff = 5.64464
  binsize = 2.82232, bins = 2 2 2
  1 neighbor lists, perpetual/occasional/extra = 1 0 0
  (1) pair eam/alloy, perpetual
      attributes: half, newton on
      pair build: half/bin/newton/tri
      stencil: half/bin/3d/newton/tri
      bin: standard
Setting up cg style minimization ...
  Unit style    : metal
  Current step  : 100
Per MPI rank memory allocation (min/avg/max) = 4.086 | 4.086 | 4.086 Mbytes
Step Temp PotEng Press Pxx Pyy Pzz Pxy Pxz Pyz Lx Ly Lz Volume 
     100            0   -32.886624   -709612.81   -709612.88   -709612.88   -709612.69 2.1075577e-11 1.0537789e-12 7.9560304e-11     3.481533     3.481533    3.4815295     42.19987 
     101            0   -32.886624   -709612.82   -709612.88   -709612.88   -709612.69 7.376452e-12 1.4226015e-11 -8.9571203e-12     3.481533     3.481533    3.4815295     42.19987 
     102            0   -32.886624   -709612.82   -709612.88   -709612.88   -709612.69 -3.1613366e-11 9.4840097e-12 -1.3330303e-10     3.481533     3.481533    3.4815295     42.19987 
Loop time of 8.41618e-05 on 1 procs for 2 steps with 4 atoms

102.2% CPU use with 1 MPI tasks x no OpenMP threads

Minimization stats:
  Stopping criterion = force tolerance
  Energy initial, next-to-last, final = 
        -32.8866241236     -32.8866241309     -32.8866241309
  Force two-norm initial, final = 0.000169047 2.02897e-13
  Force max component initial, final = 4.88002e-05 5.92859e-14
  Final line search alpha, max atom move = 1 5.92859e-14
  Iterations, force evaluations = 2 4

MPI task timing breakdown:
Section |  min time  |  avg time  |  max time  |%varavg| %total
---------------------------------------------------------------
Pair    | 5.1975e-05 | 5.1975e-05 | 5.1975e-05 |   0.0 | 61.76
Neigh   | 0          | 0          | 0          |   0.0 |  0.00
Comm    | 9.0599e-06 | 9.0599e-06 | 9.0599e-06 |   0.0 | 10.76
Output  | 9.0599e-06 | 9.0599e-06 | 9.0599e-06 |   0.0 | 10.76
Modify  | 0          | 0          | 0          |   0.0 |  0.00
Other   |            | 1.407e-05  |            |       | 16.71

Nlocal:    4 ave 4 max 4 min
Histogram: 1 0 0 0 0 0 0 0 0 0
Nghost:    360 ave 360 max 360 min
Histogram: 1 0 0 0 0 0 0 0 0 0
Neighs:    156 ave 156 max 156 min
Histogram: 1 0 0 0 0 0 0 0 0 0

Total # of neighbors = 156
Ave neighs/atom = 39
Neighbor list builds = 0
Dangerous builds = 0
Reading restart file ...
  restart file = 11 Aug 2017, LAMMPS = 11 Aug 2017
  triclinic box = (0.0175835 0.0175835 0.0175835) to (3.49912 3.49912 3.49912) with tilt (0 -0 0)
  1 by 1 by 1 MPI processor grid
  4 atoms
4 atoms in group Ni
Changing box ...
  triclinic box = (0.0175835 0.0175835 0.0175835) to (3.49912 3.49912 3.49912) with tilt (0 -0 0)
Neighbor list info ...
  update every 1 steps, delay 0 steps, check yes
  max neighbors/atom: 2000, page size: 100000
  master list distance cutoff = 5.64464
  ghost atom cutoff = 5.64464
  binsize = 2.82232, bins = 2 2 2
  1 neighbor lists, perpetual/occasional/extra = 1 0 0
  (1) pair eam/alloy, perpetual
      attributes: half, newton on
      pair build: half/bin/newton/tri
      stencil: half/bin/3d/newton/tri
      bin: standard
Setting up cg style minimization ...
  Unit style    : metal
  Current step  : 100
Per MPI rank memory allocation (min/avg/max) = 4.086 | 4.086 | 4.086 Mbytes
Step Temp PotEng Press Pxx Pyy Pzz Pxy Pxz Pyz Lx Ly Lz Volume 
     100            0   -32.886587   -709612.51   -709612.44   -709612.44   -709612.63 -4.0043517e-11 2.1075535e-11 -3.2667079e-11     3.481533     3.481533    3.4815365    42.199954 
     101            0   -32.886587   -709612.51   -709612.45   -709612.45   -709612.64 -1.3699098e-11 -5.4796391e-11            0     3.481533     3.481533    3.4815365    42.199954 
     102            0   -32.886587   -709612.51   -709612.45   -709612.45   -709612.64 8.430214e-12 -5.7430833e-11 -1.2645321e-11     3.481533     3.481533    3.4815365    42.199954 
Loop time of 7.79629e-05 on 1 procs for 2 steps with 4 atoms

101.3% CPU use with 1 MPI tasks x no OpenMP threads

Minimization stats:
  Stopping criterion = force tolerance
  Energy initial, next-to-last, final = 
        -32.8865867425     -32.8865867497     -32.8865867497
  Force two-norm initial, final = 0.000169041 2.03776e-13
  Force max component initial, final = 4.87981e-05 5.9508e-14
  Final line search alpha, max atom move = 1 5.9508e-14
  Iterations, force evaluations = 2 4

MPI task timing breakdown:
Section |  min time  |  avg time  |  max time  |%varavg| %total
---------------------------------------------------------------
Pair    | 4.7207e-05 | 4.7207e-05 | 4.7207e-05 |   0.0 | 60.55
Neigh   | 0          | 0          | 0          |   0.0 |  0.00
Comm    | 8.8215e-06 | 8.8215e-06 | 8.8215e-06 |   0.0 | 11.31
Output  | 9.0599e-06 | 9.0599e-06 | 9.0599e-06 |   0.0 | 11.62
Modify  | 0          | 0          | 0          |   0.0 |  0.00
Other   |            | 1.287e-05  |            |       | 16.51

Nlocal:    4 ave 4 max 4 min
Histogram: 1 0 0 0 0 0 0 0 0 0
Nghost:    360 ave 360 max 360 min
Histogram: 1 0 0 0 0 0 0 0 0 0
Neighs:    156 ave 156 max 156 min
Histogram: 1 0 0 0 0 0 0 0 0 0

Total # of neighbors = 156
Ave neighs/atom = 39
Neighbor list builds = 0
Dangerous builds = 0
Reading restart file ...
  restart file = 11 Aug 2017, LAMMPS = 11 Aug 2017
  triclinic box = (0.0175835 0.0175835 0.0175835) to (3.49912 3.49912 3.49912) with tilt (0 -0 0)
  1 by 1 by 1 MPI processor grid
  4 atoms
4 atoms in group Ni
Changing box ...
  triclinic box = (0.0175835 0.0175835 0.0175835) to (3.49912 3.49912 3.49912) with tilt (0 -0 -3.48153e-06)
Neighbor list info ...
  update every 1 steps, delay 0 steps, check yes
  max neighbors/atom: 2000, page size: 100000
  master list distance cutoff = 5.64464
  ghost atom cutoff = 5.64464
  binsize = 2.82232, bins = 2 2 2
  1 neighbor lists, perpetual/occasional/extra = 1 0 0
  (1) pair eam/alloy, perpetual
      attributes: half, newton on
      pair build: half/bin/newton/tri
      stencil: half/bin/3d/newton/tri
      bin: standard
Setting up cg style minimization ...
  Unit style    : metal
  Current step  : 100
Per MPI rank memory allocation (min/avg/max) = 4.086 | 4.086 | 4.086 Mbytes
Step Temp PotEng Press Pxx Pyy Pzz Pxy Pxz Pyz Lx Ly Lz Volume 
     100            0   -32.886605   -709612.66   -709612.66   -709612.66   -709612.66 -2.8452001e-11 4.794689e-11   0.24869435     3.481533     3.481533     3.481533    42.199912 
     101            0   -32.886605   -709612.67   -709612.67   -709612.67   -709612.67 3.4774668e-11 2.1602445e-11   0.24869435     3.481533     3.481533     3.481533    42.199912 
     102            0   -32.886605   -709612.67   -709612.67   -709612.67   -709612.67 -1.7914223e-11 2.897889e-11   0.24869435     3.481533     3.481533     3.481533    42.199912 
Loop time of 7.58171e-05 on 1 procs for 2 steps with 4 atoms

101.6% CPU use with 1 MPI tasks x no OpenMP threads

Minimization stats:
  Stopping criterion = force tolerance
  Energy initial, next-to-last, final = 
        -32.8866054331     -32.8866054403     -32.8866054403
  Force two-norm initial, final = 0.000169044 2.04484e-13
  Force max component initial, final = 4.87993e-05 6.21725e-14
  Final line search alpha, max atom move = 1 6.21725e-14
  Iterations, force evaluations = 2 4

MPI task timing breakdown:
Section |  min time  |  avg time  |  max time  |%varavg| %total
---------------------------------------------------------------
Pair    | 4.673e-05  | 4.673e-05  | 4.673e-05  |   0.0 | 61.64
Neigh   | 0          | 0          | 0          |   0.0 |  0.00
Comm    | 9.0599e-06 | 9.0599e-06 | 9.0599e-06 |   0.0 | 11.95
Output  | 7.8678e-06 | 7.8678e-06 | 7.8678e-06 |   0.0 | 10.38
Modify  | 0          | 0          | 0          |   0.0 |  0.00
Other   |            | 1.216e-05  |            |       | 16.04

Nlocal:    4 ave 4 max 4 min
Histogram: 1 0 0 0 0 0 0 0 0 0
Nghost:    360 ave 360 max 360 min
Histogram: 1 0 0 0 0 0 0 0 0 0
Neighs:    156 ave 156 max 156 min
Histogram: 1 0 0 0 0 0 0 0 0 0

Total # of neighbors = 156
Ave neighs/atom = 39
Neighbor list builds = 0
Dangerous builds = 0
Reading restart file ...
  restart file = 11 Aug 2017, LAMMPS = 11 Aug 2017
  triclinic box = (0.0175835 0.0175835 0.0175835) to (3.49912 3.49912 3.49912) with tilt (0 -0 0)
  1 by 1 by 1 MPI processor grid
  4 atoms
4 atoms in group Ni
Changing box ...
  triclinic box = (0.0175835 0.0175835 0.0175835) to (3.49912 3.49912 3.49912) with tilt (0 -0 3.48153e-06)
Neighbor list info ...
  update every 1 steps, delay 0 steps, check yes
  max neighbors/atom: 2000, page size: 100000
  master list distance cutoff = 5.64464
  ghost atom cutoff = 5.64464
  binsize = 2.82232, bins = 2 2 2
  1 neighbor lists, perpetual/occasional/extra = 1 0 0
  (1) pair eam/alloy, perpetual
      attributes: half, newton on
      pair build: half/bin/newton/tri
      stencil: half/bin/3d/newton/tri
      bin: standard
Setting up cg style minimization ...
  Unit style    : metal
  Current step  : 100
Per MPI rank memory allocation (min/avg/max) = 4.086 | 4.086 | 4.086 Mbytes
Step Temp PotEng Press Pxx Pyy Pzz Pxy Pxz Pyz Lx Ly Lz Volume 
     100            0   -32.886605   -709612.66   -709612.66   -709612.66   -709612.66 -4.2151112e-12 7.9033336e-11  -0.24869435     3.481533     3.481533     3.481533    42.199912 
     101            0   -32.886605   -709612.67   -709612.67   -709612.67   -709612.67 3.7409112e-11 8.7990447e-11  -0.24869435     3.481533     3.481533     3.481533    42.199912 
     102            0   -32.886605   -709612.67   -709612.67   -709612.67   -709612.67 4.1624223e-11 -5.268889e-12  -0.24869435     3.481533     3.481533     3.481533    42.199912 
Loop time of 7.58171e-05 on 1 procs for 2 steps with 4 atoms

85.7% CPU use with 1 MPI tasks x no OpenMP threads

Minimization stats:
  Stopping criterion = force tolerance
  Energy initial, next-to-last, final = 
        -32.8866054331     -32.8866054403     -32.8866054403
  Force two-norm initial, final = 0.000169044 2.03683e-13
  Force max component initial, final = 4.87993e-05 6.18949e-14
  Final line search alpha, max atom move = 1 6.18949e-14
  Iterations, force evaluations = 2 4

MPI task timing breakdown:
Section |  min time  |  avg time  |  max time  |%varavg| %total
---------------------------------------------------------------
Pair    | 4.7207e-05 | 4.7207e-05 | 4.7207e-05 |   0.0 | 62.26
Neigh   | 0          | 0          | 0          |   0.0 |  0.00
Comm    | 8.8215e-06 | 8.8215e-06 | 8.8215e-06 |   0.0 | 11.64
Output  | 7.8678e-06 | 7.8678e-06 | 7.8678e-06 |   0.0 | 10.38
Modify  | 0          | 0          | 0          |   0.0 |  0.00
Other   |            | 1.192e-05  |            |       | 15.72

Nlocal:    4 ave 4 max 4 min
Histogram: 1 0 0 0 0 0 0 0 0 0
Nghost:    360 ave 360 max 360 min
Histogram: 1 0 0 0 0 0 0 0 0 0
Neighs:    156 ave 156 max 156 min
Histogram: 1 0 0 0 0 0 0 0 0 0

Total # of neighbors = 156
Ave neighs/atom = 39
Neighbor list builds = 0
Dangerous builds = 0
Reading restart file ...
  restart file = 11 Aug 2017, LAMMPS = 11 Aug 2017
  triclinic box = (0.0175835 0.0175835 0.0175835) to (3.49912 3.49912 3.49912) with tilt (0 -0 0)
  1 by 1 by 1 MPI processor grid
  4 atoms
4 atoms in group Ni
Changing box ...
  triclinic box = (0.0175835 0.0175835 0.0175835) to (3.49912 3.49912 3.49912) with tilt (0 -3.48153e-06 0)
Neighbor list info ...
  update every 1 steps, delay 0 steps, check yes
  max neighbors/atom: 2000, page size: 100000
  master list distance cutoff = 5.64464
  ghost atom cutoff = 5.64464
  binsize = 2.82232, bins = 2 2 2
  1 neighbor lists, perpetual/occasional/extra = 1 0 0
  (1) pair eam/alloy, perpetual
      attributes: half, newton on
      pair build: half/bin/newton/tri
      stencil: half/bin/3d/newton/tri
      bin: standard
Setting up cg style minimization ...
  Unit style    : metal
  Current step  : 100
Per MPI rank memory allocation (min/avg/max) = 4.086 | 4.086 | 4.086 Mbytes
Step Temp PotEng Press Pxx Pyy Pzz Pxy Pxz Pyz Lx Ly Lz Volume 
     100            0   -32.886605   -709612.66   -709612.66   -709612.66   -709612.66 8.9571114e-12   0.24869435 4.6893112e-11     3.481533     3.481533     3.481533    42.199912 
     101            0   -32.886605   -709612.67   -709612.67   -709612.67   -709612.67 -4.0570446e-11   0.24869435 3.2667112e-11     3.481533     3.481533     3.481533    42.199912 
     102            0   -32.886605   -709612.67   -709612.67   -709612.67   -709612.67 3.3194001e-11   0.24869435 3.7409112e-11     3.481533     3.481533     3.481533    42.199912 
Loop time of 7.89165e-05 on 1 procs for 2 steps with 4 atoms

83.6% CPU use with 1 MPI tasks x no OpenMP threads

Minimization stats:
  Stopping criterion = force tolerance
  Energy initial, next-to-last, final = 
        -32.8866054331     -32.8866054403     -32.8866054403
  Force two-norm initial, final = 0.000169044 2.04018e-13
  Force max component initial, final = 4.87993e-05 6.22835e-14
  Final line search alpha, max atom move = 1 6.22835e-14
  Iterations, force evaluations = 2 4

MPI task timing breakdown:
Section |  min time  |  avg time  |  max time  |%varavg| %total
---------------------------------------------------------------
Pair    | 4.6015e-05 | 4.6015e-05 | 4.6015e-05 |   0.0 | 58.31
Neigh   | 0          | 0          | 0          |   0.0 |  0.00
Comm    | 7.8678e-06 | 7.8678e-06 | 7.8678e-06 |   0.0 |  9.97
Output  | 8.1062e-06 | 8.1062e-06 | 8.1062e-06 |   0.0 | 10.27
Modify  | 0          | 0          | 0          |   0.0 |  0.00
Other   |            | 1.693e-05  |            |       | 21.45

Nlocal:    4 ave 4 max 4 min
Histogram: 1 0 0 0 0 0 0 0 0 0
Nghost:    360 ave 360 max 360 min
Histogram: 1 0 0 0 0 0 0 0 0 0
Neighs:    156 ave 156 max 156 min
Histogram: 1 0 0 0 0 0 0 0 0 0

Total # of neighbors = 156
Ave neighs/atom = 39
Neighbor list builds = 0
Dangerous builds = 0
Reading restart file ...
  restart file = 11 Aug 2017, LAMMPS = 11 Aug 2017
  triclinic box = (0.0175835 0.0175835 0.0175835) to (3.49912 3.49912 3.49912) with tilt (0 -0 0)
  1 by 1 by 1 MPI processor grid
  4 atoms
4 atoms in group Ni
Changing box ...
  triclinic box = (0.0175835 0.0175835 0.0175835) to (3.49912 3.49912 3.49912) with tilt (0 3.48153e-06 0)
Neighbor list info ...
  update every 1 steps, delay 0 steps, check yes
  max neighbors/atom: 2000, page size: 100000
  master list distance cutoff = 5.64464
  ghost atom cutoff = 5.64464
  binsize = 2.82232, bins = 2 2 2
  1 neighbor lists, perpetual/occasional/extra = 1 0 0
  (1) pair eam/alloy, perpetual
      attributes: half, newton on
      pair build: half/bin/newton/tri
      stencil: half/bin/3d/newton/tri
      bin: standard
Setting up cg style minimization ...
  Unit style    : metal
  Current step  : 100
Per MPI rank memory allocation (min/avg/max) = 4.086 | 4.086 | 4.086 Mbytes
Step Temp PotEng Press Pxx Pyy Pzz Pxy Pxz Pyz Lx Ly Lz Volume 
     100            0   -32.886605   -709612.66   -709612.66   -709612.66   -709612.66 -8.5882891e-11  -0.24869435 7.4818224e-11     3.481533     3.481533     3.481533    42.199912 
     101            0   -32.886605   -709612.67   -709612.67   -709612.67   -709612.67 -9.5366892e-11  -0.24869435 6.6914891e-11     3.481533     3.481533     3.481533    42.199912 
     102            0   -32.886605   -709612.67   -709612.67   -709612.67   -709612.67 1.4752889e-11  -0.24869435 -3.1086445e-11     3.481533     3.481533     3.481533    42.199912 
Loop time of 7.79629e-05 on 1 procs for 2 steps with 4 atoms

85.9% CPU use with 1 MPI tasks x no OpenMP threads

Minimization stats:
  Stopping criterion = force tolerance
  Energy initial, next-to-last, final = 
        -32.8866054331     -32.8866054403     -32.8866054403
  Force two-norm initial, final = 0.000169044 2.03961e-13
  Force max component initial, final = 4.87993e-05 6.2084e-14
  Final line search alpha, max atom move = 1 6.2084e-14
  Iterations, force evaluations = 2 4

MPI task timing breakdown:
Section |  min time  |  avg time  |  max time  |%varavg| %total
---------------------------------------------------------------
Pair    | 4.5776e-05 | 4.5776e-05 | 4.5776e-05 |   0.0 | 58.72
Neigh   | 0          | 0          | 0          |   0.0 |  0.00
Comm    | 9.2983e-06 | 9.2983e-06 | 9.2983e-06 |   0.0 | 11.93
Output  | 7.8678e-06 | 7.8678e-06 | 7.8678e-06 |   0.0 | 10.09
Modify  | 0          | 0          | 0          |   0.0 |  0.00
Other   |            | 1.502e-05  |            |       | 19.27

Nlocal:    4 ave 4 max 4 min
Histogram: 1 0 0 0 0 0 0 0 0 0
Nghost:    360 ave 360 max 360 min
Histogram: 1 0 0 0 0 0 0 0 0 0
Neighs:    156 ave 156 max 156 min
Histogram: 1 0 0 0 0 0 0 0 0 0

Total # of neighbors = 156
Ave neighs/atom = 39
Neighbor list builds = 0
Dangerous builds = 0
Reading restart file ...
  restart file = 11 Aug 2017, LAMMPS = 11 Aug 2017
  triclinic box = (0.0175835 0.0175835 0.0175835) to (3.49912 3.49912 3.49912) with tilt (0 -0 0)
  1 by 1 by 1 MPI processor grid
  4 atoms
4 atoms in group Ni
Changing box ...
  triclinic box = (0.0175835 0.0175835 0.0175835) to (3.49912 3.49912 3.49912) with tilt (-3.48153e-06 -0 0)
Neighbor list info ...
  update every 1 steps, delay 0 steps, check yes
  max neighbors/atom: 2000, page size: 100000
  master list distance cutoff = 5.64464
  ghost atom cutoff = 5.64464
  binsize = 2.82232, bins = 2 2 2
  1 neighbor lists, perpetual/occasional/extra = 1 0 0
  (1) pair eam/alloy, perpetual
      attributes: half, newton on
      pair build: half/bin/newton/tri
      stencil: half/bin/3d/newton/tri
      bin: standard
Setting up cg style minimization ...
  Unit style    : metal
  Current step  : 100
Per MPI rank memory allocation (min/avg/max) = 4.086 | 4.086 | 4.086 Mbytes
Step Temp PotEng Press Pxx Pyy Pzz Pxy Pxz Pyz Lx Ly Lz Volume 
     100            0   -32.886605   -709612.66   -709612.66   -709612.66   -709612.66   0.24869435 -8.1140891e-11 -7.9033336e-12     3.481533     3.481533     3.481533    42.199912 
     101            0   -32.886605   -709612.67   -709612.67   -709612.67   -709612.67   0.24869435 -2.7398223e-11 -5.0581335e-11     3.481533     3.481533     3.481533    42.199912 
     102            0   -32.886605   -709612.67   -709612.67   -709612.67   -709612.67   0.24869435 1.1064667e-11 -2.0021778e-11     3.481533     3.481533     3.481533    42.199912 
Loop time of 7.79629e-05 on 1 procs for 2 steps with 4 atoms

84.7% CPU use with 1 MPI tasks x no OpenMP threads

Minimization stats:
  Stopping criterion = force tolerance
  Energy initial, next-to-last, final = 
        -32.8866054331     -32.8866054403     -32.8866054403
  Force two-norm initial, final = 0.000169044 2.04047e-13
  Force max component initial, final = 4.87993e-05 6.18255e-14
  Final line search alpha, max atom move = 1 6.18255e-14
  Iterations, force evaluations = 2 4

MPI task timing breakdown:
Section |  min time  |  avg time  |  max time  |%varavg| %total
---------------------------------------------------------------
Pair    | 4.6015e-05 | 4.6015e-05 | 4.6015e-05 |   0.0 | 59.02
Neigh   | 0          | 0          | 0          |   0.0 |  0.00
Comm    | 8.3447e-06 | 8.3447e-06 | 8.3447e-06 |   0.0 | 10.70
Output  | 8.1062e-06 | 8.1062e-06 | 8.1062e-06 |   0.0 | 10.40
Modify  | 0          | 0          | 0          |   0.0 |  0.00
Other   |            | 1.55e-05   |            |       | 19.88

Nlocal:    4 ave 4 max 4 min
Histogram: 1 0 0 0 0 0 0 0 0 0
Nghost:    360 ave 360 max 360 min
Histogram: 1 0 0 0 0 0 0 0 0 0
Neighs:    156 ave 156 max 156 min
Histogram: 1 0 0 0 0 0 0 0 0 0

Total # of neighbors = 156
Ave neighs/atom = 39
Neighbor list builds = 0
Dangerous builds = 0
Reading restart file ...
  restart file = 11 Aug 2017, LAMMPS = 11 Aug 2017
  triclinic box = (0.0175835 0.0175835 0.0175835) to (3.49912 3.49912 3.49912) with tilt (0 -0 0)
  1 by 1 by 1 MPI processor grid
  4 atoms
4 atoms in group Ni
Changing box ...
  triclinic box = (0.0175835 0.0175835 0.0175835) to (3.49912 3.49912 3.49912) with tilt (3.48153e-06 -0 0)
Neighbor list info ...
  update every 1 steps, delay 0 steps, check yes
  max neighbors/atom: 2000, page size: 100000
  master list distance cutoff = 5.64464
  ghost atom cutoff = 5.64464
  binsize = 2.82232, bins = 2 2 2
  1 neighbor lists, perpetual/occasional/extra = 1 0 0
  (1) pair eam/alloy, perpetual
      attributes: half, newton on
      pair build: half/bin/newton/tri
      stencil: half/bin/3d/newton/tri
      bin: standard
Setting up cg style minimization ...
  Unit style    : metal
  Current step  : 100
Per MPI rank memory allocation (min/avg/max) = 4.086 | 4.086 | 4.086 Mbytes
Step Temp PotEng Press Pxx Pyy Pzz Pxy Pxz Pyz Lx Ly Lz Volume 
     100            0   -32.886605   -709612.66   -709612.66   -709612.66   -709612.66  -0.24869435 -1.2645334e-11 1.6333556e-11     3.481533     3.481533     3.481533    42.199912 
     101            0   -32.886605   -709612.67   -709612.67   -709612.67   -709612.67  -0.24869435 -5.0581335e-11 1.1591556e-11     3.481533     3.481533     3.481533    42.199912 
     102            0   -32.886605   -709612.67   -709612.67   -709612.67   -709612.67  -0.24869435 9.9582003e-11 -3.1613334e-11     3.481533     3.481533     3.481533    42.199912 
Loop time of 8.41618e-05 on 1 procs for 2 steps with 4 atoms

101.0% CPU use with 1 MPI tasks x no OpenMP threads

Minimization stats:
  Stopping criterion = force tolerance
  Energy initial, next-to-last, final = 
        -32.8866054331     -32.8866054403     -32.8866054403
  Force two-norm initial, final = 0.000169044 2.04218e-13
  Force max component initial, final = 4.87993e-05 6.20615e-14
  Final line search alpha, max atom move = 1 6.20615e-14
  Iterations, force evaluations = 2 4

MPI task timing breakdown:
Section |  min time  |  avg time  |  max time  |%varavg| %total
---------------------------------------------------------------
Pair    | 5.1975e-05 | 5.1975e-05 | 5.1975e-05 |   0.0 | 61.76
Neigh   | 0          | 0          | 0          |   0.0 |  0.00
Comm    | 7.6294e-06 | 7.6294e-06 | 7.6294e-06 |   0.0 |  9.07
Output  | 7.8678e-06 | 7.8678e-06 | 7.8678e-06 |   0.0 |  9.35
Modify  | 0          | 0          | 0          |   0.0 |  0.00
Other   |            | 1.669e-05  |            |       | 19.83

Nlocal:    4 ave 4 max 4 min
Histogram: 1 0 0 0 0 0 0 0 0 0
Nghost:    360 ave 360 max 360 min
Histogram: 1 0 0 0 0 0 0 0 0 0
Neighs:    156 ave 156 max 156 min
Histogram: 1 0 0 0 0 0 0 0 0 0

Total # of neighbors = 156
Ave neighs/atom = 39
Neighbor list builds = 0
Dangerous builds = 0
c11 = -2.85560709889979 GPa
c22 = -2.85560709889979 GPa
c33 = -2.85560705233366 GPa
c12 = -21.7348636477255 GPa
c13 = -21.7348636244424 GPa
c23 = -21.7348636477255 GPa
c44 = 24.8694351137205 GPa
c55 = 24.8694351249434 GPa
c66 = 24.8694351204648 GPa
c14 = 1.92314686833712e-09 GPa
c15 = 2.42314628578486e-08 GPa
c16 = 2.10042678636183e-08 GPa
c24 = 2.50274428866678e-10 GPa
c25 = 2.85776216920939e-08 GPa
c26 = -2.78926648268221e-08 GPa
c34 = 2.31770048737708e-08 GPa
c35 = 1.67287106955929e-09 GPa
c36 = 2.51923579983272e-08 GPa
c45 = 2.568583403975e-09 GPa
c46 = -1.19867225518833e-09 GPa
c56 = -1.75190560373679e-09 GPa
lammps_sim_done
Total wall time: 0:00:00
