LAMMPS (10 Feb 2015)
# ---- initialize simulations
clear
units metal
dimension 3
boundary p p p
atom_style charge
atom_modify map array
# ---- create atoms
read_data structure.dat
  triclinic box = (0 0 0) to (15 15 15) with tilt (0 0 0)
  1 by 1 by 1 MPI processor grid
  reading atoms ...
  216 atoms
# ---- define interatomic potential
include potential.mod
mass 1 24.305
mass 2 15.999

group Mg type 1
108 atoms in group Mg
group O type 2
108 atoms in group O

set group Mg charge 2.0
  108 settings made for charge
set group O charge -2.0
  108 settings made for charge

variable R_cut equal 10

pair_style buck/coul/long ${R_cut}
pair_style buck/coul/long 10
pair_coeff 1 1 0.0 0.5 0.0 ${R_cut}
pair_coeff 1 1 0.0 0.5 0.0 10
pair_coeff 1 2 821.6 0.3242 0.0 ${R_cut}
pair_coeff 1 2 821.6 0.3242 0.0 10
pair_coeff 2 2 2274.0 0.149 27.88 ${R_cut}
pair_coeff 2 2 2274.0 0.149 27.88 10

kspace_style pppm 1.0e-5

neighbor 1.0 bin
neigh_modify every 1 delay 0 check yes
# ---- define settings
compute eng all pe/atom
compute eatoms all reduce sum c_eng
# ---- run minimization
reset_timestep 0
thermo 1
thermo_style custom step pe lx ly lz xy xz yz press pxx pyy pzz pxy pxz pyz c_eatoms
min_style cg
minimize 1e-20 1e-20 1000 100000
PPPM initialization ...
  G vector (1/distance) = 0.346163
  grid = 24 24 24
  stencil order = 5
  estimated absolute RMS force accuracy = 8.03518e-05
  estimated relative force accuracy = 5.58012e-06
  using double precision FFTs
  3d grid and FFT values/proc = 29791 13824
Neighbor list info ...
  1 neighbor list requests
  update every 1 steps, delay 0 steps, check yes
  master list distance cutoff = 11
Memory usage per processor = 7.83223 Mbytes
Step PotEng Lx Ly Lz Xy Xz Yz Press Pxx Pyy Pzz Pxy Pxz Pyz eatoms 
       0   -4086.5605           15           15           15            0            0            0   -398355.71   -399422.55   -397822.29   -397822.29   -333.53536   -333.53536   -385.29441   -4086.5605 
       1    -4107.125           15           15           15            0            0            0   -399429.91   -399704.01   -399292.87   -399292.87    -52.75525    -52.75525   -44.904963    -4107.125 
       2   -4116.9037           15           15           15            0            0            0   -397858.46   -397929.96   -397822.71   -397822.71    89.719472    89.719472    143.98795   -4116.9037 
       3    -4119.619           15           15           15            0            0            0   -394931.82   -395045.38   -394875.04   -394875.04    119.37617    119.37617    220.14571    -4119.619 
       4   -4121.4101           15           15           15            0            0            0   -394173.75   -394333.33   -394093.95   -394093.95     69.23399     69.23399    193.19219   -4121.4101 
       5   -4123.3009           15           15           15            0            0            0    -390355.5   -390716.89   -390174.81   -390174.81   -69.813225   -69.813225     186.5492   -4123.3009 
       6    -4124.969           15           15           15            0            0            0   -384736.78   -385510.19   -384350.08   -384350.08   -256.12073   -256.12073    197.86307    -4124.969 
       7   -4127.3752           15           15           15            0            0            0    -378753.1   -378742.54   -378758.39   -378758.39    -301.8085    -301.8085    498.89751   -4127.3752 
       8   -4131.5409           15           15           15            0            0            0   -370794.86   -370079.48   -371152.55   -371152.55   -370.20613   -370.20613     1100.293   -4131.5409 
       9   -4136.4528           15           15           15            0            0            0   -364608.23    -362733.2   -365545.74   -365545.74   -848.37909   -848.37909    1626.6607   -4136.4528 
      10   -4143.2925           15           15           15            0            0            0   -351660.05   -348159.92   -353410.12   -353410.12   -1357.5428   -1357.5428    2248.5118   -4143.2925 
      11   -4149.6692           15           15           15            0            0            0   -340151.24   -336770.19   -341841.77   -341841.77   -1754.2152   -1754.2152    2714.0138   -4149.6692 
      12   -4157.9652           15           15           15            0            0            0   -321247.53   -317169.46   -323286.56   -323286.56   -1675.0175   -1675.0175    3373.8617   -4157.9652 
      13   -4164.7462           15           15           15            0            0            0   -306318.57   -303226.09    -307864.8    -307864.8   -1646.1504   -1646.1504    3963.5675   -4164.7462 
      14   -4172.0232           15           15           15            0            0            0   -285868.26   -281799.49   -287902.64   -287902.64   -1294.2507   -1294.2507    4719.2923   -4172.0232 
      15   -4178.3266           15           15           15            0            0            0   -268492.99   -264891.42   -270293.77   -270293.77   -1078.2979   -1078.2979    5620.7706   -4178.3266 
      16   -4184.7752           15           15           15            0            0            0   -248343.31   -243332.04   -250848.95   -250848.95    -531.2017    -531.2017    6664.9764   -4184.7752 
      17   -4192.2877           15           15           15            0            0            0   -227164.18   -223531.02   -228980.76   -228980.76    447.58158    447.58158    8061.0121   -4192.2877 
      18   -4198.8671           15           15           15            0            0            0   -208779.32   -205613.45   -210362.26   -210362.26    998.11242    998.11243    8524.8452   -4198.8671 
      19   -4205.0236           15           15           15            0            0            0   -195041.32   -192002.87   -196560.55   -196560.55    2101.4891     2101.489    8790.1632   -4205.0236 
      20   -4210.3609           15           15           15            0            0            0   -180661.81   -175941.69   -183021.87   -183021.87    2353.3653    2353.3655    8401.7632   -4210.3609 
      21   -4215.9124           15           15           15            0            0            0   -168241.95   -163759.47    -170483.2    -170483.2    3226.7506    3226.7505    7862.0887   -4215.9124 
      22   -4220.9088           15           15           15            0            0            0   -158956.29   -155042.99   -160912.93   -160912.93    3701.8282     3701.827    7310.3519   -4220.9088 
      23   -4225.2797           15           15           15            0            0            0   -150455.57   -147356.16   -152005.28   -152005.28    4467.5553    4467.5584    6236.0993   -4225.2797 
      24   -4230.3477           15           15           15            0            0            0   -139247.67   -135076.73   -141333.15   -141333.14    4887.4928    4887.4905    5256.9445   -4230.3477 
      25   -4233.8403           15           15           15            0            0            0   -132047.88   -128397.52   -133873.06   -133873.06    5648.1248    5648.1232    4821.5107   -4233.8403 
      26   -4236.6176           15           15           15            0            0            0   -126559.48    -123434.4   -128122.02   -128122.03    5745.3173    5745.3221     4867.044   -4236.6176 
      27   -4239.0212           15           15           15            0            0            0   -121852.37   -119942.89    -122807.1    -122807.1    6356.7109     6356.714    5084.6809   -4239.0212 
      28    -4241.665           15           15           15            0            0            0   -114121.19   -112889.65   -114736.95   -114736.95    6387.5993    6387.5998    5315.0097    -4241.665 
      29   -4244.4568           15           15           15            0            0            0   -106035.87      -105876   -106115.81   -106115.81    6868.4534    6868.4561    5940.4022   -4244.4568 
      30   -4246.8227           15           15           15            0            0            0   -100104.57   -98960.286   -100676.72   -100676.71    6826.1555     6826.155    6650.8277   -4246.8227 
      31   -4249.0231           15           15           15            0            0            0    -95205.59   -93726.738   -95945.014   -95945.019    6966.7703    6966.7716    7343.7882   -4249.0231 
      32   -4251.2043           15           15           15            0            0            0   -89853.222    -87339.44   -91110.115   -91110.112     6883.774    6883.7783    8060.5162   -4251.2043 
      33   -4252.8073           15           15           15            0            0            0   -86797.357   -84627.068     -87882.5   -87882.503    7480.4259      7480.43    8750.7757   -4252.8073 
      34   -4254.1743           15           15           15            0            0            0   -81747.621   -77992.624   -83625.124   -83625.116    7170.8888    7170.8978    9127.8876   -4254.1743 
      35   -4255.4754           15           15           15            0            0            0   -76180.306   -71674.775   -78433.074   -78433.069    7245.9852    7245.9939     9275.132   -4255.4754 
      36   -4256.3421           15           15           15            0            0            0   -76155.225   -73368.576   -77548.549   -77548.549    7765.9464    7765.9513     9218.968   -4256.3421 
      37   -4257.3492           15           15           15            0            0            0   -73556.586    -72162.41   -74253.667    -74253.68    8253.1511    8253.1448    8700.7839   -4257.3492 
      38   -4258.4032           15           15           15            0            0            0    -70763.13   -70142.032   -71073.677   -71073.681    8001.9683    8001.9782    7007.0421   -4258.4032 
      39   -4259.7322           15           15           15            0            0            0    -68399.41   -70764.103   -67217.067    -67217.06     8533.042    8533.0563     4609.191   -4259.7322 
      40   -4261.0168           15           15           15            0            0            0   -65830.478   -69265.365   -64113.034   -64113.034    9182.2325    9182.2253    3724.9974   -4261.0168 
      41   -4262.2374           15           15           15            0            0            0   -63765.863   -67463.287   -61917.155   -61917.148    9825.7898    9825.7878    2644.6619   -4262.2374 
      42   -4263.2974           15           15           15            0            0            0   -62321.427   -66849.439   -60057.425   -60057.417    9623.6625    9623.6578     1267.957   -4263.2974 
      43   -4264.1424           15           15           15            0            0            0   -61213.886   -65508.049   -59066.809   -59066.801    9566.7401    9566.7363    86.313166   -4264.1424 
      44   -4264.8555           15           15           15            0            0            0   -61226.304   -65656.549   -59011.175   -59011.186    9800.9424    9800.9466    -705.1025   -4264.8555 
      45    -4265.644           15           15           15            0            0            0   -60066.278   -65002.014   -57598.405   -57598.416    9983.6706    9983.6551   -1909.1702    -4265.644 
      46   -4266.6226           15           15           15            0            0            0   -60011.963   -65655.883   -57189.999   -57190.009    9631.7281    9631.7274   -3210.2095   -4266.6226 
      47   -4267.5573           15           15           15            0            0            0   -60019.448   -65307.594   -57375.372   -57375.378    8823.2285    8823.2238   -3272.2742   -4267.5573 
      48   -4268.3861           15           15           15            0            0            0   -59159.168   -65300.298   -56088.603   -56088.604    8617.8244     8617.818   -3530.1436   -4268.3861 
      49   -4269.1827           15           15           15            0            0            0   -58726.921   -65501.323   -55339.716   -55339.726    8597.9659     8597.959   -3866.4175   -4269.1827 
      50   -4269.7809           15           15           15            0            0            0   -57209.006   -63153.277   -54236.862   -54236.879    8193.3593    8193.3489   -4061.2554   -4269.7809 
      51   -4270.2081           15           15           15            0            0            0   -55631.445   -61482.973   -52705.673   -52705.687    7694.0784     7694.069   -4138.7824   -4270.2081 
      52   -4270.4282           15           15           15            0            0            0   -54330.093    -60374.89   -51307.691   -51307.699     7620.047    7620.0333   -4692.8083   -4270.4282 
      53   -4270.6759           15           15           15            0            0            0   -52155.962   -58129.756   -49169.067   -49169.062    7486.4647    7486.4516   -5072.1376   -4270.6759 
      54   -4270.9293           15           15           15            0            0            0   -50055.842   -56087.908   -47039.812   -47039.806    7182.4618    7182.4466   -5610.9426   -4270.9293 
      55   -4271.3645           15           15           15            0            0            0   -47524.933   -53349.053   -44612.879   -44612.868    6173.0138    6172.9935    -6053.852   -4271.3645 
      56   -4271.6781           15           15           15            0            0            0   -46830.449   -53207.015   -43642.164   -43642.169    5713.2278    5713.2072   -6403.4876   -4271.6781 
      57    -4271.952           15           15           15            0            0            0   -46215.632   -52641.771   -43002.571   -43002.554    5462.4763    5462.4486   -7228.2935    -4271.952 
      58   -4272.3999           15           15           15            0            0            0   -46106.086   -52490.166    -42914.04   -42914.052     4729.535    4729.4949    -8242.273   -4272.3999 
      59   -4272.9045           15           15           15            0            0            0   -45526.478   -52284.377    -42147.52   -42147.537    3992.9072     3992.848   -9096.9708   -4272.9045 
      60   -4273.2771           15           15           15            0            0            0   -45080.154   -52019.992   -41610.218   -41610.252    3808.9047    3808.8519   -10113.264   -4273.2771 
      61   -4273.7062           15           15           15            0            0            0   -44600.825   -52757.377   -40522.532   -40522.566    3846.8193    3846.7776   -10412.749   -4273.7062 
      62   -4274.1372           15           15           15            0            0            0   -44382.408   -53274.652   -39936.279   -39936.294    3958.7211    3958.6838   -10473.512   -4274.1372 
      63   -4274.5459           15           15           15            0            0            0   -43809.904    -52445.61   -39492.032   -39492.071    4386.1244    4386.1085   -10297.871   -4274.5459 
      64   -4274.9077           15           15           15            0            0            0    -43093.65   -51564.143   -38858.388   -38858.419    4843.3427    4843.3392   -10089.222   -4274.9077 
      65   -4275.2497           15           15           15            0            0            0    -42690.46   -52287.923   -37891.717   -37891.738    4453.0704    4453.0789   -9836.2085   -4275.2497 
      66   -4275.5806           15           15           15            0            0            0    -42336.17   -53012.535   -36997.986   -36997.989    4639.6189    4639.6336   -9977.9301   -4275.5806 
      67   -4275.9753           15           15           15            0            0            0    -42285.39    -53317.76   -36769.208   -36769.203    4938.9515    4938.9717   -9738.4423   -4275.9753 
      68   -4276.2711           15           15           15            0            0            0   -42030.098   -53986.383   -36051.978   -36051.934    4959.3166    4959.3352   -9643.9619   -4276.2711 
      69    -4276.543           15           15           15            0            0            0   -41760.722   -54890.523   -35195.869   -35195.774    4659.2629    4659.2759   -9186.2875    -4276.543 
      70   -4276.7578           15           15           15            0            0            0   -41614.219   -55471.013   -34685.871   -34685.773    4651.6976    4651.7236   -9179.6604   -4276.7578 
      71   -4277.0141           15           15           15            0            0            0   -41750.755   -55988.699   -34631.851   -34631.714    4253.8657    4253.9059   -8998.5371   -4277.0141 
      72   -4277.2221           15           15           15            0            0            0   -42040.152   -56111.255   -35004.712    -35004.49    4123.0615    4123.0815   -9034.1081   -4277.2221 
      73   -4277.4096           15           15           15            0            0            0   -42164.651   -56292.441   -35100.923   -35100.591    3901.4239    3901.4404   -8569.0619   -4277.4096 
      74   -4277.5853           15           15           15            0            0            0   -42223.753   -56986.568   -34842.561   -34842.131    3999.7704    3999.8035   -8773.8196   -4277.5853 
      75   -4277.7593           15           15           15            0            0            0   -42200.227   -57870.346   -34365.396   -34364.939    3880.9023    3880.9778   -8711.5356   -4277.7593 
      76   -4277.9229           15           15           15            0            0            0   -42181.306    -58813.47   -33865.439   -33865.008    3752.2386    3752.3482    -8517.321   -4277.9229 
      77   -4278.1197           15           15           15            0            0            0   -41821.772   -59380.332   -33042.718   -33042.267    3768.5873     3768.753   -8177.7191   -4278.1197 
      78   -4278.3468           15           15           15            0            0            0   -40744.324    -58924.34   -31654.537   -31654.097    4089.8634    4090.1033    -8111.241   -4278.3468 
      79    -4278.573           15           15           15            0            0            0   -39985.421   -58376.819   -30789.948   -30789.498     4262.719    4263.0181    -7867.253    -4278.573 
      80   -4278.8181           15           15           15            0            0            0   -40047.563   -58701.392   -30720.876   -30720.423     4042.881    4043.1715   -7638.9057   -4278.8181 
      81   -4279.1332           15           15           15            0            0            0   -39615.194   -58312.683   -30266.584   -30266.315    3890.9967    3891.2859   -7751.4071   -4279.1332 
      82   -4279.4909           15           15           15            0            0            0   -38163.214   -57037.425   -28725.997    -28726.22    4317.1148    4317.3661   -7930.3096   -4279.4909 
      83    -4279.742           15           15           15            0            0            0   -37019.689   -56347.101   -27355.623   -27356.343    4718.6165    4718.7732   -7502.4927    -4279.742 
      84    -4279.994           15           15           15            0            0            0   -37266.271   -56738.556   -27529.884   -27530.373    4696.2185    4696.3136   -7063.4328    -4279.994 
      85   -4280.2152           15           15           15            0            0            0   -37368.783   -56557.822   -27774.215   -27774.311    4663.2996    4663.2973   -6894.2657   -4280.2152 
      86   -4280.4187           15           15           15            0            0            0   -37096.597   -56109.252   -27590.238   -27590.302    5062.3385    5062.2557   -7098.6611   -4280.4187 
      87   -4280.5547           15           15           15            0            0            0   -36902.277   -55503.047   -27601.821   -27601.964    5364.0639    5363.9343   -7216.1253   -4280.5547 
      88   -4280.6778           15           15           15            0            0            0   -37153.616   -55532.118   -27964.249   -27964.481    5336.8378    5336.8062   -7212.9774   -4280.6778 
      89   -4280.7417           15           15           15            0            0            0   -36911.695   -55166.725   -27784.064   -27784.295    5385.2803    5385.3653   -7250.1491   -4280.7417 
      90   -4280.8004           15           15           15            0            0            0   -36374.566   -54680.523    -27221.51   -27221.665    5656.8984    5657.0225   -7429.5989   -4280.8004 
      91   -4280.8504           15           15           15            0            0            0   -35927.619   -54376.942   -26702.923   -26702.993    5792.5545    5792.6018   -7475.3381   -4280.8504 
      92   -4280.8883           15           15           15            0            0            0    -35879.95   -54081.807   -26779.003   -26779.039     5693.174    5693.1671   -7479.5172   -4280.8883 
      93    -4280.919           15           15           15            0            0            0   -35833.815   -53703.671    -26898.86   -26898.913    5661.1189    5661.1436   -7426.6919    -4280.919 
      94   -4280.9422           15           15           15            0            0            0    -35646.14   -53449.565    -26744.38   -26744.475    5818.7779    5818.9029   -7462.0926   -4280.9422 
      95   -4280.9597           15           15           15            0            0            0   -35551.949   -53370.998   -26642.408    -26642.44    5877.4109    5877.5756   -7340.6634   -4280.9597 
      96   -4280.9727           15           15           15            0            0            0   -35493.649   -53300.692   -26590.178   -26590.076     5842.514    5842.6182   -7372.5515   -4280.9727 
      97   -4280.9846           15           15           15            0            0            0    -35468.55   -53144.553   -26630.641   -26630.455    5791.9582    5791.9742   -7441.2461   -4280.9846 
      98   -4280.9951           15           15           15            0            0            0   -35395.887    -52969.94   -26608.949   -26608.773    5891.7146    5891.6929   -7607.9664   -4280.9951 
      99   -4281.0067           15           15           15            0            0            0   -35435.178   -52974.668   -26665.499   -26665.368    5952.1546    5952.2353   -7895.2967   -4281.0067 
     100   -4281.0193           15           15           15            0            0            0   -35579.491   -53054.368   -26842.124    -26841.98    5928.5734    5928.9155   -8293.8311   -4281.0193 
     101   -4281.0398           15           15           15            0            0            0   -35668.721   -53155.248   -26925.636   -26925.278     5908.433    5909.0109   -8912.4828   -4281.0398 
     102   -4281.0962           15           15           15            0            0            0   -35874.947   -53480.167   -27072.661   -27072.014    6331.5837    6332.2717   -10115.835   -4281.0962 
     103   -4281.2162           15           15           15            0            0            0   -36054.287   -53717.359   -27223.087   -27222.414    6926.3708    6926.7736   -11045.271   -4281.2162 
     104   -4281.4137           15           15           15            0            0            0   -36164.026   -53651.845   -27420.193   -27420.039    7310.5883    7310.5733   -11337.933   -4281.4137 
     105    -4281.593           15           15           15            0            0            0   -36086.967   -53457.536    -27401.53   -27401.835    8045.7861    8045.2732   -11237.531    -4281.593 
     106   -4281.6616           15           15           15            0            0            0   -35846.678   -53088.093   -27225.571    -27226.37    8516.1759    8515.2412   -10973.855   -4281.6616 
     107   -4281.7501           15           15           15            0            0            0   -35731.861   -52711.772   -27241.079   -27242.732    8867.9054     8866.389   -10551.789   -4281.7501 
     108   -4281.8295           15           15           15            0            0            0   -35448.284   -52177.083   -27082.381   -27085.388     8995.208    8992.7304   -10149.033   -4281.8295 
     109    -4281.914           15           15           15            0            0            0   -35379.482   -51541.839   -27296.056    -27300.55    9054.2091    9050.5538   -10090.888    -4281.914 
     110   -4281.9869           15           15           15            0            0            0   -35437.382   -51109.368   -27598.241   -27604.536    9099.2879    9093.9445    -9942.356   -4281.9869 
     111   -4282.0738           15           15           15            0            0            0   -36057.009   -51370.963   -28396.053   -28404.013    9456.9424    9449.4096   -10221.618   -4282.0738 
     112   -4282.1676           15           15           15            0            0            0   -37125.446   -51870.585   -29747.656   -29758.097    9522.5007    9510.9628   -10305.864   -4282.1676 
     113    -4282.291           15           15           15            0            0            0   -38725.369   -52985.503   -31587.186   -31603.418    9568.0294    9552.1789   -11114.182    -4282.291 
     114   -4282.4867           15           15           15            0            0            0   -40601.802   -54018.305   -33881.965   -33905.138    9619.1545    9597.9034   -12214.457   -4282.4867 
     115   -4282.7951           15           15           15            0            0            0   -42078.575    -54679.51   -35761.209   -35795.006    10031.643    10005.081   -13550.779   -4282.7951 
     116   -4283.1464           15           15           15            0            0            0   -43440.603   -55573.691   -37356.171   -37391.946    10155.692    10123.305   -14644.619   -4283.1464 
     117    -4283.518           15           15           15            0            0            0   -44154.376   -56310.994   -38057.238   -38094.894    10140.911    10105.723   -15633.078    -4283.518 
     118   -4283.7813           15           15           15            0            0            0   -44584.366   -56886.327   -38416.923   -38449.848    9838.5365    9800.4398   -15841.214   -4283.7813 
     119   -4283.8668           15           15           15            0            0            0   -44378.856   -57121.958   -37991.236   -38023.374    9592.1339    9554.1169   -16016.024   -4283.8668 
     120   -4283.9965           15           15           15            0            0            0   -43946.689   -56865.734   -37470.688   -37503.645    9604.4053    9568.6699   -16584.126   -4283.9965 
     121   -4284.1477           15           15           15            0            0            0   -43503.949   -56154.214   -37165.429   -37192.204     9357.738    9324.4001   -17085.484   -4284.1477 
     122   -4284.2691           15           15           15            0            0            0   -43469.565   -56209.463   -37086.772    -37112.46    9189.5876    9159.0942   -17411.941   -4284.2691 
     123    -4284.456           15           15           15            0            0            0    -43765.24   -57402.775   -36938.251   -36954.695     9060.617     9036.375   -17666.423    -4284.456 
     124   -4284.5624           15           15           15            0            0            0   -43943.738   -57691.447    -37064.97   -37074.798     9111.848    9091.2901   -17635.787   -4284.5624 
     125   -4284.6575           15           15           15            0            0            0   -43560.555   -57376.842    -36648.45   -36656.374    9215.5287    9197.5278    -17727.28   -4284.6575 
     126   -4284.7127           15           15           15            0            0            0   -43346.174   -57322.288   -36356.069   -36360.165    9027.7751    9011.4711   -17842.034   -4284.7127 
     127    -4284.757           15           15           15            0            0            0   -43309.804    -57261.13    -36331.98   -36336.303    8713.6264    8699.8906   -18069.417    -4284.757 
     128   -4284.7889           15           15           15            0            0            0   -43327.176   -57373.134   -36302.374   -36306.019    8544.4561    8532.4649   -18038.403   -4284.7889 
     129   -4284.8102           15           15           15            0            0            0   -43363.342   -57687.388   -36199.352   -36203.287    8579.9236    8569.5231   -18001.913   -4284.8102 
     130   -4284.8275           15           15           15            0            0            0   -43398.056   -57775.245   -36207.031    -36211.89     8631.163    8621.9308   -17821.799   -4284.8275 
     131   -4284.8422           15           15           15            0            0            0   -43561.155   -57930.952   -36373.859   -36378.655    8644.9464    8635.6191    -17750.33   -4284.8422 
     132   -4284.8555           15           15           15            0            0            0   -43663.718   -58217.262   -36384.163    -36389.73    8598.4265    8589.0836    -17763.97   -4284.8555 
     133   -4284.8656           15           15           15            0            0            0   -43758.913   -58383.877   -36443.771   -36449.089    8573.7713    8564.4479   -17793.153   -4284.8656 
     134   -4284.8738           15           15           15            0            0            0    -43753.77   -58467.965   -36393.641   -36399.703    8610.9731    8601.3667   -17897.578   -4284.8738 
     135   -4284.8792           15           15           15            0            0            0   -43707.095   -58458.355   -36328.237   -36334.692    8603.0731    8593.2971   -17901.138   -4284.8792 
     136    -4284.883           15           15           15            0            0            0   -43640.655   -58350.574   -36282.084   -36289.307     8634.054    8623.8151   -17954.681    -4284.883 
     137   -4284.8853           15           15           15            0            0            0   -43617.194   -58331.959   -36256.261   -36263.363    8621.4466    8611.2118   -17982.403   -4284.8853 
     138    -4284.887           15           15           15            0            0            0   -43577.407   -58360.075   -36182.165   -36189.982    8611.1769    8600.6298   -17983.392    -4284.887 
     139   -4284.8887           15           15           15            0            0            0   -43555.213   -58336.854   -36160.245    -36168.54    8616.7179    8605.8239   -17967.666   -4284.8887 
     140   -4284.8898           15           15           15            0            0            0    -43568.46   -58357.686   -36169.386   -36178.309    8616.5471    8605.5376   -18016.041   -4284.8898 
     141   -4284.8907           15           15           15            0            0            0   -43578.945   -58379.323   -36173.944   -36183.569    8609.0259    8597.5601   -18044.569   -4284.8907 
     142   -4284.8916           15           15           15            0            0            0   -43608.767   -58397.197   -36209.737   -36219.369    8607.6827     8595.491   -18079.007   -4284.8916 
     143   -4284.8921           15           15           15            0            0            0   -43613.181   -58411.323   -36208.604   -36219.618    8609.2633    8596.1296   -18135.043   -4284.8921 
     144   -4284.8926           15           15           15            0            0            0   -43644.253   -58418.422   -36251.457   -36262.881    8601.8008    8587.6102   -18165.245   -4284.8926 
     145    -4284.893           15           15           15            0            0            0   -43655.917   -58422.158   -36266.394   -36279.199    8588.1595    8573.2244   -18173.942    -4284.893 
     146   -4284.8933           15           15           15            0            0            0   -43659.685   -58423.232    -36270.99   -36284.835    8585.7424    8569.8157   -18169.138   -4284.8933 
     147   -4284.8937           15           15           15            0            0            0   -43657.634   -58428.516   -36264.445   -36279.942    8570.3988    8553.0896    -18160.01   -4284.8937 
     148   -4284.8939           15           15           15            0            0            0   -43652.846    -58422.38   -36259.337   -36276.821    8554.5791    8535.9125   -18158.586   -4284.8939 
     149   -4284.8941           15           15           15            0            0            0   -43641.509   -58414.451   -36245.391   -36264.686    8559.2149    8538.7852   -18173.932   -4284.8941 
     150   -4284.8942           15           15           15            0            0            0   -43626.261     -58405.7   -36225.429   -36247.656    8561.1838    8538.7925   -18188.134   -4284.8942 
     151   -4284.8944           15           15           15            0            0            0   -43616.278   -58394.539   -36214.555   -36239.738    8563.2036    8538.5806   -18215.563   -4284.8944 
     152   -4284.8946           15           15           15            0            0            0   -43605.684   -58378.673   -36204.834   -36233.546    8561.5817    8534.3129   -18233.698   -4284.8946 
     153   -4284.8947           15           15           15            0            0            0   -43607.758    -58381.32   -36204.337   -36237.617    8549.0315    8518.2351   -18245.689   -4284.8947 
     154   -4284.8949           15           15           15            0            0            0   -43614.894   -58391.291   -36207.581    -36245.81    8532.5285    8497.4842   -18252.537   -4284.8949 
     155    -4284.895           15           15           15            0            0            0   -43630.662   -58407.152   -36219.913    -36264.92    8522.9438     8482.835   -18259.741    -4284.895 
     156   -4284.8951           15           15           15            0            0            0   -43634.857   -58409.519   -36221.215   -36273.836    8513.0621    8466.9186   -18270.582   -4284.8951 
     157   -4284.8954           15           15           15            0            0            0   -43636.164   -58405.078   -36219.193   -36284.221    8506.6291    8451.5638   -18288.471   -4284.8954 
     158   -4284.8956           15           15           15            0            0            0   -43640.095   -58405.794   -36217.454   -36297.038    8503.6965    8436.6255   -18311.629   -4284.8956 
     159   -4284.8959           15           15           15            0            0            0    -43657.02   -58400.038   -36233.571   -36337.451    8503.9953    8418.6344    -18310.53   -4284.8959 
     160   -4284.8965           15           15           15            0            0            0   -43690.605   -58425.157   -36251.207   -36395.452     8513.363    8396.1802   -18325.957   -4284.8965 
     161    -4284.898           15           15           15            0            0            0   -43736.821   -58457.795   -36264.097   -36488.572    8494.8847    8317.2273   -18331.724    -4284.898 
     162   -4284.9003           15           15           15            0            0            0    -43764.28   -58437.606   -36268.994   -36586.239    8476.2992    8229.0174   -18329.615   -4284.9003 
     163   -4284.9032           15           15           15            0            0            0   -43748.665   -58386.538   -36228.473   -36630.983    8445.6256    8134.6419   -18316.654   -4284.9032 
     164   -4284.9065           15           15           15            0            0            0   -43712.442   -58268.541   -36181.012   -36687.773    8460.1952    8094.2798   -18299.809   -4284.9065 
     165   -4284.9114           15           15           15            0            0            0   -43610.089   -58090.663    -36052.29   -36687.315     8488.251    8058.5445    -18302.61   -4284.9114 
     166   -4284.9177           15           15           15            0            0            0   -43502.122   -57804.049   -35944.798   -36757.518    8529.7397    8023.6777   -18250.677   -4284.9177 
     167   -4284.9251           15           15           15            0            0            0   -43301.474   -57473.731   -35740.668   -36690.023    8553.6156    7992.8005   -18135.775   -4284.9251 
     168    -4284.932           15           15           15            0            0            0   -43196.738   -57218.622   -35638.449   -36733.143    8610.9801    7996.9353   -17966.862    -4284.932 
     169   -4284.9402           15           15           15            0            0            0   -43015.097   -56975.836   -35410.148   -36659.309    8694.3339    8041.7292   -17816.084   -4284.9402 
     170   -4284.9483           15           15           15            0            0            0   -43001.325    -56789.13   -35414.323    -36800.52    8738.2477    8062.8076   -17629.638   -4284.9483 
     171   -4284.9574           15           15           15            0            0            0    -42970.18   -56625.495   -35383.378   -36901.666    8788.9807    8107.1393   -17522.428   -4284.9574 
     172   -4284.9669           15           15           15            0            0            0   -43131.442   -56583.283    -35601.54   -37209.503    8774.4943    8089.4971   -17341.454   -4284.9669 
     173   -4284.9783           15           15           15            0            0            0   -43340.202   -56732.574   -35751.676   -37536.355    8751.7845    8109.1583   -17295.296   -4284.9783 
     174   -4284.9906           15           15           15            0            0            0   -43631.726    -56826.19   -36037.302   -38031.686     8662.221    8076.3855   -17084.112   -4284.9906 
     175   -4285.0055           15           15           15            0            0            0   -43953.302   -57093.856   -36231.445   -38534.605    8560.3837     8027.365   -16908.921   -4285.0055 
     176   -4285.0211           15           15           15            0            0            0   -44175.458   -57255.445   -36312.586   -38958.342    8479.5411    8007.2484   -16736.309   -4285.0211 
     177   -4285.0406           15           15           15            0            0            0   -44368.058   -57450.146   -36305.476   -39348.551    8460.1178    7999.4975   -16699.577   -4285.0406 
     178   -4285.0651           15           15           15            0            0            0   -44366.818   -57370.709   -36077.359   -39652.384    8405.6481    7930.9352   -16555.365   -4285.0651 
     179   -4285.0995           15           15           15            0            0            0   -44389.375   -57207.858   -35872.285   -40087.983    8466.8528    7868.4389   -16423.681   -4285.0995 
     180    -4285.151           15           15           15            0            0            0   -44089.266   -56608.733   -35099.342   -40559.724    8614.8656    7842.1305   -16154.369    -4285.151 
     181    -4285.223           15           15           15            0            0            0   -43931.514   -56141.835    -34495.31   -41157.396    8826.6366    7879.5966    -16027.09    -4285.223 
     182   -4285.3423           15           15           15            0            0            0   -43583.882   -55448.996   -33710.155   -41592.494    8897.9473     7957.531   -15795.449   -4285.3423 
     183   -4285.4976           15           15           15            0            0            0   -43468.548   -55041.679   -33542.818   -41821.147    9008.4229    8106.3587   -15679.064   -4285.4976 
     184   -4285.7443           15           15           15            0            0            0   -43187.387   -54262.879   -33666.448   -41632.834    9011.8249    8321.2425   -15259.646   -4285.7443 
     185   -4285.9181           15           15           15            0            0            0   -42764.025    -53445.36   -33758.047   -41088.669    9048.4884    8678.1012   -15250.004   -4285.9181 
     186   -4286.0769           15           15           15            0            0            0   -42027.681   -51853.789   -33758.629   -40470.626    8942.2353    9187.7318   -15028.533   -4286.0769 
     187   -4286.2099           15           15           15            0            0            0   -41889.587   -51706.074   -33570.011   -40392.677    8953.9056    9169.1435   -14864.994   -4286.2099 
     188   -4286.3123           15           15           15            0            0            0   -41645.917   -51878.206   -33161.852   -39897.692    9150.2948    9137.6367    -15089.45   -4286.3123 
     189   -4286.4511           15           15           15            0            0            0   -41026.252   -51369.972   -32602.199   -39106.585    9233.6055    9201.1796   -15262.583   -4286.4511 
     190   -4286.6358           15           15           15            0            0            0   -40199.421   -50524.365   -32213.787    -37860.11    9193.0728    9341.8031   -15238.343   -4286.6358 
     191   -4286.8052           15           15           15            0            0            0   -39369.753   -49574.369   -32113.222   -36421.668    9209.8586    9603.6131   -15175.311   -4286.8052 
     192   -4286.9735           15           15           15            0            0            0   -38867.846   -48740.933   -32059.832   -35802.774    9216.1762    9655.1019   -14937.386   -4286.9735 
     193   -4287.0932           15           15           15            0            0            0   -38731.214   -48579.235   -32076.964   -35537.444     9301.518    9476.9369   -14968.447   -4287.0932 
     194   -4287.2013           15           15           15            0            0            0    -38111.04   -47660.639   -31737.525   -34934.957    9251.3292    9369.4376   -15168.365   -4287.2013 
     195   -4287.2983           15           15           15            0            0            0   -37478.406   -47284.574   -31036.365   -34114.279    9092.1325    9268.9941   -15647.099   -4287.2983 
     196   -4287.3792           15           15           15            0            0            0   -36887.798   -46793.288   -30899.063   -32971.043    9027.0352    9217.7616   -15559.505   -4287.3792 
     197   -4287.4559           15           15           15            0            0            0    -36246.74   -45954.767   -30511.087   -32274.366    8891.9093    9036.6648   -15334.476   -4287.4559 
     198   -4287.5276           15           15           15            0            0            0   -35867.832   -45467.341   -30643.891   -31492.265    8752.4615    8969.5008   -15318.784   -4287.5276 
     199   -4287.5918           15           15           15            0            0            0   -35345.625   -45042.205   -30382.853   -30611.817    8731.6147    9011.2827   -15028.888   -4287.5918 
     200   -4287.6467           15           15           15            0            0            0   -34978.842   -44799.329    -30104.69   -30032.506    8803.1444    9048.6404   -14891.655   -4287.6467 
     201   -4287.6937           15           15           15            0            0            0   -34701.107   -44420.343   -30081.829   -29601.147    8736.2488    9237.1495   -14867.537   -4287.6937 
     202   -4287.7362           15           15           15            0            0            0    -34575.41   -44346.234   -30001.973   -29378.022    8608.0393    9332.0492    -14864.59   -4287.7362 
     203   -4287.7722           15           15           15            0            0            0   -34536.185   -44122.223   -30231.287   -29255.044    8586.1632    9250.6018   -14820.205   -4287.7722 
     204   -4287.8112           15           15           15            0            0            0    -34548.41   -44055.098   -30395.327   -29194.805    8621.6794    9281.9188   -14808.731   -4287.8112 
     205   -4287.8511           15           15           15            0            0            0   -34680.268   -44284.952   -30632.775   -29123.078    8643.7246    9244.0893   -14482.656   -4287.8511 
     206   -4287.8957           15           15           15            0            0            0   -34810.454   -44522.211   -30828.442   -29080.708    8852.7377    9226.2838   -14333.805   -4287.8957 
     207   -4287.9408           15           15           15            0            0            0   -34796.088   -44313.811   -31100.964   -28973.488    8970.7001    9150.7231   -14112.499   -4287.9408 
     208   -4287.9899           15           15           15            0            0            0   -34484.085   -43837.348   -31221.201   -28393.705    8955.8729    9122.1922   -13898.287   -4287.9899 
     209   -4288.0411           15           15           15            0            0            0   -34100.042   -42966.211   -31262.738   -28071.177    8879.9939    9180.8143   -13742.262   -4288.0411 
     210   -4288.1059           15           15           15            0            0            0   -33540.813   -41890.507   -31253.763   -27478.169    8698.2068     9136.518   -13491.971   -4288.1059 
     211   -4288.1879           15           15           15            0            0            0   -33137.633   -41059.854   -31513.484   -26839.561    8669.3205    9072.9204    -12984.94   -4288.1879 
     212   -4288.2768           15           15           15            0            0            0   -32725.261    -40040.26   -31594.038   -26541.487    8501.8566    9003.6968   -12481.295   -4288.2768 
     213   -4288.3395           15           15           15            0            0            0   -32619.246   -39709.166   -31477.965   -26670.607    8374.9737    8897.9734   -12466.134   -4288.3395 
     214    -4288.417           15           15           15            0            0            0   -32175.301   -38796.297   -31250.091   -26479.515    8277.6155    8588.6928   -12056.903    -4288.417 
     215   -4288.5314           15           15           15            0            0            0    -31536.08   -37600.393   -30832.357   -26175.491    8218.4985    8237.3065   -11673.715   -4288.5314 
     216   -4288.6321           15           15           15            0            0            0   -31062.378   -37031.878   -29997.022   -26158.235    8271.6061    7853.6933   -11306.333   -4288.6321 
     217   -4288.7455           15           15           15            0            0            0   -30421.429   -36512.381       -29281   -25470.905    8463.5673    7661.5472   -10570.551   -4288.7455 
     218   -4288.8891           15           15           15            0            0            0   -30152.704   -35907.654    -29332.47   -25217.987    8454.1427    7474.4332   -10018.408   -4288.8891 
     219   -4289.0459           15           15           15            0            0            0   -30388.956    -35789.77   -29888.164   -25488.933    8296.2136    7166.9681   -10021.772   -4289.0459 
     220   -4289.2065           15           15           15            0            0            0   -30719.426   -35607.165    -30651.84   -25899.274    8346.5263    7066.8835   -9581.2106   -4289.2065 
     221   -4289.3657           15           15           15            0            0            0   -30846.765    -35621.22   -30993.158   -25925.917    8841.4276    7207.0118   -8928.0101   -4289.3657 
     222   -4289.5354           15           15           15            0            0            0   -31080.111    -35736.77   -31603.036   -25900.526    9826.2142    6911.2967   -8358.5516   -4289.5354 
     223   -4289.7668           15           15           15            0            0            0   -31492.041   -35680.676   -32353.212   -26442.236    10235.647    6605.7093   -7906.5443   -4289.7668 
     224   -4289.8997           15           15           15            0            0            0   -31652.728   -35462.171   -32712.668   -26783.344    9692.6961     6755.034   -7880.1753   -4289.8997 
     225   -4289.9973           15           15           15            0            0            0   -31712.537   -35039.167    -32864.32   -27234.125    9312.4554     6801.382   -8118.5803   -4289.9973 
     226   -4290.1787           15           15           15            0            0            0    -31723.13    -34707.38   -32640.089    -27821.92     9492.151    6856.7592   -7798.6325   -4290.1787 
     227   -4290.3009           15           15           15            0            0            0   -31656.425   -34393.588   -32811.829   -27763.859    9705.2568    6758.3709   -7424.7281   -4290.3009 
     228   -4290.4039           15           15           15            0            0            0   -31689.969   -34264.204    -32723.39   -28082.313    9882.2161    6503.3833   -7148.4283   -4290.4039 
     229   -4290.5391           15           15           15            0            0            0   -32134.448   -34238.368   -33179.408   -28985.566    9716.0812    6259.8603   -6926.5959   -4290.5391 
     230   -4290.6909           15           15           15            0            0            0   -32576.457   -34083.122   -33777.843   -29868.405     9360.663    6215.8769   -6456.5441   -4290.6909 
     231   -4290.7523           15           15           15            0            0            0   -32646.803   -34028.664   -33724.674   -30187.072    9258.9601    6236.6789   -6376.1953   -4290.7523 
     232   -4290.8174           15           15           15            0            0            0   -32833.314   -33994.252   -33948.255   -30557.433    9259.6411    6029.9349   -6180.1028   -4290.8174 
     233   -4290.8914           15           15           15            0            0            0   -33213.016   -34459.474   -34075.074   -31104.498    9437.2362    5917.3041   -5687.6156   -4290.8914 
     234   -4291.0001           15           15           15            0            0            0   -33951.272   -34640.684   -35034.562   -32178.569    9468.6798    6047.5153   -4960.9855   -4291.0001 
     235   -4291.1268           15           15           15            0            0            0   -34743.127    -34665.77   -36161.848   -33401.762    9347.3675    5837.9462   -4715.7855   -4291.1268 
     236   -4291.2049           15           15           15            0            0            0    -35115.44   -34745.798   -36460.726   -34139.795    9495.3332    5704.3141   -4465.1963   -4291.2049 
     237   -4291.2545           15           15           15            0            0            0   -35135.223   -34571.602    -36545.13   -34288.936    9624.5688    5744.7136   -4325.2336   -4291.2545 
     238   -4291.2865           15           15           15            0            0            0    -34959.28   -34474.261    -36193.54   -34210.038    9817.1953    5803.0615   -4372.9091   -4291.2865 
     239   -4291.3358           15           15           15            0            0            0   -34872.028   -34228.598   -36200.635   -34186.851    10009.487    5923.3555   -4483.9282   -4291.3358 
     240   -4291.3764           15           15           15            0            0            0   -34936.727   -34354.626   -36336.812   -34118.744    9966.3045    6051.4765   -4771.1027   -4291.3764 
     241   -4291.4094           15           15           15            0            0            0   -34920.065   -34329.448    -36522.65   -33908.099    9839.3404     6212.511   -4782.4281   -4291.4094 
     242   -4291.4401           15           15           15            0            0            0   -34938.573   -34393.212   -36565.028   -33857.479    9766.2391    6425.9333   -4780.6327   -4291.4401 
     243   -4291.4679           15           15           15            0            0            0    -35006.46   -34450.194   -36618.555   -33950.632    9788.4449    6565.0048    -4734.013   -4291.4679 
     244   -4291.4939           15           15           15            0            0            0   -35064.529   -34537.737   -36743.935   -33911.916     9723.899      6755.71   -4797.9158   -4291.4939 
     245   -4291.5194           15           15           15            0            0            0   -35129.335   -34458.316   -36868.548    -34061.14      9527.91    6886.8488   -4764.2839   -4291.5194 
     246   -4291.5541           15           15           15            0            0            0   -35252.172   -34403.299   -37204.093   -34149.124    9408.1006    6907.7427   -4445.4211   -4291.5541 
     247   -4291.5881           15           15           15            0            0            0   -35378.986   -34356.215   -37419.414   -34361.329    9315.9833    6888.1502   -4308.6141   -4291.5881 
     248   -4291.6234           15           15           15            0            0            0   -35571.713   -34446.792   -37608.779   -34659.568    9270.1696    7067.4618   -4027.5324   -4291.6234 
     249   -4291.6536           15           15           15            0            0            0   -35642.894    -34506.15   -37779.286   -34643.246    9300.3335     7091.749   -3840.2448   -4291.6536 
     250   -4291.6781           15           15           15            0            0            0   -35762.756   -34559.484   -37939.912   -34788.871    9229.1634    7084.5728   -3721.3374   -4291.6781 
     251   -4291.6972           15           15           15            0            0            0   -35777.336   -34509.627    -37981.85   -34840.531    9319.3728     7139.426   -3665.8611   -4291.6972 
     252   -4291.7145           15           15           15            0            0            0   -35855.771   -34576.849   -37952.125   -35038.338    9271.9714    7195.2033    -3543.186   -4291.7145 
     253   -4291.7293           15           15           15            0            0            0   -35875.072   -34636.304    -37905.84   -35083.071    9109.0466     7210.602   -3402.0036   -4291.7293 
     254   -4291.7467           15           15           15            0            0            0    -35864.84   -34595.622   -37807.275   -35191.624    8890.0503    7147.3111   -3056.2635   -4291.7467 
     255   -4291.7663           15           15           15            0            0            0   -35792.091   -34514.037   -37653.782   -35208.456    8781.9091    7075.7996   -2918.2829   -4291.7663 
     256   -4291.8001           15           15           15            0            0            0   -35759.542   -34491.223   -37468.783   -35318.621    8572.9904    6782.8258   -2590.5366   -4291.8001 
     257   -4291.8575           15           15           15            0            0            0   -35733.593   -34446.189   -37369.884   -35384.707    8229.2848    6441.1858   -2075.7302   -4291.8575 
     258   -4291.9527           15           15           15            0            0            0    -35508.15    -34153.12   -37498.956   -34872.373    7881.9746    6140.5583   -1423.6828   -4291.9527 
     259   -4292.0101           15           15           15            0            0            0   -35490.007   -34005.396    -37627.07   -34837.556    7833.0933    5907.5901   -1025.4565   -4292.0101 
     260   -4292.0836           15           15           15            0            0            0   -35434.482   -33850.152   -37629.916   -34823.377     7952.798    5831.1988    -833.4704   -4292.0836 
     261   -4292.1737           15           15           15            0            0            0    -35302.35    -33437.62   -37805.968   -34663.461    7832.2151    5705.8078   -277.91875   -4292.1737 
     262   -4292.2493           15           15           15            0            0            0   -34914.671   -33095.835   -37623.201   -34024.977    7654.4467    5606.5764    65.619002   -4292.2493 
     263   -4292.3037           15           15           15            0            0            0    -34603.01   -32857.858   -37320.391   -33630.781    7419.2313    5457.8017    271.02815   -4292.3037 
     264   -4292.3528           15           15           15            0            0            0   -34293.203   -32650.109   -37008.563   -33220.936    7282.6752    5474.6542    70.972311   -4292.3528 
     265    -4292.403           15           15           15            0            0            0    -33964.01    -32287.48   -36772.086   -32832.464    7052.1757    5427.3219   -73.379431    -4292.403 
     266   -4292.4534           15           15           15            0            0            0     -33738.7   -32190.861   -36575.385   -32449.853    6680.6457     5209.381   -70.867964   -4292.4534 
     267   -4292.4954           15           15           15            0            0            0   -33509.549   -32297.347   -36271.416   -31959.884    6242.4086     5044.157     55.02558   -4292.4954 
     268   -4292.5309           15           15           15            0            0            0   -33306.505   -32264.873   -36027.251   -31627.392    5902.9016    5058.6887   -16.573487   -4292.5309 
     269   -4292.5676           15           15           15            0            0            0   -33145.387   -32270.113   -35836.071   -31329.977    5529.4492    4846.7225    -14.52882   -4292.5676 
     270   -4292.6008           15           15           15            0            0            0   -32972.285   -32023.157   -35870.021   -31023.679    5225.7351    4628.7154     129.1261   -4292.6008 
     271   -4292.6221           15           15           15            0            0            0   -32853.094   -31862.767   -35803.795   -30892.719    5131.7921    4512.0708    125.86809   -4292.6221 
     272     -4292.64           15           15           15            0            0            0   -32814.671   -31684.502   -35957.308   -30802.204     5086.282    4346.3366    55.437417     -4292.64 
     273   -4292.6563           15           15           15            0            0            0   -32715.276   -31551.818   -35781.814   -30812.196    5033.8946     4110.634    50.666554   -4292.6563 
     274   -4292.6713           15           15           15            0            0            0   -32501.199   -31297.819   -35593.583   -30612.196     4941.332    3957.2769    157.33783   -4292.6713 
     275   -4292.6845           15           15           15            0            0            0   -32293.982   -31059.191   -35430.526    -30392.23    4787.7354    3834.1121    257.43621   -4292.6845 
     276   -4292.6985           15           15           15            0            0            0   -32109.083   -30588.633    -35370.67   -30367.945    4755.9398    3570.0565    308.33096   -4292.6985 
     277   -4292.7117           15           15           15            0            0            0   -32034.429   -30313.635   -35280.211    -30509.44     4786.803    3278.8481    426.28385   -4292.7117 
     278   -4292.7243           15           15           15            0            0            0   -31894.452   -30014.594   -35249.878   -30418.884    4787.5131    3088.0763    463.85308   -4292.7243 
     279   -4292.7372           15           15           15            0            0            0   -31821.622   -29911.683   -35126.518   -30426.666    4772.0714    2898.4986    487.12689   -4292.7372 
     280   -4292.7507           15           15           15            0            0            0   -31790.379    -29883.32   -35026.448   -30461.367    4884.7651     2687.169    426.04338   -4292.7507 
     281   -4292.7671           15           15           15            0            0            0   -31717.283   -29738.199    -34937.84   -30475.808    5015.6749    2421.8942    399.94804   -4292.7671 
     282   -4292.7855           15           15           15            0            0            0   -31623.983   -29417.212   -34996.822   -30457.915    5127.1111    2116.6269    394.74743   -4292.7855 
     283   -4292.8029           15           15           15            0            0            0   -31620.735   -29301.661   -35020.913    -30539.63    5258.2348    1822.8157    395.56965   -4292.8029 
     284   -4292.8222           15           15           15            0            0            0   -31549.695   -29296.757   -34906.115   -30446.213    5588.5115    1696.5425    292.88587   -4292.8222 
     285   -4292.8431           15           15           15            0            0            0   -31442.485   -29220.328   -34762.227   -30344.901    5898.2647    1572.0448    312.42154   -4292.8431 
     286   -4292.8624           15           15           15            0            0            0   -31338.499    -29091.45   -34696.803   -30227.243    6038.8906    1410.4972     249.9203   -4292.8624 
     287   -4292.8786           15           15           15            0            0            0   -31208.003     -28999.5   -34687.423   -29937.086    6105.3516    1251.8051    217.27617   -4292.8786 
     288   -4292.8915           15           15           15            0            0            0   -31065.436   -28933.013   -34594.212   -29669.084    6181.5816    1205.7607    148.85446   -4292.8915 
     289   -4292.9023           15           15           15            0            0            0   -30904.244   -28843.411   -34450.705   -29418.614    6198.6986    1132.9016    197.46871   -4292.9023 
     290   -4292.9113           15           15           15            0            0            0   -30758.639   -28812.661   -34291.975    -29171.28    6170.3374    1088.3837     210.3484   -4292.9113 
     291   -4292.9187           15           15           15            0            0            0   -30603.068   -28704.266   -34148.108    -28956.83     6145.315     1019.653    235.43029   -4292.9187 
     292   -4292.9245           15           15           15            0            0            0   -30480.019   -28651.496   -34045.348   -28743.213    6157.9163    993.12235    225.24646   -4292.9245 
     293   -4292.9296           15           15           15            0            0            0   -30418.847   -28676.135   -33956.596   -28623.809    6128.0781    920.12707    261.00634   -4292.9296 
     294   -4292.9337           15           15           15            0            0            0   -30384.638   -28724.156   -33868.203   -28561.555    6126.2691     864.8598    308.95744   -4292.9337 
     295   -4292.9372           15           15           15            0            0            0   -30351.389   -28729.649   -33814.553   -28509.966    6116.2405    771.80872    395.27748   -4292.9372 
     296   -4292.9404           15           15           15            0            0            0   -30347.395   -28749.232   -33853.084   -28439.867    6096.0694    736.80125    407.01898   -4292.9404 
     297   -4292.9435           15           15           15            0            0            0   -30387.084   -28785.678   -33908.932   -28466.642    6076.3965    703.10711    452.30554   -4292.9435 
     298   -4292.9465           15           15           15            0            0            0   -30418.312   -28804.478   -33978.658   -28471.801    6117.0673    654.34237    478.56644   -4292.9465 
     299   -4292.9496           15           15           15            0            0            0   -30457.022   -28847.705   -34008.212   -28515.149    6131.0579    643.53254    510.18327   -4292.9496 
     300   -4292.9526           15           15           15            0            0            0   -30488.924   -28823.725   -34086.843   -28556.202    6142.6836    668.45371    520.10617   -4292.9526 
     301   -4292.9556           15           15           15            0            0            0   -30514.449   -28785.542   -34122.931   -28634.876    6131.4886    693.18521    567.63574   -4292.9556 
     302   -4292.9584           15           15           15            0            0            0   -30500.478   -28684.505   -34202.451   -28614.477    6107.6341    708.18372    584.03966   -4292.9584 
     303   -4292.9618           15           15           15            0            0            0   -30488.041    -28604.21   -34295.615   -28564.297    6051.9472    695.25041    615.31349   -4292.9618 
     304   -4292.9657           15           15           15            0            0            0   -30470.287   -28495.946   -34470.918   -28443.996    6034.6139    734.14837    603.95326   -4292.9657 
     305   -4292.9715           15           15           15            0            0            0   -30457.316   -28387.072    -34646.86   -28338.018    6016.7249    823.88951    626.03057   -4292.9715 
     306   -4292.9798           15           15           15            0            0            0   -30465.807   -28293.029   -35031.179   -28073.215    5986.6401    942.93094    648.49649   -4292.9798 
     307   -4292.9924           15           15           15            0            0            0   -30540.226   -28348.159    -35414.31   -27858.209    5898.1801    1057.8629    675.55058   -4292.9924 
     308   -4293.0199           15           15           15            0            0            0   -30634.259    -28541.98   -35661.493   -27699.303    5872.7931    1205.4257    661.83906   -4293.0199 
     309   -4293.0507           15           15           15            0            0            0   -30620.699   -28603.033   -35876.363   -27382.699    5868.8693    1273.2835    743.72851   -4293.0507 
     310   -4293.0634           15           15           15            0            0            0   -30588.901   -28640.281   -35905.528   -27220.894    5882.9927    1332.8751    718.35335   -4293.0634 
     311   -4293.0784           15           15           15            0            0            0   -30511.696   -28648.168   -35752.439   -27134.482    5876.1067    1406.4989    610.68279   -4293.0784 
     312   -4293.1143           15           15           15            0            0            0   -30108.339   -28469.267   -35356.428   -26499.322     5843.916    1367.8343    446.09628   -4293.1143 
     313   -4293.1402           15           15           15            0            0            0   -29918.692   -28474.834   -35109.695   -26171.546    5984.9702    1389.7918    293.57855   -4293.1402 
     314   -4293.1651           15           15           15            0            0            0   -29888.318   -28693.198    -34938.91   -26032.845    6212.9453    1453.5454    202.00215   -4293.1651 
     315   -4293.1874           15           15           15            0            0            0   -29834.287   -28926.737   -34877.913   -25698.211    6407.8385    1448.4166    6.3689714   -4293.1874 
     316   -4293.2086           15           15           15            0            0            0   -29751.244   -29087.958   -34786.834    -25378.94    6471.2083    1392.4041   -147.81477   -4293.2086 
     317   -4293.2236           15           15           15            0            0            0   -29642.508    -29204.48   -34697.091   -25025.954    6561.7193    1447.0785   -229.79675   -4293.2236 
     318   -4293.2337           15           15           15            0            0            0   -29543.101   -29266.046   -34612.887   -24750.369    6615.7747    1472.6178   -272.31819   -4293.2337 
     319   -4293.2428           15           15           15            0            0            0   -29370.669   -29254.772   -34566.565   -24290.669    6617.1998    1472.4839   -384.36861   -4293.2428 
     320   -4293.2505           15           15           15            0            0            0   -29220.321   -29313.003   -34419.805   -23928.156    6599.9557    1399.4441   -470.92101   -4293.2505 
     321    -4293.258           15           15           15            0            0            0   -29078.166   -29263.658   -34328.808   -23642.032     6627.089    1335.0691   -545.10238    -4293.258 
     322   -4293.2643           15           15           15            0            0            0   -29077.007   -29278.184    -34319.33   -23633.506    6649.4027    1409.1102   -591.82945   -4293.2643 
     323   -4293.2691           15           15           15            0            0            0   -29074.199   -29318.592   -34348.067   -23555.937    6734.6003    1424.8973   -705.96121   -4293.2691 
     324   -4293.2727           15           15           15            0            0            0   -29111.044   -29378.177   -34449.741   -23505.213    6793.0349    1406.8426   -765.34459   -4293.2727 
     325    -4293.277           15           15           15            0            0            0   -29204.839   -29449.377   -34612.414   -23552.726    6810.4904    1406.3909    -830.2727    -4293.277 
     326   -4293.2814           15           15           15            0            0            0   -29300.595   -29627.915   -34779.211    -23494.66    6853.4159    1460.6249   -879.82306   -4293.2814 
     327   -4293.2852           15           15           15            0            0            0   -29386.432    -29740.87   -34935.144    -23483.28    6938.1703    1508.9834   -894.37229   -4293.2852 
     328   -4293.2884           15           15           15            0            0            0   -29448.897   -29835.976   -34996.612   -23514.102    6998.4958    1497.2975   -909.98658   -4293.2884 
     329   -4293.2908           15           15           15            0            0            0   -29516.796   -29933.734   -35105.521   -23511.132    7014.5712    1487.5386   -913.10547   -4293.2908 
     330   -4293.2928           15           15           15            0            0            0   -29534.451   -29939.616   -35074.797   -23588.939    7036.2867    1503.9233   -919.40343   -4293.2928 
     331   -4293.2948 