# ['Ni']

28 atoms
1 atom types

    0.0000     2.2694 xlo xhi
    0.0000     3.9306 ylo yhi
    0.0000    25.9409 zlo zhi

    0.0000     0.0000     0.0000 xy xz yz

Atoms

1 1     0.0000     0.0000     0.0000
2 1     1.1347     1.9653     0.0000
3 1     1.1347     0.6551     1.8529
4 1     0.0000     2.6204     1.8529
5 1     0.0000     1.3102     3.7058
6 1     1.1347     3.2755     3.7058
7 1     0.0000     0.0000     5.5588
8 1     1.1347     1.9653     5.5588
9 1     1.1347     0.6551     7.4117
10 1     0.0000     2.6204     7.4117
11 1     0.0000     1.3102     9.2646
12 1     1.1347     3.2755     9.2646
13 1     0.0000     0.0000    11.1175
14 1     1.1347     1.9653    11.1175
15 1     0.0000     1.3102    12.9705
16 1     1.1347     3.2755    12.9705
17 1     0.0000     0.0000    14.8234
18 1     1.1347     1.9653    14.8234
19 1     1.1347     0.6551    16.6763
20 1     0.0000     2.6204    16.6763
21 1     0.0000     1.3102    18.5292
22 1     1.1347     3.2755    18.5292
23 1     0.0000     0.0000    20.3822
24 1     1.1347     1.9653    20.3822
25 1     1.1347     0.6551    22.2351
26 1     0.0000     2.6204    22.2351
27 1     0.0000     1.3102    24.0880
28 1     1.1347     3.2755    24.0880
