LAMMPS (10 Feb 2015)
# ---- initialize simulations
clear
units metal
dimension 3
boundary p p p
atom_style charge
atom_modify map array
# ---- create atoms
read_data /Users/eugeneragasa/pyflamestk_git/pypospack/tests/tests_integration/workflow/WorkflowLammpsThermalExpansion/MgO_NaCl_unit.npt.T1400/lammps.structure
  triclinic box = (0 0 0) to (4.2565 4.2565 4.2565) with tilt (0 0 0)
  1 by 1 by 1 MPI processor grid
  reading atoms ...
  8 atoms
# ---- define interatomic potential
include potential.mod
mass 1 24.305
mass 2 15.999

group Mg type 1
4 atoms in group Mg
group O type 2
4 atoms in group O

set group Mg charge 1.7
  4 settings made for charge
set group O charge -1.7
  4 settings made for charge

variable R_cut equal 10.0

pair_style buck/coul/long ${R_cut}
pair_style buck/coul/long 10
pair_coeff 1 1 0.0 0.5 0.0 ${R_cut}
pair_coeff 1 1 0.0 0.5 0.0 10
pair_coeff 1 2 929.69 0.29909 0.0 ${R_cut}
pair_coeff 1 2 929.69 0.29909 0.0 10
pair_coeff 2 2 4870 0.2679 77 ${R_cut}
pair_coeff 2 2 4870 0.2679 77 10

kspace_style pppm 1.0e-5

neighbor 1.0 bin
neigh_modify every 1 delay 0 check yes
# ---- define settings
compute eng all pe/atom
compute eatoms all reduce sum c_eng
# ---- run minimization
reset_timestep 0
fix 1 all box/relax iso 0.0 vmax 0.001
thermo 10
thermo_style custom step pe lx ly lz xy xz yz press pxx pyy pzz pxy pxz pyz c_eatoms
min_style cg
minimize 1e-25 1e-25 5000 10000
PPPM initialization ...
  G vector (1/distance) = 0.353152
  grid = 8 8 8
  stencil order = 5
  estimated absolute RMS force accuracy = 4.10333e-05
  estimated relative force accuracy = 2.84961e-06
  using double precision FFTs
  3d grid and FFT values/proc = 3375 512
Neighbor list info ...
  1 neighbor list requests
  update every 1 steps, delay 0 steps, check yes
  master list distance cutoff = 11
Memory usage per processor = 4.06549 Mbytes
Step PotEng Lx Ly Lz Xy Xz Yz Press Pxx Pyy Pzz Pxy Pxz Pyz eatoms 
       0   -119.82944       4.2565       4.2565       4.2565            0            0            0   -43102.631   -43102.631   -43102.631   -43102.631 -1.1410716e-10 2.0651384e-11 1.0044018e-10   -119.82944 
       9    -119.8549     4.222448     4.222448     4.222448            0            0            0   -490.28356   -490.28356   -490.28356   -490.28356 -3.7927136e-11 -7.2182599e-11 3.2130495e-11    -119.8549 
Loop time of 0.209452 on 1 procs for 9 steps with 8 atoms

Minimization stats:
  Stopping criterion = linesearch alpha is zero
  Energy initial, next-to-last, final = 
        -119.829437963     -119.854898204     -119.854898204
  Force two-norm initial, final = 6.22404 0.0696885
  Force max component initial, final = 6.22404 0.069669
  Final line search alpha, max atom move = 1.75215e-06 1.2207e-07
  Iterations, force evaluations = 9 35

Pair  time (%) = 0.0142016 (6.78037)
Kspce time (%) = 0.0958853 (45.7791)
Neigh time (%) = 0 (0)
Comm  time (%) = 0.000666618 (0.318268)
Outpt time (%) = 0 (0)
Other time (%) = 0.0986986 (47.1223)

Nlocal:    8 ave 8 max 8 min
Histogram: 1 0 0 0 0 0 0 0 0 0
Nghost:    2189 ave 2189 max 2189 min
Histogram: 1 0 0 0 0 0 0 0 0 0
Neighs:    2344 ave 2344 max 2344 min
Histogram: 1 0 0 0 0 0 0 0 0 0

Total # of neighbors = 2344
Ave neighs/atom = 293
Neighbor list builds = 0
Dangerous builds = 0
unfix 1
# ---- define output variables ----
variable natoms equal "count(all)"
variable tot_energy equal "c_eatoms"
variable length_x equal "lx"
variable length_y equal "ly"
variable length_z equal "lz"
variable tilt_xy equal "xy"
variable tilt_xz equal "xz"
variable tilt_yz equal "yz"
variable tot_press equal "press"
variable press_xx equal "pxx"
variable press_yy equal "pyy"
variable press_zz equal "pzz"
variable press_xy equal "pxy"
variable press_xz equal "pxz"
variable press_yz equal "pyz"

# ---- output ----
print "pypospack:output_section:begin"
pypospack:output_section:begin
print "tot_energy = ${tot_energy}"
tot_energy = -119.854898204259
print "num_atoms = ${natoms}"
num_atoms = 8
print "xx = ${length_x}"
xx = 4.222448
print "yy = ${length_y}"
yy = 4.222448
print "zz = ${length_z}"
zz = 4.222448
print "xy = ${tilt_xy}"
xy = 0
print "xz = ${tilt_xz}"
xz = 0
print "yz = ${tilt_yz}"
yz = 0
print "tot_press = ${tot_press}"
tot_press = -490.283556338482
print "pxx = ${press_xx}"
pxx = -490.283556338668
print "pyy = ${press_yy}"
pyy = -490.283556338614
print "pzz = ${press_zz}"
pzz = -490.283556338163
print "pxy = ${press_xy}"
pxy = -3.79271362347293e-11
print "pxz = ${press_xz}"
pxz = -7.2182599384956e-11
print "pyz = ${press_yz}"
pyz = 3.21304951944417e-11
print "pypospack:output_section:done"
pypospack:output_section:done
print "pypospack:lammps_sim:done"
pypospack:lammps_sim:done
#------------------------------------------------------------------------------
# RUN THERMOSTAT
# running using an NPT Nose-Hoover style thermostat
#------------------------------------------------------------------------------
variable tempdamp equal 0.1
variable pressdamp equal 1.0
# set initial velocities
velocity all create 1400 4065415 mom yes dist gaussian loop all
# fix for Nose-Hoover style thermostat
fix 20 all npt temp 1400 1400 0.1 aniso 0.0 0.0 1.0 drag 1.0 couple xyz
variable boxx equal lx
variable boxy equal ly
variable boxz equal lz
variable boxp equal press
variable boxt equal temp
# calculate averages every 10000 steps
reset_timestep 0
fix 21 all ave/time 10 10 100 v_boxx v_boxy v_boxz v_boxp v_boxt file lattice.out
thermo_style custom step temp pe ke etotal press lx ly lz press pxx pyy pzz pxy pxz pyz vol
thermo_modify flush yes
thermo 100
run 100000
PPPM initialization ...
  G vector (1/distance) = 0.353501
  grid = 8 8 8
  stencil order = 5
  estimated absolute RMS force accuracy = 4.03791e-05
  estimated relative force accuracy = 2.80417e-06
  using double precision FFTs
  3d grid and FFT values/proc = 3375 512
Memory usage per processor = 3.06549 Mbytes
Step Temp PotEng KinEng TotEng Press Lx Ly Lz Press Pxx Pyy Pzz Pxy Pxz Pyz Volume 
       0         1400    -119.8549    1.2667494   -118.58815    17482.988     4.222448     4.222448     4.222448    17482.988     4780.039    25980.112    21688.813    -2374.113    -2847.864    9096.9093    75.282309 
     100    454.10632   -118.83316   0.41088494   -118.42227    30242.081    4.2522434    4.2522434    4.2522434    30242.081    5123.6663     30170.54    55432.037   -2644.9919    4320.9359    825.72488    76.887255 
     200    806.23208   -118.80964   0.72949573   -118.08015   -51153.219    4.2896452    4.2896452    4.2896452   -51153.219   -47742.685   -60380.976   -45335.997   -6118.4098   -14519.796    1477.9001    78.934001 
     300    979.25459   -118.66161   0.88605014   -117.77556    2893.3338    4.2724399    4.2724399    4.2724399    2893.3338   -16736.247    30349.376   -4933.1276   -7918.6238    8079.7009   -17526.282    77.988019 
     400    1993.8818   -119.33211    1.8041061     -117.528    6610.9349    4.2590087    4.2590087    4.2590087    6610.9349   -21220.834    33998.758    7054.8813   -642.68634   -6812.3374   -11166.202    77.254821 
     500    1210.1663   -118.49485    1.0949839   -117.39987   -29978.336    4.2918994    4.2918994    4.2918994   -29978.336   -18450.707   -30519.282   -40965.018    2163.2633    3233.7988   -9881.2796    79.058504 
     600    1100.2584   -118.29546   0.99553696   -117.29992   -34516.466    4.2953146    4.2953146    4.2953146   -34516.466    70.554956   -45193.947   -58426.006    11470.767    765.10923   -33685.478    79.247382 
     700    1535.3811   -118.64167    1.3892451   -117.25243    20828.217    4.2621347    4.2621347    4.2621347    20828.217   -33430.935    23794.698    72120.888     15000.66   -4357.6323    24817.143    77.425052 
     800     1447.747   -118.60075    1.3099519   -117.29079    15013.981    4.2796314    4.2796314    4.2796314    15013.981   -14800.917    61318.436    -1475.577    22025.652   -8598.1898   -15523.987    78.382495 
     900    1748.0433   -118.87719    1.5816663   -117.29553   -30196.548    4.3004207    4.3004207    4.3004207   -30196.548   -34392.725    -58623.76    2426.8405     7181.551    8376.5112    6049.8596     79.53034 
    1000    1304.2753   -118.46029    1.1801357   -117.28015   -799.97927    4.2784367    4.2784367    4.2784367   -799.97927   -10849.321    9174.0488   -724.66546    6267.5497    13197.573   -12914.149    78.316871 
    1100    1085.5392   -118.25267   0.98221871   -117.27045    31983.646    4.2655128    4.2655128    4.2655128    31983.646   -3661.4896    76296.845    23315.581     10288.86    4173.2234   -24132.423    77.609296 
    1200    1680.5784   -118.80906    1.5206227   -117.28844    1627.8361    4.2863481    4.2863481    4.2863481    1627.8361   -27618.866   -12312.451    44814.826    10884.146    3824.1027    8076.7106    78.752133 
    1300    1713.7478   -118.82529     1.550635   -117.27466   -27424.961    4.2997909    4.2997909    4.2997909   -27424.961   -53557.922     -29002.8    285.83789    6961.8202    12816.804   -7178.6731      79.4954 
    1400     972.2694   -118.14388   0.87972979   -117.26415    33142.785    4.2747529    4.2747529    4.2747529    33142.785     1342.584    90037.491    8048.2809   -1075.7929    6015.6039   -24086.681    78.114752 
    1500     1684.491   -118.78219    1.5241628   -117.25803        16236    4.2655827    4.2655827    4.2655827        16236    1815.5182    22325.491     24566.99    1592.3399   -4877.1472   -5481.2799    77.613111 
    1600    968.19689   -118.17061   0.87604489   -117.29457    -11042.16    4.2961852    4.2961852    4.2961852    -11042.16   -49029.821    32340.159   -16436.817   -5973.1501    15815.371   -15157.016    79.295583 
    1700    1797.6732   -118.91161    1.6265725   -117.28504   -28782.012    4.2969553    4.2969553    4.2969553   -28782.012   -46183.703   -8001.5046   -32160.828   -15394.952   -11290.923    13850.254    79.338232 
    1800    1419.7086   -118.56414    1.2845822   -117.27956    12695.646    4.2746378    4.2746378    4.2746378    12695.646   -14214.513      14944.1    37357.353   -12827.549    561.31652    11531.589    78.108439 
    1900    1252.2531   -118.42623    1.1330649   -117.29317    3250.2643    4.2774679    4.2774679    4.2774679    3250.2643   -20380.911    38009.305   -7877.6015   -13518.211    12578.693     -5078.59    78.263682 
    2000    1788.3019   -118.90584    1.6180931   -117.28775   -2895.9155     4.282225     4.282225     4.282225   -2895.9155   -39415.815   -10212.058    40940.127   -21071.969   -6576.7007    27683.078    78.525091 
    2100    1167.0187   -118.34714     1.055943   -117.29119    20004.682    4.2840739    4.2840739    4.2840739    20004.682   -29233.306    55552.199    33695.154   -12252.816    188.43268    486.55401    78.626846 
    2200    1499.2921    -118.6443     1.356591   -117.28771   -18833.649    4.2898533    4.2898533    4.2898533   -18833.649   -39907.126   -896.93985   -15696.881   -6620.7827   -6612.6426   -1059.2333    78.945491 
    2300    1808.9544   -118.91639    1.6367799   -117.27961   -2012.3375    4.2780278    4.2780278    4.2780278   -2012.3375   -34614.529    3757.7721    24819.744   -6813.2746    1272.0083   -6543.1579    78.294422 
    2400    1101.0422   -118.28603   0.99624609   -117.28978    18875.182    4.2838581    4.2838581    4.2838581    18875.182   -19134.556     62089.14    13670.962    -8229.067   -13148.854   -46743.875    78.614967 
    2500    1385.5296   -118.54326    1.2536563    -117.2896   -32484.661    4.2871646    4.2871646    4.2871646   -32484.661   -38453.912    754.32242   -59754.394    6596.1101   -35094.235    11148.075    78.797141 
    2600    1219.8481   -118.38441    1.1037442   -117.28067   -10070.058    4.2757517    4.2757517    4.2757517   -10070.058   -12109.897   -14142.943   -3957.3342    10442.853    3488.9726    2364.9638    78.169516 
    2700    1043.8487   -118.23171   0.94449627   -117.28721    4220.5277    4.2842776    4.2842776    4.2842776    4220.5277   -89.264776   -60467.224    73218.072    143.07972   -6902.4942   -28105.084    78.638062 
    2800    2011.6536   -119.08925    1.8201864   -117.26906   -28906.563    4.2850364    4.2850364    4.2850364   -28906.563    -45907.66    -27672.91   -13139.119    10305.292   -6793.2259    14819.088    78.679856 
    2900     1450.917   -118.58076    1.3128202   -117.26794    23844.804    4.2753733    4.2753733    4.2753733    23844.804    -26803.69   -5810.4912    104148.59    14569.989    4952.8144   -6181.3882    78.148766 
    3000    1361.5954    -118.5261    1.2320001    -117.2941   -15836.928    4.2900132    4.2900132    4.2900132   -15836.928   -29407.191    -13773.73   -4329.8637    8855.9373    7411.1777    11919.398    78.954316 
    3100    1430.8802   -118.59441    1.2946904   -117.29972   -29302.493    4.2888086    4.2888086    4.2888086   -29302.493   -17629.303   -26170.075   -44108.101    10740.803   -2979.6327    31438.641    78.887828 
    3200    1581.0479   -118.71624    1.4305654   -117.28568    8799.3287    4.2723907    4.2723907    4.2723907    8799.3287   -5548.8273    36898.234   -4951.4203    12979.175   -14534.791    -26874.61    77.985325 
    3300    1252.7522   -118.43563    1.1335165   -117.30211   -11548.861    4.2881213    4.2881213    4.2881213   -11548.861   -35978.817   -1728.3059     3060.539    6276.0875    7023.9657    24244.206    78.849909 
    3400    1770.7681   -118.89109    1.6022282   -117.28886   -19296.131    4.2850914    4.2850914    4.2850914   -19296.131   -36372.532    1756.4914   -23272.351    3399.2076    7912.0001   -6876.3117    78.682881 
    3500    1182.9688   -118.35485     1.070375   -117.28447    60615.322     4.272573     4.272573     4.272573    60615.322    24975.863    80510.011    76360.091    2026.2905    2872.7972    6032.4347    77.995308 
    3600     1490.772    -118.6472    1.3488818   -117.29832   -14488.918    4.3037065    4.3037065    4.3037065   -14488.918   -51375.672   -19746.774    27655.691   -14700.534     2294.411   -11847.536    79.712777 
    3700    1036.4277   -118.22093   0.93778158   -117.28315   -7256.4336    4.3033992    4.3033992    4.3033992   -7256.4336   -34491.857    6939.0591    5783.4975   -26159.534    16437.338   -9423.8604    79.695704 
    3800    1513.8422   -118.63074    1.3697562   -117.26099    36991.557    4.2668503    4.2668503    4.2668503    36991.557    7886.5035    39135.383    63952.783   -24794.241    5958.3731    -4660.574    77.682325 
    3900    1370.3153   -118.53836    1.2398901   -117.29847    -2974.618    4.2789039    4.2789039    4.2789039    -2974.618    8617.6283    26667.031   -44208.513   -13226.555    19693.652    11787.345    78.342533 
    4000    1033.9931   -118.22963   0.93557869   -117.29405   -32610.865    4.2984247    4.2984247    4.2984247   -32610.865   -11240.355   -37101.474   -49490.766    9668.9797    18764.318    17959.608     79.41965 
    4100     1134.224   -118.30237    1.0262697    -117.2761    18909.164    4.2758257    4.2758257    4.2758257    18909.164   -13487.432    36472.613     33742.31     21004.48   -3605.6309   -12560.438    78.173579 
    4200     1806.758   -118.92137    1.6347926   -117.28658   -6522.2932    4.2779406    4.2779406    4.2779406   -6522.2932   -30521.563   -1793.4639    12748.147    12509.343     4275.589   -8520.8254    78.289634 
    4300    1828.4415   -118.94774    1.6544123   -117.29333    1644.3217    4.2961867    4.2961867    4.2961867    1644.3217   -15890.549   -6504.2751    27327.789    3483.9158   -4046.5903     -7210.19    79.295662 
    4400    1297.8528   -118.45692    1.1743245    -117.2826   -3070.1324     4.297189     4.297189     4.297189   -3070.1324   -2014.3085   -33113.922    25917.834    14057.394    2729.3293    -2590.953    79.351178 
    4500    583.98643   -117.81535    0.5284032   -117.28695   -9754.0558    4.2881971    4.2881971    4.2881971   -9754.0558   -10878.114   -1106.2402   -17277.814    15588.749   -10886.732   -3221.7861     78.85409 
    4600    2096.1685   -119.16953    1.8966574   -117.27287   -80.559366    4.2709967    4.2709967    4.2709967   -80.559366   -4646.5598    -6528.825    10933.707   -1353.4244    1548.3277    25899.115    77.909012 
    4700    1385.4544    -118.5578    1.2535883   -117.30421    19278.339    4.2836145    4.2836145    4.2836145    19278.339     27527.65    -21329.54    51636.906    3095.1128   -675.54197    2986.2913    78.601556 
    4800    1471.4843   -118.62671    1.3314299   -117.29528   -40535.382    4.3069954    4.3069954    4.3069954   -40535.382   -29478.938   -65679.938   -26447.269    9815.9781    18882.055   -495.45123    79.895668 
    4900    707.61795   -117.92126    0.6402676   -117.28099    36761.859    4.2892055    4.2892055    4.2892055    36761.859    49457.651   -4799.8357    65627.762    17594.666    27703.665   -28689.116    78.909733 
    5000    2134.4492   -119.19305    1.9312945   -117.26176     6270.077    4.2623694    4.2623694    4.2623694     6270.077    15299.073   -20569.004    24080.162    1918.8926    3318.0937   -23299.418    77.437847 
    5100    1290.7833   -118.47131    1.1679279   -117.30338    32107.206    4.2811065    4.2811065    4.2811065    32107.206    36447.067    -8614.599    68489.149    5912.2955     26473.52   -23.334086    78.463576 
    5200    958.00577   -118.17068   0.86682375   -117.30386   -35217.154    4.3127603    4.3127603    4.3127603   -35217.154   -8114.7165   -49195.034   -48341.713   -715.53456    538.15044    14589.868    80.216915 
    5300    1040.9033   -118.22751   0.94183122   -117.28568   -22622.309    4.2904178    4.2904178    4.2904178   -22622.309   -17184.036   -12950.323   -37732.567   -4324.9667    11769.711    3100.7752    78.976657 
    5400    1850.4647   -118.92887    1.6743393   -117.25453    43075.134    4.2488254    4.2488254    4.2488254    43075.134    47837.162   0.37240461    81387.868   -9215.9831   -1504.4414    11939.646    76.701996 
    5500    1324.6997   -118.52866    1.1986161   -117.33005    9892.3095    4.2814558    4.2814558    4.2814558    9892.3095     3854.265   -17849.731    43672.394    5819.7032    2762.0411    13044.101    78.482785 
    5600    1268.7845   -118.44379    1.1480229   -117.29577   -42313.775    4.3137986    4.3137986    4.3137986   -42313.775   -56768.661   -30625.988   -39546.676   -12027.857    16534.594   -4928.0552    80.274865 
    5700    1079.6147   -118.24767   0.97685807   -117.27081    29585.227    4.2777505    4.2777505    4.2777505    29585.227    39857.057   -3884.8732    52783.497   -8287.1349    -4824.621    -10597.94    78.279194 
    5800    1925.1962   -119.02047     1.741958   -117.27851   -3523.8192    4.2724104    4.2724104    4.2724104   -3523.8192   -23561.507   -44266.955    57257.004   -1638.3716    18416.564   -766.17779    77.986405 
    5900    1253.7893   -118.42956    1.1344549   -117.29511    10987.897    4.2873502    4.2873502    4.2873502    10987.897   -24473.267   -16474.513    73911.472    2263.8921   -20124.086    5498.8244     78.80738 
    6000    1458.3319   -118.61173    1.3195294    -117.2922   -15910.664    4.2973251    4.2973251    4.2973251   -15910.664    307.23172   -44501.969   -3537.2556   -3967.6363    8423.2073    9184.4753    79.358717 
    6100    1010.6279   -118.19565   0.91443732   -117.28121   -46242.452    4.2991803    4.2991803    4.2991803   -46242.452   -49195.985   -49664.147   -39867.226    3818.7504   -1736.7342    23716.748     79.46154 
    6200    1024.2705   -118.19702    0.9267815   -117.27024     6407.013     4.254669     4.254669     4.254669     6407.013     -43700.8   -4907.4263    67829.265    5173.7894   -21320.327    12350.349    77.018905 
    6300     1923.984   -119.05152    1.7408611   -117.31066    22677.262     4.257841     4.257841     4.257841    22677.262    22868.939   -28205.683    73368.531   -9671.5362   -19866.599    16537.825    77.191296 
    6400    1336.4102   -118.53018    1.2092121   -117.32097    -27608.23    4.3097258    4.3097258    4.3097258    -27608.23   -16610.048   -69326.051    3111.4084    2228.7968    13901.304   -522.07566    80.047713 
    6500    1214.2528   -118.38346    1.0986815   -117.28478    9357.5962    4.2923062    4.2923062    4.2923062    9357.5962   -1739.9784   -34762.925    64575.692    4074.6524    23568.199    1211.2269    79.080988 
    6600    1504.5624   -118.63652    1.3613596   -117.27516    17011.797     4.267988     4.267988     4.267988    17011.797    31800.881   -31787.419     51021.93   -239.96066   -2465.9295    3783.6299    77.744483 
    6700    1710.0125   -118.84777    1.5472553   -117.30051    14240.114    4.2641064    4.2641064    4.2641064    14240.114   -9868.2592   -18483.038    71071.639    1274.8446   -4449.1656   -1466.5296    77.532554 
    6800    1561.6518   -118.73819    1.4130154   -117.32517    5742.2961     4.279582     4.279582     4.279582    5742.2961    44170.719   -26111.945   -831.88551    788.19661   -1043.0082    218.78842    78.379783 
    6900    1546.8275   -118.72413    1.3996021   -117.32452   -23412.095    4.2970857    4.2970857    4.2970857   -23412.095   -8129.8541   -63657.618    1551.1858   -832.23687    7478.9328    2674.2287    79.345451 
    7000    1349.8129   -118.53048    1.2213391   -117.30914   -242.42837    4.2738515    4.2738515    4.2738515   -242.42837   -17638.073   -40655.084    57565.872   -2414.5996    3925.4086   -23187.516    78.065346 
    7100    1440.1613   -118.59943    1.3030882   -117.29634    12095.571    4.2475943    4.2475943    4.2475943    12095.571      18172.8   -17331.412    35445.325    3089.3541     3212.114   -9108.8832    76.635338 
    7200    1345.6264   -118.55177     1.217551   -117.33422   -10247.764    4.2837083    4.2837083    4.2837083   -10247.764   -32191.875   -55800.141    57248.724    1379.7065   -16920.229     12909.92    78.606717 
    7300    1576.5559   -118.72891    1.4265009   -117.30241   -30203.575    4.2997022    4.2997022    4.2997022   -30203.575    -40528.07   -65927.046     15844.39    -5926.356    1694.8413    5659.4536    79.490481 
    7400    1540.4241   -118.67315    1.3938081   -117.27934   -7379.1933    4.2726211    4.2726211    4.2726211   -7379.1933   -34251.433   -13965.751    26079.605    1359.0253   -30241.215   -3376.8104    77.997944 
    7500    760.24856   -117.97708   0.68788888   -117.28919   -10345.364    4.2672553    4.2672553    4.2672553   -10345.364   -9191.0154   -33562.952    11717.874   -972.77323   -6143.3184    17310.003     77.70445 
    7600    1467.7706   -118.62759    1.3280696   -117.29952   -9828.6864    4.2737163    4.2737163    4.2737163   -9828.6864    11406.698   -51683.722    10790.965   -6994.0307    23852.185    17248.226    78.057935 
    7700    1488.0403   -118.65494    1.3464102   -117.30853    7545.8466    4.2955035    4.2955035    4.2955035    7545.8466    58209.607   -55057.283    19485.216   -8424.9772    1405.3372   -3742.6759    79.257841 
    7800    1825.0762   -118.94564    1.6513673   -117.29427   -14445.357    4.2910751    4.2910751    4.2910751   -14445.357    14113.365   -57525.651    76.216855   -7744.3293    19307.418   -3178.9854    79.012964 
    7900    914.52549   -118.09809   0.82748188   -117.27061    70745.659    4.2461038    4.2461038    4.2461038    70745.659    75404.036   -7002.3362    143835.28   -7620.6667    15031.815    9416.8392    76.554692 
    8000    1133.0956   -118.36673    1.0252487   -117.34149     7626.357    4.2698956    4.2698956    4.2698956     7626.357    25066.669   -18901.552    16713.954   -11173.174   -9100.3624    6075.4614    77.848771 
    8100    1104.1476   -118.31094   0.99905597   -117.31189    -55679.94    4.3082223    4.3082223    4.3082223    -55679.94   -65076.199   -65289.898   -36673.723    13100.939   -17078.482   -4833.4944    79.963961 
    8200    1967.4758   -119.05329    1.7802135   -117.27307   -3388.3876    4.2720595    4.2720595    4.2720595   -3388.3876   -981.55309    -27572.02     18388.41    19925.679    11752.605     4448.181    77.967187 
    8300    1605.8637   -118.73303    1.4530192   -117.28001    8065.9076    4.2684926    4.2684926    4.2684926    8065.9076    32084.037   -44690.383    36804.068   -2965.3953   -5305.6037    8794.7093    77.772059 
    8400    1096.7877   -118.29027   0.99239652   -117.29787    -40622.26    4.2938084    4.2938084    4.2938084    -40622.26    -31111.43   -64272.068   -26483.281    622.08379    18068.759   -8018.9854    79.164048 
    8500    833.59173   -118.04446   0.75425132   -117.29021    37249.746     4.278269     4.278269     4.278269    37249.746    74234.324   -15640.277     53155.19    11066.547   -3413.4751    432.94931    78.307661 
    8600    1947.1572   -119.04715    1.7618288   -117.28532    16669.906    4.2664174    4.2664174    4.2664174    16669.906    52852.904   -27448.326    24605.141   -7441.6774    3315.0786    1878.8459    77.658681 
    8700    1512.0769   -118.66265    1.3681589   -117.29449    8761.4729    4.2750639    4.2750639    4.2750639    8761.4729    5344.6144   -31890.472    52830.276   -17859.293    21324.452   -8092.8748      78.1318 
    8800    1009.1212   -118.21359   0.91307407   -117.30052     -31828.4    4.2880273    4.2880273    4.2880273     -31828.4   -22505.543   -52848.163   -20131.493    116.53958    -8660.527   -16716.049    78.844722 
    8900    1250.6339   -118.42237    1.1315998   -117.29078   -47744.407    4.2916639    4.2916639    4.2916639   -47744.407   -16663.007   -63866.951   -62703.263    2242.5527    8810.5924   -2057.2863    79.045495 
    9000    1636.7082   -118.76846    1.4809279   -117.28754    4463.1192    4.2705394    4.2705394    4.2705394    4463.1192    5196.9271   -22345.055    30537.486   -10965.841   -12789.941    3336.3431    77.883993 
    9100    1707.8738   -118.84169    1.5453201   -117.29637    24637.116    4.2615792    4.2615792    4.2615792    24637.116    95264.381   -25560.062    4207.0302    4873.1162       3506.4   -7488.0941    77.394786 
    9200     1321.144   -118.50559    1.1953988    -117.3102     -2329.37    4.2774862    4.2774862    4.2774862     -2329.37    17236.968    -55051.46    30826.382    15694.408   -3115.3096    5153.3305    78.264689 
    9300    1102.7042   -118.29504   0.99774995   -117.29729   -5148.1239    4.2802956    4.2802956    4.2802956   -5148.1239    32065.995   -46215.491   -1294.8758   -5189.6575    10525.612     14224.01    78.418999 
    9400     1576.357    -118.7233    1.4263209   -117.29698   -9994.8183    4.2751585    4.2751585    4.2751585   -9994.8183    7851.2573   -32003.416   -5832.2959   -28808.487   -1742.9904    4894.3763    78.136988 
    9500    1915.7767   -119.03103    1.7334351   -117.29759   -19795.712    4.2764169    4.2764169    4.2764169   -19795.712   -37334.867   -43948.146    21895.877    12103.517   -8763.9993   -10890.775    78.206008 
    9600    1265.9905   -118.44633    1.1454948   -117.30084    -15611.13    4.2853993    4.2853993    4.2853993    -15611.13    43078.872    -82574.34   -7337.9208    8681.8819    25.802358    9962.0216    78.699847 
    9700    1214.9406   -118.38931    1.0993038      -117.29   -7001.9068    4.2786259    4.2786259    4.2786259   -7001.9068    63757.222   -51473.527   -33289.415    2106.1813    19872.295   -640.86332    78.327261 
    9800    1664.8301   -118.78797    1.5063733   -117.28159    8072.9356     4.265066     4.265066     4.265066    8072.9356    67873.307   -22143.569   -21510.931    6446.5091    4148.6851   -12472.956    77.584913 
    9900    1805.2036   -118.93612    1.6333861   -117.30273   -14652.294    4.2784099    4.2784099    4.2784099   -14652.294   -2143.3623   -33690.567   -8122.9522     7931.085    27036.799    6565.8202    78.315398 
   10000    1485.7346   -118.64035    1.3443239   -117.29603   -42575.079    4.2849466    4.2849466    4.2849466   -42575.079   -35854.882   -81244.776    -10625.58    5393.9213    5163.9726    20489.089    78.674908 
   10100    1055.9928   -118.23931   0.95548445   -117.28382   -14384.125    4.2652548    4.2652548    4.2652548   -14384.125   -19051.773   -42795.306    18694.705    -19385.48   -7056.1583    4357.7944    77.595217 
   10200     1063.259   -118.27342   0.96205911   -117.31136    21695.059    4.2744009    4.2744009    4.2744009    21695.059    67194.593   -32939.045     30829.63    8504.2694   -19012.233    11453.529    78.095452 
   10300    2049.7724   -119.15614    1.8546771   -117.30146   -11313.409    4.2776129    4.2776129    4.2776129   -11313.409   -21309.084   -23047.559    10416.416   -3928.1949   -17012.883    4115.7587    78.271641 
   10400    1562.3618   -118.70368    1.4136578   -117.29002    37891.423    4.2571846    4.2571846    4.2571846    37891.423    53883.266   -6104.6794    65895.684   -518.77399    103.18173    11896.627    77.155597 
   10500     851.4754   -118.08789   0.77043284   -117.31746   -34396.708    4.2812394    4.2812394    4.2812394   -34396.708   -33956.793   -58691.591   -10541.739   -27184.627   -10845.997   -6603.3077    78.470882 
   10600    1354.1495   -118.52214    1.2252629   -117.29688   -28368.741    4.2797118    4.2797118    4.2797118   -28368.741   -2384.3903   -43487.843   -39233.989   -13165.018   -13491.982    -19826.46    78.386914 
   10700    1639.1374   -118.77428    1.4831259   -117.29116    5259.1527    4.2768562    4.2768562    4.2768562    5259.1527    35452.706   -6460.3703   -13214.878    20919.108    -8443.391    3754.2841    78.230111 
   10800    1554.7812   -118.70009    1.4067987   -117.29329   -18360.671    4.2938698    4.2938698    4.2938698   -18360.671    15664.822   -32525.501   -38221.335    21508.711    8117.2012    -4805.461    79.167441 
   10900    1318.5033   -118.47451    1.1930095    -117.2815    23042.767    4.2734791    4.2734791    4.2734791    23042.767    93255.726   -20498.982   -3628.4445    10712.294    7323.4483   -7248.8508    78.044942 
   11000    1434.8063   -118.58989    1.2982429   -117.29165    2945.4987    4.2654559    4.2654559    4.2654559    2945.4987    14873.299   -20564.533     14527.73   -9088.5102   -12768.103    2834.7032     77.60619 
   11100    1178.0892    -118.3694    1.0659598   -117.30344   -18885.623    4.2909841    4.2909841    4.2909841   -18885.623     6978.943   -47292.162   -16343.649    14909.259    584.00527    7536.0276    79.007937 
   11200    1250.3785   -118.42463    1.1313687   -117.29326   -7654.9358    4.2874738    4.2874738    4.2874738   -7654.9358    13920.787   -36711.775   -173.81957    6977.7665    7899.4563   -11813.593    78.814196 
   11300     1884.792   -118.98488    1.7053994   -117.27948    2678.0102    4.2615513    4.2615513    4.2615513    2678.0102    11215.419    20154.268   -23335.656   -3712.0362    5180.7011   -18095.625    77.393266 
   11400     1342.609   -118.51039    1.2148208   -117.29556    16390.201     4.258576     4.258576     4.258576    16390.201    72448.006    -5249.545   -18027.859   -10306.316   -15979.125     2213.435    77.231276 
   11500    961.94987   -118.18863   0.87039246   -117.31824    5325.3299    4.2837655    4.2837655    4.2837655    5325.3299    3142.5307     23277.62    -10444.16    1022.3433   -21859.597   -9216.5414     78.60987 
   11600    1603.9976   -118.74314    1.4513307   -117.29181   -26069.328    4.2864689    4.2864689    4.2864689   -26069.328    -35552.07   -31110.638   -11545.277    10593.961    5000.3564   -13481.051    78.758792 
   11700    1461.9859    -118.6005    1.3228356   -117.27767    3206.1272    4.2700647    4.2700647    4.2700647    3206.1272   -2139.7183    44811.387   -33053.286   -22046.195   -4574.4705   -10382.581    77.858022 
   11800    1244.7556   -118.40862     1.126281   -117.28234    8503.1861     4.265194     4.265194     4.265194    8503.1861    14833.743    29860.616   -19184.801   -10852.516    -7807.242   -10652.722    77.591899 
   11900     863.4434   -118.08358   0.78126173   -117.30232   -1126.6809    4.2785693    4.2785693    4.2785693   -1126.6809    42458.155   -37194.214   -8643.9833    21373.102    1939.2904   -9701.3841    78.324156 
   12000    1740.4007   -118.86112    1.5747511   -117.28637   -25267.597     4.292567     4.292567     4.292567   -25267.597    4901.6448   -32669.942   -48034.492    8704.2258    3162.9477   -14978.289    79.095403 
   12100    1922.6898   -119.00728    1.7396901   -117.26759   -4582.8706    4.2741108    4.2741108    4.2741108   -4582.8706    3750.3552    30383.422   -47882.389   -9876.4873    271.92035    3319.7131    78.079554 
   12200    1154.8851   -118.31965    1.0449643   -117.27469    11905.696    4.2596923    4.2596923    4.2596923    11905.696    8289.8346    37590.077   -10162.824   -9080.2702   -8128.4094    3956.3944    77.292026 
   12300    1040.8744   -118.24573     0.941805   -117.30392     -12334.7    4.2858649    4.2858649    4.2858649     -12334.7   -25738.632    32041.628   -43307.094   -16513.363   -3242.6465   -6884.8651    78.725499 
   12400    1592.1612   -118.71988    1.4406209   -117.27926   -9069.3478    4.2938758    4.2938758    4.2938758   -9069.3478    5541.4031   -5810.7234   -26938.723   -2938.9619   -2480.6332   -9269.0212    79.167776 
   12500    1538.7699   -118.65666    1.3923114   -117.26435    8666.1399    4.2757737    4.2757737    4.2757737    8666.1399    42073.399    4104.7115   -20179.691   -4357.1158    -9627.046   -8875.7828    78.170723 
   12600    1157.9281   -118.31934    1.0477177   -117.27162    27650.968     4.270564     4.270564     4.270564    27650.968    43742.214     63097.62   -23886.932   -3011.6077   -2674.2077   -5968.5307    77.885337 
   12700    1134.6955   -118.31386    1.0266964   -117.28716   -10425.113    4.2854742    4.2854742    4.2854742   -10425.113    68124.549   -41092.728   -58307.159   -3018.6279    5725.6101    -9887.382    78.703972 
   12800    1092.8083   -118.27463   0.98879589   -117.28583   -38103.643    4.2929383    4.2929383    4.2929383   -38103.643   -5783.4105   -60061.553   -48465.966    9284.7269   -2321.5826    -22151.12     79.11593 
   12900     1889.404   -118.98098    1.7095724    -117.2714   -9947.8813    4.2679094    4.2679094    4.2679094   -9947.8813   -13886.448   -5306.9594   -10650.237   -23626.836   -4642.2772   -2018.6995    77.740187 
   13000     1651.008   -118.77945    1.4938668   -117.28559   -1734.2623     4.263469     4.263469     4.263469   -1734.2623   -14696.919    18453.675   -8959.5427   -16796.525    2409.2276    8079.2259    77.497791 
   13100    1096.2483   -118.28721   0.99190848    -117.2953   -28377.375    4.2899768    4.2899768    4.2899768   -28377.375    -3773.953   -33372.779   -47985.393   -11922.836    -3608.563   -11387.512    78.952308 
   13200    1240.5312   -118.39811    1.1224587   -117.27565    12210.058    4.2811547    4.2811547    4.2811547    12210.058    44579.541    13777.387   -21726.752    854.74552    567.54875   -4306.2573    78.466225 
   13300    1757.2389   -118.86389    1.5899867    -117.2739    15452.939    4.2673218    4.2673218    4.2673218    15452.939    26842.509    15604.653     3911.655    4025.2794   -14158.104    10509.302    77.708081 
   13400     1325.074   -118.49259    1.1989548   -117.29364    3703.3556    4.2778524    4.2778524    4.2778524    3703.3556   -5130.7552    11824.865     4415.957   -23349.982    -4150.596    1135.9148    78.284791 
   13500     1259.408   -118.42505    1.1395388   -117.28551    3720.7308    4.2703753    4.2703753    4.2703753    3720.7308    25244.319    8883.4304   -22965.556   -12614.636   -13453.196    1689.0799    77.875013 
   13600    846.00628   -118.05777   0.76548426   -117.29228    10940.382    4.2717305    4.2717305    4.2717305    10940.382    67805.355   -9615.4153   -25368.795    15311.863     1102.696    4022.5774    77.949178 
   13700    1587.8941   -118.73561    1.4367599   -117.29885   -8267.0763    4.2830822    4.2830822    4.2830822   -8267.0763    5336.4377   -14893.866     -15243.8    152.05602    9373.2593    1771.3152    78.572259 
   13800    1631.4017   -118.76495    1.4761265   -117.28883    16189.296    4.2798048    4.2798048    4.2798048    16189.296    51590.286    20389.837   -23412.235   -709.39208   -2489.7664    4187.4506    78.392026 
   13900    1363.8831   -118.51648      1.23407   -117.28241   -3945.4859      4.27619      4.27619      4.27619   -3945.4859    24723.187   -13320.592   -23239.052    11395.216   -2590.9697     6615.928    78.193562 
   14000    783.45195    -117.9886   0.70888379   -117.27972    9587.2702    4.2798869    4.2798869    4.2798869    9587.2702    46606.768    17985.824   -35830.781    14771.478   -11429.682    4279.5619    78.396538 
   14100    1481.9606   -118.61645    1.3409091   -117.27554   -734.15766    4.2856894    4.2856894    4.2856894   -734.15766   -10428.791    24754.081   -16527.763   -757.47412    9158.9498   -2636.6069    78.715829 
   14200    1911.7271   -119.00298    1.7297708   -117.27321   -15695.914    4.2797954    4.2797954    4.2797954   -15695.914   -23242.287   -19623.239   -4222.2146    -10114.97    6193.5541   -2063.9201     78.39151 
   14300    1652.0848   -118.77671     1.494841   -117.28187    13864.732    4.2723434    4.2723434    4.2723434    13864.732    28806.298    188.35042    12599.548   -7735.2189    2580.8515    21935.314    77.982732 
   14400    1242.0827   -118.41679    1.1238625   -117.29293   -21686.816    4.2831776    4.2831776    4.2831776   -21686.816     13852.04   -33992.891   -44919.596   -3718.5156    598.78915    16718.232    78.577507 
   14500    1340.9166   -118.50068    1.2132895   -117.28739   -11391.372     4.269868     4.269868     4.269868   -11391.372      17609.9   -31024.455   -20759.561    -621.2597    3626.9565    -6882.682    77.847261 
   14600     1829.314   -118.94541    1.6552017   -117.29021    11691.944    4.2612968    4.2612968    4.2612968    11691.944    2808.6732   -2065.1706     34332.33    4261.3576   -1624.5259    1150.2641    77.379397 
   14700    1529.4668   -118.70081    1.3838937   -117.31691   -25097.118    4.2845269    4.2845269    4.2845269   -25097.118   -27753.033   -55725.502    8187.1818    6413.8131   -14489.682    19232.964    78.651791 
   14800    1232.2765   -118.41303    1.1149897   -117.29804   -20545.378    4.2819575    4.2819575    4.2819575   -20545.378   -999.68529    -63823.27    3186.8215    -1743.064    8249.8558    9301.9855    78.510376 
   14900    1185.9956    -118.3496    1.0731137   -117.27649    5657.1789    4.2712593    4.2712593    4.2712593    5657.1789     52795.26   -18701.296   -17122.428   -2899.4156    2919.7142   -3687.0406    77.923388 
   15000    918.14762   -118.11488   0.83075926   -117.28412     638.8304     4.285324     4.285324     4.285324     638.8304    86221.135   -22923.444     -61381.2    -3001.247    1274.1939    17606.563    78.695699 
   15100    1555.9627   -118.68531    1.4078677   -117.27744     11791.98     4.279488     4.279488     4.279488     11791.98    86885.793   -41550.521   -9959.3317    3315.5595   -8982.3255    19918.187    78.374616 
   15200    1706.3531     -118.828    1.5439441   -117.28406    16811.218    4.2808503    4.2808503    4.2808503    16811.218    64627.324   -35936.464    21742.793    1817.1884   -17341.776   -664.44717    78.449487 
   15300    967.25982   -118.15933   0.87519701   -117.28414   -8303.4109    4.2906006    4.2906006    4.2906006   -8303.4109    59118.176   -59629.084   -24399.325    14022.852   -11086.145    10571.711    78.986752 
   15400    987.90822   -118.16456   0.89388012   -117.27068    6611.2671    4.2716493    4.2716493    4.2716493    6611.2671    57445.162   -26288.588   -11322.772   -2848.6394   -9695.4759    13809.316    77.944732 
   15500    1665.3061   -118.78843     1.506804   -117.28162   -1758.5516    4.2789138    4.2789138    4.2789138   -1758.5516    11936.483   -18807.361    1595.2234   -656.07516    17165.777   -13146.174    78.343076 
   15600    1983.7902   -119.06421     1.794975   -117.26924   -31192.746    4.3007785    4.3007785    4.3007785   -31192.746   -63739.308   -49669.616    19830.687   -899.81227    4920.7562   -9320.7794     79.55019 
   15700    1306.0272   -118.43658    1.1817209   -117.25486    24425.574    4.2769136    4.2769136    4.2769136    24425.574    47085.242   -22306.389    48497.868    4686.1223    -9621.326    15988.293     78.23326 
   15800    646.83697   -117.85371   0.58527168   -117.26844    9503.7372    4.2737589    4.2737589    4.2737589    9503.7372    61159.406    -42772.43    10124.236    3233.6509   -13397.733   -4397.3071     78.06027 
   15900    1181.0812   -118.33482    1.0686671   -117.26616   -35739.805    4.2910472    4.2910472    4.2910472   -35739.805    3566.6884   -63657.381   -47128.724   -2486.9521   -12182.457    -21628.75    79.011423 
   16000     2003.638   -119.06575    1.8129338   -117.25282   -11331.508    4.2893435    4.2893435    4.2893435   -11331.508   -32249.076    12906.397   -14651.843    13223.463    8639.8885    6191.7424     78.91735 
   16100    1729.9546   -118.82471    1.5652993   -117.25941   -4166.8003    4.2931769    4.2931769    4.2931769   -4166.8003   -3660.3032    10603.679   -19443.777    11843.715    7876.0216    10197.213    79.129122 
   16200    1065.8235   -118.22224   0.96437948   -117.25786   -3605.2368    4.2913649    4.2913649    4.2913649   -3605.2368    27117.803   -9229.8347   -28703.679    15294.679   -15607.217    2920.7064    79.028975 
   16300    1185.0664   -118.31537     1.072273    -117.2431   -18270.962    4.2815301    4.2815301    4.2815301   -18270.962    -12740.99   -12159.653   -29912.244   -4947.8308   -10160.833    19807.566    78.486871 
   16400    1664.3509   -118.76195    1.5059397   -117.25601   -31485.722    4.2867116    4.2867116    4.2867116   -31485.722    913.67685   -33603.598   -61767.244   -3796.2426    4380.0131    7348.4104    78.772169 
   16500    1813.9093   -118.90847    1.6412632    -117.2672   -8966.3371    4.2891286    4.2891286    4.2891286   -8966.3371    14415.276   -15066.694   -26247.594    1229.4883   -10233.789   -1849.6717    78.905487 
   16600    1158.7236   -118.31836    1.0484375   -117.26993    9391.6908    4.2781349    4.2781349    4.2781349    9391.6908    39450.537   -17047.651    5772.1869    6238.3026    3771.8321    1677.5378    78.300299 
   16700    1200.2604   -118.35811    1.0860209   -117.27209   -11660.271    4.2778763    4.2778763    4.2778763   -11660.271    4998.4049   -22454.859   -17524.358    25186.504    5026.5985    4913.4778      78.2861 
   16800    1225.8191   -118.37955    1.1091469    -117.2704   -1785.4464    4.2828985    4.2828985    4.2828985   -1785.4464   -14594.025     5924.517    3313.1687   -1568.3458    6552.9813   -9525.5011    78.562145 
   16900    1622.6162   -118.73657    1.4681772   -117.26839   -15744.074    4.2903859    4.2903859    4.2903859   -15744.074   -14741.169   -30518.102   -1972.9496   -10265.489    -5508.228   -8083.1825    78.974899 
   17000    1763.0948   -118.85957    1.5952852   -117.26428   -2907.2002    4.2873183    4.2873183    4.2873183   -2907.2002   -270.51129    5648.5479   -14099.637    14340.273   -17004.592    1540.7291    78.805617 
   17100     1289.697   -118.42741     1.166945   -117.26046    24819.479    4.2763102    4.2763102    4.2763102    24819.479    60432.144   -1599.0031    15625.297     31478.12    1368.7362   -17628.183    78.200153 
   17200     987.9732   -118.16666   0.89393891   -117.27272    19245.805     4.284518     4.284518     4.284518    19245.805      37152.8    9590.8231    10993.792    14348.371    20757.367   -8483.4929      78.6513 
   17300    1679.3429   -118.77326    1.5195047   -117.25376   -45084.697    4.2980416    4.2980416    4.2980416   -45084.697   -38180.853   -15020.681   -82052.556   -5102.1436    1391.3407   -4657.1963    79.398415 
   17400    1416.7157   -118.52743    1.2818741   -117.24556   -22694.453    4.2905199    4.2905199    4.2905199   -22694.453   -14066.301    1548.3648   -55565.422    5378.7585   -4583.2967   -15982.548    78.982299 
   17500    1306.5582   -118.43613    1.1822013   -117.25393    8483.0146    4.2838828    4.2838828    4.2838828    8483.0146    17036.095   -18792.767    27205.716    10765.526    22021.214   -21374.408    78.616326 
   17600    1822.4512   -118.91387    1.6489922   -117.26488   -18516.014    4.2911085    4.2911085    4.2911085   -18516.014    -22831.47    -24566.01   -8150.5616    13690.375    11697.432   -12510.364     79.01481 
   17700    1589.0373    -118.7046    1.4377943    -117.2668    6647.6544    4.2842386    4.2842386    4.2842386    6647.6544     -22795.6    30374.686    12363.877   -6572.9356   -1503.0725    15885.104    78.635918 
   17800     1076.094   -118.24146   0.97367245   -117.26779    32087.502    4.2605567    4.2605567    4.2605567    32087.502    13915.449    70696.616     11650.44   -7583.6556    5304.0414    17266.963    77.339086 
   17900    816.91802   -118.03614    0.7391646   -117.29697    13652.928    4.2759814    4.2759814    4.2759814    13652.928    5471.8005    41513.127   -6026.1443    15852.402    10856.518   -285.55858    78.182118 
   18000    1666.0062   -118.78327    1.5074374   -117.27583   -40844.228    4.2996092    4.2996092    4.2996092   -40844.228   -60921.472   -32957.885   -28653.328    13560.023   -4313.4937    6823.9331    79.485322 
   18100    1747.4517   -118.83821     1.581131   -117.25708   -8134.4901    4.2821499    4.2821499    4.2821499   -8134.4901   -15904.264   -29591.308    21092.101   -6198.5531    957.31182   -1292.2355    78.520961 
   18200    1483.2334   -118.60336    1.3420608    -117.2613    12731.348    4.2656696    4.2656696    4.2656696    12731.348   -1948.3261   -10253.668    50396.039    4733.7672   -2342.6324    4911.5783    77.617855 
   18300    966.16551   -118.16396   0.87420686   -117.28975   -6389.2701    4.2791601    4.2791601    4.2791601   -6389.2701   -30319.199    8483.9456    2667.4431    24030.934   -7791.2835    17744.378    78.356603 
   18400    1455.5416   -118.59932    1.3170046   -117.28232   -1576.0603    4.2818735    4.2818735    4.2818735   -1576.0603   -40062.276     18876.35    16457.745   -5340.5465   -3736.9818    8483.7394    78.505754 
   18500    1448.9042   -118.59173     1.310999   -117.28073    226.45681    4.2881599    4.2881599    4.2881599    226.45681   -61996.393   -11026.924    73702.687    7141.0453   -19171.485    7502.9652    78.852038 
   18600    1248.8224   -118.40058    1.1299608   -117.27062   -20730.389    4.2861873    4.2861873    4.2861873   -20730.389    -51996.41   -28121.902    17927.146    14492.341    -25457.39   -10055.932     78.74327 
   18700    1316.3945   -118.45398    1.1911014   -117.26288    4219.9973    4.2746864    4.2746864    4.2746864    4219.9973    2545.1956    29412.634   -19297.838    4409.2351   -2949.9447   -9500.4503    78.111102 
   18800    1736.2052   -118.84557    1.5709549   -117.27461   -12045.779    4.2882417    4.2882417    4.2882417   -12045.779   -6213.6148   -20433.819   -9489.9029   -12507.482     14696.38    4554.5217     78.85655 
   18900    1560.4565   -118.67864    1.4119338   -117.26671   -5254.6768    4.2978917    4.2978917    4.2978917   -5254.6768   -61301.557    15371.914    30165.613   -11800.025    609.60888    15727.544    79.390111 
   19000    1215.9936   -118.36175    1.1002566   -117.26149   -8463.4633    4.2899251    4.2899251    4.2899251   -8463.4633   -26987.052    9148.8153   -7552.1536    5012.2036    5023.8136    14645.515    78.949455 
   19100     856.4182   -118.03149   0.77490519   -117.25659   -5940.7019    4.2735453    4.2735453    4.2735453   -5940.7019   -9418.4635    -2107.715   -6295.9271   -12981.507    25335.793    11805.184    78.048566 
   19200    1732.8845   -118.83382    1.5679503   -117.26587    4843.7724    4.2668176    4.2668176    4.2668176    4843.7724    8220.4037   -12907.949    19218.863   -22442.605    12726.074    -451.5488    77.680539 
   19300    2150.8072   -119.23071    1.9460955   -117.28462   -9976.1379     4.282739     4.282739     4.282739   -9976.1379    9720.3604    -20217.01   -19431.764   -8933.5112   -9304.6383   -6520.2651    78.553369 
   19400    1427.9967    -118.5742    1.2920814   -117.28212   -650.33527    4.2804877    4.2804877    4.2804877   -650.33527   -36695.843    7916.8419    26827.996     7275.233   -2618.1572    9008.8114    78.429558 
   19500    434.26911   -117.68316   0.39293582   -117.29023    8048.3092    4.2649222    4.2649222    4.2649222    8048.3092   -16090.464     45811.58   -5576.1885   -3537.9781    20463.581    13229.327    77.577062 
   19600    1212.0833   -118.39619    1.0967184   -117.29947   -16176.299    4.2667448    4.2667448    4.2667448   -16176.299   -41657.797    4982.9487   -11854.049   -7642.2995     4546.888   -9497.6363    77.676562 
   19700    1776.0625   -118.90872    1.6070187    -117.3017    3985.8797    4.2780781    4.2780781    4.2780781    3985.8797   -18982.742   -26787.148     57727.53   -13624.817    -8545.158    1219.9439    78.297183 
   19800    1985.9222   -119.08352    1.7969042   -117.28662   -12792.029     4.281216     4.281216     4.281216   -12792.029   -21998.135   -33371.109    16993.157    5581.8063      2134.96   -3172.5655    78.469596 
   19900    867.63576    -118.0718   0.78505507   -117.28674   -4000.1521    4.2787335    4.2787335    4.2787335   -4000.1521    -84085.66   -8435.8435    80521.047   -13614.204    12428.984    2317.3042     78.33317 
   20000    846.40354    -118.0518   0.76584371   -117.28596   -5106.5233    4.2749003    4.2749003    4.2749003   -5106.5233   -59150.991    9853.5109     33977.91   -19331.178    3800.4715   -4334.2518    78.122831 
   20100    1750.3537   -118.86759    1.5837568   -117.28384    4212.6125    4.2743791    4.2743791    4.2743791    4212.6125    5154.0951     17796.91   -10313.168    15534.921   -9159.0448    4407.7733    78.094261 
   20200    2198.4004   -119.26801    1.9891589   -117.27885   -29257.477    4.2820444    4.2820444    4.2820444   -29257.477   -12662.789   -34051.959   -41057.683    3341.8793   -838.36244    11418.547    78.515156 
   20300    1747.6837   -118.86006    1.5813409   -117.27872   -18270.639    4.2736578    4.2736578    4.2736578   -18270.639   -34085.761   -14295.365    -6430.791   -9763.1692    9553.1823   -6594.5272    78.054733 
   20400    998.46583   -118.18979   0.90343286   -117.28636    24345.822    4.2583353    4.2583353    4.2583353    24345.822   -18437.816    65363.904    26111.378    7376.9341   -1493.5562   -3225.7611     77.21818 
   20500    1120.4196   -118.31207    1.0137792   -117.29829    16999.876     4.266563     4.266563     4.266563    16999.876   -45708.002    36968.213    59739.417    8709.9741   -7141.2662   -8968.3969    77.666635 
   20600    1375.5676   -118.54065    1.2446425   -117.29601   -1531.7013    4.2880408    4.2880408    4.2880408   -1531.7013   -35476.595    11970.877    18910.614    9685.9385    9728.3177   -13133.722    78.845464 
   20700    1780.6277   -118.88422    1.6111494   -117.27308    3818.1593    4.2809165    4.2809165    4.2809165    3818.1593   -14309.608       1378.1    24385.986   -8164.3213    14057.727   -8153.3657     78.45313 
   20800     1451.223   -118.58316    1.3130971   -117.27006    13000.639    4.2742559    4.2742559    4.2742559    13000.639   -20117.627     20933.19    38186.354   -1772.4499   -10417.095   -1044.4639    78.087505 
   20900    1179.5697   -118.33911    1.0672995   -117.27181   -38106.535    4.2864076    4.2864076    4.2864076   -38106.535   -107824.62   -2810.1864   -3684.8005    11253.209    11597.323    11483.405     78.75541 
   21000    1403.3116   -118.53866    1.2697459   -117.26891   -11332.946    4.2746754    4.2746754    4.2746754   -11332.946   -58852.882    28467.963   -3613.9181    9294.9343    12584.624    10305.107    78.110501 
   21100     1764.674   -118.87714    1.5967141   -117.28043    18728.934     4.270327     4.270327     4.270327    18728.934    28322.491    30373.233   -2508.9213    12812.798   -5145.2581    10122.292     77.87237 
   21200    1447.1169    -118.6001    1.3093818   -117.29072    6178.6738    4.2815264    4.2815264    4.2815264    6178.6738   -13050.266     58622.35   -27036.062    -3715.088    13900.427   -4106.5837    78.486664 
   21300    1079.7769   -118.25862   0.97700486   -117.28162     17918.12    4.2799667    4.2799667    4.2799667     17918.12   -17464.385    69637.037     1581.709   -4328.2557    2501.8013    -11820.94    78.400924 
   21400     1097.358    -118.2654   0.99291254   -117.27248    12687.074    4.2735354    4.2735354    4.2735354    12687.074   -17457.028    12117.977    43400.273   -15434.914    -22536.69   -5087.5327    78.048023 
   21500    1741.7644   -118.85217     1.575985   -117.27619   -26441.056    4.2741444    4.2741444    4.2741444   -26441.056   -51848.788   -11315.624   -16158.756   -2754.4254    -6636.242    3750.9991    78.081394 
   21600    1544.2313   -118.68385    1.3972529    -117.2866    9373.8763    4.2776808    4.2776808    4.2776808    9373.8763    24976.691   -10500.474    13645.413   -2662.2909    10941.865   -682.19415    78.275368 
   21700    1217.5917   -118.38564    1.1017026   -117.28394   -2025.6533    4.2882664    4.2882664    4.2882664   -2025.6533    7242.4828    -35527.98    22208.538   -1499.6795    6776.1624     1095.517    78.857909 
   21800    996.94551   -118.17297   0.90205725   -117.27091   -9752.2139    4.2843861    4.2843861    4.2843861   -9752.2139   -6639.1467   -50770.908    28153.412    7958.4953    16912.417    3570.3946    78.644036 
   21900    1646.4562   -118.75421    1.4897482   -117.26446    24511.974    4.2654816    4.2654816    4.2654816    24511.974    14099.068     30093.27    29343.584    1210.1926    25571.841   -379.51752    77.607596 
   22000    1875.2023   -118.97761    1.6967225   -117.28089   -9536.8932    4.2761973    4.2761973    4.2761973   -9536.8932   -19272.963   -1832.6317    -7505.085     4939.417    2186.9604   -1430.7889     78.19396 
   22100    1134.1503   -118.30969    1.0262031   -117.28349   -19097.705    4.2872727    4.2872727    4.2872727   -19097.705    -23500.34   -19970.141   -13822.633   -1246.2921   -4562.7862    4014.2131    78.803106 
   22200    1188.6081   -118.35216    1.0754776   -117.27669   -15703.453    4.2732618    4.2732618    4.2732618   -15703.453    -32534.23   -11071.271   -3504.8573    2441.0413     -1679.83   -6703.6635    78.033033 
   22300    1492.5324   -118.63167    1.3504747    -117.2812    568.79045    4.2682474    4.2682474    4.2682474    568.79045    21779.664   -11712.521   -8360.7714    5690.5216    9644.0926   -18475.858    77.758657 
   22400     1613.135   -118.75376    1.4595984   -117.29416   -2182.3486    4.2819107    4.2819107    4.2819107   -2182.3486    42077.262   -7900.7021   -40723.606    4633.3331   -7867.3805   -4018.5859    78.507802 
   22500    1340.5815   -118.49317    1.2129863   -117.28019   -14238.652    4.2866025    4.2866025    4.2866025   -14238.652    3703.3247   -6055.0447   -40364.236    -3357.949   -15270.341    3499.5694    78.766153 
   22600    1104.4061   -118.26915   0.99928983   -117.26986    7969.6472      4.27746      4.27746      4.27746    7969.6472    36201.409   -11682.345   -610.12318   -9112.8927   -14956.938   -6095.6465    78.263249 
   22700    1511.9262   -118.64284    1.3680226   -117.27482   -1049.1621       4.2653       4.2653       4.2653   -1049.1621     19160.94   -28325.669    6017.2434   -2749.7486   -6778.4237   -6251.1378    77.597682 
   22800     1571.744    -118.7115     1.422147   -117.28935    7138.7177     4.260683     4.260683     4.260683    7138.7177   -18243.945    21250.611    18409.487    8081.6818   -5643.9087   -8482.8084    77.345967 
   22900    1171.5667   -118.35849    1.0600581   -117.29843   -2510.0665    4.2722033    4.2722033    4.2722033   -2510.0665   -35449.851    23340.508    4579.1435   -12395.747    -16970.46   -561.57146    77.975061 
   23000    1091.9544   -118.27982   0.98802331    -117.2918   -25284.053    4.2802206    4.2802206    4.2802206   -25284.053   -51845.959    10108.708   -34114.907   -11462.787   -17561.716   -5123.8315    78.414873 
   23100    1639.2875   -118.76599    1.4832617   -117.28273    24028.896    4.2683421    4.2683421    4.2683421    24028.896    34750.368    43487.763   -6151.4427    11545.124   -7922.2467   -14931.543    77.763833 
   23200     1685.684   -118.81714    1.5252423   -117.29189    8125.9529    4.2723742    4.2723742    4.2723742    8125.9529    30239.496    11661.293    -17522.93    29919.621   -2815.5608   -9108.8311     77.98442 
   23300    920.37586   -118.12481   0.83277542   -117.29203   -13291.245    4.2788897    4.2788897    4.2788897   -13291.245   -15362.384    16054.043   -40565.395    9769.8608   -10032.671    7977.6364     78.34175 
   23400    1289.4144   -118.44635    1.1666893   -117.27966   -4413.1342    4.2669723    4.2669723    4.2669723   -4413.1342    11017.309    7755.4257   -32012.138   -21564.069   -4648.0237    -1515.473    77.688988 
   23500    2035.7624   -119.13403    1.8420006   -117.29203   -30284.074     4.273552     4.273552     4.273552   -30284.074    -48542.91   -20131.604    -22177.71    332.48486   -3310.8309   -12570.047    78.048933 
   23600    1594.0339   -118.73854    1.4423153   -117.29622   -7686.1736    4.2759942    4.2759942    4.2759942   -7686.1736   -24812.813   -14855.407    16609.699    20024.005   -9222.8553   -1249.1723     78.18282 
   23700    905.46355   -118.11407   0.81928245   -117.29479    6138.4669    4.2762758    4.2762758    4.2762758    6138.4669    2030.3118    23170.625    -6785.536    -4036.847   -8904.0453    1061.2303    78.198268 
   23800    1391.7952   -118.54437    1.2593255   -117.28504    9703.4347    4.2688986    4.2688986    4.2688986    9703.4347    7099.1676    23995.576   -1984.4394   -12441.296   -7637.7456   -2218.0865    77.794254 
   23900    1777.7461   -118.90036     1.608542   -117.29182    18959.031    4.2672113    4.2672113    4.2672113    18959.031    41277.989    195.12878    15403.976    19524.663    6861.8162    -14274.73    77.702043 
   24000    1502.5769   -118.65502    1.3595632   -117.29546   -28652.531    4.2821866    4.2821866    4.2821866   -28652.531   -54313.064   -45153.718    13509.189     32813.62    19482.103   -4105.2087    78.522981 
   24100    1169.8547   -118.33597    1.0585091   -117.27746   -15345.295    4.2744905    4.2744905    4.2744905   -15345.295   -16225.485   -27360.631   -2449.7695    2472.3011    16098.741    -6401.539    78.100366 
   24200    1164.2413   -118.33055      1.05343   -117.27712    1169.1534    4.2736993    4.2736993    4.2736993    1169.1534    1509.3796    20630.035   -18631.954   -6050.1564    6137.3674   -198.93018    78.057004 
   24300     1508.318   -118.64615    1.3647579   -117.28139   -7892.9745    4.2761594    4.2761594    4.2761594   -7892.9745   -41565.793    34313.325   -16426.456    15212.764   -4064.0705    12953.871    78.191883 
   24400    1501.3024   -118.63944    1.3584099   -117.28103    35708.205    4.2707868    4.2707868    4.2707868    35708.205    29505.536    69895.932    7723.1465    22898.413     9041.507    2617.2178     77.89753 
   24500    1159.6278   -118.33472    1.0492556   -117.28547   -4021.1087      4.28574      4.28574      4.28574   -4021.1087   -16395.454    42304.158    -37972.03    3548.6588   -4455.8803   -10643.818    78.718617 
   24600     901.1846    -118.0922   0.81541076   -117.27679   -40199.324    4.2810806    4.2810806    4.2810806   -40199.324   -38414.898   -3477.9454   -78705.128   -10357.337   -9642.6057     -4566.25    78.462151 
   24700    1684.8359   -118.79181    1.5244749   -117.26733    11436.369    4.2506376    4.2506376    4.2506376    11436.369    14044.536    13046.508    7218.0625     17477.91   -106.74637    22755.785    76.800181 
   24800    1862.7119   -118.99205    1.6854209   -117.30663    8321.7755    4.2642783    4.2642783    4.2642783    8321.7755   -4652.4591   -15653.177    45270.963    2239.0853   -13408.863    7984.8833    77.541934 
   24900    1165.2164   -118.34731    1.0543123     -117.293   -14167.363    4.2947754    4.2947754    4.2947754   -14167.363    10467.409   -41449.245   -11520.253    1843.6691   -1789.9831   -17783.198    79.217542 
   25000    957.03599   -118.13702   0.86594627   -117.27107    13975.295    4.2809462    4.2809462    4.2809462    13975.295    12276.591    29526.311    122.98191    2143.5827   -4188.4636   -7919.7014    78.454761 
   25100    1661.4009    -118.7581    1.5032704   -117.25483    6206.2323    4.2687981    4.2687981    4.2687981    6206.2323    -9018.167    17400.693     10236.17    -426.4385    24.602788    14.266985    77.788761 
   25200     1891.193   -118.98277    1.7111912   -117.27158    -18141.22    4.2801439    4.2801439    4.2801439    -18141.22    7219.4401   -28189.175   -33453.924    802.06007   -8043.4547   -28594.626    78.410659 
   25300    1561.7403   -118.68544    1.4130955   -117.27234   -15238.725    4.2880188    4.2880188    4.2880188   -15238.725   -15280.408   -41557.573    11121.805   -4047.2261    123.51187   -10290.024    78.844254 
   25400    1085.6513   -118.24951   0.98232008   -117.26719   -18863.171    4.2866938    4.2866938    4.2866938   -18863.171     13123.47   -40835.966   -28877.016    7392.5636    -5534.483    3993.2714    78.771185 
   25500    854.72297   -118.04465   0.77337131   -117.27128    15516.688    4.2623115    4.2623115    4.2623115    15516.688    98739.775   -23113.041    -29076.67    3757.0978   -6475.7272   -32766.048     77.43469 
   25600    1538.5932   -118.68278    1.3921514   -117.29063    32869.427    4.2619014    4.2619014    4.2619014    32869.427    108398.52   -18620.378    8830.1421   -7047.8851   -1029.7743   -10303.833    77.412341 
   25700    1497.3326   -118.64925     1.354818   -117.29443   -28902.049    4.2915166    4.2915166    4.2915166   -28902.049    -478.1619   -54331.956    -31896.03   -14835.386   -1885.9656     7457.374    79.037352 
   25800    641.94996   -117.86196   0.58084982   -117.28111     -4387.93    4.2779418    4.2779418    4.2779418     -4387.93    30501.096   -32384.263   -11280.623   -5235.1755    2701.2326   -37045.173      78.2897 
   25900    1239.9887   -118.39302    1.1219678   -117.27105    32276.326      4.26166      4.26166      4.26166    32276.326    110729.14    5213.2803   -19113.446    4740.7682   -1636.9821   -11331.575    77.399184 
   26000    2168.1851   -119.24355    1.9618194   -117.28173   -15302.102    4.2775717    4.2775717    4.2775717   -15302.102    27245.912    -19763.18   -53389.039    16873.354    2867.7954    10354.267    78.269382 
   26100     1051.149   -118.23573   0.95110174   -117.28463    12776.044     4.281149     4.281149     4.281149    12776.044    44362.562    5220.2388    -11254.67    6665.1076    -680.6637   -27880.451    78.465914 
   26200    1107.0095   -118.27405    1.0016455    -117.2724   -24373.884    4.2836182    4.2836182    4.2836182   -24373.884   -42124.586   -7574.3271   -23422.739    6385.0089    1438.3506    -3049.081    78.601757 
   26300    1604.4192   -118.71846    1.4517122   -117.26675   -10382.584    4.2721093    4.2721093    4.2721093   -10382.584   -3967.9986    5345.6317   -32525.384   -12632.376    4634.4789    14725.761    77.969915 
   26400    1732.5075   -118.84188    1.5676092   -117.27427    14324.262    4.2589981    4.2589981    4.2589981    14324.262    42805.452    32732.831   -32565.498    -15063.17    1999.6895   -19563.373     77.25424 
   26500    1372.1912   -118.53782    1.2415875   -117.29623    -2479.236    4.2765596    4.2765596    4.2765596    -2479.236    50586.534   -16280.794   -41743.447   -8977.1819   -2911.4268   -9034.9854    78.213835 
   26600    1448.2759   -118.59117    1.3104304   -117.28074   -20246.729    4.2821887    4.2821887    4.2821887   -20246.729   -24654.367   -27521.386   -8564.4329    7253.1464   -3076.3017    8500.2269    78.523096 
   26700    1301.0248   -118.44994    1.1771946   -117.27274    8848.8419    4.2675209    4.2675209    4.2675209    8848.8419    49156.692   -20414.898   -2195.2687     6770.836    8793.5505   -31078.769    77.718961 
   26800    1650.3112   -118.78036    1.4932362   -117.28712   -9668.0841     4.273164     4.273164     4.273164   -9668.0841    9248.6471   -3655.6355   -34597.264     5812.672   -7706.5472   -3184.5368     78.02768 
   26900    1673.7971   -118.80022    1.5144868   -117.28573    -3226.236    4.2736278    4.2736278    4.2736278    -3226.236   -562.42452    24258.216   -33374.499   -213.96519   -25399.473    9382.4244     78.05309 
   27000     845.2098   -118.05108   0.76476359   -117.28631    18178.047    4.2724869    4.2724869    4.2724869    18178.047     75263.72   -23486.786    2757.2074   -9641.3874   -7153.2362   -27563.242    77.990594 
   27100    1253.9195   -118.41722    1.1345727   -117.28265   -21145.973    4.2865427    4.2865427    4.2865427   -21145.973    40350.496   -81307.935    -22480.48   -3373.1505    1728.1663   -5834.2892    78.762857 
   27200    1720.4529   -118.82708    1.5567019   -117.27037    20759.023    4.2688892    4.2688892    4.2688892    20759.023    82109.948   -6276.1214   -13556.758    3726.4404    2073.2518    10210.083    77.793739 
   27300    1042.2165   -118.22957    0.9430194   -117.28655    23175.663    4.2692461    4.2692461    4.2692461    23175.663    93180.394   -18945.828   -4707.5769    15557.416    1796.0265   -30664.386    77.813254 
   27400     928.4903   -118.12164   0.84011754   -117.28152   -23128.094    4.2863526    4.2863526    4.2863526   -23128.094    22432.534   -59257.235   -32559.579    497.57127    2338.3077    -13042.24    78.752376 
   27500    1732.4806   -118.83527    1.5675848   -117.26768    5868.1426    4.2712275    4.2712275    4.2712275    5868.1426     49555.62   -41155.422    9204.2298    6164.4662    17580.477    5104.2741    77.921645 
   27600    1364.3454   -118.52123    1.2344884   -117.28675     7675.799     4.272541     4.272541     4.272541     7675.799    63949.136    -34099.14   -6822.5988    -94.48075     3843.026   -35469.321    77.993556 
   27700    1526.1652   -118.65501    1.3809063   -117.27411   -20308.737    4.2753288    4.2753288    4.2753288   -20308.737    -20097.93   -18400.823   -22427.458    9039.1018    3031.1338   -8987.5108    78.146324 
   27800    1685.0634   -118.79162    1.5246808   -117.26694    2298.4385    4.2684706    4.2684706    4.2684706    2298.4385    5882.9387   -129.06713    1141.4439     299.3566   -5247.1659    3667.3672    77.770857 
   27900    1033.7169   -118.22037   0.93532874   -117.28505   -28022.036    4.2837843    4.2837843    4.2837843   -28022.036     6265.788   -59540.583   -30791.312    11484.605    3822.1996   -43197.175    78.610902 
   28000    1511.8063   -118.64443    1.3679141   -117.27651   -1014.1752    4.2651291    4.2651291    4.2651291   -1014.1752    27499.656   -38763.462    8221.2803   -2401.4138     4990.113   -7476.0354    77.588354 
   28100    1544.3676   -118.67511    1.3973762   -117.27774    12124.425    4.2605315    4.2605315    4.2605315    12124.425    27416.512   -8697.0494    17653.812   -4311.9618    12039.192    12308.778    77.337717 
   28200    1301.1846   -118.46614    1.1773392    -117.2888   -8820.5286    4.2842217    4.2842217    4.2842217   -8820.5286    14169.362   -27937.632   -12693.316   -9589.7522    2941.4387   -24327.364    78.634983 
   28300    1514.1325   -118.63846    1.3700189   -117.26845   -2733.7627    4.2811983    4.2811983    4.2811983   -2733.7627    25274.893   -45432.941     11956.76   -19330.122   -1886.4611    4153.4345    78.468622 
   28400    1724.0389   -118.81334    1.5599467    -117.2534   -19365.068    4.2742064    4.2742064    4.2742064   -19365.068     13308.83   -69385.119   -2018.9148   -14704.438    1512.2864    24423.883    78.084796 
   28500    1375.2727   -118.50696    1.2443756   -117.26258   -12256.852    4.2673962    4.2673962    4.2673962   -12256.852    8026.0687   -33952.679   -10843.946   -3521.5324    357.44453   -16691.959    77.712147 
   28600    1179.6608   -118.34629    1.0673818    -117.2789    -4947.719    4.2658899    4.2658899    4.2658899    -4947.719    13843.705   -14573.586   -14113.276   -6625.0331    4538.6741       -22721    77.629883 
   28700    1497.5898   -118.63856    1.3550508   -117.28351    -4206.404    4.2762301    4.2762301    4.2762301    -4206.404    5087.5669   -37804.791    20098.012    20.637202    4823.1957    15895.195    78.195758 
   28800    1490.7504   -118.62498    1.3488623   -117.27612   -8706.5747    4.2841879    4.2841879    4.2841879   -8706.5747   -9984.9502    -65922.06    49787.286    7110.4897    12636.438    20759.567    78.633122 
   28900    1093.3081   -118.25884   0.98924811   -117.26959     1612.324    4.2740272    4.2740272    4.2740272     1612.324    5768.8481   -60263.254    59331.378    3263.1861    1324.1823   -8642.4219    78.074972 
   29000    1232.4585   -118.38543    1.1151543   -117.27028   -8678.9232    4.2694295    4.2694295    4.2694295   -8678.9232    453.30933   -41501.726    15011.647    3929.6308   -8126.4667    19073.035    77.823282 
   29100    1488.5767   -118.63139    1.3468955   -117.28449   -10721.058    4.2743766    4.2743766    4.2743766   -10721.058    20931.724     -19047.6   -34047.299    3548.8914   -16387.737    36794.096    78.094123 
   29200    2090.5108   -119.16821    1.8915381   -117.27667   -9845.0852    4.2679874    4.2679874    4.2679874   -9845.0852    12392.494    -27776.39    -14151.36   -9674.4848   -12041.068   -7305.4022    77.744447 
   29300    1249.4006   -118.41097    1.1304839   -117.28049    14229.033    4.2673917    4.2673917    4.2673917    14229.033    69564.357   -34948.476    8071.2171   -13835.607   -8725.6665   -1480.4062    77.711898 
   29400    709.39939   -117.92978   0.64187947   -117.28791   -11703.237    4.2778671    4.2778671    4.2778671   -11703.237    52099.408   -58599.181   -28609.938     -18294.7    10249.042     30592.91    78.285595 
   29500    1406.3543   -118.54948    1.2724989   -117.27699   -14982.269    4.2820484    4.2820484    4.2820484   -14982.269   -6172.5216    -44654.29    5880.0058    15554.812    6083.8849     7005.875    78.515376 
   29600     1958.145   -119.03832    1.7717707   -117.26655    1815.6505    4.2793056    4.2793056    4.2793056    1815.6505   -6726.9952   -7609.0127     19782.96    8125.5996    7195.1371   -5751.9558    78.364596 
   29700    1535.8212   -118.65743    1.3896433   -117.26778    4233.4113    4.2661212    4.2661212    4.2661212    4233.4113     21712.05   -21915.568    12903.752   -12587.391    1682.6692    35829.992    77.642508 
   29800    644.22565   -117.86189    0.5829089   -117.27898    15536.639    4.2562266    4.2562266    4.2562266    15536.639    31026.411   -46604.973    62188.479    7402.2708   -8922.1419    25602.362    77.103522 
   29900    1012.4062   -118.21356   0.91604644   -117.29751    3104.1079    4.2704058    4.2704058    4.2704058    3104.1079    1906.0444   -28443.641    35849.921    16733.329    2113.4731   -17456.052    77.876683 
   30000     2120.571    -119.2017    1.9187372   -117.28297   -12671.598    4.2810759    4.2810759    4.2810759   -12671.598    -33768.14   -5388.8816    1142.2269   -1269.4732    4300.7257    -15578.22    78.461891 
   30100    1905.5543    -118.9973    1.7241856   -117.27311   -21545.807    4.2796191    4.2796191    4.2796191   -21545.807   -25184.165   -36542.879   -2910.3785    4961.3885   -878.93816    21414.285    78.381822 
   30200    980.46822    -118.1622   0.88714825   -117.27505   -14100.856    4.2749495    4.2749495    4.2749495   -14100.856    9468.7589   -59175.022    7403.6961    18368.489    11665.068    7254.7588    78.125529 
   30300    750.03489   -117.95788   0.67864733   -117.27923    1254.7973    4.2721808    4.2721808    4.2721808    1254.7973    11950.317   -32918.294    24732.369    3299.6252   -1026.4833   -11848.415    77.973829 
   30400    1973.7711   -119.06601    1.7859096    -117.2801   -10451.533    4.2620493    4.2620493    4.2620493   -10451.533   -8500.7137   -14777.891   -8075.9947   -4830.4804    8666.5212    3352.9251    77.420398 
   30500     2372.411   -119.43504    2.1466073   -117.28844    10346.242    4.2511777    4.2511777    4.2511777    10346.242    3963.2462    11625.722    15449.756    6024.7719   -3582.1413    19290.249    76.829461 
   30600    1065.9161    -118.2759   0.96446333   -117.31144   -5739.4179    4.2712962    4.2712962    4.2712962   -5739.4179    919.66238   -43209.618    25071.702    10217.589     4248.797   -18398.536    77.925405 
   30700    557.58608   -117.80907   0.50451561   -117.30456   -21199.583    4.2791447    4.2791447    4.2791447   -21199.583     17426.55   -89498.133    8472.8333   -4263.1582   -2051.2217   -30814.007    78.355761 
   30800    1559.4011   -118.69504    1.4109789   -117.28406    531.81155    4.2696031    4.2696031    4.2696031    531.81155    21039.215    -48568.09     29124.31   -11155.103    7474.8806   -5462.4098    77.832778 
   30900    2300.2698   -119.36323    2.0813325    -117.2819   -4145.5351    4.2743576    4.2743576    4.2743576   -4145.5351   -25879.961   -16236.831    29680.187    2771.7068    16444.776     3158.875    78.093079 
   31000    1375.9944   -118.53009    1.2450287   -117.28506    8675.8213    4.2724756    4.2724756    4.2724756    8675.8213    8712.6762   -23148.609    40463.397    7671.9796   -10945.322   -23923.477    77.989975 
   31100    694.25749   -117.91325   0.62817877   -117.28507   -2563.0747    4.2690209    4.2690209    4.2690209   -2563.0747    32170.848   -83019.401    43159.329    3885.9386   -11899.778   -22214.497    77.800941 
   31200    1230.6098   -118.39765    1.1134816   -117.28417    2380.3956    4.2641037    4.2641037    4.2641037    2380.3956    9714.7521   -41131.767    38558.201    2780.9029   -4227.9978    16233.451    77.532409 
   31300    1971.4835   -119.07928    1.7838397   -117.29544    14300.726    4.2644985    4.2644985    4.2644985    14300.726    21554.952   -4441.7922    25789.017    826.67461   -7933.2142    15346.998    77.553943 
   31400    1382.7492   -118.55372    1.2511406   -117.30258    991.54867    4.2846213    4.2846213    4.2846213    991.54867   -3083.0437   -12894.475    18952.165   -11750.647    1534.5841   -15019.311    78.656991 
   31500    1022.6123   -118.20395   0.92528113   -117.27866   -5875.2998    4.2811194    4.2811194    4.2811194   -5875.2998   -12452.259   -51764.499    46590.859   -7365.1273    521.12898   -2410.3017    78.464287 
   31600    1000.9655   -118.18027   0.90569458   -117.27458   -2267.5385    4.2663779    4.2663779    4.2663779   -2267.5385    17712.506   -79743.178    55228.057     3884.641    4021.0198    22679.379    77.656525 
   31700    1983.9827   -119.07616    1.7951492   -117.28101   -9499.0733    4.2629789    4.2629789    4.2629789   -9499.0733    22379.535   -34269.042   -16607.713   -3593.8565    5320.9058    21238.842    77.471071 
   31800    1807.8041   -118.92715    1.6357392   -117.29141     14946.67    4.2682234    4.2682234    4.2682234     14946.67   -2921.0153    25484.025    22277.001   -11360.573   -3380.8106   -8016.9811    77.757346 
   31900    1128.2398    -118.3071    1.0208551   -117.28624    -26130.61    4.2912071    4.2912071    4.2912071    -26130.61   -45316.567   -12114.882    -20960.38    1657.4928    6457.0443    7403.4544    79.020256 
   32000    1050.4188   -118.21947   0.95044098   -117.26903   -25550.092    4.2831554    4.2831554    4.2831554   -25550.092   -12588.508   -45220.281   -18841.488    889.98096    2600.6621    28727.123    78.576285 
   32100    1526.0245   -118.63759    1.3807791   -117.25681    14914.387    4.2675307    4.2675307    4.2675307    14914.387    33027.444   -34897.764     46613.48    -15257.16   -9994.6245    2427.3897    77.719493 
   32200    1872.5257   -118.96315    1.6943006   -117.26885   -8037.9986    4.2733922    4.2733922    4.2733922   -8037.9986   -14160.592   -19931.607     9978.203   -8538.9006   -12720.514   -13753.908     78.04018 
   32300    1095.7074   -118.27039   0.99141912   -117.27897    19821.946    4.2622745    4.2622745    4.2622745    19821.946    -15280.37    36500.677    38245.531   -1163.2449   -1538.4142    11974.693     77.43267 
   32400    839.07046   -118.05902   0.75920858   -117.29981    23010.242    4.2682417    4.2682417    4.2682417    23010.242    29347.717   -4519.8875    44202.895   -12630.961    4822.6714    11255.635    77.758346 
   32500    1770.2104   -118.88562    1.6017236   -117.28389   -30914.752    4.2858264    4.2858264    4.2858264   -30914.752   -15909.192   -51072.418   -25762.648   -768.35085   -9765.8335   -3584.9617    78.723378 
   32600    1859.9581   -118.95141    1.6829292   -117.26848   -5782.6982     4.270661     4.270661     4.270661   -5782.6982    1642.0571   -26787.971    7797.8189    21245.985    13329.135    3812.5666    77.890643 
   32700    1398.1134   -118.54542    1.2650424   -117.28038   -6142.3074    4.2765293    4.2765293    4.2765293   -6142.3074   -6325.1512   -19329.239    7227.4679    24155.988    4949.0441    12450.231    78.212172 
   32800    991.37758   -118.16978   0.89701927   -117.27276   -2019.7031    4.2873543    4.2873543    4.2873543   -2019.7031    10308.555   -9170.9282   -7196.7365    4042.7397   -15778.465   -2443.4516    78.807602 
   32900    1421.6679   -118.54394     1.286355   -117.25759    8971.9033    4.2735141    4.2735141    4.2735141    8971.9033    49501.865   -24417.168    1831.0127   -13547.956    -7869.051   -10749.265    78.046856 
   33000     1738.441   -118.83699    1.5729779   -117.26401   -156.77927    4.2807166    4.2807166    4.2807166   -156.77927    54802.541   -39364.699   -15908.179    8896.9898    4240.8964    11158.741    78.442138 
   33100    1332.7153   -118.46724    1.2058689   -117.26137   -14095.249    4.2919593    4.2919593    4.2919593   -14095.249   -54478.852    12869.556   -676.45148     14344.77    7240.4888    2445.1723    79.061813 
   33200    1010.5552   -118.16769   0.91437154   -117.25331    14099.945    4.2771618    4.2771618    4.2771618    14099.945   -68605.643    45056.977    65848.501   -22028.035   -7379.5389   -10852.551    78.246882 
   33300    1295.3241   -118.42896    1.1720365   -117.25692    -5884.935    4.2771874    4.2771874    4.2771874    -5884.935   -15279.588   -29165.115    26789.898     7633.171    -17478.47    3547.3928    78.248285 
   33400    1673.2934   -118.77498     1.514031   -117.26095   -23512.341    4.2755533    4.2755533    4.2755533   -23512.341    2182.1188   -43281.603    -29437.54    36338.336   -4213.6168    9128.6488    78.158638 
   33500    1870.6381   -118.95999    1.6925927    -117.2674    4755.1742    4.2645507    4.2645507    4.2645507    4755.1742    39574.232   -32164.382    6855.6724   -6130.7072     -5392.42    13556.758    77.556793 
   33600    940.00565    -118.1379   0.85053687   -117.28736    13724.867    4.2768521    4.2768521    4.2768521    13724.867    43051.572   -32496.056    30619.085   -21948.137    14922.935   -768.53456    78.229883 
   33700       882.27   -118.08038   0.79829644   -117.28209   -10497.224    4.2784967    4.2784967    4.2784967   -10497.224    605.57899   -17545.857   -14551.395    6227.4151    23148.549   -945.11023    78.320168 
   33800    1451.6656   -118.58903    1.3134975   -117.27553    1057.1158    4.2710748    4.2710748    4.2710748    1057.1158    40059.375   -24606.205   -12281.822    14772.825    5477.5301     6140.902    77.913288 
[...]
   91300    1854.3659   -118.95397    1.6778692    -117.2761   -14235.577    4.2643549    4.2643549    4.2643549   -14235.577   -943.29723   -1181.1658   -40582.267   -1517.8021    1381.7138   -12315.884    77.546113 
   91400    1179.6216   -118.35455    1.0673464    -117.2872    6530.5478    4.2613432    4.2613432    4.2613432    6530.5478   -18237.838   -11105.551    48935.032    11762.687    4843.7228    6179.6996    77.381926 
   91500     1134.566   -118.31295    1.0265791   -117.28638    15211.451    4.2613585    4.2613585    4.2613585    15211.451   -42514.506    27199.492    60949.368    12635.515   -2488.0738    19457.972    77.382763 
   91600    1688.0739   -118.80537    1.5274047   -117.27796    -5861.058    4.2683882    4.2683882    4.2683882    -5861.058   -27596.496    31995.759   -21982.437   -7115.3762   -3739.3139    5131.9223    77.766351 
   91700    1568.7928   -118.69232    1.4194767   -117.27284   -5958.7189    4.2670567    4.2670567    4.2670567   -5958.7189    19246.543   -18597.241   -18525.459    4744.1417    5685.9923     1701.717    77.693601 
   91800    908.18515   -118.10005   0.82174501   -117.27831    6190.6235    4.2670209    4.2670209    4.2670209    6190.6235    16901.459    7540.4632   -5870.0514    18381.552     2183.704    2074.5054    77.691641 
   91900    1334.7791   -118.48092    1.2077362   -117.27319   -1194.5336    4.2696229    4.2696229    4.2696229   -1194.5336   -7985.9569    1058.0908    3344.2653   -2775.3106    -2752.286    8368.4414    77.833857 
   92000    1831.5527   -118.92562    1.6572273   -117.26839    3980.1022    4.2655934    4.2655934    4.2655934    3980.1022    13823.502   -9275.8225    7392.6272   -9078.4371   -36.146691   -7586.9934    77.613697 
   92100    1447.3815   -118.58439    1.3096212   -117.27477   -17076.832    4.2685239    4.2685239    4.2685239   -17076.832    19877.317   -47048.073   -24059.741    11731.618    5946.3741   -1936.6069     77.77377 
   92200    1048.2923   -118.22494   0.94851687   -117.27642    -8016.631    4.2673201    4.2673201    4.2673201    -8016.631   -5433.5683   -18390.823   -225.50155    1315.8964    1353.5757    16471.272    77.707988 
   92300    1375.1883   -118.51724    1.2442993   -117.27295     10043.73    4.2598348    4.2598348    4.2598348     10043.73   -52456.407    43934.428    38653.171   -8331.3642   -1106.3351    3421.7643    77.299782 
   92400    1584.0538   -118.71358    1.4332851    -117.2803       3678.7    4.2600687    4.2600687    4.2600687       3678.7   -5634.3317   -917.31186    17587.744    20990.889    5629.4461   -2341.7643    77.312517 
   92500     1528.457   -118.66752      1.38298   -117.28454    9118.9196    4.2651161    4.2651161    4.2651161    9118.9196    29446.783   -12998.127    10908.104    30991.917    351.52834    6115.5388    77.587645 
   92600    1598.7471    -118.7269      1.44658   -117.28032   -261.59915    4.2652215    4.2652215    4.2652215   -261.59915   -15485.244    3731.2596    10969.187   -3873.4359    1367.5042     1446.025    77.593399 
   92700     1188.116   -118.35757    1.0750323   -117.28253    7341.6435    4.2583895    4.2583895    4.2583895    7341.6435   -45894.138    34898.723    33020.345    11729.623   -2958.8189    586.09962    77.221129 
   92800    1153.7165   -118.33087    1.0439069   -117.28696    12153.628    4.2518237    4.2518237    4.2518237    12153.628    -43091.93    46074.059    33478.756     32066.63   -1155.7101   -2405.4114    76.864488 
   92900    1724.4194   -118.85231    1.5602909   -117.29202   -6529.7659    4.2598836    4.2598836    4.2598836   -6529.7659   -1119.4472   -9646.9088   -8822.9415   -3549.1151    4588.0489    4383.3937    77.302438 
   93000    1458.6631   -118.61358     1.319829   -117.29375   -3100.9973    4.2683893    4.2683893    4.2683893   -3100.9973    -5067.744    4462.5003   -8697.7483   -17158.774   -4490.6566    11665.024    77.766415 
   93100    1266.4042   -118.42918    1.1458691   -117.28332   -10404.359     4.263978     4.263978     4.263978   -10404.359   -73153.659      36707.5    5233.0802    14791.626    -3356.392    9367.4327    77.525551 
   93200    1348.0298   -118.49658    1.2197257   -117.27686   -5606.2284    4.2583583    4.2583583    4.2583583   -5606.2284    -62036.73    32832.103    12385.942    7556.1633    388.06193   -6189.8136    77.219429 
   93300    1349.7438      -118.51    1.2212766   -117.28872    1413.9347    4.2601182    4.2601182    4.2601182    1413.9347    7401.0433   -5807.9263    2648.6871   -21874.114   -6139.0872    2249.7034    77.315212 
   93400    1511.4438   -118.66001    1.3675861   -117.29242   -1474.9826    4.2682113    4.2682113    4.2682113   -1474.9826   -13917.893    21921.334   -12428.389   -13866.882   -11655.277     292.2652    77.756685 
   93500     1777.478   -118.88454    1.6082994   -117.27624   -9302.0886    4.2687725    4.2687725    4.2687725   -9302.0886   -44218.962    1796.5568     14516.14    2214.2571   -1818.6509   -8030.3336    77.787358 
   93600    939.71377   -118.12478   0.85027276   -117.27451    20257.345    4.2597916    4.2597916    4.2597916    20257.345   -36214.478    42098.453    54888.059   -11178.896    5676.7604    8133.9197    77.297432 
   93700     929.8891    -118.1261    0.8413832   -117.28472   -902.65743    4.2656905    4.2656905    4.2656905   -902.65743   -33777.158    16398.942    14670.243   -20599.317   -7090.3993    7727.2623    77.618997 
   93800    1978.0864   -119.06885    1.7898142   -117.27904   -13939.481    4.2698188    4.2698188    4.2698188   -13939.481    1700.2749   -16102.274   -27416.445    4291.2685   -2207.9246   -3372.0201    77.844571 
   93900    1956.5472   -119.04205     1.770325   -117.27173    -2077.987    4.2583189    4.2583189    4.2583189    -2077.987   -847.32799   -24626.207    19239.574    20170.842    1079.5062   -6126.4839    77.217291 
   94000    773.98106   -117.98075   0.70031433   -117.28043   -8763.7343     4.258247     4.258247     4.258247   -8763.7343   -60006.634    8182.3536    25533.078   -3730.8589   -3566.5519    5782.9021    77.213376 
   94100    898.69418   -118.10034   0.81315738   -117.28718   -7002.4632     4.262806     4.262806     4.262806   -7002.4632   -41725.029     16508.81    4208.8291   -5835.7931   -27545.929    9135.0286    77.461642 
   94200    2021.8116   -119.11367    1.8293776   -117.28429    9309.2844     4.262404     4.262404     4.262404    9309.2844    18492.137   -5742.0419    15177.758    17818.443   -8136.8813    2799.8028    77.439732 
   94300    2067.9557      -119.15    1.8711298   -117.27887   -14671.682    4.2686487    4.2686487    4.2686487   -14671.682   -7929.9345   -30677.956   -5407.1541    11376.966    10225.654    5152.5822    77.780594 
   94400    773.02761   -117.97491   0.69945163   -117.27546    -11711.24    4.2677182    4.2677182    4.2677182    -11711.24   -46335.795    20.943357    11181.131   -16044.707   -12476.003    5867.3303    77.729737 
   94500    667.13294   -117.87946    0.6036359   -117.27582    15048.693    4.2676319    4.2676319    4.2676319    15048.693   -7953.3762    35049.848    18049.606   -8661.3191   -14910.315    5051.6404    77.725023 
   94600    1947.6446   -119.02874    1.7622698   -117.26647   -911.39517    4.2745213    4.2745213    4.2745213   -911.39517    7685.9164    3789.0727   -14209.175    8361.6714      -1560.9    3855.3058    78.102055 
   94700    2010.4124   -119.08433    1.8190634   -117.26526    5195.1374    4.2690587    4.2690587    4.2690587    5195.1374    23473.476    20720.766   -28608.829   -3627.8431   -11420.495    1211.8359    77.803008 
   94800    1079.1623   -118.24378   0.97644872   -117.26733   -7289.9374    4.2719551    4.2719551    4.2719551   -7289.9374   -48608.956    21063.262    5675.8821   -11749.035   -11980.568     11506.25    77.961475 
   94900    844.59656    -118.0262   0.76420872   -117.26199   -15075.928    4.2729427    4.2729427    4.2729427   -15075.928   -84247.243   -3380.5182    42399.978    7755.0996   -1988.6487   -3048.8615    78.015554 
   95000     1348.148   -118.48128    1.2198326   -117.26145    14826.362    4.2648537    4.2648537    4.2648537    14826.362   -24648.505    25243.065    43884.524    19344.122   -11407.808    8103.9213    77.573329 
   95100    1940.1645    -119.0283    1.7555016    -117.2728   -6374.8755    4.2683648    4.2683648    4.2683648   -6374.8755    14020.319   -14665.663   -18479.282   -6996.7097   -21069.564    10917.102    77.765073 
   95200    1573.8437   -118.69913    1.4240469   -117.27508   -22153.098    4.2679034    4.2679034    4.2679034   -22153.098   -28246.014   -13497.507   -24715.773    866.86681    730.26015   -4253.9923    77.739861 
   95300    835.98138   -118.03142   0.75641352   -117.27501    20432.079    4.2535718    4.2535718    4.2535718    20432.079   -30831.998    54020.049    38108.186    24628.198    4007.0571    7297.3312    76.959337 
   95400    1125.0504   -118.30487    1.0179693    -117.2869    169.62756    4.2590568    4.2590568    4.2590568    169.62756   -46793.976     31904.55    15398.309   -5258.0962   -14083.402   -2242.6472    77.257438 
   95500    2090.3432    -119.1786    1.8913865   -117.28721   -9491.1619    4.2638534    4.2638534    4.2638534   -9491.1619   -13362.054    8511.0689     -23622.5    3678.7128     -10303.5   -1893.2424    77.518754 
   95600    1694.2191   -118.82341    1.5329651   -117.29045     5259.198    4.2586761    4.2586761    4.2586761     5259.198    -9321.323    30918.554   -5819.6366    29227.749    7212.2095    5353.7573    77.236723 
   95700    777.48292   -117.99896   0.70348288   -117.29548   -13069.792      4.25851      4.25851      4.25851   -13069.792   -77008.991    24616.013    13183.604    11839.553   -2717.1595   -5478.6773    77.227683 
   95800    1153.3031   -118.33577    1.0435329   -117.29223    7469.7973    4.2550636    4.2550636    4.2550636    7469.7973   -36096.909     49310.12    9196.1808   -7242.8412   -21818.532    3083.8661    77.040334 
   95900    2024.7305   -119.12733    1.8320187   -117.29531   -2467.2924    4.2623306    4.2623306    4.2623306   -2467.2924    16213.395    10743.968    -34359.24    6401.3887   -6361.2646    5719.9028     77.43573 
   96000    1422.9324   -118.57979    1.2874991   -117.29229   -8163.8801    4.2657053    4.2657053    4.2657053   -8163.8801   -1943.8416   -1864.3238   -20683.475    22342.057    6079.2128   -2954.2337    77.619806 
   96100    849.42286   -118.05725   0.76857566   -117.28868    5362.6309    4.2533706    4.2533706    4.2533706    5362.6309   -38303.266    34100.587    20290.572   -9012.4168   -12668.318    -673.2767    76.948417 
   96200    1424.2523   -118.57968    1.2886934   -117.29099   -7180.4266    4.2602412    4.2602412    4.2602412   -7180.4266   -50544.934    30866.337   -1862.6832   -16408.864   -16704.362     5146.685    77.321909 
   96300    1869.2984   -118.97973    1.6913805   -117.28835   -17316.873     4.262243     4.262243     4.262243   -17316.873   -7338.4193   -9151.2623   -35460.937    23100.034    6389.7582    1360.4271    77.430957 
   96400    1392.9992   -118.55071     1.260415    -117.2903   -2558.6658    4.2562721    4.2562721    4.2562721   -2558.6658   -4787.9124   -445.61671   -2442.4684    11050.039     1973.196   -2002.4667    77.105999 
   96500    1121.7874   -118.31099    1.0150168   -117.29597   -7496.4867    4.2641375    4.2641375    4.2641375   -7496.4867   -62711.248    18986.853    21234.934   -18866.846   -16144.742    1187.1473    77.534251 
   96600    1442.9968   -118.59437    1.3056538   -117.28872   -4439.4171    4.2613822    4.2613822    4.2613822   -4439.4171   -39671.785    17151.014    9202.5199    -5074.412    328.76475    4150.5528    77.384049 
   96700    1361.8863   -118.51815    1.2322633   -117.28589    10225.041    4.2605567    4.2605567    4.2605567    10225.041    9790.2302   -1321.0615    22205.953    10178.621    23327.337    2525.5698    77.339086 
   96800    1484.0713   -118.62669    1.3428189   -117.28387   -7984.4486    4.2683318    4.2683318    4.2683318   -7984.4486    -2714.497   -32381.945    11143.097   -12816.321   -877.85888   -314.61428     77.76327 
   96900    1513.9722   -118.64874    1.3698738   -117.27886    6416.9161    4.2643155    4.2643155    4.2643155    6416.9161   -45249.472      10188.9    54311.321   -15030.233   -13159.333   -315.57783    77.543959 
   97000    1239.1864   -118.40152    1.1212419   -117.28028   -13426.389    4.2671019    4.2671019    4.2671019   -13426.389   -72300.484    26587.893    5433.4238    2518.6377    21329.505     7695.354    77.696067 
   97100    1172.1867   -118.33838    1.0606192   -117.27776   -12941.543     4.262707     4.262707     4.262707   -12941.543   -603.93939   -3796.9043   -34423.785   -4934.0904    16706.878   -5699.4355    77.456246 
   97200    1709.6059   -118.82716    1.5468873   -117.28027    19203.102    4.2537151    4.2537151    4.2537151    19203.102    45447.994    2415.9742    9745.3362   -25938.671   -1466.1287   -1227.9264    76.967115 
   97300    1486.7384   -118.63662    1.3452321   -117.29139   -176.32935    4.2651072    4.2651072    4.2651072   -176.32935   -29981.435     14102.57    15349.877   -11167.971    12757.942    7806.5652    77.587159 
   97400    1079.5131   -118.26099   0.97676613   -117.28423   -2692.7386    4.2657683    4.2657683    4.2657683   -2692.7386   -42741.029    20231.941    14430.872    8676.7541    20868.354   -2591.4203    77.623241 
   97500    1393.7268   -118.53957    1.2610733   -117.27849    6811.7064    4.2615756    4.2615756    4.2615756    6811.7064   -7950.3192    13039.828     15345.61   -7434.7256    4037.8279    1320.0896     77.39459 
   97600    1880.9878   -118.98434    1.7019573   -117.28239   -8095.8113     4.270965     4.270965     4.270965   -8095.8113     -6827.26   -3373.2247   -14086.949   -11643.269    3461.7387    4913.7068    77.907278 
   97700    1368.2069   -118.51611    1.2379824   -117.27813    5486.5921    4.2678917    4.2678917    4.2678917    5486.5921   -34523.694    38319.737    12663.733    3474.5565    16927.159   -2207.5386    77.739218 
   97800     806.6065   -118.00462   0.72983451   -117.27479    12451.606    4.2608502    4.2608502    4.2608502    12451.606   -60416.449    59292.596    38478.671    -3593.999     6427.108   -1344.1329    77.355071 
   97900    1431.1637   -118.57029     1.294947   -117.27534   -23952.798    4.2730809    4.2730809    4.2730809   -23952.798   -48712.135   -16434.242   -6712.0163   -17371.693   -6562.2503    4272.5836    78.023125 
   98000    2082.0103   -119.15674    1.8838466   -117.27289   -6348.5431    4.2664363    4.2664363    4.2664363   -6348.5431   -7039.5957   -21778.988    9772.9544   -6196.0076    17110.689    2442.7545    77.659714 
   98100    1510.6892   -118.64368    1.3669034   -117.27678    12546.708    4.2618944    4.2618944    4.2618944    12546.708   -31960.272    34025.025    35575.371    498.05616    10923.065    144.37573    77.411956 
   98200    861.93257   -118.05563    0.7798947   -117.27574   -9166.2633    4.2714704    4.2714704    4.2714704   -9166.2633   -73053.593    26164.042     19390.76     -5888.91   -13762.122   -7157.6305    77.934942 
   98300    1094.7038   -118.26447   0.99051098   -117.27395    15601.524    4.2600685    4.2600685    4.2600685    15601.524   -36267.815    43907.938    39164.448   -4968.9801    4933.4103   -1112.8056    77.312505 
   98400    1747.4972   -118.86756    1.5811722   -117.28639    1001.5178    4.2603609    4.2603609    4.2603609    1001.5178   -13966.675    19876.628      -2905.4    7603.0031    22022.563    4226.1652    77.328427 
   98500    1827.9442   -118.93771    1.6539623   -117.28374   -23769.996    4.2703563    4.2703563    4.2703563   -23769.996   -19661.573   -23177.456   -28470.959    9102.1593    9411.7057    8377.5579    77.873972 
   98600    1282.7836   -118.43133    1.1606896   -117.27064   -5228.3346    4.2635995    4.2635995    4.2635995   -5228.3346    -35632.57    4675.4511    15272.115   -3660.6573    6032.3166   -2341.2655    77.504906 
   98700    740.43541   -117.95104   0.66996152   -117.28108   -1384.4775    4.2639758    4.2639758    4.2639758   -1384.4775   -43935.511    39506.227     275.8513   -9505.2518    22269.986    1319.6906    77.525429 
   98800    1415.7286   -118.56409     1.280981   -117.28311    5178.5569    4.2683445    4.2683445    4.2683445    5178.5569     21531.09    3852.0383   -9847.4571   -11226.915    9218.3791     5641.076    77.763962 
   98900    2236.0444   -119.29409      2.02322   -117.27087   -9927.6755    4.2720858    4.2720858    4.2720858   -9927.6755    11978.242   -32739.307   -9021.9609    -1518.349   -10143.572   -26.130551    77.968632 
   99000    1251.4777    -118.3991    1.1323634   -117.26674    -19652.09    4.2767131    4.2767131    4.2767131    -19652.09   -44381.969   -5518.6792   -9055.6222    1581.9873   -1282.8497   -1365.7154     78.22226 
   99100    555.46648   -117.76884   0.50259774   -117.26624    608.34455    4.2671067    4.2671067    4.2671067    608.34455   -51452.082    50130.486    3146.6296   -7256.5892    5190.0023    1327.1358    77.696328 
   99200    1667.8427   -118.77066    1.5090991   -117.26156    14407.645    4.2568456    4.2568456    4.2568456    14407.645   -10837.689    36716.629    17343.994   -9210.1527   -1839.3167    9028.6628    77.137171 
   99300    2084.2162   -119.15942    1.8858426   -117.27358   -4352.6752    4.2644334    4.2644334    4.2644334   -4352.6752    14926.959    -15451.26   -12533.725    5086.1998    -3695.217    -2162.582    77.550397 
   99400    1263.7784   -118.42635    1.1434933   -117.28285    -8574.894    4.2695639    4.2695639    4.2695639    -8574.894   -25112.428   -6.1640565   -606.08976    4494.5328    10778.658   -7292.5065    77.830634 
   99500    959.23407   -118.14651   0.86793515   -117.27858    12451.433    4.2623684    4.2623684    4.2623684    12451.433   -59321.702      45613.1    51062.901   -2034.9866     5210.061    501.90384     77.43779 
   99600    1587.8539   -118.70979    1.4367236   -117.27307    3958.3683    4.2578044    4.2578044    4.2578044    3958.3683   -46947.086    25766.586    33055.604    1536.4202   -6072.7602    2122.8477    77.189306 
   99700      1668.95   -118.79535     1.510101   -117.28525    5464.8553    4.2590816    4.2590816    4.2590816    5464.8553    4402.6251   -1349.1232    13341.064    5071.0739    10409.615   -2291.7501    77.258789 
   99800    1265.1843   -118.44155    1.1447654   -117.29678   -931.28304    4.2628557    4.2628557    4.2628557   -931.28304   -5183.1209    12624.332    -10235.06    3506.0097    8227.4092    725.68421    77.464354 
   99900    1206.2303    -118.3851    1.0914226   -117.29368   -5128.8206    4.2597778    4.2597778    4.2597778   -5128.8206   -54784.533    30156.921    9241.1502   -2210.7857   -10114.843    1358.5793    77.296678 
  100000    1417.0551   -118.56696    1.2821813   -117.28478    5659.4349    4.2577678    4.2577678    4.2577678    5659.4349   -61715.006    35480.184    43213.126   -6316.2629    -2019.186   -636.10871    77.187312 
Loop time of 221.712 on 1 procs for 100000 steps with 8 atoms

Pair  time (%) = 75.8691 (34.2196)
Kspce time (%) = 54.2173 (24.4539)
Neigh time (%) = 0.265487 (0.119744)
Comm  time (%) = 11.6524 (5.25564)
Outpt time (%) = 0.314324 (0.141771)
Other time (%) = 79.3937 (35.8093)

Nlocal:    8 ave 8 max 8 min
Histogram: 1 0 0 0 0 0 0 0 0 0
Nghost:    2189 ave 2189 max 2189 min
Histogram: 1 0 0 0 0 0 0 0 0 0
Neighs:    2346 ave 2346 max 2346 min
Histogram: 1 0 0 0 0 0 0 0 0 0

Total # of neighbors = 2346
Ave neighs/atom = 293.25
Neighbor list builds = 438
Dangerous builds = 0
unfix 20
unfix 21
print "seeds:4065415"
seeds:4065415
