LAMMPS (10 Feb 2015)
# ---- initialize simulations
clear
units metal
dimension 3
boundary p p p
atom_style charge
atom_modify map array
# ---- create atoms
read_data /Users/eugeneragasa/pyflamestk_git/pypospack/tests/tests_integration/workflow/WorkflowLammpsThermalExpansion/param_2424/MgO_NaCl_unit.npt.T1400/lammps.structure
  triclinic box = (0 0 0) to (4.2565 4.2565 4.2565) with tilt (0 0 0)
  1 by 1 by 1 MPI processor grid
  reading atoms ...
  8 atoms
# ---- define interatomic potential
include potential.mod
mass 1 24.305
mass 2 15.999

group Mg type 1
4 atoms in group Mg
group O type 2
4 atoms in group O

set group Mg charge 1.67924051174
  4 settings made for charge
set group O charge -1.67924051174
  4 settings made for charge

variable R_cut equal 10.0

pair_style buck/coul/long ${R_cut}
pair_style buck/coul/long 10
pair_coeff 1 1 0.0 0.5 0.0 ${R_cut}
pair_coeff 1 1 0.0 0.5 0.0 10
pair_coeff 1 2 1306.98043044 0.288034123545 0.0 ${R_cut}
pair_coeff 1 2 1306.98043044 0.288034123545 0.0 10
pair_coeff 2 2 2032.48006166 0.252585756474 14.8401495582 ${R_cut}
pair_coeff 2 2 2032.48006166 0.252585756474 14.8401495582 10

kspace_style pppm 1.0e-5

neighbor 1.0 bin
neigh_modify every 1 delay 0 check yes
# ---- define settings
compute eng all pe/atom
compute eatoms all reduce sum c_eng
# ---- run minimization
reset_timestep 0
fix 1 all box/relax iso 0.0 vmax 0.001
thermo 10
thermo_style custom step pe lx ly lz xy xz yz press pxx pyy pzz pxy pxz pyz c_eatoms
min_style cg
minimize 1e-25 1e-25 5000 10000
PPPM initialization ...
  G vector (1/distance) = 0.352997
  grid = 8 8 8
  stencil order = 5
  estimated absolute RMS force accuracy = 4.02799e-05
  estimated relative force accuracy = 2.79728e-06
  using double precision FFTs
  3d grid and FFT values/proc = 3375 512
Neighbor list info ...
  1 neighbor list requests
  update every 1 steps, delay 0 steps, check yes
  master list distance cutoff = 11
Memory usage per processor = 4.06549 Mbytes
Step PotEng Lx Ly Lz Xy Xz Yz Press Pxx Pyy Pzz Pxy Pxz Pyz eatoms 
       0   -114.09861       4.2565       4.2565       4.2565            0            0            0    83013.551    83013.551    83013.551    83013.551 1.023811e-10 -6.100653e-11 -2.0427431e-10   -114.09861 
      10   -114.17745     4.299065     4.299065     4.299065            0            0            0    27173.213    27173.213    27173.213    27173.213 -1.7620305e-11 8.177727e-11 3.0587737e-11   -114.17745 
      19   -114.18814    4.3219883    4.3219883    4.3219883            0            0            0 -0.014642896 -0.014642896 -0.014642896 -0.014642896 -4.2788838e-11 1.5607732e-10 -4.5124802e-11   -114.18814 
Loop time of 0.00873303 on 1 procs for 19 steps with 8 atoms

Minimization stats:
  Stopping criterion = linesearch alpha is zero
  Energy initial, next-to-last, final = 
        -114.098610965     -114.188144107     -114.188144107
  Force two-norm initial, final = 11.9872 7.95763e-05
  Force max component initial, final = 11.9872 1.65313e-05
  Final line search alpha, max atom move = 0.5 8.26564e-06
  Iterations, force evaluations = 19 24

Pair  time (%) = 0.00233364 (26.722)
Kspce time (%) = 0.00135684 (15.5369)
Neigh time (%) = 0 (0)
Comm  time (%) = 0.000370979 (4.248)
Outpt time (%) = 1.19209e-05 (0.136504)
Other time (%) = 0.00465965 (53.3566)

Nlocal:    8 ave 8 max 8 min
Histogram: 1 0 0 0 0 0 0 0 0 0
Nghost:    2189 ave 2189 max 2189 min
Histogram: 1 0 0 0 0 0 0 0 0 0
Neighs:    2344 ave 2344 max 2344 min
Histogram: 1 0 0 0 0 0 0 0 0 0

Total # of neighbors = 2344
Ave neighs/atom = 293
Neighbor list builds = 0
Dangerous builds = 0
unfix 1
# ---- define output variables ----
variable natoms equal "count(all)"
variable tot_energy equal "c_eatoms"
variable length_x equal "lx"
variable length_y equal "ly"
variable length_z equal "lz"
variable tilt_xy equal "xy"
variable tilt_xz equal "xz"
variable tilt_yz equal "yz"
variable tot_press equal "press"
variable press_xx equal "pxx"
variable press_yy equal "pyy"
variable press_zz equal "pzz"
variable press_xy equal "pxy"
variable press_xz equal "pxz"
variable press_yz equal "pyz"

# ---- output ----
print "pypospack:output_section:begin"
pypospack:output_section:begin
print "tot_energy = ${tot_energy}"
tot_energy = -114.188144106894
print "num_atoms = ${natoms}"
num_atoms = 8
print "xx = ${length_x}"
xx = 4.32198834005221
print "yy = ${length_y}"
yy = 4.32198834005221
print "zz = ${length_z}"
zz = 4.32198834005221
print "xy = ${tilt_xy}"
xy = 0
print "xz = ${tilt_xz}"
xz = 0
print "yz = ${tilt_yz}"
yz = 0
print "tot_press = ${tot_press}"
tot_press = -0.0146428956780545
print "pxx = ${press_xx}"
pxx = -0.0146428956419126
print "pyy = ${press_yy}"
pyy = -0.0146428958165915
print "pzz = ${press_zz}"
pzz = -0.0146428955756593
print "pxy = ${press_xy}"
pxy = -4.27888380608005e-11
print "pxz = ${press_xz}"
pxz = 1.56077321107314e-10
print "pyz = ${press_yz}"
pyz = -4.51248020389503e-11
print "pypospack:output_section:done"
pypospack:output_section:done
print "pypospack:lammps_sim:done"
pypospack:lammps_sim:done
#------------------------------------------------------------------------------
# RUN THERMOSTAT
# running using an NPT Nose-Hoover style thermostat
#------------------------------------------------------------------------------
variable tempdamp equal 0.1
variable pressdamp equal 1.0
# set initial velocities
velocity all create 1400 6276362 mom yes dist gaussian loop all
# fix for Nose-Hoover style thermostat
fix 20 all npt temp 1400 1400 0.1 aniso 0.0 0.0 1.0 drag 1.0 couple xyz
variable boxx equal lx
variable boxy equal ly
variable boxz equal lz
variable boxp equal press
variable boxt equal temp
# calculate averages every 10000 steps
reset_timestep 0
fix 21 all ave/time 10 10 100 v_boxx v_boxy v_boxz v_boxp v_boxt file lattice.out
thermo_style custom step temp pe ke etotal press lx ly lz press pxx pyy pzz pxy pxz pyz vol
thermo_modify flush yes
thermo 100
run 100000
PPPM initialization ...
  G vector (1/distance) = 0.35233
  grid = 8 8 8
  stencil order = 5
  estimated absolute RMS force accuracy = 4.15437e-05
  estimated relative force accuracy = 2.88505e-06
  using double precision FFTs
  3d grid and FFT values/proc = 3375 512
Memory usage per processor = 3.06549 Mbytes
Step Temp PotEng KinEng TotEng Press Lx Ly Lz Press Pxx Pyy Pzz Pxy Pxz Pyz Volume 
       0         1400   -114.18815    1.2667494   -112.92141    16757.577    4.3219883    4.3219883    4.3219883    16757.577    5735.3625    21133.855    23403.514    4850.5493    5443.5126    7468.4882    80.732941 
     100    522.54889   -113.24735   0.47281322   -112.77453     17159.47     4.358401     4.358401     4.358401     17159.47   -12792.093    2789.0221    61481.479   -3675.2574   -1233.0092   -3757.0899    82.790701 
     200    1079.9578   -113.38665   0.97716853   -112.40948   -37907.273    4.3999249    4.3999249    4.3999249   -37907.273   -60376.126   -38581.283   -14764.409   -4764.4163   -2186.7199    20694.685    85.179639 
     300    1229.7516   -113.22417    1.1127051   -112.11146     -5605.73    4.3923871    4.3923871    4.3923871     -5605.73    -41241.73   -16223.415    40647.956   -3843.1328    1765.9699   -8492.5523     84.74261 
     400    1138.1265   -112.89672    1.0298008   -111.86692    45481.635      4.36622      4.36622      4.36622    45481.635   -5005.1786    69599.686    71850.398   -4782.0266    3434.5462    1016.6965    83.237079 
     500    1220.4046   -112.85159    1.1042478   -111.74734   -17678.405    4.3857694    4.3857694    4.3857694   -17678.405   -38170.185   -57907.204    43042.174   -2871.6456   -2252.1979    25980.155    84.360158 
     600    981.37232   -112.56691    0.8879663   -111.67894   -20447.413    4.4105462    4.4105462    4.4105462   -20447.413   -52612.683   -30627.523    21897.967   -2023.7016    573.73378    26812.768    85.797994 
     700    1354.3274   -112.86172    1.2254239    -111.6363   -3385.1289    4.4067318    4.4067318    4.4067318   -3385.1289   -63422.841    35375.199    17892.255    984.36712    8074.4289   -26439.183    85.575584 
     800    1409.7346   -112.91225    1.2755575   -111.63669  -0.39064026    4.3937639    4.3937639    4.3937639  -0.39064026   -41018.844   -5500.3444    46518.017    9570.0348     2459.505    3943.2474    84.822319 
     900    1991.0679   -113.46534    1.8015601   -111.66378    -8533.214    4.3920582    4.3920582    4.3920582    -8533.214    -44426.86   -8673.0558    27500.274   -8008.2204   -2358.9953    5999.0791     84.72357 
    1000    1817.7308   -113.33701     1.644721   -111.69229   -28729.493    4.4148446    4.4148446    4.4148446   -28729.493   -52954.026    4123.0823   -37357.537   -9902.4591    8892.6236   -12282.183    86.049085 
    1100    666.94135   -112.28412   0.60346255   -111.68066   -9726.7326    4.4094102    4.4094102    4.4094102   -9726.7326   -71963.027     34099.88    8682.9502    12910.756   -8067.5403    26156.122    85.731717 
    1200    1754.2618   -113.24522     1.587293   -111.65793   -2723.2906    4.3779501    4.3779501    4.3779501   -2723.2906   -44418.768    41565.061   -5316.1644   -928.74312   -3120.4718    2465.8774    83.909748 
    1300    1639.5999   -113.17301    1.4835444   -111.68946    -15061.11    4.3926777    4.3926777    4.3926777    -15061.11   -72049.968   -4050.1059    30916.744   -5354.0091   -1723.6264   -2544.7945     84.75943 
    1400     1639.395   -113.17019     1.483359   -111.68683    -42877.72    4.4080053    4.4080053    4.4080053    -42877.72   -39362.625   -28626.886   -60643.649     4393.009   -15752.961    20767.166    85.649796 
    1500    1213.3117   -112.77121    1.0978299   -111.67338    349.81232    4.3986012    4.3986012    4.3986012    349.81232   -24458.316    20542.014    4965.7393     176.4862   -2572.0638    18660.065    85.102781 
    1600    1122.0974   -112.67922    1.0152973   -111.66392     30414.25    4.3843281    4.3843281    4.3843281     30414.25   -52417.767    97986.432    45674.085   -5416.0119    11890.504    -26004.02    84.277017 
    1700    1452.8602   -112.99113    1.3145784   -111.67655    3784.4446    4.3844468    4.3844468    4.3844468    3784.4446   -15440.734    55366.546   -28572.478   -1468.9532   -477.20783    14010.803     84.28386 
    1800    1166.3186   -112.74556    1.0553096   -111.69025   -15293.398    4.4050432    4.4050432    4.4050432   -15293.398   -30923.776   -29819.372    14862.953    7712.3878    -14169.84    31956.243    85.477244 
    1900    1671.3167    -113.1732    1.5122424   -111.66095   -32874.553    4.4095272    4.4095272    4.4095272   -32874.553   -59459.989     8449.866   -47613.537    1518.5264   -7216.0007   -18200.941    85.738538 
    2000    832.96515    -112.4003   0.75368437   -111.64661    6670.0792    4.4057305    4.4057305    4.4057305    6670.0792   -52242.155    64650.986    7601.4066   -9877.1048     4550.677    13421.696    85.517259 
    2100    792.13196   -112.36641   0.71673765   -111.64967    18369.595    4.3938871    4.3938871    4.3938871    18369.595   -37743.043    93515.889   -664.06003   -5628.7859    15660.073   -2153.0653    84.829458 
    2200    1900.8421   -113.37233    1.7199219   -111.65241   -24870.956    4.3811226    4.3811226    4.3811226   -24870.956   -52304.431    9519.8097   -31828.247   -12620.053   -4242.2361     8937.033    84.092297 
    2300    1651.8809   -113.16574    1.4946566   -111.67108    6802.3979     4.387175     4.387175     4.387175    6802.3979   -35732.528   -26014.828     82154.55    2361.6953    2838.8503    9906.4023    84.441293 
    2400     1352.404   -112.91389    1.2236836   -111.69021   -7892.1464     4.401508     4.401508     4.401508   -7892.1464   -56438.062   -21655.254    54416.877   -29.894689    7825.7869    11654.937    85.271614 
    2500    1344.3763    -112.8887    1.2164199   -111.67228   -23185.591    4.3974761    4.3974761    4.3974761   -23185.591   -67166.423   -47906.786    45516.435   -3284.1193   -2004.1106   -2682.1505    85.037497 
    2600    1772.8105   -113.24365    1.6040762   -111.63957    25.614685    4.3781285    4.3781285    4.3781285    25.614685   -30348.781   -48725.829    79151.454    74.488903   -4292.9405    11011.018     83.92001 
    2700    1390.5427   -112.91288    1.2581923   -111.65468   -5450.3717    4.3847864    4.3847864    4.3847864   -5450.3717   -15442.853   -41797.691    40889.429    4316.3036     2748.816    9266.8119    84.303447 
    2800    1376.5977   -112.89911    1.2455745   -111.65353   -2951.5021    4.3983568    4.3983568    4.3983568   -2951.5021   -56135.689   -40958.428    88239.611      2529.12    10084.266   -3316.2876    85.088601 
    2900    1496.6698   -112.99476    1.3542183   -111.64055    2692.5661    4.3927628    4.3927628    4.3927628    2692.5661   -44130.024    -3428.289    55636.011   -309.95298   -1434.2215    19664.741    84.764353 
    3000    1269.3429   -112.78497    1.1485281   -111.63644   -6104.5867    4.3756765    4.3756765    4.3756765   -6104.5867   -28012.309    -27186.05    36884.599   -6182.6226   -8248.3336    26018.901    83.779087 
    3100    1287.5112   -112.82392    1.1649672   -111.65895     5718.628    4.3833638    4.3833638    4.3833638     5718.628   -51262.265    2527.3982     65890.75   -503.52126    16433.732   -5433.3068    84.221421 
    3200     1547.618   -113.05242    1.4003173    -111.6521   -10688.929    4.4060685    4.4060685    4.4060685   -10688.929    -44566.75   -20909.387    33409.349    661.61472    4470.1924    6441.4882    85.536945 
    3300    1288.8928   -112.81236    1.1662173   -111.64614   -34148.099    4.3908421    4.3908421    4.3908421   -34148.099   -42823.612   -75585.982    15965.297   -17309.328   -745.33508    11246.235    84.653218 
    3400    961.79667   -112.49385   0.87025384    -111.6236    11216.269     4.359327     4.359327     4.359327    11216.269   -8435.8728   -26703.467    68788.147   -7088.3436   -2469.1989    5559.5261    82.843484 
    3500     1520.809   -113.02764    1.3760599   -111.65158      18567.3    4.3747457    4.3747457    4.3747457      18567.3   -17807.188   -33158.901    106667.99     3363.907   -4055.4653   -6777.5969    83.725631 
    3600     1192.755   -112.73361    1.0792298   -111.65438   -50053.147    4.4138373    4.4138373    4.4138373   -50053.147     -66139.9   -96209.477    12189.935    505.22496   -10219.015    27889.329    85.990199 
    3700    1358.5384   -112.85207    1.2292341   -111.62283   -924.97591    4.3924208    4.3924208    4.3924208   -924.97591   -51353.532   -9923.4853    58502.089      12651.1    4476.8703   -4593.8372     84.74456 
    3800     1706.058   -113.15619    1.5436771   -111.61251     24163.94    4.3627742    4.3627742    4.3627742     24163.94   -18348.086   -252.00346     91091.91   -5681.3865      409.628    12226.995    83.040166 
    3900     1409.179   -112.92396    1.2750548    -111.6489    8994.7879    4.3634719    4.3634719    4.3634719    8994.7879   -18061.355   -21118.806    66164.525     1610.403    2252.1864    11370.261    83.080013 
    4000    1788.6573   -113.29394    1.6184147   -111.67553   -15967.583    4.3965893    4.3965893    4.3965893   -15967.583   -40706.389   -9676.1464    2479.7876    6144.5209    722.68571    23935.566    84.986062 
    4100    1371.5891   -112.88276    1.2410427   -111.64172    -17065.82    4.4027374    4.4027374    4.4027374    -17065.82   -76334.715   -41704.606    66841.862   -14356.145   -13118.575   -3575.1496    85.343088 
    4200    867.57571   -112.41736   0.78500073   -111.63236     20024.33    4.3614201    4.3614201    4.3614201     20024.33   -17595.665   -33025.084    110693.74    2655.6946    -6712.481   -140.19273    82.962868 
    4300    1761.9822   -113.21943    1.5942786   -111.62515   -14645.346    4.3568593    4.3568593    4.3568593   -14645.346    -11804.69   -34214.468    2083.1209     2084.056    3448.5781    35136.648    82.702873 
    4400    1222.5229   -112.75154    1.1061644   -111.64537   -1202.7705    4.3869324    4.3869324    4.3869324   -1202.7705   -34884.917   -13021.868    44298.474   -9699.4938   -2764.7219   -15267.745    84.427286 
    4500    984.88114   -112.52338   0.89114116   -111.63224    -12211.87    4.4029254    4.4029254    4.4029254    -12211.87   -48079.763   -9906.7548    21350.909    2109.0321    2417.1194     14554.37    85.354018 
    4600     1365.829   -112.85545    1.2358308   -111.61962    3783.4095    4.3793413    4.3793413    4.3793413    3783.4095   -11502.641   -29394.009    52246.878   -6291.1802     858.3933    20762.555    83.989767 
    4700    1448.8593   -112.92101    1.3109583   -111.61005     16813.68    4.3550406    4.3550406    4.3550406     16813.68   -16241.063    13362.254     53319.85    1556.6414    1823.5206   -21028.511    82.599351 
    4800     1318.111   -112.84614    1.1926545   -111.65348   -32926.595    4.3858954    4.3858954    4.3858954   -32926.595   -46115.173   -31854.788   -20809.825   -5559.8525   -1332.8474    6136.1417    84.367426 
    4900     1550.931   -113.02579     1.403315   -111.62247   -15984.069    4.4062429    4.4062429    4.4062429   -15984.069   -43585.377    5309.6329   -9676.4621   -1951.4728   -3892.3338   -2973.7696    85.547103 
    5000    1578.7589   -113.02815    1.4284942   -111.59966    3038.6882    4.3841731    4.3841731    4.3841731    3038.6882   -47710.206    -2361.412    59187.682    6403.2658    -3179.584    10400.819    84.268074 
    5100    1085.5883   -112.58849   0.98226313   -111.60622    24574.547    4.3654904    4.3654904    4.3654904    24574.547   -13131.078    31286.986    55567.734    10430.684   -8277.2903    12107.958    83.195361 
    5200    1525.8623   -113.00553    1.3806323    -111.6249    14761.334     4.373145     4.373145     4.373145    14761.334   -9921.4508    8163.9723     46041.48    1645.0499   -1618.2932    19641.233    83.633762 
    5300    1180.1314   -112.69843    1.0678077   -111.63063   -20910.451    4.4043612    4.4043612    4.4043612   -20910.451   -62115.829   -63990.028    63374.504    -6187.497    4658.4973    -2071.247     85.43755 
    5400    1122.0463   -112.63605     1.015251    -111.6208   -34690.111    4.3930639    4.3930639    4.3930639   -34690.111   -42478.882    -52270.59   -9320.8604   -1728.9796   -2528.6253    13219.046    84.781788 
    5500     1610.896   -113.04943    1.4575726   -111.59186    33530.319    4.3437491    4.3437491    4.3437491    33530.319    4386.0995    62657.407     33547.45   -964.29369   -4856.5215    24163.236    81.958536 
    5600    1473.6386   -112.98311    1.3333792   -111.64973     18415.67    4.3643063    4.3643063    4.3643063     18415.67   -17508.236    20469.048    52286.197    12001.535   -3297.2828   -21801.825    83.127681 
    5700    1119.2931   -112.65004    1.0127599   -111.63728   -32243.925    4.4142628    4.4142628    4.4142628   -32243.925   -45190.075   -4467.3295   -47074.369    2000.1803   -5063.4699     3689.499    86.015074 
    5800    1514.2377   -112.97511    1.3701141   -111.60499   -26752.022    4.3936648    4.3936648    4.3936648   -26752.022    -32994.75   -30239.864   -17021.452   -2442.5189   -1591.1577    20448.336    84.816583 
    5900    1217.5352   -112.68905    1.1016514    -111.5874    55302.927    4.3438337    4.3438337    4.3438337    55302.927   -14400.915    63329.173    116980.52    13744.451    3010.2652   -27105.772    81.963324 
    6000    1789.4788   -113.26302     1.619158   -111.64386    9250.8756    4.3610532    4.3610532    4.3610532    9250.8756   -26062.871   -309.68602    54125.184   -14004.059   -2502.9855    16817.635    82.941934 
    6100    1362.2345   -112.89613    1.2325784   -111.66355   -28113.772    4.4112661    4.4112661    4.4112661   -28113.772   -53007.139    -17544.44   -13789.736   -5914.5727   -4278.3187    22859.347    85.840011 
    6200    1660.8287   -113.11547    1.5027527   -111.61272   -53101.245    4.4110064    4.4110064    4.4110064   -53101.245   -71833.961    -63912.76   -23557.012    11440.482    1684.2254    2420.2642    85.824854 
    6300     1439.952   -112.88387    1.3028988   -111.58097     18284.91    4.3591868    4.3591868    4.3591868     18284.91   -29101.355   -9157.7387    93113.823   -7002.2326    1807.3281    10128.085    82.835488 
    6400    1237.5814   -112.72628    1.1197897   -111.60649    17306.545    4.3508991    4.3508991    4.3508991    17306.545    3522.9754    30723.475    17673.186    4090.9474    1901.4409    31260.904    82.363927 
    6500    1166.3213   -112.71212     1.055312   -111.65681   -19089.496    4.4012835    4.4012835    4.4012835   -19089.496   -63412.593   -26456.822    32600.928    20157.488   -3064.8202    -12588.83    85.258569 
    6600    1561.4683   -113.02511    1.4128493   -111.61226    -32429.17    4.4135554    4.4135554    4.4135554    -32429.17   -53626.809   -32129.536   -11531.167     3501.033   -223.72754    2281.6825    85.973724 
    6700    928.46063     -112.429   0.84009069    -111.5889    35519.797    4.3625282    4.3625282    4.3625282    35519.797    16884.648    20351.548    69323.196    9805.0403    9885.4127    3889.2213    83.026118 
    6800    1086.8991   -112.59604   0.98344911   -111.61259    24218.999    4.3532723    4.3532723    4.3532723    24218.999    649.37465    36411.308    35596.315   -1239.6918   -142.55904     2840.044    82.498777 
    6900    1806.6807   -113.26613    1.6347226   -111.63141   -9702.5266    4.3852693    4.3852693    4.3852693   -9702.5266   -64770.459    34020.064    1642.8153   -6128.0799   -9323.9551   -8640.1561      84.3313 
    7000    1326.7374   -112.83086    1.2004599    -111.6304   -15341.405     4.402483     4.402483     4.402483   -15341.405   -52632.884   -3941.5932    10550.263    12428.767    3671.8603    4894.3019    85.328296 
    7100    1224.5042   -112.72738    1.1079572   -111.61942   -18621.275    4.3814484    4.3814484    4.3814484   -18621.275   -52898.642   -24659.604    21694.422     7243.846    -2222.338   -12218.369    84.111057 
    7200    1657.7534   -113.09307    1.4999701    -111.5931    42594.245    4.3466342    4.3466342    4.3466342    42594.245   -17380.997    44245.171    100918.56   -6530.8839   -12216.504   -19369.959    82.121954 
    7300    1249.3201   -112.77367    1.1304111   -111.64326   -26605.182    4.3780174    4.3780174    4.3780174   -26605.182   -29381.329   -26705.246   -23728.972     7440.715    6499.1013    5153.2388    83.913621 
    7400    831.06022   -112.37793   0.75196075   -111.62597   -43393.127    4.3960352    4.3960352    4.3960352   -43393.127   -43964.471   -54761.256   -31453.654    17111.083   -3299.7195   -7624.8517    84.953933 
    7500    1705.6146   -113.13692     1.543276   -111.59364    25220.975    4.3671457    4.3671457    4.3671457    25220.975   -10019.546    41214.117    44468.353   -1656.1622   -3633.8279    4419.1638    83.290033 
    7600    1074.1864   -112.58682   0.97194645   -111.61488   -17565.945    4.3705257    4.3705257    4.3705257   -17565.945   -35658.687   -45148.341    28109.192   -5959.3447    23652.126    1819.6055    83.483577 
    7700    937.08026   -112.47411   0.84788991   -111.62622    -20074.47    4.3654399    4.3654399    4.3654399    -20074.47   -33458.758   -47270.339    20505.686     19718.42    3630.6263    4055.1124    83.192474 
    7800    1907.0734   -113.35388    1.7255601   -111.62832    1328.2528    4.3701696    4.3701696    4.3701696    1328.2528    -24199.17   -9803.3191    37987.248   -7203.3579    -631.4083   -5375.4713    83.463168 
    7900    1123.7253    -112.6514    1.0167702   -111.63463   -1528.1306    4.3883976    4.3883976    4.3883976   -1528.1306   -65403.945    13872.783     46946.77   -10117.055    13366.671    9423.3103    84.511908 
    8000    1640.4662    -113.1043    1.4843283   -111.61997    -1683.236    4.3728178    4.3728178    4.3728178    -1683.236   -21489.219   -15142.693    31582.203     7471.308    -5540.373    3150.6203     83.61499 
    8100    1598.6366   -113.06767      1.44648   -111.62119    29627.906    4.3687682    4.3687682    4.3687682    29627.906   -18818.603    33905.149    73797.173   -1333.5273   -7636.4927   -13721.662    83.382903 
    8200    1722.4779   -113.18288    1.5585342   -111.62435   -9883.0815    4.3727684    4.3727684    4.3727684   -9883.0815   -32444.431   -8557.3973    11352.583   -28190.586    2781.8211    9770.2775    83.612154 
    8300    1337.3854   -112.83276    1.2100944   -111.62267     24461.36    4.3705028    4.3705028    4.3705028     24461.36     21130.61    3081.1943    49172.276    3373.1211   -2182.0245    28431.861    83.482261 
    8400    1857.6877   -113.29884    1.6808748   -111.61797   -20924.915    4.3903145    4.3903145    4.3903145   -20924.915   -25091.053   -24443.586   -13240.105   -1992.3506    1385.7469   -4127.5914    84.622701 
    8500    1052.5658   -112.55849   0.95238361   -111.60611    3852.7335    4.3851632    4.3851632    4.3851632    3852.7335   -15643.969    10139.541    17062.629   -33925.474    7149.1659   -8907.3312    84.325182 
    8600    1494.1757   -112.93659    1.3519616   -111.58463    30072.408     4.362334     4.362334     4.362334    30072.408    40544.349    22360.167    27312.708    21440.918    -2920.249    19003.972    83.015033 
    8700    1520.4429   -112.98248    1.3757287   -111.60675   -19520.885    4.3745631    4.3745631    4.3745631   -19520.885   -26129.662   -29713.025   -2719.9695   -13616.933   -5186.7973    6396.3924    83.715149 
    8800    912.41083   -112.44595    0.8255685   -111.62038    -26172.31    4.3862115    4.3862115    4.3862115    -26172.31   -52151.767   -35687.215    9322.0521   -51375.655   -1574.2394   -887.15389    84.385673 
    8900    1544.2322   -113.00115    1.3972538    -111.6039    19042.136     4.376155     4.376155     4.376155    19042.136    47939.327   -8930.9527    18118.035    7167.6617      1452.43     14640.64    83.806576 
    9000    1387.2476   -112.86398    1.2552108   -111.60877   -2621.1124    4.3832208    4.3832208    4.3832208   -2621.1124   -29263.115     4419.204    16980.574   -22839.928   -9383.0492   -2566.2834    84.213175 
    9100    1003.1265   -112.51982   0.90764997   -111.61217   -11845.621    4.3868389    4.3868389    4.3868389   -11845.621   -37686.834    3005.6332   -855.66133   -26564.663    -4094.876    12068.126    84.421888 
    9200    1779.1834   -113.21065    1.6098425    -111.6008    9442.1949    4.3807623    4.3807623    4.3807623    9442.1949    16138.688    19402.267   -7214.3707    4173.0362   -8466.8697    19969.611    84.071554 
    9300     1442.778   -112.91533    1.3054559   -111.60987    12653.248    4.3759373    4.3759373    4.3759373    12653.248    35568.019   -5396.2427    7787.9673   -16465.748   -10198.083   -8795.1149    83.794067 
    9400    1248.7445   -112.75153    1.1298903   -111.62164   -10541.911     4.370315     4.370315     4.370315   -10541.911   -31580.547    611.13966   -656.32669   -11877.467    17866.303    10027.212    83.471503 
    9500    1593.7341   -113.06656    1.4420441   -111.62452   -7511.3705    4.3781245    4.3781245    4.3781245   -7511.3705     13469.81   -24467.557   -11536.365    508.03234   -2929.7001    9363.0056    83.919776 
    9600    1842.9696   -113.28024    1.6675577   -111.61268   -25464.188    4.3909007    4.3909007    4.3909007   -25464.188   -27226.689   -38238.156   -10927.719   -10089.594   -12723.587   -10727.636    84.656605 
    9700    1307.1479   -112.79413    1.1827349    -111.6114   -15429.625    4.3895464    4.3895464    4.3895464   -15429.625   -20899.056   -21903.549   -3486.2708   -27137.281     8355.205    6497.9606    84.578294 
    9800    1528.6702     -112.982    1.3831729   -111.59883   -1577.4636    4.3671182    4.3671182    4.3671182   -1577.4636    22739.946    10087.225   -37559.562    12901.557   -9792.8522    6343.3379    83.288464 
    9900    1354.4802   -112.84032    1.2255622   -111.61475   -2712.8597    4.3762009    4.3762009    4.3762009   -2712.8597    18314.132    -16053.67   -10399.041   -10924.723   -4466.1882   -17684.485    83.809213 
   10000    862.22295   -112.39066   0.78015745    -111.6105   -36972.488    4.4010881    4.4010881    4.4010881   -36972.488   -49296.743   -61564.248   -56.473534   -23037.423    12137.546     4955.962    85.247211 
   10100    1341.7016   -112.80676    1.2139998   -111.59276   -1525.6617    4.3735406    4.3735406    4.3735406   -1525.6617    3118.6574     7863.218    -15558.86     16329.27    24.584986    13487.608    83.656459 
   10200    1457.9914   -112.92275    1.3192213   -111.60353    15610.765    4.3665686    4.3665686    4.3665686    15610.765    35604.565   -13811.393    25039.124   -17992.469    6832.5396   -13896.296    83.257018 
   10300    1239.7696    -112.7394    1.1217696   -111.61763    13234.329    4.3882057    4.3882057    4.3882057    13234.329    23554.877   -295.36755    16443.477   -13347.578    7597.8835    -6229.132     84.50082 
   10400    1539.5663   -112.99391    1.3930319   -111.60087    13168.608    4.3915278    4.3915278    4.3915278    13168.608    28849.998     43054.31   -32398.483     11248.89   -99.480216     9676.615    84.692881 
   10500     1488.204   -112.94648    1.3465583   -111.59992   -14869.127    4.3882173    4.3882173    4.3882173   -14869.127   -5445.7964   -13024.206   -26137.379   -13597.476    799.37133    10599.542    84.501494 
   10600    1316.2528   -112.79472    1.1909732   -111.60375    10577.657    4.3714295    4.3714295    4.3714295    10577.657   -28994.741    84793.004   -24065.291   -8528.2364    8778.5391   -6206.8761    83.535377 
   10700    1712.6715    -113.1677    1.5496612   -111.61804    5538.1014    4.3616589    4.3616589    4.3616589    5538.1014    38379.916      17829.9   -39595.512    3121.7279   -6926.0473    10701.881    82.976499 
   10800    1107.7284   -112.65102    1.0022959   -111.64872     -24977.6    4.3871005    4.3871005    4.3871005     -24977.6   -16735.554   -12296.497    -45900.75   -915.55379   -8885.0333   -3990.5808    84.436992 
   10900    766.63985   -112.31685   0.69367185   -111.62317   -16368.576    4.3953094    4.3953094    4.3953094   -16368.576   -51436.099    12574.451   -10244.081   -7551.5615   -3213.7488    -17543.22    84.911862 
   11000    1677.5823   -113.11754    1.5179118   -111.59963    16717.597    4.3586814    4.3586814    4.3586814    16717.597     33581.45    12086.914    4484.4276    2198.8438    4512.8286    3025.7412     82.80668 
   11100    1099.7208   -112.61257   0.99505054   -111.61752    42075.186     4.352684     4.352684     4.352684    42075.186    8137.4303    99888.495    18199.632   -6451.0834   -4572.4545   -7269.6273    82.465333 
   11200    1168.2294   -112.70621    1.0570385   -111.64917   -37570.344     4.397543     4.397543     4.397543   -37570.344   -45306.375   -44553.147    -22851.51   -34469.883    2876.5269   -5524.2742    85.041375 
   11300    1840.2039   -113.27372    1.6650552   -111.60867   -23369.582    4.3981228    4.3981228    4.3981228   -23369.582   -25368.199   -12737.854   -32002.693   -15591.937     8275.226    1079.4436    85.075019 
   11400     1868.385   -113.27391     1.690554   -111.58336    8182.6256    4.3649967    4.3649967    4.3649967    8182.6256    5606.2859     27399.12    -8457.529   -14931.259   -13933.248   -13132.152     83.16714 
   11500    1233.3008   -112.72391    1.1159165     -111.608   -5783.2604    4.3721163    4.3721163    4.3721163   -5783.2604   -753.84754    748.08635    -17344.02   -22183.131    6147.3125   -16360.291    83.574758 
   11600    1658.1649   -113.11047    1.5003424   -111.61013   -6873.1198    4.3891743    4.3891743    4.3891743   -6873.1198   -22344.167    15636.557    -13911.75    2916.7833    8257.8373   -3417.0639    84.556791 
   11700    1400.5449   -112.87762    1.2672424   -111.61038      11412.7    4.3804153    4.3804153    4.3804153      11412.7    29392.956    10554.925   -5709.7802   -6075.3588   -4412.0665    9884.9143    84.051574 
   11800    1109.2568   -112.62178    1.0036788    -111.6181   -12342.553    4.3680998    4.3680998    4.3680998   -12342.553   -5523.6142    15120.677   -46624.721   -16783.998    15541.915   -4686.9164    83.344635 
   11900     1454.719   -112.93684    1.3162604   -111.62058   -6848.6983     4.373624     4.373624     4.373624   -6848.6983   -22026.056    12960.451    -11480.49     6977.013    9415.3891   -5630.5628    83.661245 
   12000     1393.456   -112.88283    1.2608283     -111.622   -6305.5678    4.3906897    4.3906897    4.3906897   -6305.5678    479.15659   -16455.474   -2940.3863     -4881.34   -6916.7125    7550.3347    84.644402 
   12100    1636.1595    -113.0818    1.4804315   -111.60136   -40773.221    4.3917689    4.3917689    4.3917689   -40773.221   -21451.246   -37381.412   -63487.005    -4870.192    12083.833   -10234.218    84.706833 
   12200    1557.7069   -113.00068     1.409446   -111.59124    16082.147    4.3669944    4.3669944    4.3669944    16082.147    46592.756    1114.9128    538.77373     8247.589    25912.795    -1512.794     83.28138 
   12300    1976.7098   -113.39211    1.7885686   -111.60354   -2000.4913    4.3682018    4.3682018    4.3682018   -2000.4913   -19928.948    -21998.78    35926.254   -7681.4232    -9371.488    7689.0217    83.350477 
   12400    1241.8632   -112.74745    1.1236639   -111.62379   -26388.852    4.3823111    4.3823111    4.3823111   -26388.852   -7389.1083   -32117.862   -39659.586   -14135.017     8342.002   -7908.3895    84.160756 
   12500    1400.2127   -112.87892    1.2669419   -111.61198   -4614.7273    4.3754472    4.3754472    4.3754472   -4614.7273    838.91007    910.88267   -15593.975   -1694.7668    19802.439    3430.0281    83.765917 
   12600    1553.2712   -113.01204    1.4054324   -111.60661   -11044.792    4.3898283    4.3898283    4.3898283   -11044.792   -6213.9327    -39030.42    12109.976   -2011.3206   -5850.9611    5536.7905    84.594595 
   12700    978.12781   -112.49938    0.8850306   -111.61435   -23195.928    4.3804322    4.3804322    4.3804322   -23195.928    2088.9234     -23984.8   -47691.908   -3985.1315    15748.062    -24771.63    84.052549 
   12800    991.61027   -112.50736   0.89722981   -111.61013    36696.177    4.3549292    4.3549292    4.3549292    36696.177    79463.306    30619.914    5.3103776    6366.3492    29720.219   -10249.931    82.593008 
   12900    1954.5297   -113.38398    1.7684995   -111.61549    7182.6349     4.380492     4.380492     4.380492    7182.6349     16137.81    10300.998   -4890.9031   -2056.3645    -8583.934    1358.2232     84.05599 
   13000    1507.0596   -112.98201    1.3636192    -111.6184   -28246.346    4.3854696    4.3854696    4.3854696   -28246.346   -10253.016    4754.3066   -79240.329   -4480.2116    23537.003   -9553.8247    84.342857 
   13100    1232.4408   -112.73553    1.1151384   -111.62039    10534.844    4.3619259    4.3619259    4.3619259    10534.844    15713.592    38690.204   -22799.264   -4093.1328     26184.68   -3092.9831    82.991735 
   13200    1972.7177   -113.40676    1.7849564    -111.6218    2241.7333    4.3659319    4.3659319    4.3659319    2241.7333     1626.081    6174.1701   -1075.0513    3752.9047   -18961.711    1042.0434    83.220606 
   13300    1459.5597   -112.95097    1.3206403   -111.63033   -8043.4264     4.376961     4.376961     4.376961   -8043.4264     7424.955    1198.1553   -32753.389   -1450.2482    25419.655   -4843.8245     83.85289 
   13400    686.63918   -112.25328   0.62128556   -111.63199   -6737.7727    4.3860528    4.3860528    4.3860528   -6737.7727    6951.9387   -22512.467   -4652.7895   -9443.7878    12684.881   -16645.229    84.376514 
   13500    1592.3413   -113.05355    1.4407839   -111.61277   -13685.058    4.3796817    4.3796817    4.3796817   -13685.058   -16364.921    -5831.242   -18859.011    9259.5344   -20998.621   -1525.3438    84.009356 
   13600    1640.2708   -113.09399    1.4841515   -111.60984    30951.229    4.3489657    4.3489657    4.3489657    30951.229    18355.308    70218.897    4279.4812    -8120.649    13383.506    6978.1776    82.254172 
   13700    735.15535   -112.31089   0.66518401    -111.6457    29924.365    4.3590814    4.3590814    4.3590814    29924.365    45644.173    15583.736    28545.187   -6081.5159    13718.203   -36254.707    82.829478 
   13800    1740.7331    -113.2076    1.5750519   -111.63255   -22713.054    4.3960851    4.3960851    4.3960851   -22713.054   -5489.6149   -20713.106   -41936.442   -13791.432   -3382.4878    1678.8207    84.956825 
   13900    1653.1803   -113.10914    1.4958323   -111.61331     14814.68    4.3806815    4.3806815    4.3806815     14814.68   -11210.922    47987.181    7667.7803     13275.25    19299.928    17104.315    84.066899 
   14000    1133.8999   -112.63478    1.0259764    -111.6088    21324.855    4.3556956    4.3556956    4.3556956    21324.855   -1079.4655    33407.126    31646.905   -13967.027    2244.5108   -42516.117    82.636622 
   14100    1748.5391   -113.20816    1.5821149   -111.62605   -8579.8312    4.3685212    4.3685212    4.3685212   -8579.8312   -24203.047    5657.7429   -7194.1897     -5541.94   -2945.1461   -8088.7993    83.368761 
   14200    1565.7397   -113.04064    1.4167142   -111.62393     13038.21    4.3785193    4.3785193    4.3785193     13038.21    60.059604    9557.5627    29497.009    14659.395    14658.748    5263.1752     83.94248 
   14300    536.81058   -112.11721    0.4857175   -111.63149    12100.171    4.3894036    4.3894036    4.3894036    12100.171    21859.665    39018.844   -24577.995   -16945.749    9280.1415   -24691.342    84.570042 
   14400    1698.5356   -113.14952    1.5368707   -111.61265   -15647.789    4.3790194    4.3790194    4.3790194   -15647.789   -34640.241      5476.54   -17779.667   -1915.7654    2955.4261   -8909.1699    83.971246 
   14500     1517.716   -112.98553    1.3732613   -111.61227    27829.968    4.3562364    4.3562364    4.3562364    27829.968     23422.21    50543.576    9524.1191    8485.5826    8877.9879    1607.5114    82.667409 
   14600    1047.7253   -112.59059   0.94800385   -111.64259   -14963.476    4.3843839    4.3843839    4.3843839   -14963.476    21811.806   -28222.798   -38479.436    6176.6364    11544.219   -43361.213    84.280232 
   14700    1709.6212   -113.15953    1.5469012   -111.61263   -13257.619    4.3844719    4.3844719    4.3844719   -13257.619   -1803.4579   -16224.118   -21745.281    -5090.121    1401.8682   -3502.6448    84.285308 
   14800    1673.4335   -113.11377    1.5141578   -111.59961    17986.841    4.3573942    4.3573942    4.3573942    17986.841    43291.151    18633.617   -7964.2464   -14554.984    11323.594   -5129.0793    82.733338 
   14900    1163.4788   -112.68556    1.0527401   -111.63282   -3892.1067    4.3776258    4.3776258    4.3776258   -3892.1067    34842.957     4311.475   -50830.753     3890.805    15527.118   -37242.838    83.891105 
   15000    1741.8666   -113.19028    1.5760775   -111.61421   -4294.2724    4.3842488    4.3842488    4.3842488   -4294.2724    11131.647   -2102.0098   -21912.454     3577.861     -4427.85    -9618.067     84.27244 
   15100    1184.0236   -112.68418    1.0713294   -111.61285    10654.723    4.3763823    4.3763823    4.3763823    10654.723    6094.2648    45626.731   -19756.828   -11347.806    24968.236    4021.5492    83.819634 
   15200    1383.7447   -112.87158    1.2520413   -111.61953   -9082.2593     4.380781     4.380781     4.380781   -9082.2593   -14954.382    17324.127   -29616.524   -20808.454    12636.475    -14107.19    84.072629 
   15300    1445.3373   -112.92077    1.3077715     -111.613    24980.413    4.3770832    4.3770832    4.3770832    24980.413    48023.411    43807.495   -16889.666   -13988.523   -4609.8403   -3925.9238    83.859913 
   15400    976.89483   -112.51122   0.88391497   -111.62731   -1752.2442    4.3877613    4.3877613    4.3877613   -1752.2442   -30797.659    71344.674   -45803.747    12307.513    24988.647   -14214.427    84.475153 
   15500    1513.6005   -112.98282    1.3695376   -111.61328   -3995.2728    4.3839634    4.3839634    4.3839634   -3995.2728   -7830.5269    10564.429   -14719.721   -4855.0879    5930.3759   -7991.0466    84.255983 
   15600    1569.5232   -113.02819    1.4201375   -111.60806    6790.7622    4.3735078    4.3735078    4.3735078    6790.7622   -3284.3524    20124.023    3532.6158   -1040.2913    -6174.727   -2946.1665    83.654576 
   15700    1409.6184   -112.89782    1.2754524   -111.62237   -45030.737    4.3843669    4.3843669    4.3843669   -45030.737   -50219.422   -16244.028   -68628.762    14089.604    28900.384   -9900.7975    84.279251 
   15800     1992.486   -113.41448    1.8028432   -111.61164    -12826.43    4.3848376    4.3848376    4.3848376    -12826.43    6656.5475    926.85838   -46062.695    23239.161   -8318.5913   -8027.6014    84.306398 
   15900    1408.6282   -112.88508    1.2745564   -111.61052   -13726.681    4.3858788    4.3858788    4.3858788   -13726.681   -32929.536    7666.8504   -15917.357    1064.5359    7503.5814    772.95366    84.366469 
   16000    1368.7244   -112.84189    1.2384506   -111.60344    4243.1974    4.3782806    4.3782806    4.3782806    4243.1974   -10188.177    45622.024   -22704.255    5154.4976    9701.6044   -11580.033    83.928754 
   16100    1734.9671   -113.17986    1.5698347   -111.61003    11834.722    4.3848669    4.3848669    4.3848669    11834.722    -531.2967    43379.001    -7343.537    5538.2254   -9474.1546   -2736.8341    84.308087 
   16200    1407.2308   -112.89097     1.273292   -111.61767   -15879.928    4.3794058    4.3794058    4.3794058   -15879.928   -50581.728    1933.1374    1008.8077   -669.64707    9637.4673    4516.7579    83.993478 
   16300    1032.4837   -112.54732   0.93421293   -111.61311    45949.624    4.3698092    4.3698092    4.3698092    45949.624    24357.499     104226.3     9265.068    4109.4824    15381.547   -17643.069    83.442524 
   16400    1636.4186   -113.09228     1.480666   -111.61162   -25411.501    4.3940761    4.3940761    4.3940761   -25411.501   -30848.325   -5391.4867   -39994.693    -3094.819    4420.9828    19787.775    84.840401 
   16500    903.18208   -112.42667   0.81721812   -111.60946    13504.648    4.3773886    4.3773886    4.3773886    13504.648    -11103.32    67813.801   -16196.537    7749.0327    19175.561    11801.782     83.87747 
   16600     1771.658    -113.2057    1.6030334   -111.60266    31480.687    4.3609196    4.3609196    4.3609196    31480.687    34842.362     41494.03    18105.669   -16865.726    9380.5536   -14245.825    82.934311 
   16700    1472.3427    -112.9637    1.3322066    -111.6315   -16331.674    4.3898347    4.3898347    4.3898347   -16331.674   -11897.094   -23.777532   -37074.149   -925.64271    2598.6994   -1010.5436    84.594963 
   16800    1042.5366   -112.56057   0.94330904   -111.61726   -14097.627    4.3930892    4.3930892    4.3930892   -14097.627   -47499.808    37846.696   -32639.769    1111.8505    27299.782    10123.181    84.783248 
   16900    2009.7748   -113.41277    1.8184864   -111.59429    15539.725    4.3610541    4.3610541    4.3610541    15539.725   -15465.301    35140.467    26944.009    20728.406   -4797.3011   -22454.955    82.941986 
   17000    1322.6254   -112.81698    1.1967392   -111.62024    27808.261    4.3688213    4.3688213    4.3688213    27808.261   -15764.747     74668.74     24520.79   -19820.624    15950.287    1642.1495    83.385941 
   17100    733.12103   -112.28949   0.66334331   -111.62615   -41831.757    4.4051173    4.4051173    4.4051173   -41831.757   -93851.072   -14015.913   -17628.285    13914.016    38394.252    8873.1457    85.481561 
   17200    1331.2728   -112.79795    1.2045636   -111.59338   -3939.8446     4.383253     4.383253     4.383253   -3939.8446   -48518.024    10890.728    25807.762    24053.719    5963.4802   -9018.7443    84.215033 
   17300    1383.0601   -112.83005    1.2514218   -111.57863    37599.609    4.3614697    4.3614697    4.3614697    37599.609    17334.768    58728.257    36735.801   -13939.199    13958.569   -7294.9958    82.965701 
   17400    1076.0934   -112.58894   0.97367194   -111.61527   -39445.832      4.39321      4.39321      4.39321   -39445.832   -48221.781   -46311.756   -23803.959    13312.872    33474.251    16159.584    84.790243 
   17500    1488.6663   -112.94653    1.3469766   -111.59955    5094.3624    4.3794463    4.3794463    4.3794463    5094.3624    20642.202   -13177.865    7818.7498     20396.83    6081.9691   -6117.4603     83.99581 
   17600    1535.4617   -112.98682    1.3893181   -111.59751    33043.982    4.3674958    4.3674958    4.3674958    33043.982     60129.05    38920.956    81.940642   -8703.4447    10004.049   -4445.4704    83.310069 
   17700    1498.1346   -112.95832    1.3555437   -111.60278   -43035.175    4.3995767    4.3995767    4.3995767   -43035.175   -34094.222   -43034.381   -51976.924     7428.048    28786.313    17517.127    85.159418 
   17800    1787.3766    -113.2119    1.6172559   -111.59464    12918.411    4.3692993    4.3692993    4.3692993    12918.411    38110.464    5754.3127   -5109.5428    14280.922    5429.6105   -7102.2744    83.413317 
   17900     1448.649   -112.90998    1.3107681   -111.59922    28265.203    4.3489935    4.3489935    4.3489935    28265.203    33867.497     45938.24     4989.874   -85.619968    7645.8938   -9080.1915    82.255752 
   18000    1245.2974   -112.75049    1.1267712   -111.62372    -51475.24    4.3912377    4.3912377    4.3912377    -51475.24   -56695.625   -36860.183   -60869.911     -22504.8    21069.039    6282.4835    84.676099 
   18100    1727.0332   -113.15006    1.5626559   -111.58741   -4637.9002    4.3855516    4.3855516    4.3855516   -4637.9002    4696.4844   -2635.7476   -15974.437    -3294.085    803.66282   -6456.5123    84.347589 
   18200    787.34058   -112.30712   0.71240231   -111.59472    5347.8733    4.3805366    4.3805366    4.3805366    5347.8733    29583.376    30121.317   -43661.073   -7325.9993    9539.9093    2275.9393    84.058561 
   18300    1337.5354   -112.80008    1.2102302   -111.58985   -12742.544    4.3865747    4.3865747    4.3865747   -12742.544   -13923.074    1119.5321    -25424.09   -26452.366    6929.9455    12456.441    84.406638 
   18400    1710.5982   -113.12757    1.5477852   -111.57979    35818.035    4.3691233    4.3691233    4.3691233    35818.035    50386.142     54113.99    2953.9738   -6441.7799    12644.397    2956.2181    83.403236 
   18500    1082.6772    -112.5991   0.97962911   -111.61947   -5975.0147    4.3846061    4.3846061    4.3846061   -5975.0147    5650.2249    7285.4212    -30860.69    4626.5553     10227.66    819.33905    84.293045 
   18600    1761.4579   -113.19858    1.5938041   -111.60478   -32355.401    4.3882826    4.3882826    4.3882826   -32355.401   -26328.866   -31026.594   -39710.744   -24483.763   -12658.482   -1656.8404    84.505262 
   18700    1804.1451   -113.21951    1.6324284   -111.58708    36114.339    4.3526146    4.3526146    4.3526146    36114.339    102692.76    -4574.912    10225.169    -6396.069    3161.5897   -2930.5772    82.461389 
   18800    921.17543   -112.46262   0.83349889   -111.62912    7514.4235    4.3676183    4.3676183    4.3676183    7514.4235   -8757.3439    62903.859   -31603.245    13250.681    8519.5686   -4467.3313    83.317081 
   18900    1549.4651   -113.00676    1.4019885   -111.60477   -15301.884    4.3902674    4.3902674    4.3902674   -15301.884   -16540.137    5104.7155    -34470.23   -15636.698   -13309.458    -1067.573    84.619982 
   19000    1862.3334   -113.28037    1.6850784   -111.59529   -41991.174    4.3842549    4.3842549    4.3842549   -41991.174   -46087.336   -32876.449   -47009.737    5682.8437    10211.625    599.15853    84.272794 
   19100    543.08558   -112.11206   0.49139525   -111.62066   -20967.323    4.3656215    4.3656215    4.3656215   -20967.323   -65262.538    29018.242   -26657.672    8975.6258   -1162.9125   -6004.4599    83.202855 
   19200    1692.9739   -113.13887    1.5318384   -111.60703    26671.687    4.3495231    4.3495231    4.3495231    26671.687   -2793.8583    51548.165    31260.754   -4306.6908   -5428.6991   -2050.5475    82.285807 
   19300     1590.328   -113.06817    1.4389622   -111.62921   -23070.032    4.3860588    4.3860588    4.3860588   -23070.032    23940.448   -51316.432   -41834.111    4075.5902    1566.5516    6626.6868    84.376861 
   19400    1025.1026   -112.55103   0.92753433    -111.6235   -21758.943     4.390433     4.390433     4.390433   -21758.943   -52530.031   -30158.611    17411.812    12894.285    6788.9488   -507.04029    84.629555 
   19500      1931.41   -113.34752    1.7475803   -111.59994    31012.102    4.3461303    4.3461303    4.3461303    31012.102    29691.684    201.51261    63143.109   -1471.4347    5795.6822    -3973.189    82.093398 
   19600    1399.5248   -112.89379    1.2663194   -111.62747    22345.045    4.3511476    4.3511476    4.3511476    22345.045    49395.298   -33153.397    50793.233   -22400.076   -15294.236    8366.6918    82.378037 
   19700    1110.7244   -112.63883    1.0050068   -111.63382   -13360.013    4.3873815    4.3873815    4.3873815   -13360.013   -38100.372   -39130.704    37151.036    2706.4746    7347.6023   -5093.0064    84.453217 
   19800    1892.7254   -113.31227    1.7125777   -111.59969   -28353.261    4.3910639    4.3910639    4.3910639   -28353.261   -16843.634   -55371.307   -12844.843    -6520.364     492.4372    47.777509    84.666043 
   19900    673.39759   -112.21382   0.60930429   -111.60452    8068.6308    4.3757897    4.3757897    4.3757897    8068.6308    5652.7363   -41785.929    60339.085   -17410.543   -6594.5879    20784.299     83.78559 
   20000    1674.9875   -113.10824    1.5155639   -111.59268    9842.7438    4.3590343    4.3590343    4.3590343    9842.7438   -3604.6674   -785.29199    33918.191    4174.8295    5810.0244   -12149.298    82.826798 
   20100    1309.9463   -112.79826    1.1852669   -111.61299     13604.84    4.3694157    4.3694157    4.3694157     13604.84    1448.4242   -35217.741    74583.838   -35454.295    3915.4175   -1746.5041     83.41998 
   20200    1155.9604   -112.66169    1.0459372   -111.61575   -920.31143    4.3797964    4.3797964    4.3797964   -920.31143    23762.291   -37491.738    10968.513   -12124.023   -10784.554    16654.291    84.015955 
   20300    1582.9162   -113.04404    1.4322558   -111.61179    3141.4636    4.3693517    4.3693517    4.3693517    3141.4636    -4007.071   -6118.4492    19549.911   -2049.2548     6250.262    5756.0096    83.416318 
   20400    1425.2945   -112.90467    1.2896364   -111.61504    13929.752    4.3710626    4.3710626    4.3710626    13929.752    3521.3351   -18004.594    56272.514   -31058.065   -2917.8023   -21527.797    83.514344 
   20500    1696.0623   -113.15004    1.5346328    -111.6154   -3401.2101    4.3850755    4.3850755    4.3850755   -3401.2101   -25883.891    16525.571   -845.31011   -2217.1348    11407.769    7095.1464    84.320123 
   20600    1098.2639   -112.60564   0.99373222   -111.61191    3342.2867    4.3937615    4.3937615    4.3937615    3342.2867   -55197.179    42470.044    22753.995   -3412.4225    1151.4543   -8774.0386    84.822179 
   20700    1134.8528   -112.61928    1.0268386   -111.59244    3003.6557    4.3847418    4.3847418    4.3847418    3003.6557   -48527.137    36388.332    21149.772   -25961.567   -2050.6417   -16453.346    84.300874 
   20800    964.75828   -112.46882   0.87293357   -111.59589    18971.757    4.3692358    4.3692358    4.3692358    18971.757   -19540.776     98698.95   -22242.904    8816.6292    -1147.337    8756.9036     83.40968 
   20900    1128.5846   -112.63433     1.021167   -111.61316    29983.662    4.3657163    4.3657163    4.3657163    29983.662   -1452.9946    49493.448    41910.532     7465.749   -405.00315     7667.485    83.208279 
   21000    1279.1149   -112.79173      1.15737   -111.63436  -0.53945638    4.3868149    4.3868149    4.3868149  -0.53945638   -7940.2396    17881.192   -9942.5711   -20150.605    1341.7372   -5988.3352    84.420499 
   21100    1532.8916   -112.99821    1.3869925   -111.61121     -22193.5    4.3931416    4.3931416    4.3931416     -22193.5   -16843.682    7783.2937   -57520.112    8816.2803    9204.7851    3452.7005    84.786285 
   21200    1582.9133   -113.02557    1.4322532   -111.59331    34578.193    4.3638408    4.3638408    4.3638408    34578.193    32483.204    25323.364     45928.01    15860.879   -330.62948    15797.894    83.101084 
   21300     1592.383   -113.04822    1.4408216    -111.6074    11925.815    4.3609952    4.3609952    4.3609952    11925.815    25508.706    5358.1616    4910.5788   -19700.826     4625.239   -13461.398    82.938623 
   21400    1140.0554   -112.65808    1.0315461   -111.62653    5900.3495    4.3768865    4.3768865    4.3768865    5900.3495    27950.454    9841.8463   -20091.252   -1262.1356     9493.612    15079.209    83.848609 
   21500    1456.6382   -112.93202    1.3179968   -111.61403    -13618.63    4.3881785    4.3881785    4.3881785    -13618.63   -12724.879   -572.12563   -27558.884     13586.52    10149.863    24518.732    84.499253 
   21600    1498.2969   -112.95646    1.3556905   -111.60077    27287.569    4.3747831    4.3747831    4.3747831    27287.569    31113.857     13018.13    37730.721   -2860.1858   -1335.2937   -10197.445    83.727782 
   21700    1117.7179   -112.61791    1.0113346   -111.60658    23404.935    4.3584624    4.3584624    4.3584624    23404.935    33913.217     49631.13   -13329.543     14018.34    4080.1413    16685.406    82.794201 
   21800    989.98494   -112.52818   0.89575917   -111.63243    7103.9788    4.3768749    4.3768749    4.3768749    7103.9788   -5130.2304    24210.586    2231.5806    21758.267    9678.4308    20551.168    83.847938 
   21900    2028.4647    -113.4342    1.8353975    -111.5988   -24627.114    4.3975953    4.3975953    4.3975953   -24627.114   -6875.2091   -28847.722   -38158.411    3393.3822   -4132.9887   -12607.596    85.044413 
   22000    1042.3541   -112.54856   0.94314387   -111.60541    2621.2803    4.3753874    4.3753874    4.3753874    2621.2803    44451.056   -17185.866   -19401.349   -283.96961    10221.967    29607.711    83.762482 
   22100    915.99795   -112.43339   0.82881419   -111.60458    8001.9749    4.3515507    4.3515507    4.3515507    8001.9749    33217.769    3992.1374   -13203.981    9533.8638    3428.0633    35265.507    82.400938 
   22200    1920.1757   -113.35738    1.7374153   -111.61997    1818.1917    4.3607083    4.3607083    4.3607083    1818.1917    9951.8899   -4638.7056    141.39085   -1833.5498   -13924.571   -12582.574    82.922254 
   22300     1325.564   -112.83515    1.1993982   -111.63575   -13458.398    4.3844157    4.3844157    4.3844157   -13458.398   -2013.2039    2467.1566   -40829.146   -4733.6187     15336.34    12615.374    84.282063 
   22400    799.62985   -112.34968   0.72352189   -111.62616   -8057.6262    4.3804862    4.3804862    4.3804862   -8057.6262    790.71672    2186.1754   -27149.771    7515.1823    10603.935    25168.752    84.055656 
   22500    1781.0222   -113.21636    1.6115063   -111.60485    6593.9048    4.3647761    4.3647761    4.3647761    6593.9048    15967.442   -19645.533    23459.805   -4012.2682    10138.835   -7904.7056    83.154531 
   22600    1454.5911   -112.93237    1.3161446   -111.61623    4209.2858     4.368414     4.368414     4.368414    4209.2858    32995.846   -16625.152   -3742.8373    134.01262    4515.5534    22647.693    83.362622 
   22700    1225.9207    -112.7349    1.1092388   -111.62566   -7108.0038     4.374934     4.374934     4.374934   -7108.0038    2197.3773    12037.242   -35558.631    8469.1652    488.61929     16680.88    83.736442 
   22800    1625.1142   -113.08822    1.4704375   -111.61778    16857.994    4.3665242    4.3665242    4.3665242    16857.994   -28949.648    30914.938    48608.691    280.38199   -2230.4943   -16905.696     83.25448 
   22900    1794.3758    -113.2393     1.623589   -111.61571    23463.095    4.3567136    4.3567136    4.3567136    23463.095     26222.12    16854.289    27312.877    598.83773    2547.1201    28245.444    82.694577 
   23000    1297.6261   -112.80975    1.1741194   -111.63563    9172.5981    4.3781417    4.3781417    4.3781417    9172.5981    -14008.36    27671.587    13854.567    7823.7026   -2296.4659     22221.99    83.920765 
   23100    1465.8043   -112.94023    1.3262905   -111.61394   -5890.6741    4.3824313    4.3824313    4.3824313   -5890.6741   -35854.271    4425.8328    13756.416    1533.1032    3916.1591   -16432.295     84.16768 
   23200    1370.4502   -112.85767    1.2400121   -111.61766    1061.3665    4.3521175    4.3521175    4.3521175    1061.3665    40946.167   -28613.981    -9148.086   -9802.8678   -626.27988     28800.47    82.433139 
   23300    1410.9934     -112.904    1.2766964   -111.62731    16662.418    4.3488224    4.3488224    4.3488224    16662.418    51393.544    -22127.07    20720.781   -201.53831     5261.326    35048.961    82.246042 
   23400    1442.9076   -112.94309    1.3055731   -111.63752    6563.2829    4.3757464    4.3757464    4.3757464    6563.2829    17632.426   -8163.1901    10220.613    2513.1466     9666.217   -7147.5027    83.783101 
   23500    870.35961   -112.41792   0.78751966    -111.6304   -10728.355    4.3860615    4.3860615    4.3860615   -10728.355   -11130.939   -21881.672    827.54746   -9192.2789   -4398.1976    25424.273    84.377016 
   23600    1448.3059   -112.93086    1.3104576    -111.6204   -1505.1488    4.3675782    4.3675782    4.3675782   -1505.1488     6463.002   -25201.588     14223.14   -720.21739    5058.9474    31918.934    83.314785 
   23700    1833.7268    -113.2666    1.6591946   -111.60741    28097.441     4.353172     4.353172     4.353172    28097.441    39052.216    24529.317    20710.792    3499.8798    3904.8463   -7967.3099    82.493074 
   23800    895.23271    -112.4474   0.81002537   -111.63738    4226.2252     4.377291     4.377291     4.377291    4226.2252    13637.461   -29644.908    28686.122   -16514.788   -5093.8607    35582.185    83.871856 
   23900     1682.603   -113.13056    1.5224545   -111.60811   -34390.956    4.3964181    4.3964181    4.3964181   -34390.956    -33654.68   -32055.163   -37463.025    2393.7508   -4327.7116    3504.9018     84.97613 
   24000    1831.2221   -113.25965    1.6569282   -111.60272    9732.0235    4.3556311    4.3556311    4.3556311    9732.0235   -11548.507    23685.157    17059.421    8006.1938     18499.58   -11556.727    82.632951 
   24100    889.81517   -112.41424   0.80512347   -111.60912    21500.525    4.3322236    4.3322236    4.3322236    21500.525    11898.808    18345.039    34257.728   -26413.309    7640.9396    46955.019    81.307873 
   24200    1030.6071   -112.57776   0.93251492   -111.64525   -24309.763    4.3703364    4.3703364    4.3703364   -24309.763   -40062.599   -22557.719    -10308.97    2789.4878   -21789.447    20965.714     83.47273 
   24300     1777.815   -113.22143    1.6086044   -111.61283   -25147.526    4.3843702    4.3843702    4.3843702   -25147.526   -34961.712   -25895.889   -14584.976    18396.147    9765.9232   -5867.3242     84.27944 
   24400    1080.0383   -112.59233   0.97724132   -111.61509    1387.6923    4.3640708    4.3640708    4.3640708    1387.6923    5967.1181    1267.8019   -3071.8432   -17228.091    25805.377    23409.876    83.114223 
   24500    1174.1938   -112.68179    1.0624352   -111.61935   -7937.0111    4.3537845    4.3537845    4.3537845   -7937.0111   -14286.857   -12703.641    3179.4649   -9686.0934    -27545.46    18409.467    82.527898 
   24600    1795.5201   -113.24528    1.6246243   -111.62065    7249.1898    4.3615055    4.3615055    4.3615055    7249.1898    21580.368    1590.1228   -1422.9211     12428.74   -4569.2963   -2674.6346    82.967745 
   24700    1190.4211   -112.70255     1.077118   -111.62543    13055.156     4.376101     4.376101     4.376101    13055.156    22991.091    24989.376   -8814.9988    -13948.67    15963.806    14695.318    83.803473 
   24800    1623.8954   -113.08366    1.4693347   -111.61432   -10084.864    4.3735139    4.3735139    4.3735139   -10084.864   -25034.426    4044.0627   -9264.2299   -11933.269   -4978.8283    14128.773    83.654928 
   24900    1891.7818   -113.32515    1.7117239   -111.61342    26297.681    4.3582632    4.3582632    4.3582632    26297.681    26681.954     16709.71    35501.379    19157.623   -13866.717   -11581.849    82.782846 
   25000      1417.69    -112.9199    1.2827557   -111.63714    8470.2067    4.3591615    4.3591615    4.3591615    8470.2067    35714.521   -11439.307    1135.4065   -5391.1527   -8980.0072    14001.564    82.834044 
   25100    1001.2535   -112.55301   0.90595524   -111.64705   -2652.4114    4.3721764    4.3721764    4.3721764   -2652.4114   -14502.882   -17740.776    24286.424   -17657.167   -4306.0634    13023.246    83.578205 
   25200    2008.5633   -113.44302    1.8173903   -111.62563   -10157.385    4.3678276    4.3678276    4.3678276   -10157.385   -33770.029    7982.8082   -4684.9338    6494.9618   -17936.259   -17624.792    83.329057 
   25300     1379.492   -112.87875    1.2481933   -111.63056    19921.164    4.3559156    4.3559156    4.3559156    19921.164    39414.991   -8150.4517    28498.954   -5229.9374   -2136.9097    22375.298    82.649145 
   25400     840.2312   -112.40733   0.76025884   -111.64707   -3489.2155    4.3679608    4.3679608    4.3679608   -3489.2155    7084.8074   -14810.323   -2742.1313   -14025.832    2414.6545    18595.915    83.336679 
   25500    1454.3314    -112.9418    1.3159096   -111.62589   -19812.173    4.3793014    4.3793014    4.3793014   -19812.173    -54611.46   -16937.318    12112.258    13932.874   -1189.5745   -11471.908     83.98747 
   25600    1650.7702   -113.10978    1.4936516   -111.61612   -10250.762    4.3684573    4.3684573    4.3684573   -10250.762   -24210.336   -23788.786    17246.836    10755.345   -5790.8608    19608.248      83.3651 
   25700    1252.5165   -112.75662    1.1333033   -111.62331    8277.5784    4.3587212    4.3587212    4.3587212    8277.5784        33789   -5668.0545   -3288.2107   -21493.158    5376.2125    13515.118    82.808948 
   25800    954.18257   -112.50686   0.86336444    -111.6435   -11629.962    4.3717506    4.3717506    4.3717506   -11629.962   -32115.848   -22923.786    20149.748     12209.47    1457.6446    1519.9346    83.553786 
   25900    1785.2188   -113.24218    1.6153034   -111.62688   -39587.109    4.3834133    4.3834133    4.3834133   -39587.109   -55960.197   -34337.658   -28463.472    21527.265   -7370.5453   -3782.6455    84.224274 
   26000    1872.1941   -113.30948    1.6940006   -111.61548    4405.2889    4.3641047    4.3641047    4.3641047    4405.2889    -4752.123    5184.0666    12783.923   -679.25049    2905.1812    17687.908    83.116162 
   26100    900.05993   -112.44319   0.81439314    -111.6288    6840.1621    4.3543653    4.3543653    4.3543653    6840.1621    9701.5244   -6946.6603    17765.622    30437.406    2674.0881    16279.388    82.560929 
   26200    1171.0794   -112.70583    1.0596172   -111.64621   -15237.836    4.3689048    4.3689048    4.3689048   -15237.836   -36126.371   -17900.011    8312.8744    7145.2206   -8777.3278   -18428.692    83.390723 
   26300    2168.0449   -113.59068    1.9616926   -111.62899   -13373.464    4.3705661    4.3705661    4.3705661   -13373.464   -11506.902   -390.20215   -28223.289   -10483.511   -11329.577    17349.865     83.48589 
   26400    1247.5489   -112.76395    1.1288084   -111.63514    18027.813    4.3674595    4.3674595    4.3674595    18027.813    19303.498   -22579.015    57358.956    21478.572   -2991.7933   -4739.9298     83.30799 
   26500    1099.1037   -112.63135   0.99449213   -111.63686   -6194.0319    4.3681899    4.3681899    4.3681899   -6194.0319   -6140.8026   -39040.453     26599.16   -11714.348   -13530.694   -9362.5137    83.349796 
   26600    1492.1408   -112.97569    1.3501204   -111.62557    14774.067    4.3644451    4.3644451    4.3644451    14774.067      -2383.3      9512.73    37192.772   -11077.508    4314.7019   -4886.6653    83.135613 
   26700    1762.3897   -113.21324    1.5946473   -111.61859   -2694.8155    4.3787087    4.3787087    4.3787087   -2694.8155   -5569.3007   -12047.011    9531.8655    19229.352   -10873.651    -6369.695    83.953378 
   26800    760.27711   -112.31464   0.68791471   -111.62673   -4136.0397    4.3850782    4.3850782    4.3850782   -4136.0397   -10782.456    -33692.21    32066.546   -11261.207   -13658.705   -11813.101    84.320277 
   26900    1263.1957   -112.75778     1.142966   -111.61482     10538.62    4.3678251    4.3678251    4.3678251     10538.62     9210.465     2196.375    20209.021   -398.33902   -10761.675    -12803.22    83.328913 
   27000     1874.432   -113.30839    1.6960255   -111.61236    29813.914    4.3586159    4.3586159    4.3586159    29813.914   -9152.4662    17231.243    81362.966    1131.5768   -13620.399    15190.965     82.80295 
   27100    1371.3571   -112.88005    1.2408327   -111.63921    7661.1919    4.3691757    4.3691757    4.3691757    7661.1919   -16236.234    16248.076    22971.733   -10092.662   -7995.5582   -15797.784    83.406237 
   27200    711.62033   -112.28923   0.64388903   -111.64535     -10018.6    4.3812277    4.3812277    4.3812277     -10018.6   -16521.897   -3080.1775   -10453.725   -12786.587    416.11647   -12999.015    84.098352 
   27300    1795.5037   -113.24543    1.6246095   -111.62083    -6239.151    4.3742409    4.3742409    4.3742409    -6239.151   -21336.658   -2795.8499    5415.0551    10190.571    2375.1879    21713.761    83.696656 
   27400    1802.3837   -113.24629    1.6308347   -111.61545    9252.6317    4.3578298    4.3578298    4.3578298    9252.6317    3125.3608     11702.76    12929.774   -2725.8758   -5358.4451   -22542.799    82.758154 
   27500    1157.1361   -112.68729     1.047001   -111.64029   -6017.1308    4.3526284    4.3526284    4.3526284   -6017.1308    14048.206   -8272.2716   -23827.327   -19198.961     -2418.31   -19256.595    82.462171 
   27600    944.13117   -112.51768   0.85426972   -111.66341   -19410.252    4.3665895    4.3665895    4.3665895   -19410.252   -18185.287   -15323.613   -24721.856    15359.633   -6900.7441    26396.985    83.258215 
   27700     1648.394   -113.13933    1.4915015   -111.64783   -23596.316    4.3801833    4.3801833    4.3801833   -23596.316   -41502.922   -13191.371   -16094.654    33220.991    1729.4177   -9518.2283    84.038221 
   27800    1837.1846   -113.28915    1.6623232   -111.62683    7781.6482    4.3657348    4.3657348    4.3657348    7781.6482   -18052.403    14929.097    26468.251    -16390.59   -1194.6042   -311.58679    83.209334 
   27900    985.59768   -112.52726   0.89178949   -111.63547   -13978.586    4.3598087    4.3598087    4.3598087   -13978.586   -45693.492   -4024.8228    7782.5586    27323.789   -10386.572    8712.6672    82.870947 
   28000    871.27897   -112.43384   0.78835153   -111.64549   -8825.8897    4.3655172    4.3655172    4.3655172   -8825.8897   -22733.389   -22609.685    18865.406    31281.198   -11.146831   -9314.9671    83.196893 
   28100    2166.7371   -113.58903    1.9605092   -111.62852     -7594.89     4.363974     4.363974     4.363974     -7594.89   -11916.378    8887.3133   -19755.605   -15354.777   -1698.9444    5477.7951    83.108695 
   28200    1345.4684   -112.85518    1.2174081   -111.63777   -11450.604    4.3729648    4.3729648    4.3729648   -11450.604   -39249.333   -18121.059    23018.579    28338.447    3738.2393   -1900.2542    83.623425 
   28300    767.81938   -112.32949   0.69473911   -111.63475   -13194.034    4.3725888    4.3725888    4.3725888   -13194.034   -13768.956   -47146.105    21332.959    30205.722   -8052.4827   -1576.0397    83.601852 
   28400    1601.6787   -113.07231    1.4492326   -111.62307    1493.5747    4.3594285    4.3594285    4.3594285    1493.5747    22277.598   -3731.9175   -14064.956   -27426.149   -12008.691    3620.9032    82.849269 
   28500    1537.2009   -113.02156    1.3908917   -111.63067     25838.34      4.37068      4.37068      4.37068     25838.34    42631.319    20685.533     14198.17    4487.1305    1764.9745   -5781.4815    83.492414 
   28600     1616.307   -113.09088    1.4624685   -111.62841   -10907.534    4.3792117    4.3792117    4.3792117   -10907.534   -25387.484    9646.8401   -16981.957    13781.697    4049.6403   -5471.1821    83.982311 
   28700    736.32971   -112.30217    0.6662466   -111.63593   -16645.101    4.3707714    4.3707714    4.3707714   -16645.101   -4657.2564    -6706.355    -38571.69   -33071.295    2923.0772   -7957.2721    83.497657 
   28800    1325.7623    -112.8449    1.1995775   -111.64532    3298.8267     4.351788     4.351788     4.351788    3298.8267    29858.583    11214.537    -31176.64   -8485.3298    240.30446   -5721.4599    82.414417 
   28900    2148.3836   -113.58821    1.9439026   -111.64431    30713.734    4.3490741    4.3490741    4.3490741    30713.734    37049.737     47667.22    7424.2464    3826.0424   -8018.7162    2241.3951    82.260323 
   29000    1419.6265   -112.95106    1.2845079   -111.66655   -19529.172    4.3767547    4.3767547    4.3767547   -19529.172   -6074.9896   -19267.087    -33245.44   -31425.119    12786.616   -16146.541     83.84103 
   29100    790.74882   -112.37552   0.71548615   -111.66004   -20949.661    4.3711271    4.3711271    4.3711271   -20949.661    30829.416   -35038.287    -58640.11   -5646.7097    2504.7858   -1380.3017    83.518042 
   29200    1325.3123    -112.8401    1.1991704   -111.64093    19592.809    4.3475023    4.3475023    4.3475023    19592.809    9041.9679    27539.826    22196.632    28588.846    56.317381    21785.775    82.171167 
   29300    1764.5761    -113.2467    1.5966255   -111.65007    15754.119    4.3583275    4.3583275    4.3583275    15754.119    7933.9781     24535.69    14792.689    5181.8774   -6583.5796    6450.4605    82.786511 
   29400    1431.0706   -112.94878    1.2948628   -111.65392    13855.895    4.3743214    4.3743214    4.3743214    13855.895   -7130.6641    40904.646    7793.7028   -10114.633    2131.1396   -15349.939    83.701276 
   29500    788.86901   -112.36203   0.71378526   -111.64824   -34672.032    4.3794477    4.3794477    4.3794477   -34672.032   -54738.845   -34626.118   -14651.135    29019.523    7141.2485    13007.966    83.995887 
   29600    1029.6993   -112.57475   0.93169357   -111.64306    11550.494    4.3541356    4.3541356    4.3541356    11550.494     1737.639    602.74108    32311.102    9534.3376   -841.46831      22088.1    82.547866 
   29700     2070.994   -113.50581    1.8738789   -111.63193     26412.61    4.3428278    4.3428278    4.3428278     26412.61    6817.3782     55421.25    16999.201   -16226.802    6137.5561   -17215.461    81.906399 
   29800    1532.1242   -113.03832    1.3862982   -111.65202   -28063.612    4.3760923    4.3760923    4.3760923   -28063.612   -59333.465    -25787.04    929.67033    29969.496   -3209.8848    6122.2237    83.802974 
   29900    763.40308    -112.3397   0.69074315   -111.64896    484.33124    4.3734984    4.3734984    4.3734984    484.33124   -5181.7025   -1756.6254    8391.3216    6774.7487    146.82225    18250.992    83.654037 
   30000    1341.2257   -112.85164    1.2135692   -111.63807    12030.883    4.3580607    4.3580607    4.3580607    12030.883     27439.34    28865.897   -20212.588    -17938.17    9536.9477   -21764.371    82.771308 
   30100    2004.7248   -113.45013    1.8139171   -111.63621    787.37244    4.3649856    4.3649856    4.3649856    787.37244   -5804.8656    5891.4438    2275.5392    1468.1216   -6380.1386   -14070.717    83.166502 
   30200    1841.9508   -113.30576    1.6666358   -111.63912    9965.7099      4.36114      4.36114      4.36114    9965.7099     14357.01    17064.108   -1523.9882    1294.4193    1015.9957    21158.452    82.946885 
   30300    934.86608   -112.50014   0.84588647   -111.65425   -26762.601    4.3659137    4.3659137    4.3659137   -26762.601   -4208.7442   -48314.805   -27764.254   -31066.154    633.79241   -16716.463    83.219563 
   30400    1209.3087   -112.74823    1.0942079   -111.65402   -13267.387    4.3687771    4.3687771    4.3687771   -13267.387    5455.1594   -15616.209    -29641.11   -15138.712   -10213.929   -10647.953    83.383413 
   30500    2012.0551    -113.4596    1.8205497   -111.63905    8320.7888    4.3618693    4.3618693    4.3618693    8320.7888    26414.076    35250.156   -36701.865    13872.738    8885.7073    15608.803    82.988507 
   30600    1710.7907   -113.19539    1.5479594   -111.64743   -1148.1439    4.3604626    4.3604626    4.3604626   -1148.1439   -6233.7046    4924.0798   -2134.8068   -14133.481    2378.0383   -12061.813    82.908243 
   30700    758.87295   -112.34383    0.6866442   -111.65719    11235.957    4.3632559    4.3632559    4.3632559    11235.957    31748.831    591.07482    1367.9653   -9404.6897    -7047.501    -14150.44    83.067677 
   30800    1346.8786   -112.87018     1.218684   -111.65149   -30475.786    4.3690105    4.3690105    4.3690105   -30475.786   -53403.644   -5098.0159   -32925.699    24199.648    13383.373    18674.409    83.396778 
   30900    1524.8052    -113.0231    1.3796758   -111.64342    1701.2583    4.3692504    4.3692504    4.3692504    1701.2583   -7083.1099    17317.546   -5130.6608   -105.84626    10441.713    4786.4488    83.410514 
   31000    1547.9636   -113.03639      1.40063   -111.63576    7717.1955    4.3641782    4.3641782    4.3641782    7717.1955    20408.045    10369.088   -7625.5469   -13187.953   -8571.5454   -14078.918     83.12036 
   31100    626.40843   -112.21673   0.56678751   -111.64995   -20403.449    4.3660969    4.3660969    4.3660969   -20403.449   -20638.049   -25674.982   -14897.317    18982.241    3631.6641    18118.168    83.230044 
   31200    1025.9599   -112.58823   0.92831008   -111.65992   -12911.011    4.3609277    4.3609277    4.3609277   -12911.011    -13407.93   -11294.294   -14030.809    22497.589    18918.538    8006.9591    82.934775 
   31300    1983.9768   -113.44843    1.7951439   -111.65328    18692.748    4.3589516    4.3589516    4.3589516    18692.748    27229.847    42712.552   -13864.155   -12293.547    4050.6995   -17441.761    82.822079 
   31400    1365.6874   -112.89502    1.2357027   -111.65932   -32691.573    4.3763936    4.3763936    4.3763936   -32691.573   -32149.112    -40522.76   -25402.846    18013.744    2077.1995    13402.267    83.820285 
   31500    687.29081   -112.27828   0.62187517   -111.65641    -17022.42    4.3615098    4.3615098    4.3615098    -17022.42   -16419.527   -24163.736   -10483.996    19082.888    20229.998    4126.7988    82.967986 
   31600    1524.2927   -113.02612     1.379212   -111.64691    18011.935    4.3557406    4.3557406    4.3557406    18011.935    27730.859    45226.948   -18922.001   -16682.095     662.5202   -11602.945    82.639183 
   31700    1797.9137   -113.26565    1.6267901   -111.63886   -11048.144    4.3755503    4.3755503    4.3755503   -11048.144   -19837.268   -2094.4524   -11212.711     3745.441     -3587.47   -6715.7908    83.771838 
   31800    1495.7624   -112.99678    1.3533973   -111.64338    12740.447    4.3509127    4.3509127    4.3509127    12740.447     3792.173    49460.172   -15031.005    12383.239    24565.328    7910.6665      82.3647 
   31900     887.4222   -112.46952   0.80295826   -111.66656   -12357.716     4.357537     4.357537     4.357537   -12357.716    48279.389   -53459.115   -31893.422    -5580.869    11817.942   -4884.6981    82.741473 
   32000    1314.1054    -112.8404    1.1890302   -111.65137   -21466.803    4.3850541    4.3850541    4.3850541   -21466.803    21621.834   -60365.039   -25657.205   -28665.286   -12475.713   -19762.922    84.318887 
   32100    2026.3602   -113.45538    1.8334933   -111.62189   -17900.968    4.3815995    4.3815995    4.3815995   -17900.968   -14259.725    2168.2002   -41611.378   -11996.888    10934.903    11962.904    84.119764 
   32200    1360.1403   -112.86288    1.2306835    -111.6322   -8044.5601    4.3635915    4.3635915    4.3635915   -8044.5601      35446.8    -14575.79   -45004.689     5558.238    10429.161    8846.4482    83.086846 
   32300    1170.8677   -112.70098    1.0594257   -111.64155   -1261.8881    4.3439602    4.3439602    4.3439602   -1261.8881    11169.584   -3303.5296   -11651.719   -25841.401   -16859.961   -16903.253    81.970488 
   32400    1489.7127   -113.02057    1.3479233   -111.67265    6775.2952    4.3632928    4.3632928    4.3632928    6775.2952    1749.2177    40322.245   -21745.577   -7166.5249   -14595.568    4863.3335    83.069781 
   32500    2101.8502   -113.55187    1.9017982   -111.65007   -11723.876    4.3829345    4.3829345    4.3829345   -11723.876    12089.707   -5531.1585   -41730.176    8572.6006    11707.331    9346.8888    84.196677 
   32600    1225.5239   -112.74988    1.1088797     -111.641   -4798.2298      4.37436      4.37436      4.37436   -4798.2298    5872.1915    19714.216   -39981.097   -21579.985   -7830.2949   -8536.7414    83.703492 
   32700     971.5033   -112.52359    0.8790366   -111.64455   -16213.093    4.3694963    4.3694963    4.3694963   -16213.093    13573.343   -27085.606   -35127.016   -155.98075   -21524.339   -3521.3228    83.424598 
   32800    2109.8148   -113.54267    1.9090048   -111.63366    6026.2589    4.3558427    4.3558427    4.3558427    6026.2589    20581.421    3712.2881   -6214.9327    9076.6216    11342.984   -3681.9275    82.644997 
   32900    1201.3123   -112.74426    1.0869726   -111.65728    25138.358    4.3692162    4.3692162    4.3692162    25138.358    73727.192    26773.056   -25085.173   -10562.568    -9822.237   -2187.8586    83.408556 
   33000    1288.3159   -112.79412    1.1656953   -111.62842   -30561.491    4.3934948    4.3934948    4.3934948   -30561.491    -36573.04   -9733.7198   -45377.712   -11998.908   -23510.868   -244.25912    84.806736 
   33100    1494.8601    -112.9548    1.3525809   -111.60222    4551.0584    4.3793956    4.3793956    4.3793956    4551.0584    40483.745   -11747.321   -15083.248    33216.001    6360.3862    8200.6906    83.992889 
   33200    1309.4307   -112.79069    1.1848005   -111.60589    25017.588    4.3528706    4.3528706    4.3528706    25017.588    50049.644   -1937.9894     26941.11   -27096.327    -9149.247    1017.1604     82.47594 
   33300    1311.0437   -112.82121    1.1862599   -111.63495   -2885.3033      4.35627      4.35627      4.35627   -2885.3033    6535.0045   -1121.3459   -14069.568   -35788.646   -4935.3771   -4462.8467    82.669322 
   33400    1187.5186   -112.72123    1.0744918   -111.64674   -20669.139    4.3798069    4.3798069    4.3798069   -20669.139    4571.2972   -28446.407   -38132.306    34438.349    3760.9483    6283.5486    84.016557 
   33500    1490.7235   -112.98748     1.348838   -111.63865   -38738.905    4.3768357    4.3768357    4.3768357   -38738.905    -38110.06   -58917.609   -19189.047   -24247.137   -2775.9211    5016.2284    83.845687 
   33600    1372.2096   -112.87867    1.2416041   -111.63707    19910.788    4.3421726    4.3421726    4.3421726    19910.788    42873.699   -3098.3232    19956.987   -21949.292    1110.6322   -16137.286    81.869332 
[...]
   91300    1066.5652   -112.58958   0.96505064   -111.62453    -25625.28    4.3699188    4.3699188    4.3699188    -25625.28    36588.632   -37181.787   -76282.685   -2712.6063   -10399.472    28629.813    83.448802 
   91400     2012.619   -113.40916    1.8210599    -111.5881    19400.332    4.3452219    4.3452219    4.3452219    19400.332    42247.505    13834.998     2118.492    715.02525    11444.908    -23596.27    82.041931 
   91500    1010.6211   -112.52755    0.9144312   -111.61312   -36113.658    4.3578873    4.3578873    4.3578873   -36113.658    4770.5362   -41321.096   -71790.416   -1477.9294   -19391.294    84671.224    82.761429 
   91600    1378.8022   -112.86074    1.2475693   -111.61317    -6887.484    4.3559519    4.3559519    4.3559519    -6887.484    -4242.728     7817.157   -24236.881   -6928.1154   -15883.892   -7296.6149    82.651212 
   91700    1553.7164   -113.01866    1.4058352   -111.61283    10625.998    4.3591423    4.3591423    4.3591423    10625.998    28022.409    11774.898   -7919.3124   -8516.9342    5422.4277   -17311.373    82.832951 
   91800     1374.099   -112.85888    1.2433136   -111.61556   -8001.0847    4.3596451    4.3596451    4.3596451   -8001.0847    34182.632   -10882.757   -47303.129   -1629.7232   -8384.8065     67273.36    82.861618 
   91900    1640.0611   -113.09239    1.4839618   -111.60843    11150.729    4.3517169    4.3517169    4.3517169    11150.729   -8197.3997    29996.318    11653.269   -9044.0807   -5699.5489   -21393.713    82.410377 
   92000    951.75529   -112.48418   0.86116819   -111.62302   -8573.8841    4.3578947    4.3578947    4.3578947   -8573.8841    22216.389   -15591.261    -32346.78   -7136.5432   -4450.3509   -1762.8933    82.761853 
   92100    1651.7109   -113.10957    1.4945027   -111.61507    -14716.38    4.3552643    4.3552643    4.3552643    -14716.38    19905.268   -19297.522   -44756.887    867.38286    8793.2287    57128.415    82.612079 
   92200    1336.1075   -112.82486    1.2089382   -111.61592    -11183.34    4.3610903    4.3610903    4.3610903    -11183.34   -9484.5522     -6071.91   -17993.558    -5163.544   -10221.226   -24445.675    82.944049 
   92300    945.62254    -112.4742   0.85561915   -111.61858   -23205.891    4.3655213    4.3655213    4.3655213   -23205.891   -5842.5404   -39449.378   -24325.755   -15679.458   -8586.0732   -11263.036    83.197128 
   92400    2112.9303   -113.51685    1.9118237   -111.60503   -2248.1438    4.3527536    4.3527536    4.3527536   -2248.1438     8444.691     3531.571   -18720.694    483.00353    8417.7809    36577.151    82.469287 
   92500    1210.1446    -112.7208    1.0949642   -111.62583   -13026.748    4.3566037    4.3566037    4.3566037   -13026.748   -2992.3019   -12754.629   -23333.314    5600.2932   -1592.1073   -23618.386    82.688321 
   92600    1059.2188   -112.58809   0.95840347   -111.62969   -14458.179    4.3647248    4.3647248    4.3647248   -14458.179   -19037.649    333.75191   -24670.639   -17511.316   -14537.537   -28161.609    83.151597 
   92700     2201.896   -113.60197    1.9923218   -111.60965    4192.0009    4.3567132    4.3567132    4.3567132    4192.0009    1073.1856    12600.663    -1097.846   -11373.834    20133.866    13334.983    82.694558 
   92800    1391.2155   -112.87673    1.2588011   -111.61793    -14710.74    4.3605946    4.3605946    4.3605946    -14710.74   -2751.6834    350.56555   -41731.101    411.40206    12133.728   -22101.931    82.915773 
   92900    1277.6431   -112.76331    1.1560383   -111.60727   -7165.6204    4.3645097    4.3645097    4.3645097   -7165.6204    3472.0074   -12497.726   -12471.142   -16245.188    -17316.14   -28379.625    83.139307 
   93000    1641.6235   -113.08246    1.4853754   -111.59708   -5303.3497    4.3652587    4.3652587    4.3652587   -5303.3497    2047.6083    4284.0438   -22241.701   -4491.8974    17775.614    26042.873    83.182113 
   93100    1275.0113   -112.75479     1.153657   -111.60113   -19051.543    4.3711847    4.3711847    4.3711847   -19051.543    5505.8335   -20840.077   -41820.384    5384.8805    11763.363   -22523.116    83.521345 
   93200    1550.3726    -113.0013    1.4028097   -111.59849   -2059.2085    4.3545564    4.3545564    4.3545564   -2059.2085    12888.905   -15831.042   -3235.4887   -5940.4054   -11822.327   -30145.589    82.571803 
   93300    914.91994   -112.44051   0.82783878   -111.61267    5727.7653    4.3391453    4.3391453    4.3391453    5727.7653    32317.468    9482.4885    -24616.66   -18240.935    30890.502    43293.244    81.698217 
   93400    1408.2814   -112.90491    1.2742426   -111.63067   -19783.395     4.359329     4.359329     4.359329   -19783.395     15184.84   -30877.604    -43657.42    7452.6488    4593.6599    3366.8946    82.843598 
   93500    1823.1899   -113.26053    1.6496605   -111.61087   -8452.8469    4.3738134    4.3738134    4.3738134   -8452.8469   -18247.173   -7220.4801     109.1122    9466.6045   -7256.4886   -17950.954    83.672115 
   93600    754.84208   -112.30393   0.68299698   -111.62093    2001.7227    4.3614278    4.3614278    4.3614278    2001.7227    45400.191   -944.78385   -38450.239   -8364.5867    39461.928     45463.05    82.963311 
   93700    1866.3307   -113.29677    1.6886952   -111.60807     9866.504    4.3477963    4.3477963    4.3477963     9866.504    53318.168    -5360.239   -18358.417    7519.8503   -1344.5766    12765.752    82.187838 
   93800    2105.7395   -113.51441    1.9053174    -111.6091    10279.481     4.348347     4.348347     4.348347    10279.481     5120.889    11574.781    14142.771   -13471.737    10528.352   -13651.314    82.219073 
   93900    572.88102   -112.15902   0.51835479   -111.64066    695.97633    4.3630811    4.3630811    4.3630811    695.97633    40691.763    11366.497    -49970.33   -9738.7179    28033.372    45130.667    83.057691 
   94000    1954.2556   -113.37989    1.7682515   -111.61163   -18376.413    4.3715571    4.3715571    4.3715571   -18376.413    14344.847   -20978.861   -48495.224   -2125.7977    3714.9353    13270.609    83.542694 
   94100    1532.0713   -112.99712    1.3862503   -111.61087   -1949.7577    4.3555172    4.3555172    4.3555172   -1949.7577    7002.5964    2901.3167   -15753.186   -7075.3673    1731.2299   -9071.3151     82.62647 
   94200    651.11129   -112.20954   0.58913918    -111.6204   -5304.4194    4.3532462    4.3532462    4.3532462   -5304.4194    10874.751    14364.029   -41152.038    -6251.298    34513.079    41021.334    82.497292 
   94300    1881.9968   -113.30284    1.7028703   -111.59997   -18624.868    4.3702202    4.3702202    4.3702202   -18624.868   -6079.9697   -6308.5478   -43486.086     1293.279   -2983.4346   -20368.684    83.466071 
   94400    1110.0513   -112.61548    1.0043978   -111.61109   -10582.366    4.3624415    4.3624415    4.3624415   -10582.366   -6155.6001   -9234.1447   -16357.353   -12784.153   -1516.3276   -15204.426    83.021172 
   94500    1019.5944   -112.53297   0.92255048   -111.61042   -2787.8046    4.3447495    4.3447495    4.3447495   -2787.8046   -2346.7339    16679.737   -22696.417   -4166.3571    40716.403    41129.277    82.015175 
   94600     1679.701   -113.13298    1.5198288   -111.61316   -4842.7071    4.3571241    4.3571241    4.3571241   -4842.7071   -10700.004    23983.854   -27811.972    5346.3142   -33085.992   -20512.571    82.717955 
   94700    1397.6789    -112.8766    1.2646492   -111.61195   -24949.107    4.3698582    4.3698582    4.3698582   -24949.107   -41518.653     10977.36   -44306.028   -6891.4248    7106.6172    -2175.756    83.445328 
   94800    1324.3309   -112.79578    1.1982824   -111.59749   -2739.2113    4.3735004    4.3735004    4.3735004   -2739.2113   -16075.634    28996.498   -21138.498   -12437.737    27325.803    18638.183    83.654155 
   94900    1483.9923   -112.93077    1.3427474   -111.58802   -24680.196    4.3710966    4.3710966    4.3710966   -24680.196   -36556.378     18843.26   -56327.469    883.12879   -55182.767   -23219.736    83.516296 
   95000    1197.8797   -112.67578    1.0838668   -111.59191   -6907.4913    4.3441823    4.3441823    4.3441823   -6907.4913    3996.0664    12659.249   -37377.789    2241.7727    34284.783   -819.03372    81.983059 
   95100    1415.1208   -112.88639    1.2804311   -111.60596    9803.6074    4.3453466    4.3453466    4.3453466    9803.6074    5117.5094    25687.344    -1394.031   -14593.608    10749.899    10905.853    82.048997 
   95200    1424.8499   -112.90448    1.2892342   -111.61524   -18397.627    4.3679108    4.3679108    4.3679108   -18397.627    2676.3796   -4289.5053   -53579.755   -291.23421   -55758.923   -10505.764    83.333821 
   95300    1248.8887   -112.74297    1.1300208   -111.61295   -2823.8525    4.3654915    4.3654915    4.3654915   -2823.8525    48700.897   -13766.156   -43406.298    2981.1701    38715.436   -10213.539    83.195422 
   95400    1521.1869   -112.98578    1.3764019   -111.60938   -6287.2948    4.3604234    4.3604234    4.3604234   -6287.2948    8627.3905   -7490.9993   -19998.276   -22383.114   -215.85183    7672.0642    82.906006 
   95500    1530.4121   -112.99174    1.3847491     -111.607    10941.267    4.3535428    4.3535428    4.3535428    10941.267    23927.196    30659.197   -21762.591    432.20489   -55124.186   -5555.8055    82.514155 
   95600    1322.2313   -112.81203    1.1963827   -111.61565    6204.4073    4.3537643    4.3537643    4.3537643    6204.4073    13039.872     31194.31    -25620.96     4093.419    50396.173   -12117.151    82.526748 
   95700    1883.2379    -113.3148    1.7039932   -111.61081   -9154.0895    4.3627042    4.3627042    4.3627042   -9154.0895   -17177.886   -13231.776    2947.3931   -21167.634    14277.784    6323.2229    83.036169 
   95800    1403.8597   -112.88263    1.2702418   -111.61239   -314.33144    4.3662962    4.3662962    4.3662962   -314.33144    35308.907     -6875.37   -29376.531   -10708.289   -36297.648   -5044.8873     83.24144 
   95900    1002.7374   -112.52789   0.90729788   -111.62059   -16047.143    4.3614649    4.3614649    4.3614649   -16047.143    4164.6808    15900.892   -68207.004    4754.5172    53274.327   -11634.884    82.965427 
   96000    1750.4753   -113.19542    1.5838668   -111.61155    16445.126    4.3450304    4.3450304    4.3450304    16445.126    41186.446   -2557.1374    10706.069     -5378.03    10824.534    460.22804    82.031086 
   96100    1561.2812   -113.03935      1.41268   -111.62667   -11.074317    4.3479282    4.3479282    4.3479282   -11.074317    41060.773   -4021.2258    -37072.77   -5455.7982   -9154.0977   -2427.3352    82.195323 
   96200    667.52843   -112.24725   0.60399375   -111.64325   -29737.732    4.3621136    4.3621136    4.3621136   -29737.732   -49663.482    49664.211   -89213.924   -4503.0914    47263.341   -5422.1404    83.002453 
   96300     1672.963    -113.1325    1.5137321   -111.61877    23320.194    4.3521831    4.3521831    4.3521831    23320.194    39067.196    29223.951     1669.436    4717.5008   -6249.9186    5739.9372    82.436866 
   96400    1576.2629   -113.04744    1.4262358    -111.6212   -9672.0509    4.3667751    4.3667751    4.3667751   -9672.0509     18062.43    10060.714   -57139.297     27.53975    13004.221    5126.7703    83.268834 
   96500    934.03981   -112.46676   0.84513884   -111.62162   -19611.015    4.3639299    4.3639299    4.3639299   -19611.015   -21894.671    55270.688   -92209.062   -11793.318    37856.354   -5529.4226    83.106173 
   96600    1763.9908   -113.19554     1.596096   -111.59944    34763.883    4.3374474    4.3374474    4.3374474    34763.883    58380.322    43135.236    2776.0912    6289.9127   -26927.334    4204.3471    81.602349 
   96700    1403.9925   -112.89376    1.2703619   -111.62339    790.09225    4.3589991    4.3589991    4.3589991    790.09225    18248.334    10389.142   -26267.198   -2418.9891    32297.686    10922.944    82.824786 
   96800    1271.8518   -112.77439    1.1507983   -111.62359   -30019.827    4.3680869    4.3680869    4.3680869   -30019.827   -39261.822    20226.183   -71023.841    -6147.214    49272.265   -4750.6491    83.343896 
   96900    1692.5002   -113.14503    1.5314097   -111.61363    18246.514    4.3515708    4.3515708    4.3515708    18246.514    52189.838    11500.096   -8950.3926    -2649.533   -44840.834    8019.4014    82.402079 
   97000    1264.4274   -112.76544    1.1440805   -111.62136   -8687.1287    4.3518941    4.3518941    4.3518941   -8687.1287    3240.1741    12502.833   -41804.394   -9580.4364    45434.259    12633.153    82.420446 
   97100    1132.2406   -112.64851    1.0244751   -111.62404    16663.587    4.3495538    4.3495538    4.3495538    16663.587    55648.179    30730.402    -36387.82    7816.3499    39088.605    -8403.188    82.287545 
   97200    1786.6522     -113.239    1.6166004    -111.6224   -5463.4969    4.3636902    4.3636902    4.3636902   -5463.4969   -5096.7359    2312.4286   -13606.184   -12904.927   -36620.542    3878.0964    83.092482 
   97300    756.19076   -112.31168   0.68421729   -111.62747   -2728.7869    4.3672374    4.3672374    4.3672374   -2728.7869    17871.247    26841.796   -52899.404   -8589.3804    33426.631    28954.313    83.295284 
   97400    1386.7089   -112.86162    1.2547234    -111.6069    31291.452      4.35697      4.35697      4.35697    31291.452    52839.428    18986.698    22048.231    1180.7154    12525.257   -8525.3575    82.709176 
   97500    1808.1181   -113.23378    1.6360233   -111.59776    13452.353    4.3606917    4.3606917    4.3606917    13452.353    13520.582    3061.8195    23774.658   -16173.961   -9185.0762   -14626.041    82.921309 
   97600    1280.9848   -112.77602     1.159062   -111.61696    13640.358    4.3521813    4.3521813    4.3521813    13640.358    31177.221   -4079.9461    13823.801   -869.57048    39565.128    31135.358    82.436761 
   97700    1264.3276    -112.7684    1.1439902   -111.62441    17236.464     4.350504     4.350504     4.350504    17236.464    67911.542   -17063.446     861.2965   -2124.2007    10646.192   -18464.471    82.341487 
   97800    1976.2748   -113.40657     1.788175    -111.6184    13812.029    4.3544162    4.3544162    4.3544162    13812.029    20400.302    12469.559     8566.226   -3432.1408   -3576.8126   -26267.633    82.563829 
   97900    1267.4125   -112.78005    1.1467815   -111.63327     28294.92    4.3505431    4.3505431    4.3505431     28294.92    45137.175    19783.613    19963.972   -7503.1338    22890.888    27188.755     82.34371 
   98000    1198.4092    -112.7183    1.0843458   -111.63395   -11355.187      4.36544      4.36544      4.36544   -11355.187    25529.447   -51188.733    -8406.274   -1493.5273    13912.692   -5516.8671     83.19248 
   98100    1987.5294   -113.40887    1.7983583   -111.61051     1048.062    4.3603326    4.3603326    4.3603326     1048.062    17928.608   -6582.0007   -8202.4211    11631.933   -6597.9963   -19822.145    82.900823 
   98200    981.72807   -112.50996   0.88828819   -111.62167     7746.247    4.3526574    4.3526574    4.3526574     7746.247   -3130.6369    46082.843   -19713.465   -8714.5013    18823.399    11577.421     82.46382 
   98300    1247.5366   -112.75438    1.1287973   -111.62558   -21268.716    4.3613091    4.3613091    4.3613091   -21268.716    9067.8675   -30061.167   -42812.849    -70.35545    9652.3821    10424.074    82.956532 
   98400    2038.6169   -113.45929    1.8445834    -111.6147    7758.1926    4.3500796    4.3500796    4.3500796    7758.1926    20956.082   -6762.0393    9080.5347    17987.674   -11837.245   -2913.6083    82.317395 
   98500    827.51541   -112.38735   0.74875333   -111.63859    6363.7635    4.3545566    4.3545566    4.3545566    6363.7635   -2223.8875    39398.178       -18083   -2987.5413    29987.062   -1425.6132    82.571815 
   98600    1258.2688   -112.77153     1.138508   -111.63302   -19239.213    4.3665173    4.3665173    4.3665173   -19239.213   -8825.6429    13903.904   -62795.901    2312.2851   -4196.4066    16145.547    83.254083 
   98700    2100.4114   -113.51446    1.9004964   -111.61396    14296.724    4.3533196    4.3533196    4.3533196    14296.724    25865.224    11148.907    5876.0408   -2193.8083   -2079.0366   -2735.2222    82.501466 
   98800    1194.0406    -112.7122     1.080393   -111.63181   -8214.0572    4.3574515    4.3574515    4.3574515   -8214.0572    -4556.496    16516.918   -36602.594   -2848.4198    30408.515   -8521.6548    82.736601 
   98900    1174.2873   -112.69647    1.0625199   -111.63395   -6851.2499    4.3576107    4.3576107    4.3576107   -6851.2499   -20021.582    41413.388   -41945.556    518.28095   -18459.534    22403.742    82.745669 
   99000     1880.307   -113.32625    1.7013413   -111.62491      24731.1     4.345318     4.345318     4.345318      24731.1     27380.82     35278.54     11533.94    -8298.932   -8908.6722   -10172.644    82.047378 
   99100     1472.644   -112.97178    1.3324792   -111.63931   -9722.5501    4.3616541    4.3616541    4.3616541   -9722.5501   -3089.1517   -10419.088    -15659.41    10973.682    26893.005   -20841.703    82.976225 
   99200    1381.0273   -112.88265    1.2495825   -111.63307   -14426.936    4.3590567    4.3590567    4.3590567   -14426.936    -32226.82    22694.182    -33748.17    2409.6317   -10718.888    18181.757    82.828075 
   99300    1124.1569   -112.64436    1.0171608    -111.6272    29814.164    4.3451374    4.3451374    4.3451374    29814.164    27238.536    29102.111    33101.846   -22178.663   -18704.726   -22870.159    82.037145 
   99400    1541.5895   -113.02379    1.3948626   -111.62892    -15990.07     4.361953     4.361953     4.361953    -15990.07    6140.0911   -42102.643   -12007.657   -282.12231    22203.384   -25727.618     82.99328 
   99500    1306.1715    -112.8021    1.1818514   -111.62025    6088.6559    4.3633127    4.3633127    4.3633127    6088.6559   -20871.621     13515.09    25622.498     10485.79   -16628.035     18085.55    83.070921 
   99600    959.91107   -112.50162   0.86854771   -111.63307   -1944.6786    4.3516573    4.3516573    4.3516573   -1944.6786    8752.7833   -24222.789    9635.9695   -18490.398   -21112.745     -30825.2    82.406994 
   99700    1501.0508   -112.98976    1.3581823   -111.63158    3203.6919    4.3568926    4.3568926    4.3568926    3203.6919    19378.477   -35662.452     25895.05   -8474.4992    2401.1028   -23979.767     82.70477 
   99800    1941.7842   -113.38049    1.7569671   -111.62352    6256.8352     4.360517     4.360517     4.360517    6256.8352   -3346.4941    1552.2703    20564.729    8990.0603    -10770.63     14559.46    82.911343 
   99900    834.80489   -112.40079   0.75534901   -111.64544   -11462.733    4.3607646    4.3607646    4.3607646   -11462.733    14595.982   -16865.739   -32118.441   -21239.993   -22442.302    -24671.73    82.925469 
  100000    1623.0439   -113.10022    1.4685643   -111.63165   -9412.1182    4.3631514    4.3631514    4.3631514   -9412.1182     9791.954   -20113.591   -17914.717   -10545.544   -6364.2029   -16240.059    83.061707 
Loop time of 22.1038 on 1 procs for 100000 steps with 8 atoms

Pair  time (%) = 6.87391 (31.0983)
Kspce time (%) = 5.37096 (24.2988)
Neigh time (%) = 0.0942068 (0.426202)
Comm  time (%) = 1.02081 (4.61824)
Outpt time (%) = 0.0217917 (0.098588)
Other time (%) = 8.72213 (39.4598)

Nlocal:    8 ave 8 max 8 min
Histogram: 1 0 0 0 0 0 0 0 0 0
Nghost:    2147 ave 2147 max 2147 min
Histogram: 1 0 0 0 0 0 0 0 0 0
Neighs:    2086 ave 2086 max 2086 min
Histogram: 1 0 0 0 0 0 0 0 0 0

Total # of neighbors = 2086
Ave neighs/atom = 260.75
Neighbor list builds = 1154
Dangerous builds = 0
unfix 20
unfix 21
print "seeds:6276362"
seeds:6276362
