   2   2   0   0
  0.9639684E+01  0.3009788E-09  0.3009788E-09  0.3009788E-09  0.5000000E-15
  1.000000000000000E-004
  CAR 
 automatically generated by pyflamestk   
     43.85355310    -16.52242779  301      3.62805583      1.00000000
    -16.522  0.0000E+00  0.0000E+00
    -16.321  0.0000E+00  0.0000E+00
    -16.120  0.0000E+00  0.0000E+00
    -15.919  0.0000E+00  0.0000E+00
    -15.717  0.0000E+00  0.0000E+00
    -15.516  0.0000E+00  0.0000E+00
    -15.315  0.0000E+00  0.0000E+00
    -15.114  0.0000E+00  0.0000E+00
    -14.912  0.0000E+00  0.0000E+00
    -14.711  0.0000E+00  0.0000E+00
    -14.510  0.0000E+00  0.0000E+00
    -14.309  0.0000E+00  0.0000E+00
    -14.107  0.0000E+00  0.0000E+00
    -13.906  0.4533E-04  0.9122E-05
    -13.705  0.3045E+00  0.6130E-01
    -13.504  0.1767E-01  0.6485E-01
    -13.302  0.9197E+00  0.2499E+00
    -13.101  0.8240E+00  0.4158E+00
    -12.900  0.1013E+01  0.6197E+00
    -12.699  0.2833E+01  0.1190E+01
    -12.497  0.3420E+01  0.1878E+01
    -12.296  0.6049E+00  0.2000E+01
    -12.095  0.0000E+00  0.2000E+01
    -11.894  0.0000E+00  0.2000E+01
    -11.692  0.0000E+00  0.2000E+01
    -11.491  0.0000E+00  0.2000E+01
    -11.290  0.0000E+00  0.2000E+01
    -11.089  0.0000E+00  0.2000E+01
    -10.887  0.0000E+00  0.2000E+01
    -10.686  0.0000E+00  0.2000E+01
    -10.485  0.0000E+00  0.2000E+01
    -10.284  0.0000E+00  0.2000E+01
    -10.082  0.0000E+00  0.2000E+01
     -9.881  0.0000E+00  0.2000E+01
     -9.680  0.0000E+00  0.2000E+01
     -9.479  0.0000E+00  0.2000E+01
     -9.277  0.0000E+00  0.2000E+01
     -9.076  0.0000E+00  0.2000E+01
     -8.875  0.0000E+00  0.2000E+01
     -8.674  0.0000E+00  0.2000E+01
     -8.472  0.0000E+00  0.2000E+01
     -8.271  0.0000E+00  0.2000E+01
     -8.070  0.0000E+00  0.2000E+01
     -7.869  0.0000E+00  0.2000E+01
     -7.667  0.0000E+00  0.2000E+01
     -7.466  0.0000E+00  0.2000E+01
     -7.265  0.0000E+00  0.2000E+01
     -7.064  0.0000E+00  0.2000E+01
     -6.862  0.0000E+00  0.2000E+01
     -6.661  0.0000E+00  0.2000E+01
     -6.460  0.0000E+00  0.2000E+01
     -6.259  0.0000E+00  0.2000E+01
     -6.057  0.0000E+00  0.2000E+01
     -5.856  0.0000E+00  0.2000E+01
     -5.655  0.0000E+00  0.2000E+01
     -5.453  0.0000E+00  0.2000E+01
     -5.252  0.0000E+00  0.2000E+01
     -5.051  0.0000E+00  0.2000E+01
     -4.850  0.0000E+00  0.2000E+01
     -4.648  0.0000E+00  0.2000E+01
     -4.447  0.0000E+00  0.2000E+01
     -4.246  0.0000E+00  0.2000E+01
     -4.045  0.0000E+00  0.2000E+01
     -3.843  0.0000E+00  0.2000E+01
     -3.642  0.0000E+00  0.2000E+01
     -3.441  0.0000E+00  0.2000E+01
     -3.240  0.0000E+00  0.2000E+01
     -3.038  0.0000E+00  0.2000E+01
     -2.837  0.0000E+00  0.2000E+01
     -2.636  0.0000E+00  0.2000E+01
     -2.435  0.0000E+00  0.2000E+01
     -2.233  0.0000E+00  0.2000E+01
     -2.032  0.0000E+00  0.2000E+01
     -1.831  0.0000E+00  0.2000E+01
     -1.630  0.0000E+00  0.2000E+01
     -1.428  0.0000E+00  0.2000E+01
     -1.227  0.0000E+00  0.2000E+01
     -1.026  0.1494E-06  0.2000E+01
     -0.825  0.6704E+00  0.2135E+01
     -0.623  0.3301E+00  0.2201E+01
     -0.422  0.3411E+00  0.2270E+01
     -0.221  0.2569E+01  0.2787E+01
     -0.020  0.1772E+01  0.3144E+01
      0.182  0.2083E+01  0.3563E+01
      0.383  0.9296E+00  0.3750E+01
      0.584  0.8704E-03  0.3750E+01
      0.785  0.2492E-08  0.3750E+01
      0.987  0.7426E+00  0.3899E+01
      1.188  0.2931E+01  0.4489E+01
      1.389  0.5290E-01  0.4500E+01
      1.590  0.4745E-04  0.4500E+01
      1.792  0.2609E+01  0.5025E+01
      1.993  0.2133E+00  0.5068E+01
      2.194  0.2441E+01  0.5559E+01
      2.395  0.2306E+01  0.6023E+01
      2.597  0.4512E+01  0.6931E+01
      2.798  0.1297E+01  0.7192E+01
      2.999  0.2804E+01  0.7756E+01
      3.200  0.5892E+00  0.7875E+01
      3.402  0.6032E+00  0.7996E+01
      3.603  0.1784E-01  0.8000E+01
      3.804  0.0000E+00  0.8000E+01
      4.005  0.0000E+00  0.8000E+01
      4.207  0.0000E+00  0.8000E+01
      4.408  0.0000E+00  0.8000E+01
      4.609  0.0000E+00  0.8000E+01
      4.810  0.0000E+00  0.8000E+01
      5.012  0.0000E+00  0.8000E+01
      5.213  0.0000E+00  0.8000E+01
      5.414  0.0000E+00  0.8000E+01
      5.615  0.0000E+00  0.8000E+01
      5.817  0.0000E+00  0.8000E+01
      6.018  0.0000E+00  0.8000E+01
      6.219  0.0000E+00  0.8000E+01
      6.420  0.0000E+00  0.8000E+01
      6.622  0.0000E+00  0.8000E+01
      6.823  0.0000E+00  0.8000E+01
      7.024  0.0000E+00  0.8000E+01
      7.225  0.0000E+00  0.8000E+01
      7.427  0.0000E+00  0.8000E+01
      7.628  0.0000E+00  0.8000E+01
      7.829  0.0000E+00  0.8000E+01
      8.030  0.0000E+00  0.8000E+01
      8.232  0.0000E+00  0.8000E+01
      8.433  0.1619E-08  0.8000E+01
      8.634  0.1514E+00  0.8030E+01
      8.835  0.1592E+00  0.8062E+01
      9.037  0.0000E+00  0.8062E+01
      9.238  0.0000E+00  0.8062E+01
      9.439  0.0000E+00  0.8062E+01
      9.640  0.0000E+00  0.8062E+01
      9.842  0.0000E+00  0.8062E+01
     10.043  0.9344E-08  0.8063E+01
     10.244  0.4958E+00  0.8162E+01
     10.446  0.4358E+00  0.8250E+01
     10.647  0.1485E-11  0.8250E+01
     10.848  0.4075E-01  0.8258E+01
     11.049  0.3769E+00  0.8334E+01
     11.251  0.8245E+00  0.8500E+01
     11.452  0.3289E-05  0.8500E+01
     11.653  0.1111E+00  0.8522E+01
     11.854  0.8206E+00  0.8687E+01
     12.056  0.9328E-05  0.8688E+01
     12.257  0.8481E+00  0.8858E+01
     12.458  0.8390E-01  0.8875E+01
     12.659  0.1834E+01  0.9244E+01
     12.861  0.5584E+00  0.9357E+01
     13.062  0.7417E+00  0.9506E+01
     13.263  0.5924E+00  0.9625E+01
     13.464  0.1818E+00  0.9662E+01
     13.666  0.7516E+00  0.9813E+01
     13.867  0.1922E+01  0.1020E+02
     14.068  0.8712E+00  0.1037E+02
     14.269  0.9832E-05  0.1038E+02
     14.471  0.0000E+00  0.1038E+02
     14.672  0.1295E-04  0.1038E+02
     14.873  0.3200E+01  0.1102E+02
     15.074  0.5267E+00  0.1113E+02
     15.276  0.5869E+00  0.1124E+02
     15.477  0.1839E+01  0.1161E+02
     15.678  0.3429E+01  0.1230E+02
     15.879  0.4523E-01  0.1231E+02
     16.081  0.4639E+00  0.1241E+02
     16.282  0.1399E+01  0.1269E+02
     16.483  0.1360E-03  0.1269E+02
     16.684  0.2669E-13  0.1269E+02
     16.886  0.5206E-01  0.1270E+02
     17.087  0.1814E+01  0.1306E+02
     17.288  0.9911E+00  0.1326E+02
     17.489  0.2489E+00  0.1331E+02
     17.691  0.1772E-06  0.1331E+02
     17.892  0.1806E+00  0.1335E+02
     18.093  0.7511E+00  0.1350E+02
     18.294  0.6414E-06  0.1350E+02
     18.496  0.3129E-04  0.1350E+02
     18.697  0.8907E+00  0.1368E+02
     18.898  0.4098E-01  0.1369E+02
     19.099  0.7035E-10  0.1369E+02
     19.301  0.1603E+00  0.1372E+02
     19.502  0.1628E+01  0.1405E+02
     19.703  0.2422E+01  0.1453E+02
     19.904  0.1024E+01  0.1474E+02
     20.106  0.8992E+00  0.1492E+02
     20.307  0.2174E+01  0.1536E+02
     20.508  0.1262E+01  0.1561E+02
     20.709  0.5845E-01  0.1563E+02
     20.911  0.9264E+00  0.1581E+02
     21.112  0.7398E+00  0.1596E+02
     21.313  0.9957E+00  0.1616E+02
     21.514  0.7379E+00  0.1631E+02
     21.716  0.1258E+01  0.1656E+02
     21.917  0.8619E-06  0.1656E+02
     22.118  0.3861E+00  0.1664E+02
     22.319  0.5455E+00  0.1675E+02
     22.521  0.7240E+00  0.1690E+02
     22.722  0.1261E+01  0.1715E+02
     22.923  0.8147E+00  0.1731E+02
     23.124  0.1855E+01  0.1769E+02
     23.326  0.3290E-02  0.1769E+02
     23.527  0.2161E+00  0.1773E+02
     23.728  0.1031E+01  0.1794E+02
     23.929  0.3053E+00  0.1800E+02
     24.131  0.2828E+00  0.1806E+02
     24.332  0.2854E+00  0.1811E+02
     24.533  0.1272E+01  0.1837E+02
     24.734  0.2365E-01  0.1838E+02
     24.936  0.8972E+00  0.1856E+02
     25.137  0.3450E+00  0.1862E+02
     25.338  0.3022E+00  0.1869E+02
     25.540  0.1825E+01  0.1905E+02
     25.741  0.6676E+00  0.1919E+02
     25.942  0.1169E+00  0.1921E+02
     26.143  0.1745E+01  0.1956E+02
     26.345  0.8975E-02  0.1956E+02
     26.546  0.2771E+01  0.2012E+02
     26.747  0.1620E-01  0.2013E+02
     26.948  0.8966E+00  0.2031E+02
     27.150  0.8762E+00  0.2048E+02
     27.351  0.3961E+00  0.2056E+02
     27.552  0.4910E-02  0.2056E+02
     27.753  0.0000E+00  0.2056E+02
     27.955  0.0000E+00  0.2056E+02
     28.156  0.0000E+00  0.2056E+02
     28.357  0.0000E+00  0.2056E+02
     28.558  0.9813E-06  0.2056E+02
     28.760  0.5282E+00  0.2067E+02
     28.961  0.2831E+01  0.2124E+02
     29.162  0.9629E+00  0.2143E+02
     29.363  0.8111E-01  0.2145E+02
     29.565  0.8766E+00  0.2162E+02
     29.766  0.1690E-04  0.2163E+02
     29.967  0.8103E+00  0.2179E+02
     30.168  0.2505E+01  0.2229E+02
     30.370  0.1393E+01  0.2257E+02
     30.571  0.8811E+00  0.2275E+02
     30.772  0.1816E-04  0.2275E+02
     30.973  0.5140E-01  0.2276E+02
     31.175  0.1799E+01  0.2312E+02
     31.376  0.1888E-01  0.2313E+02
     31.577  0.1859E+01  0.2350E+02
     31.778  0.2773E+01  0.2406E+02
     31.980  0.8814E+00  0.2424E+02
     32.181  0.1307E+01  0.2450E+02
     32.382  0.3850E+01  0.2527E+02
     32.583  0.8234E+00  0.2544E+02
     32.785  0.2781E+01  0.2600E+02
     32.986  0.8867E+00  0.2618E+02
     33.187  0.2778E+00  0.2623E+02
     33.388  0.2255E+01  0.2669E+02
     33.590  0.1024E-02  0.2669E+02
     33.791  0.0000E+00  0.2669E+02
     33.992  0.0000E+00  0.2669E+02
     34.193  0.0000E+00  0.2669E+02
     34.395  0.0000E+00  0.2669E+02
     34.596  0.5067E-11  0.2669E+02
     34.797  0.1286E+00  0.2671E+02
     34.998  0.2660E+01  0.2725E+02
     35.200  0.6398E-02  0.2725E+02
     35.401  0.5135E+00  0.2735E+02
     35.602  0.2856E+01  0.2793E+02
     35.803  0.5403E+00  0.2804E+02
     36.005  0.7490E+00  0.2819E+02
     36.206  0.3862E-04  0.2819E+02
     36.407  0.1767E+01  0.2854E+02
     36.608  0.1027E+01  0.2875E+02
     36.810  0.8457E-01  0.2877E+02
     37.011  0.5370E+00  0.2887E+02
     37.212  0.6851E+00  0.2901E+02
     37.413  0.1179E+01  0.2925E+02
     37.615  0.9269E+00  0.2944E+02
     37.816  0.5876E+00  0.2956E+02
     38.017  0.1279E+01  0.2981E+02
     38.218  0.8181E+00  0.2998E+02
     38.420  0.1136E+00  0.3000E+02
     38.621  0.7602E-14  0.3000E+02
     38.822  0.4583E-01  0.3001E+02
     39.023  0.3558E+01  0.3073E+02
     39.225  0.4338E+00  0.3081E+02
     39.426  0.0000E+00  0.3081E+02
     39.627  0.0000E+00  0.3081E+02
     39.828  0.5172E-16  0.3081E+02
     40.030  0.3672E-02  0.3081E+02
     40.231  0.9269E+00  0.3100E+02
     40.432  0.1120E-02  0.3100E+02
     40.634  0.0000E+00  0.3100E+02
     40.835  0.1411E-03  0.3100E+02
     41.036  0.1699E+01  0.3134E+02
     41.237  0.3269E+01  0.3200E+02
     41.439  0.3462E-03  0.3200E+02
     41.640  0.0000E+00  0.3200E+02
     41.841  0.0000E+00  0.3200E+02
     42.042  0.0000E+00  0.3200E+02
     42.244  0.0000E+00  0.3200E+02
     42.445  0.0000E+00  0.3200E+02
     42.646  0.0000E+00  0.3200E+02
     42.847  0.0000E+00  0.3200E+02
     43.049  0.0000E+00  0.3200E+02
     43.250  0.0000E+00  0.3200E+02
     43.451  0.0000E+00  0.3200E+02
     43.652  0.0000E+00  0.3200E+02
     43.854  0.0000E+00  0.3200E+02
