# ['Ni']

20 atoms
1 atom types

    0.0000     3.3232 xlo xhi
    0.0000     3.3232 ylo yhi
    0.0000    33.2318 zlo zhi

    0.0000    -0.0000     0.0000 xy xz yz

Atoms

1 1     0.0000     0.0000     0.0000
2 1     1.6616     1.6616     0.0000
3 1     1.6616     0.0000     1.6616
4 1     0.0000     1.6616     1.6616
5 1     0.0000     0.0000     3.3232
6 1     1.6616     1.6616     3.3232
7 1     1.6616     0.0000     4.9848
8 1     0.0000     1.6616     4.9848
9 1     0.0000     0.0000     6.6464
10 1     1.6616     1.6616     6.6464
11 1     1.6616     0.0000     8.3079
12 1     0.0000     1.6616     8.3079
13 1     0.0000     0.0000     9.9695
14 1     1.6616     1.6616     9.9695
15 1     1.6616     0.0000    11.6311
16 1     0.0000     1.6616    11.6311
17 1     0.0000     0.0000    13.2927
18 1     1.6616     1.6616    13.2927
19 1     1.6616     0.0000    14.9543
20 1     0.0000     1.6616    14.9543
