   2   2   0   0
  0.9639684E+01  0.3009788E-09  0.3009788E-09  0.3009788E-09  0.5000000E-15
  1.000000000000000E-004
  CAR 
 automatically generated by pyflamestk   
     43.83094517    -16.33874054  301      3.54232645      1.00000000
    -16.339  0.0000E+00  0.0000E+00
    -16.138  0.0000E+00  0.0000E+00
    -15.938  0.0000E+00  0.0000E+00
    -15.737  0.0000E+00  0.0000E+00
    -15.536  0.0000E+00  0.0000E+00
    -15.336  0.0000E+00  0.0000E+00
    -15.135  0.0000E+00  0.0000E+00
    -14.935  0.0000E+00  0.0000E+00
    -14.734  0.0000E+00  0.0000E+00
    -14.534  0.0000E+00  0.0000E+00
    -14.333  0.0000E+00  0.0000E+00
    -14.133  0.0000E+00  0.0000E+00
    -13.932  0.0000E+00  0.0000E+00
    -13.731  0.4771E-04  0.9569E-05
    -13.531  0.3055E+00  0.6128E-01
    -13.330  0.1219E-01  0.6372E-01
    -13.130  0.9281E+00  0.2499E+00
    -12.929  0.7203E+00  0.3943E+00
    -12.729  0.8489E+00  0.5646E+00
    -12.528  0.2631E+01  0.1092E+01
    -12.327  0.2987E+01  0.1691E+01
    -12.127  0.1539E+01  0.2000E+01
    -11.926  0.1518E-06  0.2000E+01
    -11.726  0.0000E+00  0.2000E+01
    -11.525  0.0000E+00  0.2000E+01
    -11.325  0.0000E+00  0.2000E+01
    -11.124  0.0000E+00  0.2000E+01
    -10.923  0.0000E+00  0.2000E+01
    -10.723  0.0000E+00  0.2000E+01
    -10.522  0.0000E+00  0.2000E+01
    -10.322  0.0000E+00  0.2000E+01
    -10.121  0.0000E+00  0.2000E+01
     -9.921  0.0000E+00  0.2000E+01
     -9.720  0.0000E+00  0.2000E+01
     -9.520  0.0000E+00  0.2000E+01
     -9.319  0.0000E+00  0.2000E+01
     -9.118  0.0000E+00  0.2000E+01
     -8.918  0.0000E+00  0.2000E+01
     -8.717  0.0000E+00  0.2000E+01
     -8.517  0.0000E+00  0.2000E+01
     -8.316  0.0000E+00  0.2000E+01
     -8.116  0.0000E+00  0.2000E+01
     -7.915  0.0000E+00  0.2000E+01
     -7.714  0.0000E+00  0.2000E+01
     -7.514  0.0000E+00  0.2000E+01
     -7.313  0.0000E+00  0.2000E+01
     -7.113  0.0000E+00  0.2000E+01
     -6.912  0.0000E+00  0.2000E+01
     -6.712  0.0000E+00  0.2000E+01
     -6.511  0.0000E+00  0.2000E+01
     -6.310  0.0000E+00  0.2000E+01
     -6.110  0.0000E+00  0.2000E+01
     -5.909  0.0000E+00  0.2000E+01
     -5.709  0.0000E+00  0.2000E+01
     -5.508  0.0000E+00  0.2000E+01
     -5.308  0.0000E+00  0.2000E+01
     -5.107  0.0000E+00  0.2000E+01
     -4.907  0.0000E+00  0.2000E+01
     -4.706  0.0000E+00  0.2000E+01
     -4.505  0.0000E+00  0.2000E+01
     -4.305  0.0000E+00  0.2000E+01
     -4.104  0.0000E+00  0.2000E+01
     -3.904  0.0000E+00  0.2000E+01
     -3.703  0.0000E+00  0.2000E+01
     -3.503  0.0000E+00  0.2000E+01
     -3.302  0.0000E+00  0.2000E+01
     -3.101  0.0000E+00  0.2000E+01
     -2.901  0.0000E+00  0.2000E+01
     -2.700  0.0000E+00  0.2000E+01
     -2.500  0.0000E+00  0.2000E+01
     -2.299  0.0000E+00  0.2000E+01
     -2.099  0.0000E+00  0.2000E+01
     -1.898  0.0000E+00  0.2000E+01
     -1.697  0.0000E+00  0.2000E+01
     -1.497  0.0000E+00  0.2000E+01
     -1.296  0.0000E+00  0.2000E+01
     -1.096  0.3923E-10  0.2000E+01
     -0.895  0.1925E+00  0.2039E+01
     -0.695  0.7434E+00  0.2188E+01
     -0.494  0.3152E+00  0.2251E+01
     -0.293  0.1454E+01  0.2543E+01
     -0.093  0.2419E+01  0.3028E+01
      0.108  0.2519E+01  0.3533E+01
      0.308  0.1023E+01  0.3738E+01
      0.509  0.5921E-01  0.3750E+01
      0.709  0.4953E-11  0.3750E+01
      0.910  0.2064E+00  0.3791E+01
      1.110  0.2759E+01  0.4345E+01
      1.311  0.7739E+00  0.4500E+01
      1.512  0.1033E-05  0.4500E+01
      1.712  0.2081E+01  0.4917E+01
      1.913  0.7251E+00  0.5063E+01
      2.113  0.2065E+01  0.5477E+01
      2.314  0.2571E+01  0.5992E+01
      2.514  0.3585E+01  0.6711E+01
      2.715  0.2369E+01  0.7187E+01
      2.916  0.2112E+01  0.7610E+01
      3.116  0.1321E+01  0.7875E+01
      3.317  0.5953E+00  0.7994E+01
      3.517  0.2797E-01  0.8000E+01
      3.718  0.0000E+00  0.8000E+01
      3.918  0.0000E+00  0.8000E+01
      4.119  0.0000E+00  0.8000E+01
      4.320  0.0000E+00  0.8000E+01
      4.520  0.0000E+00  0.8000E+01
      4.721  0.0000E+00  0.8000E+01
      4.921  0.0000E+00  0.8000E+01
      5.122  0.0000E+00  0.8000E+01
      5.322  0.0000E+00  0.8000E+01
      5.523  0.0000E+00  0.8000E+01
      5.723  0.0000E+00  0.8000E+01
      5.924  0.0000E+00  0.8000E+01
      6.125  0.0000E+00  0.8000E+01
      6.325  0.0000E+00  0.8000E+01
      6.526  0.0000E+00  0.8000E+01
      6.726  0.0000E+00  0.8000E+01
      6.927  0.0000E+00  0.8000E+01
      7.127  0.0000E+00  0.8000E+01
      7.328  0.0000E+00  0.8000E+01
      7.529  0.0000E+00  0.8000E+01
      7.729  0.0000E+00  0.8000E+01
      7.930  0.0000E+00  0.8000E+01
      8.130  0.0000E+00  0.8000E+01
      8.331  0.0000E+00  0.8000E+01
      8.531  0.4691E-06  0.8000E+01
      8.732  0.2624E+00  0.8053E+01
      8.933  0.4923E-01  0.8062E+01
      9.133  0.0000E+00  0.8062E+01
      9.334  0.0000E+00  0.8062E+01
      9.534  0.0000E+00  0.8062E+01
      9.735  0.0000E+00  0.8062E+01
      9.935  0.0000E+00  0.8062E+01
     10.136  0.1292E-04  0.8063E+01
     10.336  0.8700E+00  0.8237E+01
     10.537  0.6482E-01  0.8250E+01
     10.738  0.1127E-07  0.8250E+01
     10.938  0.1911E+00  0.8288E+01
     11.139  0.8114E+00  0.8451E+01
     11.339  0.2440E+00  0.8500E+01
     11.540  0.1139E-06  0.8500E+01
     11.740  0.6498E+00  0.8630E+01
     11.941  0.2850E+00  0.8687E+01
     12.142  0.1951E-01  0.8691E+01
     12.342  0.9152E+00  0.8875E+01
     12.543  0.2391E+00  0.8923E+01
     12.743  0.1632E+01  0.9250E+01
     12.944  0.9291E+00  0.9437E+01
     13.144  0.9190E+00  0.9621E+01
     13.345  0.2085E-01  0.9625E+01
     13.546  0.8935E+00  0.9804E+01
     13.746  0.7128E+00  0.9947E+01
     13.947  0.2003E+01  0.1035E+02
     14.147  0.1301E+00  0.1037E+02
     14.348  0.0000E+00  0.1038E+02
     14.548  0.4967E-09  0.1038E+02
     14.749  0.7687E+00  0.1053E+02
     14.949  0.2971E+01  0.1112E+02
     15.150  0.1340E-01  0.1113E+02
     15.351  0.1881E+01  0.1150E+02
     15.551  0.2800E+01  0.1207E+02
     15.752  0.1227E+01  0.1231E+02
     15.952  0.4744E-01  0.1232E+02
     16.153  0.1643E+01  0.1265E+02
     16.353  0.1794E+00  0.1269E+02
     16.554  0.0000E+00  0.1269E+02
     16.755  0.4953E-06  0.1269E+02
     16.955  0.1392E+01  0.1297E+02
     17.156  0.8895E+00  0.1315E+02
     17.356  0.8053E+00  0.1331E+02
     17.557  0.2912E-01  0.1331E+02
     17.757  0.6960E-05  0.1331E+02
     17.958  0.8510E+00  0.1348E+02
     18.159  0.8386E-01  0.1350E+02
     18.359  0.1309E-12  0.1350E+02
     18.560  0.4811E-01  0.1351E+02
     18.760  0.8867E+00  0.1369E+02
     18.961  0.2477E-04  0.1369E+02
     19.161  0.2931E-05  0.1369E+02
     19.362  0.6086E+00  0.1381E+02
     19.563  0.2758E+01  0.1436E+02
     19.763  0.1508E+01  0.1467E+02
     19.964  0.9998E+00  0.1487E+02
     20.164  0.1738E+01  0.1521E+02
     20.365  0.1132E+01  0.1544E+02
     20.565  0.9152E+00  0.1562E+02
     20.766  0.3196E+00  0.1569E+02
     20.966  0.6169E+00  0.1581E+02
     21.167  0.9540E+00  0.1600E+02
     21.368  0.9158E+00  0.1619E+02
     21.568  0.1856E+01  0.1656E+02
     21.769  0.1237E-01  0.1656E+02
     21.969  0.1879E-04  0.1656E+02
     22.170  0.8800E+00  0.1674E+02
     22.370  0.5484E-01  0.1675E+02
     22.571  0.8977E+00  0.1693E+02
     22.772  0.1875E+01  0.1731E+02
     22.972  0.5765E+00  0.1742E+02
     23.173  0.1325E+01  0.1769E+02
     23.373  0.3422E-05  0.1769E+02
     23.574  0.5584E+00  0.1780E+02
     23.774  0.9851E+00  0.1800E+02
     23.975  0.1555E-01  0.1800E+02
     24.176  0.3101E+00  0.1806E+02
     24.376  0.8647E+00  0.1824E+02
     24.577  0.6939E+00  0.1837E+02
     24.777  0.2234E-02  0.1838E+02
     24.978  0.1218E+01  0.1862E+02
     25.178  0.2675E-01  0.1863E+02
     25.379  0.1406E+01  0.1891E+02
     25.579  0.1216E+01  0.1915E+02
     25.780  0.1826E+00  0.1919E+02
     25.981  0.8654E+00  0.1936E+02
     26.181  0.1004E+01  0.1956E+02
     26.382  0.2781E+00  0.1962E+02
     26.582  0.2526E+01  0.2012E+02
     26.783  0.6388E-02  0.2013E+02
     26.983  0.9302E+00  0.2031E+02
     27.184  0.9365E+00  0.2050E+02
     27.385  0.3082E+00  0.2056E+02
     27.585  0.5918E-04  0.2056E+02
     27.786  0.0000E+00  0.2056E+02
     27.986  0.0000E+00  0.2056E+02
     28.187  0.0000E+00  0.2056E+02
     28.387  0.3460E-16  0.2056E+02
     28.588  0.2740E-02  0.2056E+02
     28.789  0.6518E+00  0.2069E+02
     28.989  0.2767E+01  0.2125E+02
     29.190  0.9408E+00  0.2144E+02
     29.390  0.4640E+00  0.2153E+02
     29.591  0.4714E+00  0.2162E+02
     29.791  0.3135E-05  0.2163E+02
     29.992  0.2130E+01  0.2205E+02
     30.192  0.1549E+01  0.2236E+02
     30.393  0.1407E+01  0.2265E+02
     30.594  0.5220E+00  0.2275E+02
     30.794  0.6339E-07  0.2275E+02
     30.995  0.6256E+00  0.2288E+02
     31.195  0.1244E+01  0.2312E+02
     31.396  0.8434E+00  0.2329E+02
     31.596  0.1630E+01  0.2362E+02
     31.797  0.2201E+01  0.2406E+02
     31.998  0.1213E+01  0.2431E+02
     32.198  0.1275E+01  0.2456E+02
     32.399  0.4335E+01  0.2543E+02
     32.599  0.1154E+00  0.2545E+02
     32.800  0.2739E+01  0.2600E+02
     33.000  0.9159E+00  0.2619E+02
     33.201  0.7732E+00  0.2634E+02
     33.402  0.1720E+01  0.2669E+02
     33.602  0.2069E-05  0.2669E+02
     33.803  0.0000E+00  0.2669E+02
     34.003  0.0000E+00  0.2669E+02
     34.204  0.0000E+00  0.2669E+02
     34.404  0.0000E+00  0.2669E+02
     34.605  0.5871E-09  0.2669E+02
     34.805  0.3519E+00  0.2676E+02
     35.006  0.2452E+01  0.2725E+02
     35.207  0.3962E-03  0.2725E+02
     35.407  0.8299E+00  0.2742E+02
     35.608  0.2736E+01  0.2797E+02
     35.808  0.7852E+00  0.2812E+02
     36.009  0.3236E+00  0.2819E+02
     36.209  0.4114E-03  0.2819E+02
     36.410  0.1896E+01  0.2857E+02
     36.611  0.9083E+00  0.2875E+02
     36.811  0.1345E+00  0.2878E+02
     37.012  0.4888E+00  0.2888E+02
     37.212  0.1003E+01  0.2908E+02
     37.413  0.8724E+00  0.2925E+02
     37.613  0.9286E+00  0.2944E+02
     37.814  0.7288E+00  0.2958E+02
     38.015  0.1142E+01  0.2981E+02
     38.215  0.8465E+00  0.2998E+02
     38.416  0.8832E-01  0.3000E+02
     38.616  0.3149E-10  0.3000E+02
     38.817  0.2542E+00  0.3005E+02
     39.017  0.3766E+01  0.3081E+02
     39.218  0.3060E-01  0.3081E+02
     39.419  0.0000E+00  0.3081E+02
     39.619  0.0000E+00  0.3081E+02
     39.820  0.1038E-15  0.3081E+02
     40.020  0.5152E-02  0.3081E+02
     40.221  0.9289E+00  0.3100E+02
     40.421  0.8147E-03  0.3100E+02
     40.622  0.4009E-07  0.3100E+02
     40.822  0.2177E+00  0.3104E+02
     41.023  0.1449E+01  0.3133E+02
     41.224  0.3319E+01  0.3200E+02
     41.424  0.2363E-03  0.3200E+02
     41.625  0.0000E+00  0.3200E+02
     41.825  0.0000E+00  0.3200E+02
     42.026  0.0000E+00  0.3200E+02
     42.226  0.0000E+00  0.3200E+02
     42.427  0.0000E+00  0.3200E+02
     42.628  0.0000E+00  0.3200E+02
     42.828  0.0000E+00  0.3200E+02
     43.029  0.0000E+00  0.3200E+02
     43.229  0.0000E+00  0.3200E+02
     43.430  0.0000E+00  0.3200E+02
     43.630  0.0000E+00  0.3200E+02
     43.831  0.0000E+00  0.3200E+02
