    2    2    1    1
  0.9639684E+01  0.3009788E-09  0.3009788E-09  0.3009788E-09  0.5000000E-15
  1.000000000000000E-004
  CAR 
 automatically generated by pyflamestk   
      8     10     16
 
  0.1250000E+00  0.1250000E+00  0.1250000E+00  0.3125000E-01
    1      -13.603755   1.000000
    2        2.411626   1.000000
    3        3.256705   1.000000
    4        3.256705   1.000000
    5        8.696509   0.000000
    6       17.309623   0.000000
    7       19.318011   0.000000
    8       19.318014   0.000000
    9       23.529360   0.000000
   10       23.529361   0.000000
   11       24.864492   0.000000
   12       27.258921   0.000000
   13       28.680587   0.000000
   14       28.680588   0.000000
   15       38.895845   0.000000
   16       40.804056   0.000000
 
  0.3750000E+00  0.1250000E+00  0.1250000E+00  0.9375000E-01
    1      -12.955227   1.000000
    2        0.254205   1.000000
    3        2.402668   1.000000
    4        2.963353   1.000000
    5       11.116117   0.000000
    6       15.241119   0.000000
    7       18.617334   0.000000
    8       20.290850   0.000000
    9       22.114475   0.000000
   10       24.329974   0.000000
   11       26.408846   0.000000
   12       31.060293   0.000000
   13       32.315707   0.000000
   14       33.207253   0.000000
   15       35.573619   0.000000
   16       38.846994   0.000000
 
 -0.3750000E+00  0.1250000E+00  0.1250000E+00  0.9375000E-01
    1      -12.522047   1.000000
    2       -0.866178   1.000000
    3        2.254592   1.000000
    4        2.626761   1.000000
    5       11.722400   0.000000
    6       15.420302   0.000000
    7       17.910514   0.000000
    8       19.721427   0.000000
    9       23.698148   0.000000
   10       25.948404   0.000000
   11       26.024549   0.000000
   12       32.284138   0.000000
   13       32.872158   0.000000
   14       33.239092   0.000000
   15       35.794325   0.000000
   16       37.501975   0.000000
 
 -0.1250000E+00  0.1250000E+00  0.1250000E+00  0.9375000E-01
    1      -13.242476   1.000000
    2        1.135356   1.000000
    3        2.890222   1.000000
    4        2.893025   1.000000
    5       10.284134   0.000000
    6       15.497260   0.000000
    7       19.418224   0.000000
    8       19.905458   0.000000
    9       21.070254   0.000000
   10       24.910423   0.000000
   11       26.870233   0.000000
   12       29.951179   0.000000
   13       30.259359   0.000000
   14       30.982326   0.000000
   15       37.178321   0.000000
   16       38.952144   0.000000
 
  0.3750000E+00  0.3750000E+00  0.1250000E+00  0.9375000E-01
    1      -12.720903   1.000000
    2        0.072194   1.000000
    3        2.203182   1.000000
    4        2.434176   1.000000
    5       12.213562   0.000000
    6       13.908334   0.000000
    7       17.160990   0.000000
    8       20.780308   0.000000
    9       21.236158   0.000000
   10       27.082946   0.000000
   11       30.145755   0.000000
   12       30.398234   0.000000
   13       32.328370   0.000000
   14       34.819637   0.000000
   15       36.465201   0.000000
   16       37.868978   0.000000
 
 -0.3750000E+00  0.3750000E+00  0.1250000E+00  0.1875000E+00
    1      -12.312052   1.000000
    2       -0.041770   1.000000
    3        0.953195   1.000000
    4        2.026761   1.000000
    5       13.758857   0.000000
    6       14.767974   0.000000
    7       15.562396   0.000000
    8       19.545895   0.000000
    9       22.991538   0.000000
   10       26.444499   0.000000
   11       29.973197   0.000000
   12       31.400224   0.000000
   13       32.668757   0.000000
   14       36.333718   0.000000
   15       38.880636   0.000000
   16       41.086011   0.000000
 
 -0.1250000E+00  0.3750000E+00  0.1250000E+00  0.1875000E+00
    1      -12.566656   1.000000
    2       -0.245728   1.000000
    3        1.689871   1.000000
    4        2.525434   1.000000
    5       12.582904   0.000000
    6       14.791174   0.000000
    7       16.931900   0.000000
    8       20.117915   0.000000
    9       22.696542   0.000000
   10       25.354852   0.000000
   11       28.863478   0.000000
   12       31.630344   0.000000
   13       32.233215   0.000000
   14       34.881347   0.000000
   15       35.524765   0.000000
   16       41.006748   0.000000
 
 -0.3750000E+00 -0.3750000E+00  0.1250000E+00  0.9375000E-01
    1      -12.347848   1.000000
    2       -0.404087   1.000000
    3        1.687881   1.000000
    4        2.140745   1.000000
    5       12.853679   0.000000
    6       13.485283   0.000000
    7       16.010223   0.000000
    8       21.472882   0.000000
    9       21.485531   0.000000
   10       28.911064   0.000000
   11       29.390599   0.000000
   12       31.963495   0.000000
   13       32.660898   0.000000
   14       37.793484   0.000000
   15       38.168662   0.000000
   16       41.095959   0.000000
 
  0.3750000E+00  0.3750000E+00  0.3750000E+00  0.3125000E-01
    1      -12.757178   1.000000
    2       -0.599507   1.000000
    3        2.820040   1.000000
    4        2.820040   1.000000
    5       10.928014   0.000000
    6       15.433703   0.000000
    7       19.524392   0.000000
    8       19.524394   0.000000
    9       24.070962   0.000000
   10       24.442171   0.000000
   11       24.442174   0.000000
   12       31.898387   0.000000
   13       33.211253   0.000000
   14       33.211256   0.000000
   15       36.838953   0.000000
   16       36.838957   0.000000
 
 -0.3750000E+00  0.3750000E+00  0.3750000E+00  0.9375000E-01
    1      -12.395213   1.000000
    2       -0.283126   1.000000
    3        1.057912   1.000000
    4        2.494067   1.000000
    5       13.073378   0.000000
    6       15.233239   0.000000
    7       16.122094   0.000000
    8       20.426982   0.000000
    9       22.509115   0.000000
   10       25.549119   0.000000
   11       29.075869   0.000000
   12       31.614135   0.000000
   13       32.036807   0.000000
   14       35.364407   0.000000
   15       37.237130   0.000000
   16       40.110071   0.000000
