LAMMPS (11 Aug 2017)
# ---- initialize simulations
clear
units metal
dimension 3
boundary p p p
atom_style atomic
atom_modify map array
# ---- create atoms
read_data /home/sullberg/repos/pypospack/examples/Ni__eam__born_exp_rose/01_preconditioning_3.5NN/rank_28/Ni_dia.lmps_min_all/lammps.structure
  triclinic box = (0 0 0) to (4.8791 4.8791 4.8791) with tilt (0 0 0)
  1 by 1 by 1 MPI processor grid
  reading atoms ...
  8 atoms
# ---- define interatomic potential
include potential.mod
mass 1 58.6934

group Ni type 1
8 atoms in group Ni

pair_style eam/alloy
pair_coeff * * /home/sullberg/repos/pypospack/examples/Ni__eam__born_exp_rose/01_preconditioning_3.5NN/rank_28/Ni_dia.lmps_min_all/Ni.eam.alloy Ni

neighbor 1.0 bin
neigh_modify every 1 delay 0 check yes
# ---- define settings
compute eng all pe/atom
compute eatoms all reduce sum c_eng
# ---- run minimization
reset_timestep 0
fix 1 all box/relax aniso 0.0 vmax 0.001
thermo 10
thermo_style custom step pe xhi xlo yhi ylo zhi xy xz yz press pxx pyy pzz pxy pxz pyz c_eatoms
min_style cg
minimize 1e-25 1e-25 5000 10000
Neighbor list info ...
  update every 1 steps, delay 0 steps, check yes
  max neighbors/atom: 2000, page size: 100000
  master list distance cutoff = 11
  ghost atom cutoff = 11
  binsize = 5.5, bins = 1 1 1
  1 neighbor lists, perpetual/occasional/extra = 1 0 0
  (1) pair eam/alloy, perpetual
      attributes: half, newton on
      pair build: half/bin/newton/tri
      stencil: half/bin/3d/newton/tri
      bin: standard
Per MPI rank memory allocation (min/avg/max) = 4.276 | 4.276 | 4.276 Mbytes
Step PotEng Xhi Xlo Yhi Ylo Zhi Xy Xz Yz Press Pxx Pyy Pzz Pxy Pxz Pyz c_eatoms 
       0    -26.50659       4.8791            0       4.8791            0       4.8791            0            0            0   -42399.316   -42399.316   -42399.316   -42399.316   -14.759306   -14.759306   -14.759306    -26.50659 
      10   -26.572075    4.8547045    0.0243955    4.8547045    0.0243955    4.8547045            0            0            0   -17734.184   -17734.184   -17734.184   -17734.184   -15.393617   -15.393617   -15.393617   -26.572075 
      20   -26.584125    4.8393457   0.03975433    4.8393457   0.03975433    4.8393457            0            0            0    5.9506948    5.9506948    5.9506948    5.9506948    4.0493276    4.0493276    4.0493276   -26.584125 
      30   -26.584125    4.8393516  0.039748414    4.8393516  0.039748414    4.8393516            0            0            0 0.00053177387 0.00053392354 0.00053068551 0.00053071258 -0.0087224642 -0.0087224641 -0.0087224643   -26.584125 
      40   -26.586081    4.8432796   0.03582039    4.8363136   0.04278643    4.8363718            0            0            0    721.53197    1993.0311    77.776177    93.788636     986.5553    986.55206    986.87763   -26.586081 
      50   -26.592588    4.8676751   0.01142489    4.8246291  0.054470864    4.8249931            0            0            0     6.107915    7844.2315   -3962.8093   -3863.0984    500.66407    500.66498    500.77446   -26.592588 
      60   -26.604926    4.8920706  -0.01297061    4.8120241  0.067075894      4.81271            0            0            0    36.359973    14618.909   -7348.8247   -7161.0041    416.21989    416.23209    415.80421   -26.604926 
      70   -26.624131    4.9164661  -0.03736611    4.7992789  0.079821057    4.8002972            0            0            0    72.451817    21434.852   -10748.114   -10469.382    372.04366    372.07334    370.98605   -26.624131 
      80   -26.650364    4.9408616  -0.06176161    4.7863536  0.092746394    4.7877154            0            0            0    106.59408    28296.254   -14174.673   -13801.798      342.911    342.96319    341.26337   -26.650364 
      90   -26.683672    4.9652571  -0.08615711    4.7732772   0.10582285     4.774994            0            0            0    224.59462    35288.768   -17542.669   -17072.315    321.63415    321.71622    319.55225   -26.683672 
     100   -26.724041    4.9896526  -0.11055261      4.76009   0.11901003    4.7621735            0            0            0    317.76226    42291.229     -20954.5   -20383.443    304.85713    304.97408    302.41845   -26.724041 
     110   -26.771547    5.0140481  -0.13494811    4.7467427   0.13235731    4.7492055            0            0            0    457.48394    49391.889    -24347.47   -23671.968    291.04873    291.20719    288.45239   -26.771547 
     120   -26.826175    5.0384436  -0.15934361    4.7332613    0.1458387    4.7361162            0            0            0    625.43402    56566.139   -27736.838   -26952.999     279.1878    279.39276    276.67018   -26.826175 
     130   -26.887944    5.0628391  -0.18373911    4.7196388   0.15946124    4.7228993            0            0            0    814.32933        63808   -31130.662    -30234.35    268.87897    269.13649    266.70234   -26.887944 
     140   -26.956835    5.0872346  -0.20813461    4.7058861   0.17321388    4.7095663            0            0            0    1031.2039    71120.547    -34520.06   -33506.875    259.54346    259.86053    257.87726   -26.956835 
     150   -27.032839    5.1116301  -0.23253011    4.6920044   0.18709559     4.696119            0            0            0    1316.8651    78545.672   -37864.944   -36730.133    250.94093    251.32245    249.96032   -27.032839 
     160   -27.115918    5.1360256  -0.25692561    4.6780011   0.20109894    4.6825655            0            0            0    1647.1421    86051.406    -41185.73    -39924.25    242.92713    243.38239    243.16575   -27.115918 
     170   -27.206037    5.1604211  -0.28132111    4.6638782   0.21522176    4.6689087            0            0            0    2007.0541    93619.262   -44495.921   -43102.178     235.4257    235.95825    236.90684   -27.206037 
     180   -27.303141    5.1848166  -0.30571661    4.6496413   0.22945868    4.6551549            0            0            0    2411.2489    101258.09   -47777.985   -46246.358    227.98244     228.6007    231.22037   -27.303141 
     190   -27.407136    5.2092121  -0.33011211    4.6353021   0.24379785    4.6413166            0            0            0    2901.5847    109003.51    -50987.25   -49311.501    220.83848    221.54761    226.27434   -27.407136 
     200   -27.517923    5.2336076  -0.35450761    4.6208681   0.25823186    4.6274023            0            0            0    3453.6659    116818.76   -54142.379   -52315.386    213.76479    214.57396    221.73305   -27.517923 
     210   -27.635386    5.2580031  -0.37890311    4.6063458   0.27275419    4.6134196            0            0            0    4056.8125    124681.05   -57247.922   -55262.692    206.70625    207.61494    217.46986   -27.635386 
     220   -27.759379    5.2823986  -0.40329861    4.5917436    0.2873564     4.599378            0            0            0    4754.2052    132623.67   -60256.046   -58105.009    199.65567    200.67234    213.56913   -27.759379 
     230   -27.889713    5.3067941  -0.42769411    4.5770748   0.30202521    4.5852919            0            0            0    5531.8677    140614.39   -63171.955    -60846.83     192.6081    193.73612    210.07148   -27.889713 
     240   -28.026185    5.3311896  -0.45208961    4.5623498   0.31675022    4.5711729            0            0            0    6398.1473    148644.98   -65979.336   -63471.197    185.30532    186.55057    206.84894   -28.026185 
     250   -28.168557    5.3555851  -0.47648511    4.5475803   0.33151967    4.5570344            0            0            0    7337.6157    156677.72   -68682.796   -65982.081    177.90189    179.26684    203.80157   -28.168557 
     260   -28.316563    5.3799806  -0.50088061    4.5327779   0.34632207    4.5428892            0            0            0    8391.6422     164737.8   -71233.283   -68329.586    170.30323    171.79049    200.67913   -28.316563 
     270   -28.469897    5.4043761  -0.52527611    4.5179561   0.36114389    4.5287526            0            0            0    9576.9127    172819.11   -73603.423   -70484.947    162.57661    164.16676     198.0457   -28.469897 
     280   -28.628208    5.4287716  -0.54967161    4.5031317   0.37596827    4.5146433            0            0            0    10823.093    180814.78   -75845.407   -72500.096    154.43289     156.1674    196.14409   -28.628208 
     290   -28.791137    5.4531671  -0.57406711    4.4883164   0.39078359    4.5005751            0            0            0    12198.271    188776.38   -77883.267   -74298.303    146.23835    148.10438    193.34729   -28.791137 
     300   -28.958263    5.4775626  -0.59846261    4.4735285   0.40557152    4.4865683            0            0            0    13711.679    196682.43   -79693.151   -75854.247    137.61391    139.59512    191.86338   -28.958263 
     310   -29.129159    5.5019581  -0.62285811    4.4587817   0.42031826    4.4726392            0            0            0    15288.648    204416.62   -81329.361   -77221.315    128.95486    131.06197    189.26145   -29.129159 
     320    -29.30333    5.5263536  -0.64725361    4.4440963   0.43500367    4.4588106            0            0            0    17031.744    212062.22   -82680.524   -78286.468    119.73181    121.93461     188.3386    -29.30333 
     330   -29.480306    5.5507491  -0.67164911    4.4294842   0.44961579    4.4450974            0            0            0    18883.888     219522.5   -83784.515   -79086.323    110.52167    112.83692     185.8605   -29.480306 
     340   -29.659525    5.5751446  -0.69604461    4.4149691   0.46413094    4.4315266            0            0            0    20792.664    226698.77   -84671.229   -79649.551    100.93588    103.33832    184.35677   -29.659525 
     350   -29.840448    5.5995401  -0.72044011    4.4005666   0.47853338    4.4181176            0            0            0    22855.615    233670.27   -85235.141   -79868.286    90.925987    93.385817    183.54463   -29.840448 
     360   -30.022541    5.6239356  -0.74483561      4.38629   0.49280996    4.4048878            0            0            0    25055.579    240385.65   -85477.957   -79740.958    80.922109    83.457814    181.78725   -30.022541 
     370   -30.205203    5.6483311  -0.76923111    4.3721611   0.50693891    4.3918635            0            0            0    27312.175    246715.66   -85455.487   -79323.646    70.659999    73.269123     179.7973   -30.205203 
     380   -30.387857    5.6727266  -0.79362661    4.3581969   0.52090314     4.379067            0            0            0    29544.938    252534.33   -85226.609   -78672.904    60.211648    62.801764    178.23247   -30.387857 
     390    -30.56993    5.6971221  -0.81802211    4.3444131    0.5346869    4.3665197            0            0            0    31879.104     257957.6   -84663.304   -77656.986    49.519811    52.032282    177.25872    -30.56993 
     400   -30.750864    5.7215176  -0.84241761    4.3308242   0.54827578    4.3542427            0            0            0    34306.493    262948.58    -83760.52    -76268.58    38.495264    40.988985    176.42491   -30.750864 
     410   -30.930108    5.7459131  -0.86681311    4.3174448   0.56165522    4.3422578            0            0            0    36790.695     267440.5   -82541.431   -74526.982    27.431915    29.867066    175.29414   -30.930108 
     420   -31.107145    5.7703086  -0.89120861    4.3042859   0.57481409     4.330585            0            0            0    39282.999    271358.59   -81043.415   -72466.174    16.553501    18.841387    173.47052   -31.107145 
     430   -31.281461    5.7947041  -0.91560411     4.291362   0.58773804    4.3192479            0            0            0    41642.798    274522.28   -79387.959   -70205.929    5.6745102    7.8150734    171.45623   -31.281461 
     440   -31.452583    5.8190996  -0.93999961     4.278684   0.60041601    4.3082685            0            0            0    43856.461    276903.45   -77583.603   -67750.463   -5.4275738   -3.5269081     170.1774   -31.452583 
     450   -31.620096    5.8434951  -0.96439511    4.2662569   0.61284313    4.2976644            0            0            0     46168.55    278777.95   -75405.237    -64867.06   -16.735523   -15.169247    169.73624   -31.620096 
     460    -31.78365    5.8678906  -0.98879061    4.2540791   0.62502085    4.2874489            0            0            0    48467.002    280016.75   -72959.118   -61656.626   -27.159626   -25.890201    167.23947    -31.78365 
     470   -31.942838    5.8922861   -1.0131861    4.2421668   0.63693318    4.2776544            0            0            0    50245.346    280037.76   -70714.833   -58586.892   -38.108912   -37.266528    166.10043   -31.942838 
     480    -32.09744    5.9166816   -1.0375816    4.2305026   0.64859743    4.2682841            0            0            0    52333.357     279804.8   -67917.428   -54887.304   -48.690761   -48.307791    164.11866    -32.09744 
     490   -32.247143    5.9410771   -1.0619771    4.2190977    0.6600023    4.2593716            0            0            0    53750.965    278207.64   -65481.735    -51473.01   -59.186797    -59.46318    162.96138   -32.247143 
     500   -32.391837    5.9654726   -1.0863726    4.2079228   0.67117723    4.2509161            0            0            0    55206.506    276078.18   -62770.517    -47688.14   -68.725276    -69.62575    160.29532   -32.391837 
     510   -32.531311    5.9898681   -1.1107681    4.1969778   0.68212223    4.2429492            0            0            0    56554.007    273267.01    -59932.68   -43672.304    -78.44258   -80.136301    158.45912   -32.531311 
     520   -32.665471    6.0142636   -1.1351636    4.1862425   0.69285753    4.2354891            0            0            0    57521.243    269492.88   -57241.612   -39687.537   -87.833536   -90.396264     156.3332   -32.665471 
     530   -32.794269    6.0386591   -1.1595591    4.1756879   0.70341211    4.2285533            0            0            0    58173.887    264861.58   -54660.873   -35679.043   -96.562907   -100.18113    154.23989   -32.794269 
     540   -32.917681    6.0630546   -1.1839546    4.1652842   0.71381577    4.2221676            0            0            0    58360.073    259236.07   -52358.895   -31796.959   -105.09713    -109.9227    152.11674   -32.917681 
     550   -33.035683    6.0874501   -1.2083501    4.1550083   0.72409172    4.2163747            0            0            0    58405.901    253015.99   -50060.628   -27737.664   -113.47579   -119.79377    150.63204   -33.035683 
     560   -33.148468    6.1118456   -1.2327456    4.1447634    0.7343366    4.2111662            0            0            0    58424.622    246363.85   -47696.114   -23393.867   -120.40006   -128.09934    147.33535   -33.148468 
     570   -33.255986    6.1362411   -1.2571411    4.1345519   0.74454806    4.2066398            0            0            0    57501.236    238297.75   -46154.987   -19639.055   -127.66081   -137.24179    145.41062   -33.255986 
     580   -33.358589    6.1606366   -1.2815366     4.124213   0.75488704    4.2027741            0            0            0    56893.958    230248.29   -44303.858   -15262.554   -133.37807   -144.82311    141.98614   -33.358589 
     590   -33.456255    6.1850321   -1.3059321     4.113772   0.76532798    4.1997393            0            0            0    55864.162    221435.65   -42876.199   -10966.968   -139.07066   -152.90363    139.59243   -33.456255 
     600   -33.549421    6.2094276   -1.3303276    4.1030513   0.77604874    4.1975694            0            0            0    54427.483    211913.18   -41915.056     -6715.67   -144.01257   -160.52458    136.69306   -33.549421 
     610   -33.638518    6.2338231   -1.3547231    4.0918941    0.7872059    4.1963738            0            0            0    52769.973    201916.63   -41308.363   -2298.3475   -148.06876   -167.68262    133.57427   -33.638518 
     620   -33.724105    6.2582186   -1.3791186    4.0801235   0.79897649    4.1963177            0            0            0    50898.261    191483.09   -41122.869      2334.56   -151.17982   -174.37328    130.15298   -33.724105 
     630   -33.807014    6.2826141   -1.4035141     4.067487   0.81161297    4.1976051            0            0            0     48731.97    180549.84   -41523.369    7169.4389   -153.40255   -180.78313    126.37172   -33.807014 
     640   -33.888477    6.3070096   -1.4279096    4.0536287   0.82547126    4.2005024            0            0            0     46400.07     169268.7   -42496.111    12427.624   -155.00834   -187.44419    122.78459   -33.888477 
     650   -33.970214    6.3314051   -1.4523051    4.0381798   0.84092025    4.2054546            0            0            0    44284.509    158074.13   -43809.988    18589.381   -155.54057   -194.37647    119.32576   -33.970214 
     660   -34.054796    6.3558006   -1.4767006    4.0207136   0.85838635    4.2130974            0            0            0    42070.182    146671.67   -45913.598    25452.478   -153.84028    -199.7997    114.54359   -34.054796 
     670   -34.146697    6.3801961   -1.5010961    4.0002285   0.87887153     4.224059            0            0            0    39381.001    134598.65   -49334.469    32878.818   -150.78045   -205.70288    109.59528   -34.146697 
     680   -34.249704    6.4039685   -1.5248685    3.9763136    0.9027864     4.238989            0            0            0    37263.518    123158.95   -53172.252    41803.855   -146.16561   -211.98827    104.46049   -34.249704 
     690   -34.355195    6.4242579   -1.5451579    3.9519181    0.9271819    4.2561899            0            0            0    35833.115    113592.25    -56872.58    50779.673   -140.36605   -217.37367    99.382535   -34.355195 
     700   -34.464102    6.4415127   -1.5624127    3.9275226    0.9515774     4.274938            0            0            0    34669.193    105289.03   -60384.558    59103.106   -134.26216   -222.94106    94.875376   -34.464102 
     710   -34.577235    6.4563298   -1.5772298    3.9031271    0.9759729    4.2946867            0            0            0    34032.971    98209.905    -63081.61    66970.618   -126.86594   -226.26822    89.834993   -34.577235 
     720   -34.695806    6.4694792   -1.5903792    3.8787316    1.0003684    4.3155806            0            0            0    33738.242    91918.946   -64807.711     74103.49   -119.82219   -229.92053    85.243037   -34.695806 
     730   -34.819106    6.4813257   -1.6022257    3.8543361    1.0247639    4.3374298            0            0            0    33939.953    86370.926   -65090.391    80539.325   -112.04023   -232.17183    80.508272   -34.819106 
     740   -34.946299    6.4922437   -1.6131437    3.8299406    1.0491594    4.3603134            0            0            0    34106.206    80853.455   -64105.383    85570.545   -103.83767   -233.58239    75.796226   -34.946299 
     750   -35.075754    6.5025015   -1.6234015    3.8055675    1.0735325    4.3843181            0            0            0    34229.609     75227.11   -61525.199    88986.917   -95.878407   -234.43585    71.048554   -35.075754 
     760     -35.2007    6.5119936   -1.6328936    3.7821457    1.0969543    4.4087136            0            0            0    34231.825    69530.072   -57272.105    90437.509   -88.111616   -233.92127    66.344324     -35.2007 
     770   -35.316736    6.5207673   -1.6416673    3.7600805    1.1190195    4.4331091            0            0            0     33866.29    63546.801   -51603.781    89655.851   -80.086238   -231.26319    61.673932   -35.316736 
     780   -35.421451    6.5289833   -1.6498833    3.7395819    1.1395181    4.4575046            0            0            0    32836.296    57040.247   -44933.572    86402.212    -72.86166   -228.09337    57.346942   -35.421451 
     790   -35.513475    6.5367299   -1.6576299    3.7205761    1.1585239    4.4819001            0            0            0    30937.648    49796.539   -37620.692    80637.097   -65.456205   -222.60067    53.040174   -35.513475 
     800   -35.591666    6.5440435   -1.6649435    3.7030843    1.1760157    4.5062956            0            0            0     27924.18    41623.789   -30144.778    72293.528   -58.234034   -216.48585    49.043075   -35.591666 
     810   -35.655258    6.5509153   -1.6718153    3.6872381    1.1918619    4.5306911            0            0            0    24103.171    32969.137    -22571.66    61912.038   -51.289277   -208.07617    45.184629   -35.655258 
     820   -35.704192    6.5572499   -1.6781499    3.6730012    1.2060988    4.5550866            0            0            0     18919.55    23363.621   -15794.502     49189.53   -44.499004   -198.52324    41.527987   -35.704192 
     830   -35.738776    6.5627818   -1.6836818    3.6603185    1.2187815    4.5794821            0            0            0    12972.064    13524.261   -9601.2029    34993.133   -37.106234   -186.48748    37.972194   -35.738776 
     840   -35.759663    6.5667418   -1.6876418    3.6491621    1.2299379    4.6038776            0            0            0    6126.7865    3559.0191   -4582.2133    19403.554   -28.748223   -172.21173    34.549914   -35.759663 
     850   -35.768453    6.5652408   -1.6861408    3.6398464    1.2392536    4.6282731            0            0            0   -212.89543   -3967.3115   -574.66622    3903.2914   -14.169883   -147.84544     30.50495   -35.768453 
     860   -35.772279    6.5507317   -1.6716317    3.6378356    1.2412644    4.6404802            0            0            0   -921.37398    -586.5444   -400.99831   -1776.5792    39.702464   -19.459641    18.122588   -35.772279 
     870   -35.772771    6.5513032   -1.6722032    3.6384523    1.2406477    4.6378529            0            0            0   -271.43521   -75.772871   -529.98433   -208.54841    25.504104    6.8774971    22.608953   -35.772771 
     880   -35.773496     6.545524    -1.666424    3.6386995    1.2404005    4.6382436            0            0            0    2144.7001    3802.2158    832.54951     1799.335   -17.010425    17.050806     215.4677   -35.773496 
     890   -35.775625    6.5512158   -1.6721158    3.6391229    1.2399771    4.6410268            0            0            0   -4009.2229   -3469.5362   -4029.3435   -4528.7888    23.053472    20.091109    710.99599   -35.775625 
     900   -35.778578    6.5495679   -1.6704679    3.6398561    1.2392439    4.6371076            0            0            0    -865.3933   -204.72515   -1989.2706   -402.18419    4.6047375    18.113894    859.25572   -35.778578 
     910   -35.786144    6.5496573   -1.6705573    3.6430026    1.2360974     4.634845            0            0            0   -4273.5275   -2992.9487   -7069.3123   -2758.3214    1.4644127    17.019054    1814.9974   -35.786144 
     920   -35.792378    6.5459965   -1.6668965    3.6400016    1.2390984    4.6351368            0            0            0    1958.8329    1822.0821    1815.7782    2238.6385    3.2973523    16.184503    2567.5404   -35.792378 
     930   -35.797061    6.5427117   -1.6636117    3.6404507    1.2386493    4.6363219            0            0            0    1618.5173    2179.8171     1361.542     1314.193   0.12389914    15.252407     3235.705   -35.797061 
     940   -35.800742    6.5450715   -1.6659715    3.6411031    1.2379969    4.6357706            0            0            0   -692.90032   -795.25411   -659.61809   -623.82878  -0.93712078    14.494161     3742.724   -35.800742 
     950   -35.808661    6.5437697   -1.6646697     3.641151     1.237949     4.635874            0            0            0   -609.93022    -1223.613    303.47272   -909.65042   -2.0102228    13.120621     4904.382   -35.808661 
     960   -35.817416    6.5399853   -1.6608853    3.6438412    1.2352588    4.6324005            0            0            0    -315.9752   -1.4090436   -1369.0164    422.49979   -2.5937855    11.834297    6321.8703   -35.817416 
     970   -35.826078    6.5391881   -1.6600881    3.6423965    1.2367035    4.6364984            0            0            0   -1240.4266   -1899.0265     616.4619   -2438.7151   -2.9721144    10.331059    7704.1215   -35.826078 
     980    -35.83288    6.5381162   -1.6590162    3.6436285    1.2354715    4.6359369            0            0            0   -2283.8509   -2843.1355   -582.97489   -3425.4422   -3.1937391    9.2590067    8907.2429    -35.83288 
     990   -35.838771    6.5343286   -1.6552286    3.6434568    1.2356432    4.6309362            0            0            0    3834.4665    2682.8372    5346.5809    3473.9812    -3.338239    8.4050872    10123.869   -35.838771 
    1000   -35.842555    6.5328513   -1.6537513    3.6461362    1.2329638    4.6290323            0            0            0    1421.4142    1374.4359    955.81724    1933.9895   -3.4085479    7.8856956    10897.458   -35.842555 
    1010   -35.845538    6.5332873   -1.6541873    3.6464362    1.2326638    4.6315452            0            0            0   -1372.0916   -1317.4103   -1143.1829   -1655.6818   -3.4312868    7.3669134    11452.325   -35.845538 
    1020   -35.851001    6.5294125   -1.6503125    3.6498469    1.2292531    4.6252739            0            0            0    924.68549    2088.1386   -1866.4015    2552.3193   -3.4803817    6.5439669    12910.323   -35.851001 
    1030   -35.861773    6.5281475   -1.6490475    3.6504279    1.2286721    4.6242258            0            0            0    1042.8754    1431.2593   -399.01294    2096.3798   -3.3254802    4.6630998    15669.354   -35.861773 
    1040   -35.867783    6.5338267   -1.6547267     3.650929     1.228171    4.6272141            0            0            0    -5421.728   -6338.1324   -4463.0734   -5463.9781    -2.902865    3.3209632    17505.976   -35.867783 
    1050    -35.87061    6.5231217   -1.6440217    3.6521699    1.2269301     4.622937            0            0            0    995.52855    2198.8987   -421.55087    1209.2379    -2.702812    2.8180382     19080.93    -35.87061 
    1060   -35.872006    6.5262867   -1.6471867    3.6531003    1.2259997    4.6225693            0            0            0   -1613.6674   -899.03771    -2825.723   -1116.2414   -2.4766003    2.4232381    19676.636   -35.872006 
    1070   -35.874969    6.5260125   -1.6469125    3.6531035    1.2259965    4.6219648            0            0            0   -985.20058   -651.57673    -910.0149   -1394.0101   -1.6381248    1.2277956    22142.515   -35.874969 
    1080   -35.875119    6.5259826   -1.6468826    3.6530354    1.2260646    4.6211191            0            0            0    432.39109    587.08711    561.50685    148.57933    -1.429714    1.0786582    22446.996   -35.875119 
    1090   -35.875165    6.5279951   -1.6488951    3.6536659    1.2254341    4.6207897            0            0            0    -1746.337   -1806.7584   -1740.8741   -1691.3786   -1.2577038   0.94318866     22558.94   -35.875165 
    1100   -35.875268    6.5273281   -1.6482281    3.6534508    1.2256492    4.6202049            0            0            0   -335.42193   -451.62766   -272.05959   -282.57855   -1.0906499   0.81236852    22793.106   -35.875268 
    1110   -35.875271    6.5270019   -1.6479019    3.6533535    1.2257465    4.6201291            0            0            0    291.72293    189.91477     370.0831     315.1709   -1.0821377   0.80529461    22819.738   -35.875271 
    1120   -35.875276    6.5268845   -1.6477845    3.6533922    1.2257078     4.620187            0            0            0    209.61496    162.38837    254.21731    212.23919   -1.0718642   0.79692639    22832.767   -35.875276 
    1130   -35.875279    6.5268441   -1.6477441    3.6533652    1.2257348    4.6201817            0            0            0    304.13801    251.66788    364.86933    295.87682   -1.0613027    0.7882841     22843.31   -35.875279 
    1140   -35.875282    6.5268397   -1.6477397    3.6534013    1.2256987    4.6201944            0            0            0    209.59483    177.40468    248.38865    202.99116   -1.0519499   0.78072287    22850.946   -35.875282 
    1150   -35.875286    6.5268309   -1.6477309    3.6533786    1.2257214    4.6201782            0            0            0    287.53258    243.19548    342.57221    276.83004   -1.0410708    0.7718706    22860.244   -35.875286 
    1160   -35.875289    6.5268608   -1.6477608    3.6535265    1.2255735    4.6202391            0            0            0   -203.14642   -172.83075   -238.95718   -197.65134   -1.0327412   0.76530624    22863.795   -35.875289 
    1170   -35.875296    6.5268346   -1.6477346    3.6534312    1.2256688    4.6201757            0            0            0    166.83955    145.67346    192.98292    161.86227   -1.0128523   0.74915051    22882.229   -35.875296 
    1180   -35.875369    6.5274775   -1.6483775    3.6527304    1.2263696    4.6214349            0            0            0   -372.57317   -690.77818    498.47926    -925.4206  -0.73994987   0.53234551     22993.66   -35.875369 
    1190   -35.881234    6.5255451   -1.6464451    3.6558064    1.2232936     4.614315            0            0            0    1304.8377    1093.1831    1158.8321    1662.4979    5.0627452   -2.9917997    26296.172   -35.881234 
    1200   -35.888249    6.5292042   -1.6501042    3.6567726    1.2223274    4.6160472            0            0            0   -3099.6313   -4149.1394   -2905.3843   -2244.3704    4.4123287   -2.6069233    24184.783   -35.888249 
    1210   -35.897665    6.5208955   -1.6417955    3.6569398    1.2221602    4.6171294            0            0            0   -983.27692   -889.12471   -1252.0397   -808.66632    3.5048708   -2.1734356    22118.381   -35.897665 
    1220   -35.906933    6.5188366   -1.6397366    3.6575185    1.2215815    4.6164401            0            0            0   -287.82397   -495.64827   -276.60888   -91.214756    2.6589384   -1.7755256    20692.317   -35.906933 
    1230   -35.914558     6.515972    -1.636872    3.6578873    1.2212127     4.616088            0            0            0    271.16696    17.948179    598.14075    197.41195    2.1244006   -1.4625311    19530.008   -35.914558 
    1240   -35.929025     6.511407    -1.632307    3.6595988    1.2195012    4.6147643            0            0            0    72.803458   -127.33074    478.19658   -132.45546    1.3679396  -0.97793668    17339.155   -35.929025 
    1250    -35.93662    6.5090809   -1.6299809    3.6624777    1.2166223    4.6130607            0            0            0   -2031.2845   -1540.3159   -2935.2591   -1618.2786    1.0611292  -0.77529055    16195.435    -35.93662 
    1260   -35.954057    6.5041997   -1.6250997    3.6622838    1.2168162    4.6118532            0            0            0    1200.6324    644.57875    2393.7615    563.55694    0.5263981  -0.39731983     13235.87   -35.954057 
    1270   -35.965599    6.5009458   -1.6218458    3.6649228    1.2141772    4.6103739            0            0            0   -548.26879   -743.41514    364.24562   -1265.6369   0.27847537  -0.21894947    11084.204   -35.965599 
    1280    -35.97671    6.4972633   -1.6181633    3.6682125    1.2108875     4.606267            0            0            0   -716.13781   -656.51994   -649.42245   -842.47104   0.12481822  -0.10221292    8730.6646    -35.97671 
    1290   -35.985341     6.495152    -1.616052    3.6695863    1.2095137    4.6037673            0            0            0   -130.54383   -427.93293    580.81414   -544.51269  0.041067351  -0.03651352    6471.4054   -35.985341 
    1300   -35.990603     6.495934    -1.616834    3.6708448    1.2082552    4.6030839            0            0            0   -1285.5057   -1944.6655    276.81134    -2188.663  0.014493941 -0.013530834    4697.1635   -35.990603 
    1310   -35.993989    6.4948759   -1.6157759    3.6694541    1.2096459    4.5996263            0            0            0    3719.5973    1724.5972    7113.5916    2320.6032 0.0035962755 -0.0033943293    3056.7915   -35.993989 
    1320   -35.995734    6.4905458   -1.6114458    3.6757739    1.2033261    4.5970211            0            0            0   -1194.3184   -521.40954   -1703.8459   -1357.6997 0.0012831664 -0.0014104564      2456.23   -35.995734 
    1330   -35.996624    6.4900005   -1.6109005    3.6767347    1.2023653     4.595089            0            0            0   -1024.7893   -347.51662    -1764.719   -962.13246 0.00063873816 -0.00069625061    1885.2062   -35.996624 
    1340   -35.998192    6.4890563   -1.6099563    3.6785996    1.2005004    4.5905456            0            0            0    352.62227    850.66588    28.998245    178.20267 2.167441e-05 2.4108817e-05   -7.0406258   -35.998192 
    1350   -35.998204     6.490509    -1.611409    3.6784219    1.2006781    4.5904212            0            0            0   -145.05038   -41.682788   -204.96783   -188.50051 1.7961993e-05 1.7232568e-05    -6.888731   -35.998204 
    1360   -35.998208    6.4907313   -1.6116313    3.6784207    1.2006793    4.5903165            0            0            0   -161.25788   -126.28964   -184.57792   -172.90608 1.5241462e-05 1.2391978e-05   -6.6279446   -35.998208 
    1370   -35.998212    6.4907697   -1.6116697    3.6784461    1.2006539    4.5902527            0            0            0     -162.163   -139.33319   -179.83162    -167.3242 1.3282862e-05 9.2001762e-06   -6.3866096   -35.998212 
    1380   -35.998215    6.4907882   -1.6116882    3.6785243    1.2005757     4.590221            0            0            0   -315.59454   -275.92576   -355.28998   -315.56788 1.1671065e-05 6.9347474e-06   -6.1482668   -35.998215 
    1390   -35.998218    6.4907878   -1.6116878    3.6785447    1.2005553    4.5901688            0            0            0   -293.73718   -257.40351   -329.91717   -293.89087 1.0413355e-05 5.4572193e-06   -5.9356626   -35.998218 
    1400   -35.998221    6.4907872   -1.6116872    3.6785685    1.2005315    4.5901207            0            0            0   -284.60899   -249.57802   -319.44146   -284.80749 9.334836e-06 4.3999788e-06   -5.7335538   -35.998221 
    1410   -35.998224    6.4907595   -1.6116595     3.678473     1.200627    4.5900277            0            0            0    110.88896    99.882514    130.71651    102.06786 8.5847446e-06 3.7512815e-06   -5.5816743   -35.998224 
    1420   -35.998227    6.4907595   -1.6116595    3.6784985    1.2006015    4.5899847            0            0            0    108.90299    98.097677    128.34367    100.26762 7.7445826e-06 3.1480863e-06   -5.3985395   -35.998227 
    1430    -35.99823    6.4907595   -1.6116595    3.6785231    1.2005769    4.5899432            0            0            0    107.06473    96.451611    126.14817    98.594405 7.000197e-06 2.6848615e-06   -5.2237561    -35.99823 
    1440   -35.998232     6.490758    -1.611658    3.6785417    1.2005583    4.5898987            0            0            0    126.58771    113.75845    148.20073    117.80394 6.3170203e-06 2.3091338e-06   -5.0514302   -35.998232 
    1450   -35.998235     6.490758    -1.611658    3.6785645    1.2005355    4.5898602            0            0            0     124.7484    112.11231    146.01197    116.12092 5.7331866e-06 2.0208804e-06   -4.8936346   -35.998235 
    1460   -35.998236    6.4907544   -1.6116544    3.6785683    1.2005317    4.5898222            0            0            0    174.83024    156.63175    202.56142    165.29755 5.3013224e-06 1.8236379e-06   -4.7696687   -35.998236 
    1470   -35.998238    6.4907549   -1.6116549    3.6785922    1.2005078    4.5897861            0            0            0    166.26176     148.9937     192.7879    157.00367 4.8133145e-06 1.6159951e-06   -4.6211008   -35.998238 
    1480    -35.99824     6.490755    -1.611655    3.6786136    1.2004864    4.5897515            0            0            0    162.26729    145.43141    188.17303    153.19744 4.3873297e-06 1.4454376e-06   -4.4828461    -35.99824 
    1490   -35.998242    6.4907749   -1.6116749    3.6787172    1.2003828    4.5897581            0            0            0   -133.04728   -116.83718   -146.45703   -135.84763 3.9948782e-06 1.297216e-06   -4.3467389   -35.998242 
    1500   -35.998244    6.4907746   -1.6116746    3.6787352    1.2003648    4.5897249            0            0            0   -130.09388   -114.24783   -143.17306   -132.86074 3.6543907e-06 1.1722231e-06   -4.2212637   -35.998244 
    1510   -35.998246    6.4907744   -1.6116744     3.678753     1.200347    4.5896927            0            0            0   -127.99562   -112.41117   -140.85881   -130.71686 3.3455795e-06 1.0622824e-06   -4.1003531   -35.998246 
    1520   -35.998247    6.4907798   -1.6116798    3.6787951    1.2003049    4.5896719            0            0            0   -205.68628   -180.81742   -229.69024   -206.55119 3.0549656e-06 9.6152752e-07   -3.9794856   -35.998247 
    1530   -35.998249    6.4907795   -1.6116795    3.6788115    1.2002885    4.5896414            0            0            0   -202.74411   -178.25273   -226.38792   -203.59167 2.803397e-06 8.7595335e-07   -3.8684649   -35.998249 
    1540    -35.99825    6.4907593   -1.6116593    3.6787411    1.2003589    4.5895759            0            0            0    90.045858    81.228175    105.87368    83.035717 2.6175324e-06 8.1397203e-07   -3.7823514    -35.99825 
    1550   -35.998252    6.4907593   -1.6116593    3.6787583    1.2003417    4.5895466            0            0            0    89.223804    80.479213     104.8862       82.306 2.4000353e-06 7.4208748e-07   -3.6758083   -35.998252 
    1560   -35.998253    6.4907593   -1.6116593    3.6787747    1.2003253     4.589519            0            0            0     87.98242    79.364461    103.41024    81.172554 2.2084837e-06 6.7986687e-07   -3.5764549   -35.998253 
    1570   -35.998255    6.4907582   -1.6116582    3.6787862    1.2003138    4.5894886            0            0            0    104.42079    93.940421    121.98756    97.334388 2.0273212e-06 6.2137634e-07    -3.476955   -35.998255 
    1580   -35.998256    6.4907584   -1.6116584    3.6788023    1.2002977    4.5894631            0            0            0    100.49861    90.445504    117.47698    93.573352 1.8703956e-06 5.7165035e-07   -3.3858868   -35.998256 
    1590   -35.998257    6.4907584   -1.6116584    3.6788175    1.2002825    4.5894378            0            0            0    98.842896    88.964157    115.53653       92.028 1.7264516e-06 5.261758e-07   -3.2976053   -35.998257 
    1600   -35.998258    6.4907565   -1.6116565    3.6788227    1.2002773    4.5894118            0            0            0    125.68773    112.80645    145.86458    118.39217 1.6090341e-06 4.8918706e-07   -3.2220571   -35.998258 
    1610   -35.998259    6.4907566   -1.6116566    3.6788372    1.2002628    4.5893878            0            0            0    123.94647    111.24809    143.83174    116.75957 1.4879174e-06 4.514968e-07    -3.139884   -35.998259 
    1620    -35.99826     6.490772    -1.611672    3.6789155    1.2001845    4.5893961            0            0            0   -105.51458   -92.686283   -115.97275    -107.8847 1.375368e-06 4.1676225e-07   -3.0596603    -35.99826 
    1630   -35.998261    6.4907721   -1.6116721    3.6789297    1.2001703    4.5893726            0            0            0   -107.14705   -94.147937   -117.87126   -109.42194 1.2705309e-06 3.8427145e-07   -2.9806536   -35.998261 
    1640   -35.998262     6.490772    -1.611672    3.6789423    1.2001577    4.5893497            0            0            0   -105.78164   -92.953739   -116.36961   -108.02157 1.1770495e-06 3.5508825e-07   -2.9064776   -35.998262 
    1650   -35.998263    6.4907761   -1.6116761    3.6789731    1.2001269    4.5893353            0            0            0   -164.60883   -144.89056   -183.45087   -165.48505 1.0874471e-06 3.2745298e-07   -2.8315894   -35.998263 
    1660   -35.998264    6.4907753   -1.6116753    3.6789824    1.2001176    4.5893124            0            0            0   -154.50274   -136.00158   -171.96026   -155.54638 1.0095278e-06 3.0331477e-07   -2.7630305   -35.998264 
    1670   -35.998265    6.4907751   -1.6116751    3.6789935    1.2001065    4.5892909            0            0            0   -151.27372   -133.16835   -168.32262    -152.3302 9.3738067e-07 2.813512e-07    -2.696306   -35.998265 
    1680   -35.998266    6.4907596   -1.6116596    3.6789398    1.2001602    4.5892406            0            0            0    75.222994    67.910719      88.2636    69.494662 8.7733795e-07 2.6319427e-07   -2.6389541   -35.998266 
    1690   -35.998267    6.4907597   -1.6116597    3.6789517    1.2001483    4.5892207            0            0            0    74.197804    66.989662    87.054266    68.549482 8.1560634e-07 2.4443572e-07   -2.5764224   -35.998267 
    1700   -35.998267    6.4907597   -1.6116597    3.6789633    1.2001367    4.5892011            0            0            0    73.278399    66.163085    85.965622    67.706491 7.5871364e-07 2.2688697e-07   -2.5155869   -35.998267 
    1710   -35.998268     6.490759    -1.611659    3.6789721    1.2001279      4.58918            0            0            0    82.458781    74.299028    96.330486    76.746828 7.047626e-07 2.1045984e-07   -2.4549686   -35.998268 
    1720   -35.998269    6.4907591   -1.6116591    3.6789832    1.2001168    4.5891612            0            0            0    81.619098    73.543367    95.334295    75.979633 6.5616893e-07 1.9570042e-07   -2.3979482   -35.998269 
    1730    -35.99827    6.4907576   -1.6116576    3.6789867    1.2001133    4.5891418            0            0            0    102.71545     92.27505    119.17455    96.696756 6.1660555e-07 1.8360684e-07     -2.34892    -35.99827 
    1740    -35.99827    6.4907579   -1.6116579    3.6789985    1.2001015     4.589124            0            0            0    98.613965    88.620745    114.49096     92.73019 5.7412143e-07 1.7083003e-07   -2.2942909    -35.99827 
    1750   -35.998271     6.490758    -1.611658    3.6790092    1.2000908    4.5891065            0            0            0    96.900155    87.089035    112.50814    91.103286 5.3555991e-07  1.59302e-07   -2.2421775   -35.998271 
    1760   -35.998272    6.4907706   -1.6116706    3.6790724    1.2000276    4.5891146            0            0            0   -90.906826    -79.92456   -99.988081   -92.807838 4.9801457e-07 1.478835e-07   -2.1889324   -35.998272 
    1770   -35.998272    6.4907705   -1.6116705    3.6790817    1.2000183    4.5890974            0            0            0   -89.332536   -78.541356   -98.236882   -91.219369 4.6518961e-07 1.3779433e-07   -2.1402108   -35.998272 
    1780   -35.998273    6.4907704   -1.6116704    3.6790909    1.2000091    4.5890806            0            0            0   -88.217678   -77.564491   -97.007315   -90.081228 4.3457927e-07 1.2852821e-07   -2.0927106   -35.998273 
    1790   -35.998273    6.4907726   -1.6116726    3.6791101    1.1999899    4.5890685            0            0            0   -120.83936   -106.43939   -134.12401   -121.95468 4.0546657e-07 1.1978616e-07   -2.0451133   -35.998273 
    1800   -35.998274    6.4907725   -1.6116725     3.679119     1.199981    4.5890523            0            0            0   -119.67067   -105.41722   -132.82832   -120.76647 3.7917944e-07 1.1179726e-07   -2.0003735   -35.998274 
    1810   -35.998274    6.4907601   -1.6116601    3.6790754    1.2000246    4.5890125            0            0            0    64.034958     57.85682    75.043695    59.204359 3.5745763e-07 1.055705e-07    -1.961509   -35.998274 
    1820   -35.998275    6.4907601   -1.6116601    3.6790846    1.2000154    4.5889968            0            0            0    63.638175    57.494464    74.560988    58.859073 3.3405874e-07 9.821925e-08   -1.9182221   -35.998275 
    1830   -35.998276    6.4907602   -1.6116602    3.6790935    1.2000065    4.5889818            0            0            0    62.937738    56.863741    73.732861    58.216612 3.1289027e-07 9.1814599e-08    -1.877025   -35.998276 
    1840   -35.998276    6.4907596   -1.6116596    3.6791001    1.1999999    4.5889654            0            0            0    70.719035    63.760492    82.519504    65.877107 2.9259648e-07 8.5856215e-08   -1.8358237   -35.998276 
    1850   -35.998277    6.4907597   -1.6116597     3.679109     1.199991    4.5889512            0            0            0    68.677159    61.939265    80.173014    63.919199 2.7430603e-07 8.0305179e-08   -1.7971627   -35.998277 
    1860   -35.998277    6.4907598   -1.6116598    3.6791175    1.1999825    4.5889371            0            0            0    67.769251     61.12491    79.111646    63.071195 2.5722605e-07 7.5408972e-08   -1.7593987   -35.998277 
    1870   -35.998277    6.4907589   -1.6116589    3.6791215    1.1999785    4.5889224            0            0            0    79.933257    71.919554    92.855665    75.024552 2.4233495e-07 7.0965636e-08   -1.7253868   -35.998277 
    1880   -35.998278     6.490759    -1.611659    3.6791297    1.1999703    4.5889088            0            0            0    79.062613    71.138246    91.838256    74.211337 2.2773222e-07 6.6530767e-08   -1.6896288   -35.998278 
    1890   -35.998278    6.4907694   -1.6116694     3.679181     1.199919    4.5889164            0            0            0   -75.817206   -66.678696   -83.287339   -77.485584 2.1315953e-07 6.2166206e-08   -1.6533268   -35.998278 
    1900   -35.998279    6.4907695   -1.6116695     3.679189     1.199911     4.588903            0            0            0   -76.536489   -67.325972   -84.130628   -78.152866 2.0013464e-07 5.8135065e-08    -1.618763   -35.998279 
    1910   -35.998279    6.4907694   -1.6116694    3.6791963    1.1999037    4.5888899            0            0            0   -75.728615    -66.61854   -83.241856   -77.325449 1.8797773e-07 5.4789586e-08   -1.5857411   -35.998279 
    1920   -35.998279    6.4907712   -1.6116712    3.6792114    1.1998886    4.5888804            0            0            0   -101.76739   -89.695036   -112.83214   -102.77499 1.7635965e-07 5.1359635e-08   -1.5525725   -35.998279 
    1930    -35.99828    6.4907709   -1.6116709    3.6792172    1.1998828    4.5888672            0            0            0   -97.121557   -85.591239   -107.57962   -98.193809 1.6578838e-07 4.8190621e-08     -1.52147    -35.99828 
    1940    -35.99828    6.4907707   -1.6116707    3.6792239    1.1998761    4.5888547            0            0            0   -95.542306   -84.201474    -105.8117   -96.613744 1.558967e-07 4.5177583e-08   -1.4910432    -35.99828 
    1950   -35.998281    6.4907606   -1.6116606    3.6791884    1.1999116     4.588822            0            0            0      55.3618    50.042768    64.784929    51.257704 1.4718359e-07 4.2644858e-08   -1.4627866   -35.998281 
    1960   -35.998281    6.4907606   -1.6116606    3.6791954    1.1999046    4.5888102            0            0            0    54.744556    49.487332    64.059238    50.687098 1.3845246e-07 4.0243898e-08   -1.4338966   -35.998281 
    1970   -35.998281    6.4907607   -1.6116607    3.6792024    1.1998976    4.5887986            0            0            0    54.183112    48.981577    63.397033    50.170726 1.3061524e-07  3.79526e-08   -1.4056571   -35.998281 
    1980   -35.998282    6.4907604   -1.6116604    3.6792079    1.1998921    4.5887862            0            0            0    58.399912    52.716289    68.151103    54.332345 1.2275462e-07 3.5721556e-08    -1.377608   -35.998282 
    1990   -35.998282    6.4907604   -1.6116604    3.6792146    1.1998854     4.588775            0            0            0    57.847564    52.218806    67.500134    53.823753 1.158538e-07 3.3410208e-08   -1.3507938   -35.998282 
    2000   -35.998282    6.4907597   -1.6116597    3.6792178    1.1998822    4.5887632            0            0            0     67.76734    61.020205    78.710892    63.570924 1.0940768e-07 3.1939405e-08   -1.3265244   -35.998282 
    2010   -35.998282    6.4907599   -1.6116599    3.6792247    1.1998753    4.5887524            0            0            0    65.663037    59.144771    76.303179    61.541161 1.0321907e-07 2.9858883e-08   -1.3007404   -35.998282 
    2020   -35.998283    6.4907599   -1.6116599    3.6792312    1.1998688    4.5887418            0            0            0    64.732211    58.311499    75.224853    60.660281 9.7424211e-08 2.8319987e-08   -1.2758249   -35.998283 
    2030   -35.998283    6.4907687   -1.6116687    3.6792743    1.1998257    4.5887487            0            0            0   -66.680994   -58.689291    -73.27814    -68.07555 9.1553648e-08 2.6332292e-08   -1.2497055   -35.998283 
    2040   -35.998283    6.4907687   -1.6116687    3.6792801    1.1998199    4.5887381            0            0            0   -65.799413   -57.914405   -72.300482   -67.183353 8.642775e-08 2.4902952e-08   -1.2260933   -35.998283 
    2050   -35.998284    6.4907686   -1.6116686    3.6792858    1.1998142    4.5887278            0            0            0   -65.115995   -57.315196   -71.547294   -66.485495 8.1538446e-08 2.3479872e-08   -1.2029933   -35.998284 
    2060   -35.998284    6.4907696   -1.6116696    3.6792959    1.1998041    4.5887195            0            0            0   -79.666082   -70.228063   -88.067732   -80.702453 7.697194e-08 2.2213481e-08   -1.1799706   -35.998284 
    2070   -35.998284    6.4907696   -1.6116696    3.6793015    1.1997985    4.5887095            0            0            0   -79.032246   -69.673141   -87.369487   -80.054108 7.279303e-08 2.097371e-08    -1.157943   -35.998284 
    2080   -35.998284    6.4907611   -1.6116611    3.6792715    1.1998285    4.5886823            0            0            0    48.299161    43.676612    56.480373    44.740498 6.8801936e-08 1.9705171e-08   -1.1371719   -35.998284 
    2090   -35.998285    6.4907611   -1.6116611    3.6792773    1.1998227    4.5886725            0            0            0    48.019849    43.420632    56.144769    44.494147 6.5115714e-08 1.8550701e-08    -1.115744   -35.998285 
    2100   -35.998285    6.4907611   -1.6116611    3.6792829    1.1998171     4.588663            0            0            0    47.543765    42.989058    55.587723    44.054515 6.1529286e-08 1.7680301e-08   -1.0950655   -35.998285 
    2110   -35.998285    6.4907609   -1.6116609    3.6792874    1.1998126    4.5886528            0            0            0    51.347671    46.371427    59.862281    47.809306 5.8093981e-08 1.6688235e-08   -1.0743772   -35.998285 
    2120   -35.998285    6.4907609   -1.6116609    3.6792931    1.1998069    4.5886437            0            0            0    50.215808    45.360486    58.560195    46.726744 5.4835567e-08 1.5770772e-08   -1.0546506   -35.998285 
    2130   -35.998286     6.490761    -1.611661    3.6792985    1.1998015    4.5886346            0            0            0    49.693825    44.891123    57.948697    46.241653 5.1903771e-08 1.4885826e-08    -1.035276   -35.998286 
    2140   -35.998286    6.4907606   -1.6116606    3.6793018    1.1997982    4.5886251            0            0            0    55.590573    50.121637     64.60693    52.043153 4.9282905e-08 1.405391e-08   -1.0171736   -35.998286 
    2150   -35.998286    6.4907606   -1.6116606    3.6793071    1.1997929    4.5886162            0            0            0    55.188584    49.758979    64.131958    51.674815 4.6579058e-08 1.3380248e-08  -0.99858896   -35.998286 
    2160   -35.998286    6.4907681   -1.6116681    3.6793437    1.1997563    4.5886224            0            0            0   -57.184926    -50.34484   -62.784949   -58.424988 4.3784467e-08 1.2594496e-08  -0.97911511   -35.998286 
    2170   -35.998286    6.4907681   -1.6116681    3.6793489    1.1997511    4.5886135            0            0            0   -57.628713   -50.745473   -63.304258   -58.836407 4.1550489e-08 1.2044709e-08   -0.9609634   -35.998286 
    2180   -35.998287    6.4907681   -1.6116681    3.6793537    1.1997463    4.5886048            0            0            0    -57.09053   -50.273357   -62.713211    -58.28502 3.9248003e-08 1.1122989e-08  -0.94344221   -35.998287 
    2190   -35.998287    6.4907691   -1.6116691    3.6793628    1.1997372     4.588598            0            0            0   -71.009511   -62.631543   -78.507087   -71.889902 3.7115884e-08 1.0602101e-08  -0.92577717   -35.998287 
    2200   -35.998287    6.4907689   -1.6116689    3.6793668    1.1997332    4.5885892            0            0            0   -68.217943   -60.161269    -75.35842    -69.13414 3.5036585e-08 1.0047533e-08  -0.90903762   -35.998287 
    2210   -35.998287    6.4907688   -1.6116688    3.6793714    1.1997286    4.5885808            0            0            0   -67.399833    -59.44105   -74.448673   -68.309775 3.3130871e-08 9.4974543e-09  -0.89255298   -35.998287 
    2220   -35.998287    6.4907615   -1.6116615    3.6793457    1.1997543    4.5885573            0            0            0    42.164507    38.119906    49.289938    39.083677 3.1280899e-08 9.0299614e-09  -0.87643612   -35.998287 
    2230   -35.998288    6.4907615   -1.6116615    3.6793505    1.1997495    4.5885492            0            0            0    41.697807    37.697649    48.746854    38.648918 2.9771257e-08 8.4755992e-09  -0.86062694   -35.998288 
    2240   -35.998288    6.4907615   -1.6116615    3.6793553    1.1997447    4.5885413            0            0            0    41.281892    37.321103    48.260462    38.264109  2.81026e-08 7.9047539e-09  -0.84507497   -35.998288 
    2250   -35.998288    6.4907614   -1.6116614    3.6793593    1.1997407    4.5885328            0            0            0    43.814798    39.578388    51.097182    40.768824 2.6673165e-08 7.5870623e-09  -0.82953817   -35.998288 
    2260   -35.998288    6.4907614   -1.6116614    3.6793639    1.1997361     4.588525            0            0            0    43.492066    39.285082    50.716313    40.474801 2.5272125e-08 7.3374622e-09  -0.81457876   -35.998288 
    2270   -35.998288     6.490761    -1.611661    3.6793665    1.1997335    4.5885168            0            0            0    49.452287    44.610165     57.40225    46.344446 2.3814636e-08 6.6664747e-09   -0.8007027   -35.998288 
    2280   -35.998288    6.4907611   -1.6116611    3.6793714    1.1997286    4.5885093            0            0            0    47.911785    43.228031    55.653103     44.85422 2.2620653e-08 6.4317711e-09  -0.78618606   -35.998288 
    2290   -35.998289    6.4907612   -1.6116612    3.6793759    1.1997241    4.5885017            0            0            0    47.332704    42.706334     54.98368    44.308098   2.1305e-08 5.9643143e-09    -0.772072   -35.998289 
    2300   -35.998289    6.4907677   -1.6116677    3.6794077    1.1996923    4.5885071            0            0            0   -50.730029   -44.682225   -55.725404   -51.782458 2.0226038e-08 5.7254584e-09  -0.75695435   -35.998289 
    2310   -35.998289    6.4907676   -1.6116676    3.6794118    1.1996882    4.5884996            0            0            0   -50.013161   -44.049727   -54.930348   -51.059408 1.9077234e-08 5.4429226e-09  -0.74345736   -35.998289 
    2320   -35.998289    6.4907676   -1.6116676    3.6794159    1.1996841    4.5884922            0            0            0   -49.500597   -43.598551    -54.36665   -50.536589 1.8254139e-08 5.2394424e-09  -0.73017374   -35.998289 
    2330   -35.998289    6.4907682   -1.6116682    3.6794227    1.1996773    4.5884861            0            0            0   -58.520601   -51.614431   -64.595956   -59.351416 1.7120983e-08 4.8009905e-09  -0.71685176   -35.998289 
    2340   -35.998289    6.4907682   -1.6116682    3.6794268    1.1996732    4.5884789            0            0            0   -58.286867    -51.41115   -64.347144   -59.102309 1.6396948e-08 4.651354e-09   -0.7040649   -35.998289 
    2350   -35.998289    6.4907618   -1.6116618    3.6794044    1.1996956    4.5884587            0            0            0    36.795307    33.271191    43.010815    34.103915 1.5410878e-08 4.4526796e-09  -0.69169695   -35.998289 
    2360    -35.99829    6.4907619   -1.6116619    3.6794086    1.1996914    4.5884516            0            0            0     36.60944    33.100381     42.78764    33.940298 1.4579055e-08 4.2747844e-09  -0.67921793    -35.99829 
    2370    -35.99829    6.4907619   -1.6116619    3.6794127    1.1996873    4.5884447            0            0            0    36.260656       32.785    42.378978    33.617991 1.3934956e-08 3.8229146e-09  -0.66714648    -35.99829 
    2380    -35.99829    6.4907617   -1.6116617     3.679416     1.199684    4.5884374            0            0            0    38.962504    35.194013    45.407651    36.285848 1.3020413e-08 3.4887691e-09  -0.65504494    -35.99829 
    2390    -35.99829    6.4907618   -1.6116618    3.6794201    1.1996799    4.5884308            0            0            0    38.054131     34.37873    44.369509    35.414155 1.2414911e-08 3.5830028e-09  -0.64348909    -35.99829 
    2400    -35.99829    6.4907618   -1.6116618    3.6794241    1.1996759    4.5884241            0            0            0    37.643279    34.008089    43.891353    35.030393 1.1694638e-08 3.2679618e-09  -0.63210816    -35.99829 
    2410    -35.99829    6.4907616   -1.6116616    3.6794267    1.1996733    4.5884173            0            0            0    41.297079     37.26995    47.988681    38.632608 1.1104241e-08 3.1697725e-09    -0.621366    -35.99829 
    2420    -35.99829    6.4907616   -1.6116616    3.6794306    1.1996694    4.5884108            0            0            0    41.048023    37.043793    47.693273    38.407004 1.0519696e-08 2.9776826e-09  -0.61041791    -35.99829 
    2430    -35.99829    6.4907672   -1.6116672    3.6794579    1.1996421    4.5884155            0            0            0   -43.552156   -38.353362   -47.808824   -44.494283 9.9911051e-09 2.7445754e-09   -0.5988318    -35.99829 
    2440    -35.99829    6.4907672   -1.6116672    3.6794618    1.1996382    4.5884091            0            0            0   -43.820817   -38.596792   -48.124929    -44.74073 9.3409167e-09 2.6941227e-09  -0.58813407    -35.99829 
    2450   -35.998291    6.4907672   -1.6116672    3.6794653    1.1996347    4.5884027            0            0            0   -43.425606   -38.249345   -47.691671   -44.335803 8.9799574e-09 2.5032914e-09  -0.57778083   -35.998291 
    2460   -35.998291    6.4907679   -1.6116679    3.6794716    1.1996284    4.5883976            0            0            0   -52.609028   -46.413249   -58.099852   -53.313983 8.4039092e-09 2.4134701e-09  -0.56735849   -35.998291 
    2470   -35.998291    6.4907677   -1.6116677    3.6794746    1.1996254    4.5883912            0            0            0   -50.595923   -44.628812   -55.833824   -51.325132 8.017005e-09 2.3214944e-09  -0.55744619   -35.998291 
    2480   -35.998291    6.4907677   -1.6116677    3.6794779    1.1996221     4.588385            0            0            0   -49.978634   -44.084051   -55.148595   -50.703255 7.4732656e-09 2.0990433e-09  -0.54767721   -35.998291 
    2490   -35.998291    6.4907622   -1.6116622    3.6794587    1.1996413    4.5883674            0            0            0    32.259088    29.170207    37.691466    29.915592 7.1813704e-09 1.9681146e-09  -0.53795752   -35.998291 
    2500   -35.998291    6.4907622   -1.6116622    3.6794622    1.1996378    4.5883615            0            0            0    31.912065    28.856898    37.287045    29.592253 7.0201217e-09 1.9699432e-09  -0.52857324   -35.998291 
    2510   -35.998291    6.4907622   -1.6116622    3.6794657    1.1996343    4.5883556            0            0            0    31.602689    28.577291    36.925063    29.305714 6.5062801e-09 1.9036272e-09  -0.51933515   -35.998291 
    2520   -35.998291    6.4907621   -1.6116621    3.6794687    1.1996313    4.5883495            0            0            0    33.226346    30.023377    38.742082    30.913579 6.2308401e-09 1.6660653e-09  -0.51011901   -35.998291 
    2530   -35.998291    6.4907621   -1.6116621    3.6794721    1.1996279    4.5883437            0            0            0    32.990568    29.809465    38.463446    30.698795 5.7322044e-09 1.8114469e-09   -0.5012148   -35.998291 
    2540   -35.998291    6.4907619   -1.6116619    3.6794742    1.1996258    4.5883377            0            0            0    36.834594    33.241059    42.777205    34.485518 5.5122395e-09 1.4369337e-09  -0.49287303   -35.998291 
    2550   -35.998292     6.490762    -1.611662    3.6794778    1.1996222    4.5883322            0            0            0    35.785725    32.300416    41.584472    33.472288 5.3173551e-09 1.4183096e-09  -0.48422946   -35.998292 
    2560   -35.998292     6.490762    -1.611662    3.6794811    1.1996189    4.5883266            0            0            0     35.37956    31.934387    41.114411    33.089882 4.8960198e-09 1.2623983e-09  -0.47580482   -35.998292 
    2570   -35.998292    6.4907669   -1.6116669    3.6795051    1.1995949    4.5883308            0            0            0   -38.695715   -34.085415   -42.500124   -39.501608 4.6662772e-09 1.3846278e-09  -0.46673056   -35.998292 
    2580   -35.998292    6.4907669   -1.6116669    3.6795081    1.1995919    4.5883253            0            0            0   -38.184043   -33.633825   -41.933324   -38.984979 4.4838668e-09 1.1327031e-09  -0.45865382   -35.998292 
    2590   -35.998292    6.4907669   -1.6116669    3.6795111    1.1995889    4.5883198            0            0            0   -37.806679   -33.301567   -41.518459   -38.600013 4.1511211e-09 1.2300025e-09   -0.4507012   -35.998292 
    2600   -35.998292    6.4907673   -1.6116673    3.6795159    1.1995841    4.5883151            0            0            0   -43.646101   -38.496486   -48.135715   -44.306102 4.0921663e-09 1.1525736e-09  -0.44273992   -35.998292 
    2610   -35.998292    6.4907673   -1.6116673    3.6795189    1.1995811    4.5883098            0            0            0   -43.459709   -38.334109    -47.93639   -44.108626 3.7267449e-09 1.0162109e-09   -0.4350707   -35.998292 
    2620   -35.998292    6.4907625   -1.6116625    3.6795021    1.1995979    4.5882946            0            0            0    28.265103    25.563775    33.023424     26.20811 3.6705177e-09 1.1139365e-09  -0.42752246   -35.998292 
    2630   -35.998292    6.4907625   -1.6116625    3.6795051    1.1995949    4.5882894            0            0            0    28.118372    25.429224     32.84759    26.078302 3.3806362e-09 7.3855297e-10  -0.42004105   -35.998292 
    2640   -35.998292    6.4907625   -1.6116625    3.6795082    1.1995918    4.5882843            0            0            0    27.857066    25.192872     32.54173    25.836597 3.2463341e-09 8.7151847e-10  -0.41278409   -35.998292 
    2650   -35.998292    6.4907624   -1.6116624    3.6795107    1.1995893    4.5882788            0            0            0    29.633738    26.775862    34.532699    27.592653 2.9873508e-09 8.1184185e-10  -0.40552238   -35.998292 
    2660   -35.998292    6.4907625   -1.6116625    3.6795137    1.1995863    4.5882739            0            0            0    29.001486    26.208305     33.80938    26.986773 2.9415943e-09 7.9178498e-10  -0.39855805   -35.998292 
    2670   -35.998293    6.4907625   -1.6116625    3.6795167    1.1995833     4.588269            0            0            0    28.701216    25.937287    33.459924    26.706437 2.7468316e-09 5.9633623e-10  -0.39169683   -35.998293 
    2680   -35.998293    6.4907623   -1.6116623    3.6795188    1.1995812    4.5882639            0            0            0    31.084906    28.063571     36.13329    29.057857 2.4980774e-09 9.1230115e-10  -0.38517952   -35.998293 
    2690   -35.998293    6.4907623   -1.6116623    3.6795216    1.1995784    4.5882591            0            0            0    30.896818    27.892716    35.910558    28.887181 2.4383923e-09 7.9219051e-10  -0.37856775   -35.998293 
    2700   -35.998293    6.4907666   -1.6116666    3.6795424    1.1995576    4.5882628            0            0            0   -33.440089   -29.451117   -36.706599   -34.162552 2.2621644e-09 7.349513e-10  -0.37152335   -35.998293 
    2710   -35.998293    6.4907667   -1.6116667    3.6795452    1.1995548     4.588258            0            0            0   -33.591657    -29.58934   -36.887325   -34.298307 2.284497e-09 4.6396927e-10  -0.36506659   -35.998293 
    2720   -35.998293    6.4907666   -1.6116666    3.6795478    1.1995522    4.5882532            0            0            0   -33.294128   -29.327667   -36.561138   -33.993578 2.1794207e-09  6.16829e-10  -0.35880194   -35.998293 
    2730   -35.998293     6.490767    -1.611667    3.6795523    1.1995477    4.5882493            0            0            0   -39.361087     -34.7261   -43.432414   -39.924746 2.1418349e-09 3.5408134e-10  -0.35250904   -35.998293 
    2740   -35.998293     6.490767    -1.611667    3.6795546    1.1995454    4.5882445            0            0            0    -37.99019   -33.510123   -41.891543   -38.568903 1.9911322e-09 4.6046877e-10  -0.34649747   -35.998293 
    2750   -35.998293    6.4907669   -1.6116669    3.6795571    1.1995429    4.5882399            0            0            0   -37.553238   -33.124432     -41.4073   -38.127983 1.7784074e-09 6.1094969e-10  -0.34057135   -35.998293 
    2760   -35.998293    6.4907628   -1.6116628    3.6795425    1.1995575    4.5882266            0            0            0    24.848348    22.473492    29.020948    23.050605 1.7555316e-09 5.2526563e-10  -0.33460282   -35.998293 
    2770   -35.998293    6.4907628   -1.6116628    3.6795451    1.1995549    4.5882222            0            0            0    24.589273    22.239515    28.719141    22.809163 1.5951141e-09 3.0207243e-10  -0.32890138   -35.998293 
    2780   -35.998293    6.4907628   -1.6116628    3.6795477    1.1995523    4.5882178            0            0            0    24.356399    22.028977    28.446891     22.59333 1.5886445e-09 3.9306252e-10  -0.32328694   -35.998293 
    2790   -35.998293    6.4907627   -1.6116627      3.67955      1.19955    4.5882132            0            0            0    25.436828    22.990535    29.655246    23.664704 1.5082709e-09 2.8669964e-10  -0.31769229   -35.998293 
    2800   -35.998293    6.4907628   -1.6116628    3.6795525    1.1995475    4.5882089            0            0            0     25.25463    22.825235    29.440379    23.498276 1.4659214e-09 5.4946358e-10  -0.31227336   -35.998293 
    2810   -35.998293    6.4907626   -1.6116626    3.6795542    1.1995458    4.5882044            0            0            0    27.822687    25.116184    32.322916    26.028963 1.3123064e-09 2.9736609e-10  -0.30716124   -35.998293 
    2820   -35.998293    6.4907626   -1.6116626    3.6795569    1.1995431    4.5882002            0            0            0    27.088063     24.45744    31.486538     25.32021 1.0817006e-09 2.9535749e-10  -0.30189963   -35.998293 
    2830   -35.998293    6.4907627   -1.6116627    3.6795594    1.1995406    4.5881961            0            0            0    26.794715    24.192968    31.146762    25.044415 1.3225138e-09 5.7477863e-10  -0.29676262   -35.998293 
    2840   -35.998294    6.4907664   -1.6116664    3.6795776    1.1995224    4.5881993            0            0            0   -29.742247   -26.200432   -32.662777   -30.363533 9.7152558e-10 3.6983361e-10  -0.29120662   -35.998294 
    2850   -35.998294    6.4907664   -1.6116664    3.6795799    1.1995201    4.5881951            0            0            0   -29.368655   -25.870659   -32.249332   -29.985973 1.069234e-09 4.8363969e-10   -0.2862732   -35.998294 
    2860   -35.998294    6.4907664   -1.6116664    3.6795822    1.1995178     4.588191            0            0            0   -29.085949   -25.621698   -31.938617   -29.697534 1.0379514e-09 1.7974336e-10  -0.28141429   -35.998294 
    2870   -35.998294    6.4907667   -1.6116667    3.6795856    1.1995144    4.5881875            0            0            0   -33.002471   -29.108715   -36.374623   -33.524074 1.0927369e-09 1.8019782e-10  -0.27655702   -35.998294 
    2880   -35.998294    6.4907667   -1.6116667    3.6795879    1.1995121    4.5881835            0            0            0   -32.852758   -28.978108   -36.213945   -33.366221 9.9513092e-10 5.1043301e-10  -0.27186555   -35.998294 
    2890   -35.998294     6.490763    -1.611663    3.6795751    1.1995249    4.5881719            0            0            0     21.83812    19.754076    25.505438    20.254847 8.0666193e-10 2.4607925e-10  -0.26718934   -35.998294 
    2900   -35.998294     6.490763    -1.611663    3.6795774    1.1995226    4.5881679            0            0            0    21.721374    19.647196    25.365844    20.151082 8.5209607e-10 3.2449442e-10  -0.26261457   -35.998294 
    2910   -35.998294    6.4907631   -1.6116631    3.6795797    1.1995203    4.5881641            0            0            0    21.523008    19.467739    25.133821    19.967465 7.4551809e-10 5.1610279e-11  -0.25816829   -35.998294 
    2920   -35.998294     6.490763    -1.611663    3.6795816    1.1995184      4.58816            0            0            0    22.724424    20.537534     26.47965    21.156087 6.5305754e-10 2.2043028e-10  -0.25372549   -35.998294 
    2930   -35.998294     6.490763    -1.611663    3.6795839    1.1995161    4.5881563            0            0            0    22.273448    20.132621     25.96325    20.724474 6.6661276e-10  9.03422e-12  -0.24945107   -35.998294 
    2940   -35.998294     6.490763    -1.611663    3.6795861    1.1995139    4.5881526            0            0            0    22.049919    19.930791    25.703096    20.515871 8.2756238e-10 2.2042013e-10   -0.2452391   -35.998294 
    2950   -35.998294    6.4907629   -1.6116629    3.6795878    1.1995122    4.5881488            0            0            0    23.657776    21.364087    27.506338    22.102902  5.92106e-10 2.4792238e-10  -0.24122019   -35.998294 
    2960   -35.998294    6.4907629   -1.6116629    3.6795899    1.1995101    4.5881451            0            0            0    23.513201    21.232744    27.335384    21.971476 5.0757415e-10 2.4393597e-10   -0.2371565   -35.998294 
    2970   -35.998294    6.4907662   -1.6116662    3.6796058    1.1994942     4.588148            0            0            0   -25.824976   -22.746117   -28.346416   -26.382395 6.259154e-10 9.5757361e-11  -0.23280513   -35.998294 
    2980   -35.998294    6.4907662   -1.6116662    3.6796079    1.1994921    4.5881444            0            0            0   -25.910003   -22.824346   -28.449717   -26.455946 6.6042387e-10 3.7272149e-10  -0.22883875   -35.998294 
    2990   -35.998294    6.4907662   -1.6116662    3.6796099    1.1994901    4.5881408            0            0            0   -25.683353   -22.624951   -28.201231   -26.223879 5.3568247e-10 5.8807855e-11  -0.22498334   -35.998294 
    3000   -35.998294    6.4907665   -1.6116665    3.6796132    1.1994868    4.5881378            0            0            0   -29.817947   -26.306491   -32.881747   -30.265604 3.7579336e-10 1.9907608e-10  -0.22111706   -35.998294 
    3010   -35.998294    6.4907665   -1.6116665    3.6796149    1.1994851    4.5881341            0            0            0   -28.857722   -25.454425   -31.803712    -29.31503 3.5722608e-10 1.1653152e-10  -0.21741139   -35.998294 
    3020   -35.998294    6.4907664   -1.6116664    3.6796168    1.1994832    4.5881306            0            0            0   -28.540317   -25.174231   -31.452393   -28.994326 4.5499174e-10 8.9978853e-11  -0.21375791   -35.998294 
    3030   -35.998294    6.4907633   -1.6116633    3.6796056    1.1994944    4.5881205            0            0            0    19.234041    17.398153    22.457264    17.846705 5.1642168e-10 4.7651829e-11  -0.21004514   -35.998294 
    3040   -35.998294    6.4907633   -1.6116633    3.6796076    1.1994924    4.5881171            0            0            0    19.038236    17.221277    22.229219    17.664213 2.3892647e-10 2.1894541e-10   -0.2065264   -35.998294 
    3050   -35.998294    6.4907633   -1.6116633    3.6796096    1.1994904    4.5881138            0            0            0    18.860989    17.060993    22.022119    17.499854 2.9237369e-10 1.7831217e-10  -0.20306064   -35.998294 
    3060   -35.998294    6.4907632   -1.6116632    3.6796114    1.1994886    4.5881103            0            0            0    19.599019    17.717393    22.847003    18.232661 4.3505017e-10 -3.3117002e-11  -0.19961022   -35.998294 
    3070   -35.998294    6.4907633   -1.6116633    3.6796133    1.1994867    4.5881071            0            0            0     19.45741    17.588927    22.680259    18.103044 2.6679651e-10 1.1115519e-10    -0.196262   -35.998294 
    3080   -35.998294    6.4907631   -1.6116631    3.6796146    1.1994854    4.5881037            0            0            0    21.222722    19.162885    24.661965    19.843315 2.4514658e-10 -5.0736302e-11  -0.19308748   -35.998294 
    3090   -35.998294    6.4907632   -1.6116632    3.6796166    1.1994834    4.5881005            0            0            0    20.696469    18.691001    24.062242    19.336164 3.1466503e-10 -6.176009e-11  -0.18983593   -35.998294 
    3100   -35.998295    6.4907632   -1.6116632    3.6796185    1.1994815    4.5880973            0            0            0    20.480154     18.49591     23.81153    19.133022 2.3849196e-10 4.9256933e-11  -0.18665758   -35.998295 
    3110   -35.998295    6.4907661   -1.6116661    3.6796325    1.1994675    4.5880999            0            0            0    -22.98409   -20.248147   -25.238812    -23.46531 2.9669607e-10 -5.2843391e-11  -0.18320933   -35.998295 
    3120   -35.998295    6.4907661   -1.6116661    3.6796343    1.1994657    4.5880967            0            0            0   -22.706627   -20.003208   -24.931988   -23.184686 4.3273908e-10 4.2529175e-11   -0.1801532   -35.998295 
    3130   -35.998295    6.4907661   -1.6116661     3.679636     1.199464    4.5880936            0            0            0   -22.492254   -19.814395   -24.696427   -22.965941 3.0993835e-10 1.0161012e-10   -0.1771427   -35.998295 
    3140   -35.998295    6.4907663   -1.6116663    3.6796385    1.1994615    4.5880909            0            0            0   -25.194939   -22.222146   -27.756593   -25.606078 2.9618413e-10 1.2951621e-12  -0.17413658   -35.998295 
    3150   -35.998295    6.4907663   -1.6116663    3.6796402    1.1994598    4.5880878            0            0            0   -25.074939   -22.117343   -27.627464    -25.48001 2.1990051e-10 1.9677632e-10  -0.17122736   -35.998295 
    3160   -35.998295    6.4907635   -1.6116635    3.6796304    1.1994696    4.5880789            0            0            0    16.941604    15.326505    19.781474    15.716834 2.1890418e-10 1.628726e-11  -0.16830031   -35.998295 
    3170   -35.998295    6.4907635   -1.6116635    3.6796322    1.1994678    4.5880759            0            0            0    16.848596     15.24146    19.670484    15.633843 2.6643744e-10 5.3345389e-11   -0.1654644   -35.998295 
    3180   -35.998295    6.4907635   -1.6116635    3.6796339    1.1994661     4.588073            0            0            0     16.69666     15.10399    19.492861    15.493128 1.6640635e-10 -1.711138e-10  -0.16270416   -35.998295 
    3190   -35.998295    6.4907634   -1.6116634    3.6796354    1.1994646    4.5880699            0            0            0    17.526565    15.842583    20.422137    16.314975 2.2644615e-10 2.1937999e-11  -0.15994963   -35.998295 
    3200   -35.998295    6.4907635   -1.6116635    3.6796371    1.1994629    4.5880671            0            0            0    17.194663    15.544545    20.041861    15.997585 3.3047838e-10 9.2220921e-11  -0.15729413   -35.998295 
    3210   -35.998295    6.4907635   -1.6116635    3.6796388    1.1994612    4.5880643            0            0            0     17.02016    15.387008    19.838971      15.8345 1.7670955e-10 1.2946245e-10  -0.15467963   -35.998295 
    3220   -35.998295    6.4907634   -1.6116634    3.6796401    1.1994599    4.5880614            0            0            0    18.110237    16.358195    21.061284    16.911231 2.6499059e-10 7.0539666e-11  -0.15217916   -35.998295 
    3230   -35.998295    6.4907634   -1.6116634    3.6796418    1.1994582    4.5880586            0            0            0    17.977582    16.238023    20.905734    16.788989 1.3452949e-10 -7.0434192e-12  -0.14965859   -35.998295 
    3240   -35.998295     6.490766    -1.611666     3.679654     1.199446    4.5880608            0            0            0   -20.028021   -17.641316   -21.982708   -20.460038 1.4304665e-10 2.8292589e-11  -0.14694854   -35.998295 
    3250   -35.998295     6.490766    -1.611666    3.6796556    1.1994444    4.5880581            0            0            0   -20.066867   -17.677826   -22.032153   -20.490622 6.5255851e-11 2.3495495e-10  -0.14449544   -35.998295 
    3260   -35.998295     6.490766    -1.611666    3.6796571    1.1994429    4.5880553            0            0            0   -19.890229   -17.522347   -21.838384   -20.309955 1.7314747e-10 1.2606748e-10  -0.14210759   -35.998295 
    3270   -35.998295    6.4907661   -1.6116661    3.6796594    1.1994406     4.588053            0            0            0    -22.58387   -19.922203   -24.887051   -22.942355 9.0076866e-11 -1.4629027e-10  -0.13972211   -35.998295 
    3280   -35.998295    6.4907661   -1.6116661    3.6796608    1.1994392    4.5880503            0            0            0   -21.946708   -19.356773   -24.172761   -22.310592 6.0431753e-11 1.7705993e-10  -0.13742551   -35.998295 
    3290   -35.998295    6.4907661   -1.6116661    3.6796622    1.1994378    4.5880476            0            0            0   -21.710402   -19.148135   -23.911392   -22.071679 2.1625958e-10 1.2083344e-10  -0.13516308   -35.998295 
    3300   -35.998295    6.4907636   -1.6116636    3.6796537    1.1994463    4.5880398            0            0            0    14.940912    13.516281    17.441119    13.865336 1.5485161e-10 -1.847055e-10  -0.13284323   -35.998295 
    3310   -35.998295    6.4907637   -1.6116637    3.6796552    1.1994448    4.5880373            0            0            0    14.794604    13.384072    17.270679     13.72906 1.7378212e-11 1.2174503e-10  -0.13066276   -35.998295 
    3320   -35.998295    6.4907637   -1.6116637    3.6796567    1.1994433    4.5880347            0            0            0    14.659779    13.262132    17.113208    13.603995 1.3078413e-10 1.1020718e-10   -0.1285163   -35.998295 
    3330   -35.998295    6.4907636   -1.6116636     3.679658     1.199442    4.5880321            0            0            0    15.132458    13.682168    17.640768    14.074437 2.6112692e-10 1.628417e-11   -0.1263846   -35.998295 
    3340   -35.998295    6.4907637   -1.6116637    3.6796595    1.1994405    4.5880297            0            0            0    15.013756    13.574631    17.501606    13.965031 1.9845267e-10 4.0269423e-11  -0.12431069   -35.998295 
    3350   -35.998295    6.4907636   -1.6116636    3.6796606    1.1994394    4.5880271            0            0            0    16.133903    14.572771    18.758621    15.070316 2.0161371e-10 2.5778986e-11  -0.12233294   -35.998295 
    3360   -35.998295    6.4907636   -1.6116636    3.6796621    1.1994379    4.5880247            0            0            0    15.793067    14.266976    18.369351    14.742873 1.773303e-10 -4.3722917e-11  -0.12031991   -35.998295 
[...]
    4280   -35.998296    6.4907644   -1.6116644    3.6797535    1.1993465     4.587871            0            0            0    7.9684244    7.1836097    9.2186064    7.5030572 -2.3960733e-11 2.361487e-11 -0.024894125   -35.998296 
    4290   -35.998296    6.4907644   -1.6116644    3.6797543    1.1993457    4.5878696            0            0            0    7.9576555    7.1730303    9.2036113    7.4963248 -1.7274532e-10 2.0116844e-10 -0.024335362   -35.998296 
    4300   -35.998296    6.4907644   -1.6116644    3.6797551    1.1993449    4.5878683            0            0            0    7.7185185    6.9587744    8.9310727    7.2657085 -1.6424887e-11 4.6172172e-13 -0.023783498   -35.998296 
    4310   -35.998296    6.4907644   -1.6116644     3.679756     1.199344    4.5878669            0            0            0    7.5413083    6.7997611    8.7283595    7.0958042 -2.6993314e-11 1.0581431e-10 -0.023236488   -35.998296 
    4320   -35.998296    6.4907653   -1.6116653    3.6797605    1.1993395    4.5878674            0            0            0    -5.997077   -5.2715438    -6.545935   -6.1737522 1.0305325e-10 5.431883e-11   -0.0227162   -35.998296 
    4330   -35.998296    6.4907646   -1.6116646    3.6797578    1.1993422    4.5878648            0            0            0    5.7267319    5.1798756    6.6771374    5.3231829 3.3881622e-11 -1.0535379e-10 -0.022327725   -35.998296 
    4340   -35.998296    6.4907645   -1.6116645     3.679758     1.199342    4.5878639            0            0            0    6.6140493    5.9707819    7.6759816    6.1953843 -5.7496287e-11 -2.0430919e-10  -0.02202818   -35.998296 
    4350   -35.998296    6.4907646   -1.6116646    3.6797589    1.1993411     4.587863            0            0            0    5.8128668    5.2555388    6.7702845    5.4127773 -1.2298513e-10 -5.9848917e-11 -0.021625307   -35.998296 
    4360   -35.998296    6.4907646   -1.6116646    3.6797595    1.1993405    4.5878619            0            0            0    5.7792277    5.2249365    6.7300604    5.3826862 6.4026663e-12 7.3667823e-11 -0.021236888   -35.998296 
    4370   -35.998296    6.4907646   -1.6116646    3.6797601    1.1993399    4.5878609            0            0            0    5.7514422    5.1995032    6.6965688    5.3582545 -1.1862289e-10 2.0547549e-10 -0.020855435   -35.998296 
    4380   -35.998296    6.4907646   -1.6116646    3.6797607    1.1993393    4.5878599            0            0            0    5.7206965    5.1714113    6.6597827    5.3308955 1.3421885e-10 -4.6218695e-11 -0.020480844   -35.998296 
    4390   -35.998296    6.4907646   -1.6116646    3.6797612    1.1993388    4.5878589            0            0            0    5.6868746    5.1405704    6.6195552    5.3004982 1.4277812e-10 -8.6758667e-11 -0.020112985   -35.998296 
    4400   -35.998296    6.4907646   -1.6116646    3.6797618    1.1993382     4.587858            0            0            0    5.6498959    5.1069148    6.5757913    5.2669817 3.2728583e-11 -1.0837103e-10 -0.019751733   -35.998296 
    4410   -35.998296    6.4907646   -1.6116646    3.6797624    1.1993376     4.587857            0            0            0     5.609747    5.0704356     6.528474    5.2303315 1.5036102e-10 -6.7265311e-11 -0.019396967   -35.998296 
    4420   -35.998296    6.4907646   -1.6116646     3.679763     1.199337     4.587856            0            0            0    5.5665083    5.0312061     6.477693    5.1906257 2.234451e-11 6.2766484e-11 -0.019048568   -35.998296 
    4430   -35.998296    6.4907646   -1.6116646    3.6797635    1.1993365    4.5878551            0            0            0    5.5203763    4.9894024    6.4236696    5.1480569 1.1558368e-10 -1.5734898e-10 -0.018706422   -35.998296 
    4440   -35.998296    6.4907646   -1.6116646    3.6797641    1.1993359    4.5878541            0            0            0    5.4716766    4.9453151    6.3667706    5.1029441 -5.193518e-11 -2.586773e-11 -0.018370417   -35.998296 
    4450   -35.998296    6.4907646   -1.6116646    3.6797646    1.1993354    4.5878532            0            0            0     5.420859    4.8993454     6.307503    5.0557285 6.6396179e-11 2.5454335e-11 -0.018040446   -35.998296 
    4460   -35.998296    6.4907646   -1.6116646    3.6797652    1.1993348    4.5878523            0            0            0    5.3684719    4.8519823    6.2464853     5.006948 5.8729786e-11 -1.3219405e-10 -0.017716401   -35.998296 
    4470   -35.998296    6.4907646   -1.6116646    3.6797657    1.1993343    4.5878514            0            0            0    5.3151189    4.8037641    6.1843981    4.9571946 7.5775019e-12 -7.7926261e-11 -0.017398179   -35.998296 
    4480   -35.998296    6.4907646   -1.6116646    3.6797663    1.1993337    4.5878505            0            0            0    5.2614065    4.7552313    6.1219252    4.9070629 3.5889671e-11 4.0348545e-11 -0.017085677   -35.998296 
    4490   -35.998296    6.4907646   -1.6116646    3.6797668    1.1993332    4.5878496            0            0            0    5.2078944    4.7068831    6.0596978    4.8571022 7.8050541e-12 4.0067244e-12 -0.016778794   -35.998296 
    4500   -35.998296    6.4907646   -1.6116646    3.6797673    1.1993327    4.5878487            0            0            0    5.1550605    4.6591456    5.9982547    4.8077812 4.7086967e-11 -1.7204478e-10 -0.016477429   -35.998296 
    4510   -35.998296    6.4907646   -1.6116646    3.6797679    1.1993321    4.5878478            0            0            0    5.1032837    4.6123564     5.938023    4.7594716 -3.896943e-11 8.9842059e-11 -0.016181483   -35.998296 
    4520   -35.998296    6.4907646   -1.6116646    3.6797684    1.1993316    4.5878469            0            0            0    5.0528421    4.5667636    5.8793163    4.7124465 4.7664891e-11 -2.2524477e-10 -0.015890856   -35.998296 
    4530   -35.998296    6.4907646   -1.6116646    3.6797689    1.1993311    4.5878461            0            0            0    5.0039237    4.5225346    5.8223461    4.6668904 5.3697757e-12 1.1419631e-11 -0.015605452   -35.998296 
    4540   -35.998296    6.4907647   -1.6116647    3.6797694    1.1993306    4.5878452            0            0            0     4.956641    4.4797699    5.7672393    4.6229139 -1.5385534e-10 -2.2890276e-11 -0.015325173   -35.998296 
    4550   -35.998296    6.4907647   -1.6116647    3.6797699    1.1993301    4.5878444            0            0            0    4.9110483    4.4385176    5.7140567    4.5805706 6.9935718e-11 3.3968696e-11 -0.015049924   -35.998296 
    4560   -35.998296    6.4907647   -1.6116647    3.6797704    1.1993296    4.5878436            0            0            0    4.8671563    4.3987875    5.6628103    4.5398712 -1.7487418e-11 -9.3706625e-11 -0.014779611   -35.998296 
    4570   -35.998296    6.4907647   -1.6116647    3.6797709    1.1993291    4.5878427            0            0            0    4.8249453    4.3605618    5.6134776    4.5007967 5.5016219e-11 1.0386091e-10 -0.014514139   -35.998296 
    4580   -35.998296    6.4907647   -1.6116647    3.6797714    1.1993286    4.5878419            0            0            0    4.7843748    4.3238043    5.5660124    4.4633075 7.5335461e-11 1.2272964e-11  -0.01425342   -35.998296 
    4590   -35.998296    6.4907647   -1.6116647    3.6797719    1.1993281    4.5878411            0            0            0    4.7453907     4.288467    5.5203539    4.4273513 4.461365e-11 4.6993985e-11 -0.013997362   -35.998296 
    4600   -35.998296    6.4907647   -1.6116647    3.6797723    1.1993277    4.5878403            0            0            0    4.7079316    4.2544949    5.4764323    4.3928677 4.1130521e-11 5.4754482e-11 -0.013745879   -35.998296 
    4610   -35.998296    6.4907647   -1.6116647    3.6797728    1.1993272    4.5878395            0            0            0    4.6719318    4.2218294    5.4341734    4.3597928 -1.030949e-10 -1.1004978e-10 -0.013498883   -35.998296 
    4620   -35.998296    6.4907647   -1.6116647    3.6797733    1.1993267    4.5878387            0            0            0    4.6373244    4.1904107    5.3935013    4.3280611 -9.3679335e-11 -5.4763643e-11  -0.01325629   -35.998296 
    4630   -35.998296    6.4907647   -1.6116647    3.6797737    1.1993263    4.5878379            0            0            0    4.6040428    4.1601797     5.354341    4.2976077 8.5458797e-11 8.9923831e-11 -0.013018018   -35.998296 
    4640   -35.998296    6.4907647   -1.6116647    3.6797742    1.1993258    4.5878372            0            0            0    4.5720223    4.1310783    5.3166191    4.2683694 -1.2650792e-11 -9.9375436e-11 -0.012783986   -35.998296 
    4650   -35.998296    6.4907647   -1.6116647    3.6797746    1.1993254    4.5878364            0            0            0    4.5412004    4.1030511     5.280265    4.2402853 2.2603267e-12 -1.8395049e-11 -0.012554114   -35.998296 
    4660   -35.998296    6.4907647   -1.6116647    3.6797751    1.1993249    4.5878356            0            0            0    4.5115176    4.0760446    5.2452113     4.213297 8.0580963e-12 -1.4249788e-11 -0.012328326   -35.998296 
    4670   -35.998296    6.4907647   -1.6116647    3.6797755    1.1993245    4.5878349            0            0            0    4.4829173    4.0500085     5.211394    4.1873494 2.0113818e-10 -5.0844849e-11 -0.012106546   -35.998296 
    4680   -35.998296    6.4907647   -1.6116647     3.679776     1.199324    4.5878342            0            0            0     4.455346     4.024895    5.1787525    4.1623903 -1.2788079e-10 -1.6420301e-10 -0.011888699   -35.998296 
    4690   -35.998296    6.4907647   -1.6116647    3.6797764    1.1993236    4.5878334            0            0            0    4.4287531    4.0006591    5.1472299    4.1383705 8.2461242e-11 -1.2785928e-10 -0.011674713   -35.998296 
    4700   -35.998296    6.4907647   -1.6116647    3.6797768    1.1993232    4.5878327            0            0            0    4.4030914    3.9772584    5.1167723    4.1152436 -2.4844875e-11 -3.7391564e-11 -0.011464518   -35.998296 
    4710   -35.998296    6.4907647   -1.6116647    3.6797773    1.1993227     4.587832            0            0            0    4.3783162    3.9546531    5.0873294    4.0929661 -7.1778065e-11 -5.4557461e-11 -0.011258044   -35.998296 
    4720   -35.998296    6.4907647   -1.6116647    3.6797777    1.1993223    4.5878313            0            0            0    4.3543857    3.9328059    5.0588538    4.0714973 -1.5528098e-11 -1.8899226e-10 -0.011055224   -35.998296 
    4730   -35.998296    6.4907647   -1.6116647    3.6797781    1.1993219    4.5878305            0            0            0    4.3312604    3.9116815    5.0313009    4.0507988 -5.8327877e-11 5.5995587e-12 -0.010855991   -35.998296 
    4740   -35.998296    6.4907647   -1.6116647    3.6797785    1.1993215    4.5878298            0            0            0    4.3089035    3.8912472    5.0046289    4.0308346 8.9619231e-11 -8.5963588e-11 -0.010660281   -35.998296 
    4750   -35.998296    6.4907647   -1.6116647    3.6797789    1.1993211    4.5878292            0            0            0    4.2875745    3.8717341    4.9791302    4.0118591 -3.3799523e-11 5.2810795e-11 -0.010468029   -35.998296 
    4760   -35.998296    6.4907647   -1.6116647    3.6797793    1.1993207    4.5878285            0            0            0    4.2671431     3.853026    4.9546581    3.9937452 1.8649584e-12 4.5655899e-11 -0.010279173   -35.998296 
    4770   -35.998296    6.4907647   -1.6116647    3.6797797    1.1993203    4.5878278            0            0            0    4.2467955    3.8343973    4.9302943    3.9756948 2.8739039e-11 3.6650567e-12 -0.010093655   -35.998296 
    4780   -35.998296    6.4907647   -1.6116647    3.6797801    1.1993199    4.5878271            0            0            0    4.2274366     3.816655    4.9070592    3.9585957 9.7664704e-11 7.8403406e-11 -0.0099114131   -35.998296 
    4790   -35.998296    6.4907647   -1.6116647    3.6797805    1.1993195    4.5878264            0            0            0    4.2073046    3.7982277    4.8829657    3.9407203 -6.1270733e-11 1.9995965e-10 -0.0097323936   -35.998296 
    4800   -35.998296    6.4907647   -1.6116647    3.6797809    1.1993191    4.5878258            0            0            0    4.1899117    3.7822476    4.8619747    3.9255127 8.5698408e-12 1.1406176e-10 -0.0095565308   -35.998296 
    4810   -35.998296    6.4907647   -1.6116647    3.6797813    1.1993187    4.5878251            0            0            0    4.1678736    3.7621297    4.8357583    3.9057328 -7.7471192e-11 1.0876759e-10 -0.0093837867   -35.998296 
    4820   -35.998296    6.4907647   -1.6116647    3.6797817    1.1993183    4.5878245            0            0            0    4.1576479      3.75255    4.8228766    3.8975172 7.8774789e-11 -1.6179123e-10 -0.0092140667   -35.998296 
    4830   -35.998296    6.4907648   -1.6116648     3.679782     1.199318    4.5878238            0            0            0    4.1181188    3.7168432    4.7769607    3.8605526 8.744562e-11 1.192163e-11 -0.0090474152   -35.998296 
    4840   -35.998296    6.4907648   -1.6116648    3.6797824    1.1993176    4.5878232            0            0            0     4.162053    3.7555693    4.8251842    3.9054053 -1.0235581e-10 -2.0044889e-10 -0.0088835039   -35.998296 
    4850   -35.998296    6.4907648   -1.6116648    3.6797828    1.1993172    4.5878226            0            0            0    3.9826943     3.595178    4.6215989    3.7313059 -7.817404e-12 -1.7393903e-11 -0.008722968   -35.998296 
    4860   -35.998296    6.4907647   -1.6116647    3.6797831    1.1993169    4.5878219            0            0            0    4.2841618    3.8635683    4.9602817    4.0286355 -3.2195513e-11 -2.6194661e-10 -0.0085639325   -35.998296 
    4870   -35.998296    6.4907648   -1.6116648    3.6797836    1.1993164    4.5878214            0            0            0    3.7253717    3.3648264    4.3288074    3.4824812 -4.6047865e-11 1.5955741e-10 -0.0084092961   -35.998296 
    4880   -35.998296    6.4907647   -1.6116647    3.6797838    1.1993162    4.5878207            0            0            0    4.3295232    3.9031406    5.0088644    4.0765647 1.1250243e-10 1.0959253e-10 -0.0082543598   -35.998296 
    4890   -35.998296    6.4907648   -1.6116648    3.6797843    1.1993157    4.5878201            0            0            0     3.663549    3.3088256    4.2565334    3.4252882 8.7083527e-11 -9.4029948e-11 -0.0081051292   -35.998296 
    4900   -35.998296    6.4907648   -1.6116648    3.6797845    1.1993155    4.5878194            0            0            0     4.293851    3.8704673    4.9661058    4.0449799 5.9274893e-12 -1.0117193e-10 -0.0079555221   -35.998296 
    4910   -35.998296    6.4907648   -1.6116648     3.679785     1.199315    4.5878189            0            0            0    3.6350847    3.2825891    4.2219279    3.4007372 -3.3599797e-11 6.7344951e-11 -0.0078115829   -35.998296 
    4920   -35.998296    6.4907648   -1.6116648    3.6797852    1.1993148    4.5878182            0            0            0    4.2522141    3.8324921    4.9166697    4.0074805 1.3155747e-11 -6.6165428e-12 -0.0076673263   -35.998296 
    4930   -35.998296    6.4907648   -1.6116648    3.6797857    1.1993143    4.5878178            0            0            0    3.6147764    3.2636424    4.1965699     3.384117 -2.2663249e-11 -2.1140575e-10 -0.007528502   -35.998296 
    4940   -35.998296    6.4907648   -1.6116648    3.6797859    1.1993141    4.5878171            0            0            0    4.2080404    3.7922714    4.8644218    3.9674279 -1.9111933e-11 4.2165149e-11 -0.0073894589   -35.998296 
    4950   -35.998296    6.4907648   -1.6116648    3.6797864    1.1993136    4.5878166            0            0            0    3.6008517    3.2504047      4.17846    3.3736905 -2.5746592e-11 1.658123e-10 -0.0072555674   -35.998296 
    4960   -35.998296    6.4907648   -1.6116648    3.6797866    1.1993134    4.5878159            0            0            0    4.1599006    3.7485304    4.8077497    3.9234217 -5.0173439e-11 -2.4816663e-11 -0.0071215997   -35.998296 
    4970   -35.998296    6.4907648   -1.6116648    3.6797871    1.1993129    4.5878155            0            0            0    3.6074054    3.2554445    4.1834937    3.3832779 -1.7846081e-10 -5.6040051e-11 -0.0069924578   -35.998296 
    4980   -35.998296    6.4907648   -1.6116648    3.6797872    1.1993128    4.5878148            0            0            0    4.0977093    3.6922749    4.7352803    3.8655727 1.769331e-11 -3.5297258e-11 -0.006863533   -35.998296 
    4990   -35.998296    6.4907648   -1.6116648    3.6797877    1.1993123    4.5878143            0            0            0    3.6379906    3.2819302     4.215679    3.4163626 -3.9406538e-11 -1.6433044e-10  -0.00673896   -35.998296 
    5000   -35.998296    6.4907648   -1.6116648    3.6797879    1.1993121    4.5878137            0            0            0    4.0236292    3.6254338    4.6494521    3.7960018 6.7060797e-11 -5.6843995e-11 -0.0066149924   -35.998296 
Loop time of 5.83072 on 1 procs for 5000 steps with 8 atoms

25.6% CPU use with 1 MPI tasks x no OpenMP threads

Minimization stats:
  Stopping criterion = max iterations
  Energy initial, next-to-last, final = 
        -26.5065902569     -35.9982960206     -35.9982960207
  Force two-norm initial, final = 5.32388 0.000592003
  Force max component initial, final = 3.07374 0.000492906
  Final line search alpha, max atom move = 1 0.000492906
  Iterations, force evaluations = 5000 8931

MPI task timing breakdown:
Section |  min time  |  avg time  |  max time  |%varavg| %total
---------------------------------------------------------------
Pair    | 4.6241     | 4.6241     | 4.6241     |   0.0 | 79.31
Neigh   | 0.001152   | 0.001152   | 0.001152   |   0.0 |  0.02
Comm    | 0.31354    | 0.31354    | 0.31354    |   0.0 |  5.38
Output  | 0.070213   | 0.070213   | 0.070213   |   0.0 |  1.20
Modify  | 0          | 0          | 0          |   0.0 |  0.00
Other   |            | 0.8217     |            |       | 14.09

Nlocal:    8 ave 8 max 8 min
Histogram: 1 0 0 0 0 0 0 0 0 0
Nghost:    1702 ave 1702 max 1702 min
Histogram: 1 0 0 0 0 0 0 0 0 0
Neighs:    2088 ave 2088 max 2088 min
Histogram: 1 0 0 0 0 0 0 0 0 0

Total # of neighbors = 2088
Ave neighs/atom = 261
Neighbor list builds = 11
Dangerous builds = 0
# ---- define output variables ----
variable natoms equal "count(all)"
variable tot_energy equal "c_eatoms"
variable a11 equal "xhi-xlo"
variable a22 equal "yhi-ylo"
variable a33 equal "zhi-zlo"
variable tilt_xy equal "xy"
variable tilt_xz equal "xz"
variable tilt_yz equal "yz"
variable tot_press equal "press"
variable press_xx equal "pxx"
variable press_yy equal "pyy"
variable press_zz equal "pzz"
variable press_xy equal "pxy"
variable press_xz equal "pxz"
variable press_yz equal "pyz"

# ---- output ----
print "pypospack:output_section:begin"
pypospack:output_section:begin
print "tot_energy = ${tot_energy}"
tot_energy = -35.9982960207276
print "num_atoms = ${natoms}"
num_atoms = 8
print "a11 = ${a11}"
a11 = 8.10242956063516
print "a22 = ${a22}"
a22 = 2.48047579902687
print "a33 = ${a33}"
a33 = 4.29652745361499
print "a12 = ${tilt_xy}"
a12 = 0
print "a13 = ${tilt_xz}"
a13 = 0
print "a23 = ${tilt_yz}"
a23 = 0
print "tot_press = ${tot_press}"
tot_press = 4.02362923276761
print "pxx = ${press_xx}"
pxx = 3.62543375038526
print "pyy = ${press_yy}"
pyy = 4.64945212122437
print "pzz = ${press_zz}"
pzz = 3.7960018266932
print "pxy = ${press_xy}"
pxy = 6.70607971052249e-11
print "pxz = ${press_xz}"
pxz = -5.68439954809245e-11
print "pyz = ${press_yz}"
pyz = -0.00661499241683609
print "pypospack:output_section:done"
pypospack:output_section:done
print "pypospack:lammps_sim:done"
pypospack:lammps_sim:done
Total wall time: 0:00:05
