# ['Ni']

10 atoms
1 atom types

    0.0000     3.6447 xlo xhi
    0.0000     2.6090 ylo yhi
    0.0000    26.0904 zlo zhi

    0.0000     0.0000     0.0000 xy xz yz

Atoms

1 1     0.0000     0.0000     0.0000
2 1     1.8224     1.3045     1.3045
3 1     0.0000     0.0000     2.6090
4 1     1.8224     1.3045     3.9136
5 1     0.0000     0.0000     5.2181
6 1     1.8224     1.3045     6.5226
7 1     0.0000     0.0000     7.8271
8 1     1.8224     1.3045     9.1316
9 1     0.0000     0.0000    10.4362
10 1     1.8224     1.3045    11.7407
