# ['Ni']

107 atoms
1 atom types

    0.0000     8.3373 xlo xhi
    0.0000     8.3373 ylo yhi
    0.0000     8.3373 zlo zhi

    0.0000    -0.0000    -0.0000 xy xz yz

Atoms

1 1     1.3896     1.3896     0.0000
2 1     1.3896     0.0000     1.3896
3 1     0.0000     1.3896     1.3896
4 1     0.0000     0.0000     2.7791
5 1     1.3896     1.3896     2.7791
6 1     1.3896     0.0000     4.1687
7 1     0.0000     1.3896     4.1687
8 1     0.0000     0.0000     5.5582
9 1     1.3896     1.3896     5.5582
10 1     1.3896     0.0000     6.9478
11 1     0.0000     1.3896     6.9478
12 1     0.0000     2.7791     0.0000
13 1     1.3896     4.1687     0.0000
14 1     1.3896     2.7791     1.3896
15 1     0.0000     4.1687     1.3896
16 1     0.0000     2.7791     2.7791
17 1     1.3896     4.1687     2.7791
18 1     1.3896     2.7791     4.1687
19 1     0.0000     4.1687     4.1687
20 1     0.0000     2.7791     5.5582
21 1     1.3896     4.1687     5.5582
22 1     1.3896     2.7791     6.9478
23 1     0.0000     4.1687     6.9478
24 1     0.0000     5.5582     0.0000
25 1     1.3896     6.9478     0.0000
26 1     1.3896     5.5582     1.3896
27 1     0.0000     6.9478     1.3896
28 1     0.0000     5.5582     2.7791
29 1     1.3896     6.9478     2.7791
30 1     1.3896     5.5582     4.1687
31 1     0.0000     6.9478     4.1687
32 1     0.0000     5.5582     5.5582
33 1     1.3896     6.9478     5.5582
34 1     1.3896     5.5582     6.9478
35 1     0.0000     6.9478     6.9478
36 1     2.7791     0.0000     0.0000
37 1     4.1687     1.3896     0.0000
38 1     4.1687     0.0000     1.3896
39 1     2.7791     1.3896     1.3896
40 1     2.7791     0.0000     2.7791
41 1     4.1687     1.3896     2.7791
42 1     4.1687     0.0000     4.1687
43 1     2.7791     1.3896     4.1687
44 1     2.7791     0.0000     5.5582
45 1     4.1687     1.3896     5.5582
46 1     4.1687     0.0000     6.9478
47 1     2.7791     1.3896     6.9478
48 1     2.7791     2.7791     0.0000
49 1     4.1687     4.1687     0.0000
50 1     4.1687     2.7791     1.3896
51 1     2.7791     4.1687     1.3896
52 1     2.7791     2.7791     2.7791
53 1     4.1687     4.1687     2.7791
54 1     4.1687     2.7791     4.1687
55 1     2.7791     4.1687     4.1687
56 1     2.7791     2.7791     5.5582
57 1     4.1687     4.1687     5.5582
58 1     4.1687     2.7791     6.9478
59 1     2.7791     4.1687     6.9478
60 1     2.7791     5.5582     0.0000
61 1     4.1687     6.9478     0.0000
62 1     4.1687     5.5582     1.3896
63 1     2.7791     6.9478     1.3896
64 1     2.7791     5.5582     2.7791
65 1     4.1687     6.9478     2.7791
66 1     4.1687     5.5582     4.1687
67 1     2.7791     6.9478     4.1687
68 1     2.7791     5.5582     5.5582
69 1     4.1687     6.9478     5.5582
70 1     4.1687     5.5582     6.9478
71 1     2.7791     6.9478     6.9478
72 1     5.5582     0.0000     0.0000
73 1     6.9478     1.3896     0.0000
74 1     6.9478     0.0000     1.3896
75 1     5.5582     1.3896     1.3896
76 1     5.5582     0.0000     2.7791
77 1     6.9478     1.3896     2.7791
78 1     6.9478     0.0000     4.1687
79 1     5.5582     1.3896     4.1687
80 1     5.5582     0.0000     5.5582
81 1     6.9478     1.3896     5.5582
82 1     6.9478     0.0000     6.9478
83 1     5.5582     1.3896     6.9478
84 1     5.5582     2.7791     0.0000
85 1     6.9478     4.1687     0.0000
86 1     6.9478     2.7791     1.3896
87 1     5.5582     4.1687     1.3896
88 1     5.5582     2.7791     2.7791
89 1     6.9478     4.1687     2.7791
90 1     6.9478     2.7791     4.1687
91 1     5.5582     4.1687     4.1687
92 1     5.5582     2.7791     5.5582
93 1     6.9478     4.1687     5.5582
94 1     6.9478     2.7791     6.9478
95 1     5.5582     4.1687     6.9478
96 1     5.5582     5.5582     0.0000
97 1     6.9478     6.9478     0.0000
98 1     6.9478     5.5582     1.3896
99 1     5.5582     6.9478     1.3896
100 1     5.5582     5.5582     2.7791
101 1     6.9478     6.9478     2.7791
102 1     6.9478     5.5582     4.1687
103 1     5.5582     6.9478     4.1687
104 1     5.5582     5.5582     5.5582
105 1     6.9478     6.9478     5.5582
106 1     6.9478     5.5582     6.9478
107 1     5.5582     6.9478     6.9478
