LAMMPS (11 Aug 2017)
# ---- initialize simulations
clear
units metal
dimension 3
boundary p p p
atom_style atomic
atom_modify map array
# ---- create atoms
read_data /ufrc/phillpot/eragasa/pareto_optimization_3.5NN/rank_18/Ni_fcc_vac.lmps_min_pos/lammps.structure
  triclinic box = (0 0 0) to (8.3373 8.3373 8.3373) with tilt (0 -0 -0)
  1 by 1 by 1 MPI processor grid
  reading atoms ...
  107 atoms
# ---- define interatomic potential
include potential.mod
mass 1 58.6934

group Ni type 1
107 atoms in group Ni

pair_style eam/alloy
pair_coeff * * /ufrc/phillpot/eragasa/pareto_optimization_3.5NN/rank_18/Ni_fcc_vac.lmps_min_pos/Ni.eam.alloy Ni

neighbor 1.0 bin
neigh_modify every 1 delay 0 check yes
# ---- define settings
compute eng all pe/atom
compute eatoms all reduce sum c_eng

# ---- run minimization
reset_timestep 0
thermo 1
thermo_style custom step pe lx ly lz xy xz yz press pxx pyy pzz pxy pxz pyz c_eatoms
min_style cg
minimize 1e-20 1e-20 1000 100000
Neighbor list info ...
  update every 1 steps, delay 0 steps, check yes
  max neighbors/atom: 2000, page size: 100000
  master list distance cutoff = 5.64464
  ghost atom cutoff = 5.64464
  binsize = 2.82232, bins = 3 3 3
  1 neighbor lists, perpetual/occasional/extra = 1 0 0
  (1) pair eam/alloy, perpetual
      attributes: half, newton on
      pair build: half/bin/newton/tri
      stencil: half/bin/3d/newton/tri
      bin: standard
Per MPI rank memory allocation (min/avg/max) = 4.269 | 4.269 | 4.269 Mbytes
Step PotEng Lx Ly Lz Xy Xz Yz Press Pxx Pyy Pzz Pxy Pxz Pyz c_eatoms 
       0   -705.23192       8.3373       8.3373       8.3373            0           -0           -0    24.507836    24.507836    24.507836    24.507836 -0.00034286368 -0.0003428636 -0.00034286359   -705.23192 
       1   -705.37133       8.3373       8.3373       8.3373            0           -0           -0   -2428.6251   -2428.6251   -2428.6251   -2428.6251 -0.00018134088 -0.00018134086 -0.00018134084   -705.37133 
       2   -705.39904       8.3373       8.3373       8.3373            0           -0           -0    -3126.643    -3126.643    -3126.643    -3126.643 -0.00021975912 -0.00021975912 -0.0002197592   -705.39904 
       3   -705.40371       8.3373       8.3373       8.3373            0           -0           -0    -3357.166    -3357.166    -3357.166    -3357.166 -0.00017454025 -0.00017454019 -0.00017454015   -705.40371 
       4   -705.40513       8.3373       8.3373       8.3373            0           -0           -0   -3392.8929   -3392.8929   -3392.8929   -3392.8929 -0.00011414872 -0.00011414869 -0.00011414872   -705.40513 
       5   -705.40538       8.3373       8.3373       8.3373            0           -0           -0   -3397.0781   -3397.0781   -3397.0781   -3397.0781 -3.2491695e-05 -3.2491641e-05 -3.2491639e-05   -705.40538 
       6   -705.40543       8.3373       8.3373       8.3373            0           -0           -0   -3414.6892   -3414.6892   -3414.6892   -3414.6892 -4.8032835e-05 -4.803278e-05 -4.8032809e-05   -705.40543 
       7   -705.40543       8.3373       8.3373       8.3373            0           -0           -0   -3418.5514   -3418.5514   -3418.5514   -3418.5514 -3.1338463e-05 -3.133837e-05 -3.133838e-05   -705.40543 
       8   -705.40543       8.3373       8.3373       8.3373            0           -0           -0   -3419.1253   -3419.1253   -3419.1253   -3419.1253 -2.4027075e-05 -2.4027058e-05 -2.4027138e-05   -705.40543 
       9   -705.40543       8.3373       8.3373       8.3373            0           -0           -0    -3418.585    -3418.585    -3418.585    -3418.585 -1.3795057e-05 -1.3795054e-05 -1.3795129e-05   -705.40543 
      10   -705.40543       8.3373       8.3373       8.3373            0           -0           -0   -3418.7163   -3418.7163   -3418.7163   -3418.7163 -9.9446989e-06 -9.9447415e-06 -9.9446519e-06   -705.40543 
      11   -705.40543       8.3373       8.3373       8.3373            0           -0           -0   -3418.9006   -3418.9006   -3418.9006   -3418.9006 -5.9110995e-06 -5.9110472e-06 -5.9110375e-06   -705.40543 
      12   -705.40543       8.3373       8.3373       8.3373            0           -0           -0   -3418.9179   -3418.9179   -3418.9179   -3418.9179 -4.1712988e-06 -4.1713379e-06 -4.1712887e-06   -705.40543 
      13   -705.40543       8.3373       8.3373       8.3373            0           -0           -0   -3418.9117   -3418.9117   -3418.9117   -3418.9117 -2.9625096e-06 -2.9625601e-06 -2.9625572e-06   -705.40543 
      14   -705.40543       8.3373       8.3373       8.3373            0           -0           -0   -3418.9127   -3418.9127   -3418.9127   -3418.9127 -2.3630493e-06 -2.3631526e-06 -2.3630973e-06   -705.40543 
      15   -705.40543       8.3373       8.3373       8.3373            0           -0           -0    -3418.913    -3418.913    -3418.913    -3418.913 -1.9159215e-06 -1.9159997e-06 -1.9159607e-06   -705.40543 
      16   -705.40543       8.3373       8.3373       8.3373            0           -0           -0    -3418.913    -3418.913    -3418.913    -3418.913 -1.242994e-06 -1.2431286e-06 -1.2430971e-06   -705.40543 
      17   -705.40543       8.3373       8.3373       8.3373            0           -0           -0   -3418.9132   -3418.9132   -3418.9132   -3418.9132 4.529651e-07 4.5309754e-07 4.5307253e-07   -705.40543 
      18   -705.40543       8.3373       8.3373       8.3373            0           -0           -0   -3418.9132   -3418.9132   -3418.9132   -3418.9132 4.5969738e-07 4.5966807e-07 4.597359e-07   -705.40543 
      19   -705.40543       8.3373       8.3373       8.3373            0           -0           -0   -3418.9132   -3418.9132   -3418.9132   -3418.9132 3.6341787e-07 3.6342354e-07 3.6342707e-07   -705.40543 
      20   -705.40543       8.3373       8.3373       8.3373            0           -0           -0   -3418.9131   -3418.9131   -3418.9131   -3418.9131 2.5392609e-07 2.5387775e-07 2.538535e-07   -705.40543 
      21   -705.40543       8.3373       8.3373       8.3373            0           -0           -0    -3418.913    -3418.913    -3418.913    -3418.913 1.9685441e-07 1.9693514e-07 1.9696798e-07   -705.40543 
      22   -705.40543       8.3373       8.3373       8.3373            0           -0           -0    -3418.913    -3418.913    -3418.913    -3418.913 9.3363648e-08 9.3340628e-08 9.3361499e-08   -705.40543 
      23   -705.40543       8.3373       8.3373       8.3373            0           -0           -0   -3418.9131   -3418.9131   -3418.9131   -3418.9131 5.8240479e-08 5.8308465e-08 5.8290509e-08   -705.40543 
      24   -705.40543       8.3373       8.3373       8.3373            0           -0           -0   -3418.9131   -3418.9131   -3418.9131   -3418.9131 3.9668086e-08 3.9708141e-08 3.9692334e-08   -705.40543 
      25   -705.40543       8.3373       8.3373       8.3373            0           -0           -0   -3418.9131   -3418.9131   -3418.9131   -3418.9131 2.2527538e-08 2.2639722e-08 2.270203e-08   -705.40543 
      26   -705.40543       8.3373       8.3373       8.3373            0           -0           -0   -3418.9131   -3418.9131   -3418.9131   -3418.9131 1.578114e-08 1.5809071e-08 1.579265e-08   -705.40543 
      27   -705.40543       8.3373       8.3373       8.3373            0           -0           -0   -3418.9131   -3418.9131   -3418.9131   -3418.9131 1.0763084e-08 1.0761242e-08 1.0723029e-08   -705.40543 
      28   -705.40543       8.3373       8.3373       8.3373            0           -0           -0   -3418.9131   -3418.9131   -3418.9131   -3418.9131 5.1386808e-09 5.1989932e-09 5.2263103e-09   -705.40543 
      29   -705.40543       8.3373       8.3373       8.3373            0           -0           -0   -3418.9131   -3418.9131   -3418.9131   -3418.9131 2.6233607e-09 2.7358518e-09 2.6784552e-09   -705.40543 
      30   -705.40543       8.3373       8.3373       8.3373            0           -0           -0   -3418.9131   -3418.9131   -3418.9131   -3418.9131 1.5188605e-09 1.6325793e-09 1.601579e-09   -705.40543 
      31   -705.40543       8.3373       8.3373       8.3373            0           -0           -0   -3418.9131   -3418.9131   -3418.9131   -3418.9131 1.3417598e-09 1.4155773e-09 1.4738947e-09   -705.40543 
      32   -705.40543       8.3373       8.3373       8.3373            0           -0           -0   -3418.9131   -3418.9131   -3418.9131   -3418.9131 1.1626641e-09 1.1715652e-09 1.1018913e-09   -705.40543 
      33   -705.40543       8.3373       8.3373       8.3373            0           -0           -0   -3418.9131   -3418.9131   -3418.9131   -3418.9131 7.4231868e-10 8.3854234e-10 9.0852318e-10   -705.40543 
      34   -705.40543       8.3373       8.3373       8.3373            0           -0           -0   -3418.9131   -3418.9131   -3418.9131   -3418.9131 5.0475215e-10 5.1442056e-10 5.5217338e-10   -705.40543 
      35   -705.40543       8.3373       8.3373       8.3373            0           -0           -0   -3418.9131   -3418.9131   -3418.9131   -3418.9131 4.6024679e-10 2.931215e-10 3.6340927e-10   -705.40543 
      36   -705.40543       8.3373       8.3373       8.3373            0           -0           -0   -3418.9131   -3418.9131   -3418.9131   -3418.9131 9.6684054e-11 2.4738841e-10 1.5101129e-10   -705.40543 
      37   -705.40543       8.3373       8.3373       8.3373            0           -0           -0   -3418.9131   -3418.9131   -3418.9131   -3418.9131 1.0742673e-12 6.1693635e-11 5.0797495e-11   -705.40543 
      38   -705.40543       8.3373       8.3373       8.3373            0           -0           -0   -3418.9131   -3418.9131   -3418.9131   -3418.9131 1.4425875e-11 -2.6242815e-11 4.7421227e-11   -705.40543 
      39   -705.40543       8.3373       8.3373       8.3373            0           -0           -0   -3418.9131   -3418.9131   -3418.9131   -3418.9131 4.0975623e-11 -2.7470549e-11 -1.703481e-11   -705.40543 
Loop time of 0.0507281 on 1 procs for 39 steps with 107 atoms

60.6% CPU use with 1 MPI tasks x no OpenMP threads

Minimization stats:
  Stopping criterion = energy tolerance
  Energy initial, next-to-last, final = 
        -705.231921323     -705.405434145     -705.405434145
  Force two-norm initial, final = 2.46313 1.5574e-13
  Force max component initial, final = 0.475741 2.92266e-14
  Final line search alpha, max atom move = 1 2.92266e-14
  Iterations, force evaluations = 39 78

MPI task timing breakdown:
Section |  min time  |  avg time  |  max time  |%varavg| %total
---------------------------------------------------------------
Pair    | 0.048699   | 0.048699   | 0.048699   |   0.0 | 96.00
Neigh   | 0          | 0          | 0          |   0.0 |  0.00
Comm    | 0.00057721 | 0.00057721 | 0.00057721 |   0.0 |  1.14
Output  | 0.0011501  | 0.0011501  | 0.0011501  |   0.0 |  2.27
Modify  | 0          | 0          | 0          |   0.0 |  0.00
Other   |            | 0.0003014  |            |       |  0.59

Nlocal:    107 ave 107 max 107 min
Histogram: 1 0 0 0 0 0 0 0 0 0
Nghost:    1573 ave 1573 max 1573 min
Histogram: 1 0 0 0 0 0 0 0 0 0
Neighs:    7420 ave 7420 max 7420 min
Histogram: 1 0 0 0 0 0 0 0 0 0

Total # of neighbors = 7420
Ave neighs/atom = 69.3458
Neighbor list builds = 0
Dangerous builds = 0

# ---- define output variables ----
variable natoms equal "count(all)"
variable tot_energy equal "c_eatoms"
variable a11 equal "xhi-xlo"
variable a22 equal "yhi-ylo"
variable a33 equal "zhi-zlo"
variable tilt_xy equal "xy"
variable tilt_xz equal "xz"
variable tilt_yz equal "yz"
variable tot_press equal "press"
variable press_xx equal "pxx"
variable press_yy equal "pyy"
variable press_zz equal "pzz"
variable press_xy equal "pxy"
variable press_xz equal "pxz"
variable press_yz equal "pyz"

# ---- output ----
print "pypospack:output_section:begin"
pypospack:output_section:begin
print "tot_energy = ${tot_energy}"
tot_energy = -705.405434144729
print "num_atoms = ${natoms}"
num_atoms = 107
print "a11 = ${a11}"
a11 = 8.3373
print "a22 = ${a22}"
a22 = 8.3373
print "a33 = ${a33}"
a33 = 8.3373
print "a12 = ${tilt_xy}"
a12 = 0
print "a13 = ${tilt_xz}"
a13 = -0
print "a23 = ${tilt_yz}"
a23 = -0
print "tot_press = ${tot_press}"
tot_press = -3418.91305822227
print "pxx = ${press_xx}"
pxx = -3418.91305822222
print "pyy = ${press_yy}"
pyy = -3418.91305822234
print "pzz = ${press_zz}"
pzz = -3418.91305822225
print "pxy = ${press_xy}"
pxy = 4.09756230681672e-11
print "pxz = ${press_xz}"
pxz = -2.74705487985091e-11
print "pyz = ${press_yz}"
pyz = -1.70348095901369e-11
print "pypospack:output_section:done"
pypospack:output_section:done
print "pypospack:lammps_sim:done"
pypospack:lammps_sim:done
Total wall time: 0:00:00
