# ['Si']

215 atoms
1 atom types

    0.0000    89.4134 xlo xhi
    0.0000    89.4134 ylo yhi
    0.0000    89.4134 zlo zhi

    0.0000     0.0000     0.0000 xy xz yz

Atoms

1 1     7.4511     7.4511     7.4511
2 1     0.0000    14.9023    14.9023
3 1     7.4511    22.3533    22.3533
4 1    14.9023     0.0000    14.9023
5 1    22.3533     7.4511    22.3533
6 1    14.9023    14.9023     0.0000
7 1    22.3533    22.3533     7.4511
8 1     0.0000     0.0000    29.8044
9 1     7.4511     7.4511    37.2556
10 1     0.0000    14.9023    44.7067
11 1     7.4511    22.3533    52.1578
12 1    14.9023     0.0000    44.7067
13 1    22.3533     7.4511    52.1578
14 1    14.9023    14.9023    29.8044
15 1    22.3533    22.3533    37.2556
16 1     0.0000     0.0000    59.6089
17 1     7.4511     7.4511    67.0600
18 1     0.0000    14.9023    74.5111
19 1     7.4511    22.3533    81.9623
20 1    14.9023     0.0000    74.5111
21 1    22.3533     7.4511    81.9623
22 1    14.9023    14.9023    59.6089
23 1    22.3533    22.3533    67.0600
24 1     0.0000    29.8044     0.0000
25 1     7.4511    37.2556     7.4511
26 1     0.0000    44.7067    14.9023
27 1     7.4511    52.1578    22.3533
28 1    14.9023    29.8044    14.9023
29 1    22.3533    37.2556    22.3533
30 1    14.9023    44.7067     0.0000
31 1    22.3533    52.1578     7.4511
32 1     0.0000    29.8044    29.8044
33 1     7.4511    37.2556    37.2556
34 1     0.0000    44.7067    44.7067
35 1     7.4511    52.1578    52.1578
36 1    14.9023    29.8044    44.7067
37 1    22.3533    37.2556    52.1578
38 1    14.9023    44.7067    29.8044
39 1    22.3533    52.1578    37.2556
40 1     0.0000    29.8044    59.6089
41 1     7.4511    37.2556    67.0600
42 1     0.0000    44.7067    74.5111
43 1     7.4511    52.1578    81.9623
44 1    14.9023    29.8044    74.5111
45 1    22.3533    37.2556    81.9623
46 1    14.9023    44.7067    59.6089
47 1    22.3533    52.1578    67.0600
48 1     0.0000    59.6089     0.0000
49 1     7.4511    67.0600     7.4511
50 1     0.0000    74.5111    14.9023
51 1     7.4511    81.9623    22.3533
52 1    14.9023    59.6089    14.9023
53 1    22.3533    67.0600    22.3533
54 1    14.9023    74.5111     0.0000
55 1    22.3533    81.9623     7.4511
56 1     0.0000    59.6089    29.8044
57 1     7.4511    67.0600    37.2556
58 1     0.0000    74.5111    44.7067
59 1     7.4511    81.9623    52.1578
60 1    14.9023    59.6089    44.7067
61 1    22.3533    67.0600    52.1578
62 1    14.9023    74.5111    29.8044
63 1    22.3533    81.9623    37.2556
64 1     0.0000    59.6089    59.6089
65 1     7.4511    67.0600    67.0600
66 1     0.0000    74.5111    74.5111
67 1     7.4511    81.9623    81.9623
68 1    14.9023    59.6089    74.5111
69 1    22.3533    67.0600    81.9623
70 1    14.9023    74.5111    59.6089
71 1    22.3533    81.9623    67.0600
72 1    29.8044     0.0000     0.0000
73 1    37.2556     7.4511     7.4511
74 1    29.8044    14.9023    14.9023
75 1    37.2556    22.3533    22.3533
76 1    44.7067     0.0000    14.9023
77 1    52.1578     7.4511    22.3533
78 1    44.7067    14.9023     0.0000
79 1    52.1578    22.3533     7.4511
80 1    29.8044     0.0000    29.8044
81 1    37.2556     7.4511    37.2556
82 1    29.8044    14.9023    44.7067
83 1    37.2556    22.3533    52.1578
84 1    44.7067     0.0000    44.7067
85 1    52.1578     7.4511    52.1578
86 1    44.7067    14.9023    29.8044
87 1    52.1578    22.3533    37.2556
88 1    29.8044     0.0000    59.6089
89 1    37.2556     7.4511    67.0600
90 1    29.8044    14.9023    74.5111
91 1    37.2556    22.3533    81.9623
92 1    44.7067     0.0000    74.5111
93 1    52.1578     7.4511    81.9623
94 1    44.7067    14.9023    59.6089
95 1    52.1578    22.3533    67.0600
96 1    29.8044    29.8044     0.0000
97 1    37.2556    37.2556     7.4511
98 1    29.8044    44.7067    14.9023
99 1    37.2556    52.1578    22.3533
100 1    44.7067    29.8044    14.9023
101 1    52.1578    37.2556    22.3533
102 1    44.7067    44.7067     0.0000
103 1    52.1578    52.1578     7.4511
104 1    29.8044    29.8044    29.8044
105 1    37.2556    37.2556    37.2556
106 1    29.8044    44.7067    44.7067
107 1    37.2556    52.1578    52.1578
108 1    44.7067    29.8044    44.7067
109 1    52.1578    37.2556    52.1578
110 1    44.7067    44.7067    29.8044
111 1    52.1578    52.1578    37.2556
112 1    29.8044    29.8044    59.6089
113 1    37.2556    37.2556    67.0600
114 1    29.8044    44.7067    74.5111
115 1    37.2556    52.1578    81.9623
116 1    44.7067    29.8044    74.5111
117 1    52.1578    37.2556    81.9623
118 1    44.7067    44.7067    59.6089
119 1    52.1578    52.1578    67.0600
120 1    29.8044    59.6089     0.0000
121 1    37.2556    67.0600     7.4511
122 1    29.8044    74.5111    14.9023
123 1    37.2556    81.9623    22.3533
124 1    44.7067    59.6089    14.9023
125 1    52.1578    67.0600    22.3533
126 1    44.7067    74.5111     0.0000
127 1    52.1578    81.9623     7.4511
128 1    29.8044    59.6089    29.8044
129 1    37.2556    67.0600    37.2556
130 1    29.8044    74.5111    44.7067
131 1    37.2556    81.9623    52.1578
132 1    44.7067    59.6089    44.7067
133 1    52.1578    67.0600    52.1578
134 1    44.7067    74.5111    29.8044
135 1    52.1578    81.9623    37.2556
136 1    29.8044    59.6089    59.6089
137 1    37.2556    67.0600    67.0600
138 1    29.8044    74.5111    74.5111
139 1    37.2556    81.9623    81.9623
140 1    44.7067    59.6089    74.5111
141 1    52.1578    67.0600    81.9623
142 1    44.7067    74.5111    59.6089
143 1    52.1578    81.9623    67.0600
144 1    59.6089     0.0000     0.0000
145 1    67.0600     7.4511     7.4511
146 1    59.6089    14.9023    14.9023
147 1    67.0600    22.3533    22.3533
148 1    74.5111     0.0000    14.9023
149 1    81.9623     7.4511    22.3533
150 1    74.5111    14.9023     0.0000
151 1    81.9623    22.3533     7.4511
152 1    59.6089     0.0000    29.8044
153 1    67.0600     7.4511    37.2556
154 1    59.6089    14.9023    44.7067
155 1    67.0600    22.3533    52.1578
156 1    74.5111     0.0000    44.7067
157 1    81.9623     7.4511    52.1578
158 1    74.5111    14.9023    29.8044
159 1    81.9623    22.3533    37.2556
160 1    59.6089     0.0000    59.6089
161 1    67.0600     7.4511    67.0600
162 1    59.6089    14.9023    74.5111
163 1    67.0600    22.3533    81.9623
164 1    74.5111     0.0000    74.5111
165 1    81.9623     7.4511    81.9623
166 1    74.5111    14.9023    59.6089
167 1    81.9623    22.3533    67.0600
168 1    59.6089    29.8044     0.0000
169 1    67.0600    37.2556     7.4511
170 1    59.6089    44.7067    14.9023
171 1    67.0600    52.1578    22.3533
172 1    74.5111    29.8044    14.9023
173 1    81.9623    37.2556    22.3533
174 1    74.5111    44.7067     0.0000
175 1    81.9623    52.1578     7.4511
176 1    59.6089    29.8044    29.8044
177 1    67.0600    37.2556    37.2556
178 1    59.6089    44.7067    44.7067
179 1    67.0600    52.1578    52.1578
180 1    74.5111    29.8044    44.7067
181 1    81.9623    37.2556    52.1578
182 1    74.5111    44.7067    29.8044
183 1    81.9623    52.1578    37.2556
184 1    59.6089    29.8044    59.6089
185 1    67.0600    37.2556    67.0600
186 1    59.6089    44.7067    74.5111
187 1    67.0600    52.1578    81.9623
188 1    74.5111    29.8044    74.5111
189 1    81.9623    37.2556    81.9623
190 1    74.5111    44.7067    59.6089
191 1    81.9623    52.1578    67.0600
192 1    59.6089    59.6089     0.0000
193 1    67.0600    67.0600     7.4511
194 1    59.6089    74.5111    14.9023
195 1    67.0600    81.9623    22.3533
196 1    74.5111    59.6089    14.9023
197 1    81.9623    67.0600    22.3533
198 1    74.5111    74.5111     0.0000
199 1    81.9623    81.9623     7.4511
200 1    59.6089    59.6089    29.8044
201 1    67.0600    67.0600    37.2556
202 1    59.6089    74.5111    44.7067
203 1    67.0600    81.9623    52.1578
204 1    74.5111    59.6089    44.7067
205 1    81.9623    67.0600    52.1578
206 1    74.5111    74.5111    29.8044
207 1    81.9623    81.9623    37.2556
208 1    59.6089    59.6089    59.6089
209 1    67.0600    67.0600    67.0600
210 1    59.6089    74.5111    74.5111
211 1    67.0600    81.9623    81.9623
212 1    74.5111    59.6089    74.5111
213 1    81.9623    67.0600    81.9623
214 1    74.5111    74.5111    59.6089
215 1    81.9623    81.9623    67.0600
