automatically generated by pyflamestk   
           1
     9.525562   -0.000000    0.000000
    -0.000000    9.525562    0.000000
    -0.000000   -0.000000    9.525562
   Ni
   8
Direct configuration=     1
   0.00000000  0.00000000  0.00000000
   0.25000000  0.25000000  0.25000000
   0.00000000  0.50000000  0.50000000
   0.25000000  0.75000000  0.75000000
   0.50000000  0.00000000  0.50000000
   0.75000000  0.25000000  0.75000000
   0.50000000  0.50000000  0.00000000
   0.75000000  0.75000000  0.25000000
automatically generated by pyflamestk   
           1
     5.087409   -0.000000    0.000000
    -0.000000    5.087409    0.000000
    -0.000000   -0.000000    5.087409
   Ni
   8
Direct configuration=     2
  -0.00000000  0.00000000 -0.00000000
   0.25000000  0.25000000  0.25000000
  -0.00000000  0.50000000  0.50000000
   0.25000000  0.75000000  0.75000000
   0.50000000  0.00000000  0.50000000
   0.75000000  0.25000000  0.75000000
   0.50000000  0.50000000 -0.00000000
   0.75000000  0.75000000  0.25000000
automatically generated by pyflamestk   
           1
     3.903922   -0.000000    0.000000
    -0.000000    3.903922    0.000000
    -0.000000   -0.000000    3.903922
   Ni
   8
Direct configuration=     3
  -0.00000000  0.00000000 -0.00000000
   0.25000000  0.25000000  0.25000000
  -0.00000000  0.50000000  0.50000000
   0.25000000  0.75000000  0.75000000
   0.50000000  0.00000000  0.50000000
   0.75000000  0.25000000  0.75000000
   0.50000000  0.50000000 -0.00000000
   0.75000000  0.75000000  0.25000000
automatically generated by pyflamestk   
           1
     4.194264   -0.000000    0.000000
    -0.000000    4.194264    0.000000
    -0.000000   -0.000000    4.194264
   Ni
   8
Direct configuration=     4
  -0.00000000  0.00000000 -0.00000000
   0.25000000  0.25000000  0.25000000
  -0.00000000  0.50000000  0.50000000
   0.25000000  0.75000000  0.75000000
   0.50000000  0.00000000  0.50000000
   0.75000000  0.25000000  0.75000000
   0.50000000  0.50000000 -0.00000000
   0.75000000  0.75000000  0.25000000
automatically generated by pyflamestk   
           1
     4.179533   -0.000000    0.000000
    -0.000000    4.179533    0.000000
    -0.000000   -0.000000    4.179533
   Ni
   8
Direct configuration=     5
  -0.00000000  0.00000000 -0.00000000
   0.25000000  0.25000000  0.25000000
  -0.00000000  0.50000000  0.50000000
   0.25000000  0.75000000  0.75000000
   0.50000000  0.00000000  0.50000000
   0.75000000  0.25000000  0.75000000
   0.50000000  0.50000000 -0.00000000
   0.75000000  0.75000000  0.25000000
automatically generated by pyflamestk   
           1
     4.180978   -0.000000    0.000000
    -0.000000    4.180978    0.000000
    -0.000000   -0.000000    4.180978
   Ni
   8
Direct configuration=     6
  -0.00000000  0.00000000 -0.00000000
   0.25000000  0.25000000  0.25000000
  -0.00000000  0.50000000  0.50000000
   0.25000000  0.75000000  0.75000000
   0.50000000  0.00000000  0.50000000
   0.75000000  0.25000000  0.75000000
   0.50000000  0.50000000 -0.00000000
   0.75000000  0.75000000  0.25000000
automatically generated by pyflamestk   
           1
     4.180879   -0.000000    0.000000
    -0.000000    4.180879    0.000000
    -0.000000   -0.000000    4.180879
   Ni
   8
Direct configuration=     7
  -0.00000000  0.00000000 -0.00000000
   0.25000000  0.25000000  0.25000000
  -0.00000000  0.50000000  0.50000000
   0.25000000  0.75000000  0.75000000
   0.50000000  0.00000000  0.50000000
   0.75000000  0.25000000  0.75000000
   0.50000000  0.50000000 -0.00000000
   0.75000000  0.75000000  0.25000000
automatically generated by pyflamestk   
           1
     4.180899   -0.000000    0.000000
    -0.000000    4.180899    0.000000
    -0.000000   -0.000000    4.180899
   Ni
   8
Direct configuration=     8
  -0.00000000  0.00000000 -0.00000000
   0.25000000  0.25000000  0.25000000
  -0.00000000  0.50000000  0.50000000
   0.25000000  0.75000000  0.75000000
   0.50000000  0.00000000  0.50000000
   0.75000000  0.25000000  0.75000000
   0.50000000  0.50000000 -0.00000000
   0.75000000  0.75000000  0.25000000
automatically generated by pyflamestk   
           1
     4.180884   -0.000000    0.000000
    -0.000000    4.180884    0.000000
    -0.000000   -0.000000    4.180884
   Ni
   8
Direct configuration=     9
  -0.00000000  0.00000000 -0.00000000
   0.25000000  0.25000000  0.25000000
  -0.00000000  0.50000000  0.50000000
   0.25000000  0.75000000  0.75000000
   0.50000000  0.00000000  0.50000000
   0.75000000  0.25000000  0.75000000
   0.50000000  0.50000000 -0.00000000
   0.75000000  0.75000000  0.25000000
automatically generated by pyflamestk   
           1
     4.180884   -0.000000    0.000000
    -0.000000    4.180884    0.000000
    -0.000000   -0.000000    4.180884
   Ni
   8
Direct configuration=    10
  -0.00000000  0.00000000 -0.00000000
   0.25000000  0.25000000  0.25000000
  -0.00000000  0.50000000  0.50000000
   0.25000000  0.75000000  0.75000000
   0.50000000  0.00000000  0.50000000
   0.75000000  0.25000000  0.75000000
   0.50000000  0.50000000 -0.00000000
   0.75000000  0.75000000  0.25000000
