LAMMPS (11 Aug 2017)
Reading data file ...
  triclinic box = (0 0 0) to (3.5167 3.5167 3.5167) with tilt (0 -0 0)
  1 by 1 by 1 MPI processor grid
  reading atoms ...
  4 atoms
4 atoms in group Ni
Neighbor list info ...
  update every 1 steps, delay 0 steps, check yes
  max neighbors/atom: 2000, page size: 100000
  master list distance cutoff = 5.64464
  ghost atom cutoff = 5.64464
  binsize = 2.82232, bins = 2 2 2
  1 neighbor lists, perpetual/occasional/extra = 1 0 0
  (1) pair eam/alloy, perpetual
      attributes: half, newton on
      pair build: half/bin/newton/tri
      stencil: half/bin/3d/newton/tri
      bin: standard
Setting up cg style minimization ...
  Unit style    : metal
  Current step  : 0
WARNING: Energy due to 3 extra global DOFs will be included in minimizer energies
Per MPI rank memory allocation (min/avg/max) = 4.086 | 4.086 | 4.086 Mbytes
Step Temp PotEng Press Pxx Pyy Pzz Pxy Pxz Pyz Lx Ly Lz Volume 
       0            0   -21.367411   -242771.95   -242771.95   -242771.95   -242771.95 5.6236375e-12 -1.5848433e-11 -1.7893392e-11       3.5167       3.5167       3.5167    43.491658 
       1            0   -21.369387   -242501.09   -242501.09   -242501.09   -242501.09 -4.6025386e-11 -3.375195e-11 -1.0227864e-11    3.5163483    3.5163483    3.5163483    43.478612 
       2            0    -21.37136   -242229.61   -242229.61   -242229.61   -242229.61 2.5577332e-12 3.7854452e-11 3.9900638e-11    3.5159967    3.5159967    3.5159967    43.465568 
       3            0   -21.373331   -241957.52   -241957.52   -241957.52   -241957.52 1.3815905e-11 -8.6989029e-12 1.4327605e-11     3.515645     3.515645     3.515645    43.452527 
       4            0   -21.375299    -241684.8    -241684.8    -241684.8    -241684.8 8.9574407e-11 7.5242502e-11 8.9574407e-11    3.5152933    3.5152933    3.5152933    43.439489 
       5            0   -21.377264   -241411.46   -241411.46   -241411.46   -241411.46 1.5360222e-11 6.1440888e-12 -6.1440888e-12    3.5149417    3.5149417    3.5149417    43.426453 
       6            0   -21.379227   -241137.49   -241137.49   -241137.49   -241137.49 -4.60945e-12 2.0486445e-12 -1.4340511e-11      3.51459      3.51459      3.51459     43.41342 
       7            0   -21.381187   -240862.91   -240862.91   -240862.91   -240862.91 8.709353e-12 7.6847233e-12 -1.0246298e-12    3.5142383    3.5142383    3.5142383    43.400389 
       8            0   -21.383144   -240587.69   -240587.69   -240587.69   -240587.69 8.8657088e-11 5.9446371e-11 5.6884028e-11    3.5138866    3.5138866    3.5138866    43.387362 
       9            0   -21.385099   -240311.86   -240311.86   -240311.86   -240311.86 -2.358064e-11 -8.7145844e-12 -8.2019618e-12     3.513535     3.513535     3.513535    43.374336 
      10            0   -21.387051   -240035.39   -240035.39   -240035.39   -240035.39 -1.1793861e-11 -3.0766594e-12 -9.2299782e-12    3.5131833    3.5131833    3.5131833    43.361313 
      11            0   -21.389001    -239758.3    -239758.3    -239758.3    -239758.3 -7.1810282e-12 -3.3340488e-11 -4.6163753e-12    3.5128316    3.5128316    3.5128316    43.348293 
      12            0   -21.390948   -239480.58   -239480.58   -239480.58   -239480.58 -3.2837419e-11 5.1308467e-12 5.6439313e-12      3.51248      3.51248      3.51248    43.335276 
      13            0   -21.392892   -239202.23   -239202.23   -239202.23   -239202.23 -2.3095746e-11 -3.0794328e-11 6.1588657e-12    3.5121283    3.5121283    3.5121283    43.322261 
      14            0   -21.394833   -238923.25   -238923.25   -238923.25   -238923.25 2.2589292e-11 -2.6696436e-11 -2.0022327e-11    3.5117766    3.5117766    3.5117766    43.309249 
      15            0   -21.396772   -238643.64   -238643.64   -238643.64   -238643.64 -3.954314e-11 -5.2895369e-11 -4.6732802e-11     3.511425     3.511425     3.511425    43.296239 
      16            0   -21.398709    -238363.4    -238363.4    -238363.4    -238363.4 -4.4692039e-11 -5.6507176e-11 -6.6781208e-11    3.5110733    3.5110733    3.5110733    43.283232 
      17            0   -21.400642   -238082.53   -238082.53   -238082.53   -238082.53 1.9526528e-11 3.3914495e-11 1.8498816e-11    3.5107216    3.5107216    3.5107216    43.270227 
      18            0   -21.402573   -237801.02   -237801.02   -237801.02   -237801.02 2.0046407e-11 1.2336251e-11 1.0794219e-11    3.5103699    3.5103699    3.5103699    43.257226 
      19            0   -21.404501   -237518.88   -237518.88   -237518.88   -237518.88 6.1699794e-12 1.7481608e-11 6.6841444e-12    3.5100183    3.5100183    3.5100183    43.244226 
      20            0   -21.406427    -237236.1    -237236.1    -237236.1    -237236.1 -2.0572781e-11 1.3372308e-11 -1.0286391e-12    3.5096666    3.5096666    3.5096666     43.23123 
      21            0    -21.40835   -236952.68   -236952.68   -236952.68   -236952.68 -1.0289483e-12 -1.3890802e-11 6.1736899e-12    3.5093149    3.5093149    3.5093149    43.218236 
      22            0    -21.41027   -236668.63   -236668.63   -236668.63   -236668.63 -1.2865721e-11 -1.1836464e-11 4.4772711e-11    3.5089633    3.5089633    3.5089633    43.205244 
      23            0   -21.412188   -236383.94   -236383.94   -236383.94   -236383.94 -3.6034853e-12 1.5443509e-12 4.118269e-12    3.5086116    3.5086116    3.5086116    43.192255 
      24            0   -21.414102   -236098.61   -236098.61   -236098.61   -236098.61 3.5530752e-11 2.1627415e-11 5.1493844e-12    3.5082599    3.5082599    3.5082599    43.179269 
      25            0   -21.416015   -235812.64   -235812.64   -235812.64   -235812.64 -4.6873493e-11 -5.3054613e-11 -3.5026346e-11    3.5079083    3.5079083    3.5079083    43.166285 
      26            0   -21.417924   -235526.03   -235526.03   -235526.03   -235526.03 -3.3491138e-11 6.6982275e-12 -1.9064186e-11    3.5075566    3.5075566    3.5075566    43.153304 
      27            0   -21.419831   -235238.77   -235238.77   -235238.77   -235238.77 5.6694361e-12 1.1338872e-11 3.0408794e-11    3.5072049    3.5072049    3.5072049    43.140326 
      28            0   -21.421735   -234950.88   -234950.88   -234950.88   -234950.88 3.6089085e-12 2.1137892e-11 1.1342284e-11    3.5068532    3.5068532    3.5068532     43.12735 
      29            0   -21.423636   -234662.34   -234662.34   -234662.34   -234662.34 2.0628539e-12 6.1885618e-12 -1.031427e-12    3.5065016    3.5065016    3.5065016    43.114377 
      30            0   -21.425535   -234373.15   -234373.15   -234373.15   -234373.15 4.1269494e-12 2.5793434e-12 7.2221615e-12    3.5061499    3.5061499    3.5061499    43.101406 
      31            0    -21.42743   -234083.32   -234083.32   -234083.32   -234083.32 2.5285173e-11 1.9092886e-11 4.1281915e-12    3.5057982    3.5057982    3.5057982    43.088438 
      32            0   -21.429324   -233792.85   -233792.85   -233792.85   -233792.85 -1.0323585e-12 1.9098633e-11 1.7033915e-11    3.5054466    3.5054466    3.5054466    43.075473 
      33            0   -21.431214   -233501.72   -233501.72   -233501.72   -233501.72 1.0326693e-12 1.1875697e-11 5.679681e-12    3.5050949    3.5050949    3.5050949     43.06251 
      34            0   -21.433102   -233209.95   -233209.95   -233209.95   -233209.95 -8.2638413e-12 -2.0659603e-11 -3.4088346e-11    3.5047432    3.5047432    3.5047432     43.04955 
      35            0   -21.434986   -232917.53   -232917.53   -232917.53   -232917.53            0 -2.583228e-11 -1.1882849e-11    3.5043916    3.5043916    3.5043916    43.036592 
      36            0   -21.436869   -232624.46   -232624.46   -232624.46   -232624.46 2.5840058e-11 4.9612911e-11 4.1344093e-11    3.5040399    3.5040399    3.5040399    43.023637 
      37            0   -21.438748   -232330.73   -232330.73   -232330.73   -232330.73 -2.8432624e-11 -1.292392e-11 -1.292392e-11    3.5036882    3.5036882    3.5036882    43.010685 
      38            0   -21.440625   -232036.36   -232036.36   -232036.36   -232036.36 4.5505899e-11 5.5331036e-11 3.0509637e-11    3.5033365    3.5033365    3.5033365    42.997735 
      39            0   -21.442499   -231741.33   -231741.33   -231741.33   -231741.33 -1.9656193e-11 -3.2070631e-11 -2.4828876e-11    3.5029849    3.5029849    3.5029849    42.984788 
      40            0    -21.44437   -231445.65   -231445.65   -231445.65   -231445.65 4.967271e-11 3.8289381e-11 2.8975747e-11    3.5026332    3.5026332    3.5026332    42.971843 
      41            0   -21.446238   -231149.31   -231149.31   -231149.31   -231149.31 -1.3974658e-11 1.6044978e-11 4.6582195e-12    3.5022815    3.5022815    3.5022815    42.958901 
      42            0   -21.448104   -230852.32   -230852.32   -230852.32   -230852.32 -1.5532077e-11 -1.9673964e-11 -2.3298115e-11    3.5019299    3.5019299    3.5019299    42.945961 
      43            0   -21.449967   -230554.66   -230554.66   -230554.66   -230554.66   1.9162e-11 2.2787243e-11 6.7325946e-12    3.5015782    3.5015782    3.5015782    42.933025 
      44            0   -21.451827   -230256.36   -230256.36   -230256.36   -230256.36 -4.8178461e-11 -5.1286749e-11 -4.1961885e-11    3.5012265    3.5012265    3.5012265     42.92009 
      45            0   -21.453684   -229957.39   -229957.39   -229957.39   -229957.39 -5.182041e-13 2.5910205e-12 6.7366533e-12    3.5008749    3.5008749    3.5008749    42.907159 
      46            0   -21.455538   -229657.76   -229657.76   -229657.76   -229657.76 2.4881294e-11 1.2959007e-11 2.7473096e-11    3.5005232    3.5005232    3.5005232     42.89423 
      47            0    -21.45739   -229357.48   -229357.48   -229357.48   -229357.48 6.2221986e-12 -2.1259179e-11 -1.8148079e-11    3.5001715    3.5001715    3.5001715    42.881303 
      48            0   -21.459239   -229056.53   -229056.53   -229056.53   -229056.53 8.298766e-12 1.9190896e-11 1.4004168e-11    3.4998198    3.4998198    3.4998198    42.868379 
      49            0   -21.461085   -228754.92   -228754.92   -228754.92   -228754.92 2.3866146e-11 9.8577559e-12 -6.2259511e-12    3.4994682    3.4994682    3.4994682    42.855458 
      50            0   -21.462928   -228452.64   -228452.64   -228452.64   -228452.64 -2.17974e-11 -7.2657998e-12 3.1139142e-12    3.4991165    3.4991165    3.4991165     42.84254 
      51            0   -21.464769    -228149.7    -228149.7    -228149.7    -228149.7 -3.8935666e-11 -2.6995395e-11 -2.7514537e-11    3.4987648    3.4987648    3.4987648    42.829624 
      52            0   -21.466606    -227846.1    -227846.1    -227846.1    -227846.1 -2.544564e-11 1.9214055e-11 9.8666769e-12    3.4984132    3.4984132    3.4984132     42.81671 
      53            0   -21.468441   -227541.83   -227541.83   -227541.83   -227541.83 -1.2986386e-11 1.1428019e-11 1.7142029e-11    3.4980615    3.4980615    3.4980615    42.803799 
      54            0   -21.470273   -227236.89   -227236.89   -227236.89   -227236.89 1.4029527e-11 -3.4814012e-11 -3.7412073e-11    3.4977098    3.4977098    3.4977098    42.790891 
      55            0   -21.472102   -226931.29   -226931.29   -226931.29   -226931.29 -2.4429137e-11 -1.1954684e-11 -1.7152373e-11    3.4973582    3.4973582    3.4973582    42.777985 
      56            0   -21.473929   -226625.01   -226625.01   -226625.01   -226625.01  1.81974e-11 -8.3188113e-12 9.8785884e-12    3.4970065    3.4970065    3.4970065    42.765082 
      57            0   -21.475752   -226318.07   -226318.07   -226318.07   -226318.07 -2.7564377e-11 2.600413e-12 -1.7162726e-11    3.4966548    3.4966548    3.4966548    42.752182 
      58            0   -21.477573   -226010.45   -226010.45   -226010.45   -226010.45 4.3179882e-11 1.6127426e-11 1.3005989e-11    3.4963031    3.4963031    3.4963031    42.739284 
      59            0   -21.479391   -225702.16   -225702.16   -225702.16   -225702.16 3.6427759e-12 -1.0407931e-11 4.1631725e-12    3.4959515    3.4959515    3.4959515    42.726389 
      60            0   -21.481206    -225393.2    -225393.2    -225393.2    -225393.2 2.5507128e-11 -1.6137163e-11 -2.0822145e-11    3.4955998    3.4955998    3.4955998    42.713496 
      61            0   -21.483018   -225083.57   -225083.57   -225083.57   -225083.57 -2.030772e-11 1.6142034e-11 1.4579902e-11    3.4952481    3.4952481    3.4952481    42.700606 
      62            0   -21.484827   -224773.26   -224773.26   -224773.26   -224773.26 -4.2190306e-11 9.8964916e-12 3.6460758e-12    3.4948965    3.4948965    3.4948965    42.687718 
      63            0   -21.486634   -224462.27   -224462.27   -224462.27   -224462.27 3.5950742e-11 4.5329196e-11 3.9597919e-11    3.4945448    3.4945448    3.4945448    42.674833 
      64            0   -21.488437   -224150.61   -224150.61   -224150.61   -224150.61 6.7753735e-12 -1.5635477e-12 -1.3029564e-11    3.4941931    3.4941931    3.4941931    42.661951 
      65            0   -21.490238   -223838.27   -223838.27   -223838.27   -223838.27 9.0191815e-11 7.3508936e-11 7.1423576e-11    3.4938415    3.4938415    3.4938415    42.649071 
      66            0   -21.492036   -223525.25   -223525.25   -223525.25   -223525.25 -5.7364717e-12 -1.2515938e-11 -1.3037436e-11    3.4934898    3.4934898    3.4934898    42.636194 
      67            0    -21.49383   -223211.55   -223211.55   -223211.55   -223211.55 3.2864262e-11 6.7815143e-11 6.3641903e-11    3.4931381    3.4931381    3.4931381     42.62332 
      68            0   -21.495622   -222897.17   -222897.17   -222897.17   -222897.17 -4.8528565e-11 -4.5919503e-11 -6.0530253e-11    3.4927864    3.4927864    3.4927864    42.610448 
      69            0   -21.497412   -222582.11   -222582.11   -222582.11   -222582.11 -5.2197018e-13 2.923033e-11 1.5659105e-11    3.4924348    3.4924348    3.4924348    42.597578 
      70            0   -21.499198   -222266.37   -222266.37   -222266.37   -222266.37 5.2212789e-12 2.4017883e-11 2.2973627e-11    3.4920831    3.4920831    3.4920831    42.584712 
      71            0   -21.500981   -221949.94   -221949.94   -221949.94   -221949.94 6.7897136e-12 -9.4011419e-12 1.566857e-12    3.4917314    3.4917314    3.4917314    42.571847 
      72            0   -21.502762   -221632.83   -221632.83   -221632.83   -221632.83 -1.5150862e-11 -8.359096e-12 3.134661e-12    3.4913798    3.4913798    3.4913798    42.558986 
      73            0   -21.504539   -221315.03   -221315.03   -221315.03   -221315.03 -1.5678042e-11 -9.9294266e-12 -6.7938182e-12    3.4910281    3.4910281    3.4910281    42.546127 
      74            0   -21.506314   -220996.55   -220996.55   -220996.55   -220996.55 3.6593156e-11 3.0842803e-11 3.9206953e-11    3.4906764    3.4906764    3.4906764     42.53327 
      75            0   -21.508086   -220677.38   -220677.38   -220677.38   -220677.38 7.0593848e-11 7.8437609e-11 6.7979261e-11    3.4903248    3.4903248    3.4903248    42.520417 
      76            0   -21.509854   -220357.52   -220357.52   -220357.52   -220357.52 4.864602e-11 3.3999907e-11 5.5969077e-11    3.4899731    3.4899731    3.4899731    42.507565 
      77            0    -21.51162   -220036.97   -220036.97   -220036.97   -220036.97 -2.720815e-11 -2.0929346e-12 1.0464673e-12    3.4896214    3.4896214    3.4896214    42.494717 
      78            0   -21.513383   -219715.73   -219715.73   -219715.73   -219715.73 2.0935675e-12 2.0412283e-11 2.5646201e-11    3.4892697    3.4892697    3.4892697    42.481871 
      79            0   -21.515143   -219393.79   -219393.79   -219393.79   -219393.79 -1.8324255e-11 2.1989106e-11 2.2512656e-11    3.4889181    3.4889181    3.4889181    42.469027 
      80            0     -21.5169   -219071.17   -219071.17   -219071.17   -219071.17 -1.5711255e-12 5.237085e-13 4.189668e-12    3.4885664    3.4885664    3.4885664    42.456186 
      81            0   -21.518654   -218747.85   -218747.85   -218747.85   -218747.85 -1.5716007e-12 1.9383076e-11 6.8102698e-12    3.4882147    3.4882147    3.4882147    42.443348 
      82            0   -21.520406   -218423.84   -218423.84   -218423.84   -218423.84 3.8253853e-11 -3.1441523e-12 1.4672711e-11    3.4878631    3.4878631    3.4878631    42.430512 
      83            0   -21.522154   -218099.13   -218099.13   -218099.13   -218099.13 -7.3385749e-12 -1.2580414e-11            0    3.4875114    3.4875114    3.4875114    42.417679 
      84            0   -21.523899   -217773.73   -217773.73   -217773.73   -217773.73 2.5168441e-11 1.6254618e-11 1.1535536e-11    3.4871597    3.4871597    3.4871597    42.404849 
      85            0   -21.525641   -217447.63   -217447.63   -217447.63   -217447.63 1.6784038e-11 9.4410215e-12 -4.1960095e-12    3.4868081    3.4868081    3.4868081    42.392021 
      86            0   -21.527381   -217120.83   -217120.83   -217120.83   -217120.83 -4.7219393e-12 9.4438786e-12 1.3641158e-11    3.4864564    3.4864564    3.4864564    42.379195 
      87            0   -21.529117   -216793.33   -216793.33   -216793.33   -216793.33 -5.2481872e-13 -1.1546012e-11 -1.8893474e-11    3.4861047    3.4861047    3.4861047    42.366373 
      88            0    -21.53085   -216465.13   -216465.13   -216465.13   -216465.13 6.8247085e-12 -9.4495964e-12 -6.8247085e-12     3.485753     3.485753     3.485753    42.353553 
      89            0   -21.532581   -216136.23   -216136.23   -216136.23   -216136.23 3.2558463e-11 1.8904914e-11 3.0457917e-11    3.4854014    3.4854014    3.4854014    42.340735 
      90            0   -21.534308   -215806.63   -215806.63   -215806.63   -215806.63 1.4182978e-11 -8.9300233e-12 7.8794324e-12    3.4850497    3.4850497    3.4850497     42.32792 
      91            0   -21.536033   -215476.32   -215476.32   -215476.32   -215476.32 -2.7323636e-11 3.8883636e-11    1.156e-11     3.484698     3.484698     3.484698    42.315108 
      92            0   -21.537754   -215145.31   -215145.31   -215145.31   -215145.31 -4.0997865e-11 -2.0498933e-11 3.8369797e-11    3.4843464    3.4843464    3.4843464    42.302298 
      93            0   -21.539473    -214813.6    -214813.6    -214813.6    -214813.6 1.6824731e-11 2.1030914e-12 4.2061827e-12    3.4839947    3.4839947    3.4839947    42.289491 
      94            0   -21.541188   -214481.17   -214481.17   -214481.17   -214481.17 5.5748801e-11 3.3659653e-11 3.8393042e-11     3.483643     3.483643     3.483643    42.276686 
      95            0   -21.542901   -214148.04   -214148.04   -214148.04   -214148.04 -8.4174623e-12 -1.0521828e-11 -8.4174623e-12    3.4832914    3.4832914    3.4832914    42.263884 
      96            0    -21.54461   -213814.21   -213814.21   -213814.21   -213814.21 8.6305126e-11 6.893885e-11  6.84126e-11    3.4829397    3.4829397    3.4829397    42.251084 
      97            0   -21.546317   -213479.66   -213479.66   -213479.66   -213479.66 -2.684692e-11 -6.5274865e-11 -5.7905122e-11     3.482588     3.482588     3.482588    42.238287 
      98            0    -21.54802    -213144.4    -213144.4    -213144.4    -213144.4 1.0531394e-12 1.4743952e-11 1.1057964e-11    3.4822363    3.4822363    3.4822363    42.225493 
      99            0    -21.54972   -212808.43   -212808.43   -212808.43   -212808.43 4.2138342e-12 -1.7382066e-11 -1.7382066e-11    3.4818847    3.4818847    3.4818847    42.212701 
     100            0   -21.551418   -212471.75   -212471.75   -212471.75   -212471.75 -7.9033336e-12 -4.7420001e-12 3.1613334e-12     3.481533     3.481533     3.481533    42.199912 
Loop time of 0.0487411 on 1 procs for 100 steps with 4 atoms

3.8% CPU use with 1 MPI tasks x no OpenMP threads

Minimization stats:
  Stopping criterion = max iterations
  Energy initial, next-to-last, final = 
        -21.3674114602     -21.5497204015     -21.5514177711
  Force two-norm initial, final = 11.4144 9.79102
  Force max component initial, final = 6.59013 5.65285
  Final line search alpha, max atom move = 1.76586e-05 9.98216e-05
  Iterations, force evaluations = 100 100

MPI task timing breakdown:
Section |  min time  |  avg time  |  max time  |%varavg| %total
---------------------------------------------------------------
Pair    | 0.0010121  | 0.0010121  | 0.0010121  |   0.0 |  2.08
Neigh   | 0          | 0          | 0          |   0.0 |  0.00
Comm    | 0.0002017  | 0.0002017  | 0.0002017  |   0.0 |  0.41
Output  | 0.046844   | 0.046844   | 0.046844   |   0.0 | 96.11
Modify  | 0          | 0          | 0          |   0.0 |  0.00
Other   |            | 0.0006838  |            |       |  1.40

Nlocal:    4 ave 4 max 4 min
Histogram: 1 0 0 0 0 0 0 0 0 0
Nghost:    360 ave 360 max 360 min
Histogram: 1 0 0 0 0 0 0 0 0 0
Neighs:    156 ave 156 max 156 min
Histogram: 1 0 0 0 0 0 0 0 0 0

Total # of neighbors = 156
Ave neighs/atom = 39
Neighbor list builds = 0
Dangerous builds = 0
System init for write_restart ...
Reading restart file ...
  restart file = 11 Aug 2017, LAMMPS = 11 Aug 2017
  triclinic box = (0.0175835 0.0175835 0.0175835) to (3.49912 3.49912 3.49912) with tilt (0 -0 0)
  1 by 1 by 1 MPI processor grid
  4 atoms
4 atoms in group Ni
Changing box ...
  triclinic box = (0.0175835 0.0175835 0.0175835) to (3.49911 3.49912 3.49912) with tilt (0 -0 0)
Neighbor list info ...
  update every 1 steps, delay 0 steps, check yes
  max neighbors/atom: 2000, page size: 100000
  master list distance cutoff = 5.64464
  ghost atom cutoff = 5.64464
  binsize = 2.82232, bins = 2 2 2
  1 neighbor lists, perpetual/occasional/extra = 1 0 0
  (1) pair eam/alloy, perpetual
      attributes: half, newton on
      pair build: half/bin/newton/tri
      stencil: half/bin/3d/newton/tri
      bin: standard
Setting up cg style minimization ...
  Unit style    : metal
  Current step  : 100
Per MPI rank memory allocation (min/avg/max) = 4.086 | 4.086 | 4.086 Mbytes
Step Temp PotEng Press Pxx Pyy Pzz Pxy Pxz Pyz Lx Ly Lz Volume 
     100            0   -21.551423   -212470.64   -212470.33   -212470.79   -212470.79 7.376452e-12 9.4840097e-12 -8.4302309e-12    3.4815295     3.481533     3.481533     42.19987 
     101            0   -21.551423   -212470.64   -212470.34    -212470.8    -212470.8 4.3204933e-11 3.740915e-11 -9.4840097e-12    3.4815295     3.481533     3.481533     42.19987 
     102            0   -21.551423   -212470.64   -212470.34    -212470.8    -212470.8 5.2688943e-11 2.5817582e-11 2.3183135e-11    3.4815295     3.481533     3.481533     42.19987 
Loop time of 9.10759e-05 on 1 procs for 2 steps with 4 atoms

75.8% CPU use with 1 MPI tasks x no OpenMP threads

Minimization stats:
  Stopping criterion = force tolerance
  Energy initial, next-to-last, final = 
        -21.5514233674     -21.5514234185     -21.5514234185
  Force two-norm initial, final = 0.00121998 7.20351e-15
  Force max component initial, final = 0.000352177 3.77476e-15
  Final line search alpha, max atom move = 1 3.77476e-15
  Iterations, force evaluations = 2 4

MPI task timing breakdown:
Section |  min time  |  avg time  |  max time  |%varavg| %total
---------------------------------------------------------------
Pair    | 5.2929e-05 | 5.2929e-05 | 5.2929e-05 |   0.0 | 58.12
Neigh   | 0          | 0          | 0          |   0.0 |  0.00
Comm    | 1.0014e-05 | 1.0014e-05 | 1.0014e-05 |   0.0 | 10.99
Output  | 1.0014e-05 | 1.0014e-05 | 1.0014e-05 |   0.0 | 10.99
Modify  | 0          | 0          | 0          |   0.0 |  0.00
Other   |            | 1.812e-05  |            |       | 19.90

Nlocal:    4 ave 4 max 4 min
Histogram: 1 0 0 0 0 0 0 0 0 0
Nghost:    360 ave 360 max 360 min
Histogram: 1 0 0 0 0 0 0 0 0 0
Neighs:    156 ave 156 max 156 min
Histogram: 1 0 0 0 0 0 0 0 0 0

Total # of neighbors = 156
Ave neighs/atom = 39
Neighbor list builds = 0
Dangerous builds = 0
Reading restart file ...
  restart file = 11 Aug 2017, LAMMPS = 11 Aug 2017
  triclinic box = (0.0175835 0.0175835 0.0175835) to (3.49912 3.49912 3.49912) with tilt (0 -0 0)
  1 by 1 by 1 MPI processor grid
  4 atoms
4 atoms in group Ni
Changing box ...
  triclinic box = (0.0175835 0.0175835 0.0175835) to (3.49912 3.49912 3.49912) with tilt (0 -0 0)
Neighbor list info ...
  update every 1 steps, delay 0 steps, check yes
  max neighbors/atom: 2000, page size: 100000
  master list distance cutoff = 5.64464
  ghost atom cutoff = 5.64464
  binsize = 2.82232, bins = 2 2 2
  1 neighbor lists, perpetual/occasional/extra = 1 0 0
  (1) pair eam/alloy, perpetual
      attributes: half, newton on
      pair build: half/bin/newton/tri
      stencil: half/bin/3d/newton/tri
      bin: standard
Setting up cg style minimization ...
  Unit style    : metal
  Current step  : 100
Per MPI rank memory allocation (min/avg/max) = 4.086 | 4.086 | 4.086 Mbytes
Step Temp PotEng Press Pxx Pyy Pzz Pxy Pxz Pyz Lx Ly Lz Volume 
     100            0   -21.551412   -212472.86   -212473.16   -212472.71   -212472.71 -1.7914205e-11 -1.0537768e-11 -1.5279763e-11    3.4815365     3.481533     3.481533    42.199954 
     101            0   -21.551412   -212472.87   -212473.17   -212472.72   -212472.72 4.7946842e-11 2.6344419e-11 2.0548647e-11    3.4815365     3.481533     3.481533    42.199954 
     102            0   -21.551412   -212472.87   -212473.17   -212472.72   -212472.72 -4.7946842e-11 -5.9538387e-11 7.9033256e-12    3.4815365     3.481533     3.481533    42.199954 
Loop time of 9.29832e-05 on 1 procs for 2 steps with 4 atoms

77.4% CPU use with 1 MPI tasks x no OpenMP threads

Minimization stats:
  Stopping criterion = force tolerance
  Energy initial, next-to-last, final = 
        -21.5514121747     -21.5514122259     -21.5514122259
  Force two-norm initial, final = 0.00121996 7.02073e-15
  Force max component initial, final = 0.000352173 2.73045e-15
  Final line search alpha, max atom move = 1 2.73045e-15
  Iterations, force evaluations = 2 4

MPI task timing breakdown:
Section |  min time  |  avg time  |  max time  |%varavg| %total
---------------------------------------------------------------
Pair    | 5.3883e-05 | 5.3883e-05 | 5.3883e-05 |   0.0 | 57.95
Neigh   | 0          | 0          | 0          |   0.0 |  0.00
Comm    | 9.0599e-06 | 9.0599e-06 | 9.0599e-06 |   0.0 |  9.74
Output  | 1.0967e-05 | 1.0967e-05 | 1.0967e-05 |   0.0 | 11.79
Modify  | 0          | 0          | 0          |   0.0 |  0.00
Other   |            | 1.907e-05  |            |       | 20.51

Nlocal:    4 ave 4 max 4 min
Histogram: 1 0 0 0 0 0 0 0 0 0
Nghost:    360 ave 360 max 360 min
Histogram: 1 0 0 0 0 0 0 0 0 0
Neighs:    156 ave 156 max 156 min
Histogram: 1 0 0 0 0 0 0 0 0 0

Total # of neighbors = 156
Ave neighs/atom = 39
Neighbor list builds = 0
Dangerous builds = 0
Reading restart file ...
  restart file = 11 Aug 2017, LAMMPS = 11 Aug 2017
  triclinic box = (0.0175835 0.0175835 0.0175835) to (3.49912 3.49912 3.49912) with tilt (0 -0 0)
  1 by 1 by 1 MPI processor grid
  4 atoms
4 atoms in group Ni
Changing box ...
  triclinic box = (0.0175835 0.0175835 0.0175835) to (3.49912 3.49911 3.49912) with tilt (0 -0 0)
Neighbor list info ...
  update every 1 steps, delay 0 steps, check yes
  max neighbors/atom: 2000, page size: 100000
  master list distance cutoff = 5.64464
  ghost atom cutoff = 5.64464
  binsize = 2.82232, bins = 2 2 2
  1 neighbor lists, perpetual/occasional/extra = 1 0 0
  (1) pair eam/alloy, perpetual
      attributes: half, newton on
      pair build: half/bin/newton/tri
      stencil: half/bin/3d/newton/tri
      bin: standard
Setting up cg style minimization ...
  Unit style    : metal
  Current step  : 100
Per MPI rank memory allocation (min/avg/max) = 4.086 | 4.086 | 4.086 Mbytes
Step Temp PotEng Press Pxx Pyy Pzz Pxy Pxz Pyz Lx Ly Lz Volume 
     100            0   -21.551423   -212470.64   -212470.79   -212470.33   -212470.79 -1.1591567e-11 -4.7420049e-12 6.8495626e-12     3.481533    3.4815295     3.481533     42.19987 
     101            0   -21.551423   -212470.64    -212470.8   -212470.34    -212470.8 -5.1635164e-11 -8.1140972e-11 -2.0021798e-11     3.481533    3.4815295     3.481533     42.19987 
     102            0   -21.551423   -212470.64    -212470.8   -212470.34    -212470.8 1.0537789e-11 3.2667145e-11 2.3183135e-11     3.481533    3.4815295     3.481533     42.19987 
Loop time of 8.60691e-05 on 1 procs for 2 steps with 4 atoms

82.5% CPU use with 1 MPI tasks x no OpenMP threads

Minimization stats:
  Stopping criterion = force tolerance
  Energy initial, next-to-last, final = 
        -21.5514233674     -21.5514234185     -21.5514234185
  Force two-norm initial, final = 0.00121998 5.68355e-15
  Force max component initial, final = 0.000352177 3.13118e-15
  Final line search alpha, max atom move = 1 3.13118e-15
  Iterations, force evaluations = 2 4

MPI task timing breakdown:
Section |  min time  |  avg time  |  max time  |%varavg| %total
---------------------------------------------------------------
Pair    | 5.1022e-05 | 5.1022e-05 | 5.1022e-05 |   0.0 | 59.28
Neigh   | 0          | 0          | 0          |   0.0 |  0.00
Comm    | 1.0014e-05 | 1.0014e-05 | 1.0014e-05 |   0.0 | 11.63
Output  | 1.0014e-05 | 1.0014e-05 | 1.0014e-05 |   0.0 | 11.63
Modify  | 0          | 0          | 0          |   0.0 |  0.00
Other   |            | 1.502e-05  |            |       | 17.45

Nlocal:    4 ave 4 max 4 min
Histogram: 1 0 0 0 0 0 0 0 0 0
Nghost:    360 ave 360 max 360 min
Histogram: 1 0 0 0 0 0 0 0 0 0
Neighs:    156 ave 156 max 156 min
Histogram: 1 0 0 0 0 0 0 0 0 0

Total # of neighbors = 156
Ave neighs/atom = 39
Neighbor list builds = 0
Dangerous builds = 0
Reading restart file ...
  restart file = 11 Aug 2017, LAMMPS = 11 Aug 2017
  triclinic box = (0.0175835 0.0175835 0.0175835) to (3.49912 3.49912 3.49912) with tilt (0 -0 0)
  1 by 1 by 1 MPI processor grid
  4 atoms
4 atoms in group Ni
Changing box ...
  triclinic box = (0.0175835 0.0175835 0.0175835) to (3.49912 3.49912 3.49912) with tilt (0 -0 0)
Neighbor list info ...
  update every 1 steps, delay 0 steps, check yes
  max neighbors/atom: 2000, page size: 100000
  master list distance cutoff = 5.64464
  ghost atom cutoff = 5.64464
  binsize = 2.82232, bins = 2 2 2
  1 neighbor lists, perpetual/occasional/extra = 1 0 0
  (1) pair eam/alloy, perpetual
      attributes: half, newton on
      pair build: half/bin/newton/tri
      stencil: half/bin/3d/newton/tri
      bin: standard
Setting up cg style minimization ...
  Unit style    : metal
  Current step  : 100
Per MPI rank memory allocation (min/avg/max) = 4.086 | 4.086 | 4.086 Mbytes
Step Temp PotEng Press Pxx Pyy Pzz Pxy Pxz Pyz Lx Ly Lz Volume 
     100            0   -21.551412   -212472.86   -212472.71   -212473.16   -212472.71 2.6344419e-12            0 -6.3226605e-12     3.481533    3.4815365     3.481533    42.199954 
     101            0   -21.551412   -212472.87   -212472.72   -212473.17   -212472.72 1.2645321e-11 1.0537768e-11 2.8451972e-11     3.481533    3.4815365     3.481533    42.199954 
     102            0   -21.551412   -212472.87   -212472.72   -212473.17   -212472.72 4.6893066e-11 1.2118433e-11 5.2688838e-12     3.481533    3.4815365     3.481533    42.199954 
Loop time of 8.70228e-05 on 1 procs for 2 steps with 4 atoms

83.9% CPU use with 1 MPI tasks x no OpenMP threads

Minimization stats:
  Stopping criterion = force tolerance
  Energy initial, next-to-last, final = 
        -21.5514121747     -21.5514122259     -21.5514122259
  Force two-norm initial, final = 0.00121996 6.31796e-15
  Force max component initial, final = 0.000352173 2.55351e-15
  Final line search alpha, max atom move = 1 2.55351e-15
  Iterations, force evaluations = 2 4

MPI task timing breakdown:
Section |  min time  |  avg time  |  max time  |%varavg| %total
---------------------------------------------------------------
Pair    | 4.9114e-05 | 4.9114e-05 | 4.9114e-05 |   0.0 | 56.44
Neigh   | 0          | 0          | 0          |   0.0 |  0.00
Comm    | 1.1921e-05 | 1.1921e-05 | 1.1921e-05 |   0.0 | 13.70
Output  | 1.0014e-05 | 1.0014e-05 | 1.0014e-05 |   0.0 | 11.51
Modify  | 0          | 0          | 0          |   0.0 |  0.00
Other   |            | 1.597e-05  |            |       | 18.36

Nlocal:    4 ave 4 max 4 min
Histogram: 1 0 0 0 0 0 0 0 0 0
Nghost:    360 ave 360 max 360 min
Histogram: 1 0 0 0 0 0 0 0 0 0
Neighs:    156 ave 156 max 156 min
Histogram: 1 0 0 0 0 0 0 0 0 0

Total # of neighbors = 156
Ave neighs/atom = 39
Neighbor list builds = 0
Dangerous builds = 0
Reading restart file ...
  restart file = 11 Aug 2017, LAMMPS = 11 Aug 2017
  triclinic box = (0.0175835 0.0175835 0.0175835) to (3.49912 3.49912 3.49912) with tilt (0 -0 0)
  1 by 1 by 1 MPI processor grid
  4 atoms
4 atoms in group Ni
Changing box ...
  triclinic box = (0.0175835 0.0175835 0.0175835) to (3.49912 3.49912 3.49911) with tilt (0 -0 0)
Neighbor list info ...
  update every 1 steps, delay 0 steps, check yes
  max neighbors/atom: 2000, page size: 100000
  master list distance cutoff = 5.64464
  ghost atom cutoff = 5.64464
  binsize = 2.82232, bins = 2 2 2
  1 neighbor lists, perpetual/occasional/extra = 1 0 0
  (1) pair eam/alloy, perpetual
      attributes: half, newton on
      pair build: half/bin/newton/tri
      stencil: half/bin/3d/newton/tri
      bin: standard
Setting up cg style minimization ...
  Unit style    : metal
  Current step  : 100
Per MPI rank memory allocation (min/avg/max) = 4.086 | 4.086 | 4.086 Mbytes
Step Temp PotEng Press Pxx Pyy Pzz Pxy Pxz Pyz Lx Ly Lz Volume 
     100            0   -21.551423   -212470.64   -212470.79   -212470.79   -212470.33 2.6344472e-12 -4.7420049e-12 -1.1591567e-11     3.481533     3.481533    3.4815295     42.19987 
     101            0   -21.551423   -212470.64    -212470.8    -212470.8   -212470.34 5.2688943e-12 -4.636627e-11 -4.8473828e-11     3.481533     3.481533    3.4815295     42.19987 
     102            0   -21.551423   -212470.64    -212470.8    -212470.8   -212470.34 -3.1613366e-12 -5.2688943e-13 -6.3226732e-12     3.481533     3.481533    3.4815295     42.19987 
Loop time of 8.79765e-05 on 1 procs for 2 steps with 4 atoms

101.2% CPU use with 1 MPI tasks x no OpenMP threads

Minimization stats:
  Stopping criterion = force tolerance
  Energy initial, next-to-last, final = 
        -21.5514233674     -21.5514234185     -21.5514234185
  Force two-norm initial, final = 0.00121998 5.64994e-15
  Force max component initial, final = 0.000352177 2.97679e-15
  Final line search alpha, max atom move = 1 2.97679e-15
  Iterations, force evaluations = 2 4

MPI task timing breakdown:
Section |  min time  |  avg time  |  max time  |%varavg| %total
---------------------------------------------------------------
Pair    | 5.1022e-05 | 5.1022e-05 | 5.1022e-05 |   0.0 | 57.99
Neigh   | 0          | 0          | 0          |   0.0 |  0.00
Comm    | 9.7752e-06 | 9.7752e-06 | 9.7752e-06 |   0.0 | 11.11
Output  | 9.0599e-06 | 9.0599e-06 | 9.0599e-06 |   0.0 | 10.30
Modify  | 0          | 0          | 0          |   0.0 |  0.00
Other   |            | 1.812e-05  |            |       | 20.60

Nlocal:    4 ave 4 max 4 min
Histogram: 1 0 0 0 0 0 0 0 0 0
Nghost:    360 ave 360 max 360 min
Histogram: 1 0 0 0 0 0 0 0 0 0
Neighs:    156 ave 156 max 156 min
Histogram: 1 0 0 0 0 0 0 0 0 0

Total # of neighbors = 156
Ave neighs/atom = 39
Neighbor list builds = 0
Dangerous builds = 0
Reading restart file ...
  restart file = 11 Aug 2017, LAMMPS = 11 Aug 2017
  triclinic box = (0.0175835 0.0175835 0.0175835) to (3.49912 3.49912 3.49912) with tilt (0 -0 0)
  1 by 1 by 1 MPI processor grid
  4 atoms
4 atoms in group Ni
Changing box ...
  triclinic box = (0.0175835 0.0175835 0.0175835) to (3.49912 3.49912 3.49912) with tilt (0 -0 0)
Neighbor list info ...
  update every 1 steps, delay 0 steps, check yes
  max neighbors/atom: 2000, page size: 100000
  master list distance cutoff = 5.64464
  ghost atom cutoff = 5.64464
  binsize = 2.82232, bins = 2 2 2
  1 neighbor lists, perpetual/occasional/extra = 1 0 0
  (1) pair eam/alloy, perpetual
      attributes: half, newton on
      pair build: half/bin/newton/tri
      stencil: half/bin/3d/newton/tri
      bin: standard
Setting up cg style minimization ...
  Unit style    : metal
  Current step  : 100
Per MPI rank memory allocation (min/avg/max) = 4.086 | 4.086 | 4.086 Mbytes
Step Temp PotEng Press Pxx Pyy Pzz Pxy Pxz Pyz Lx Ly Lz Volume 
     100            0   -21.551412   -212472.86   -212472.71   -212472.71   -212473.16 -3.6882186e-12 -2.1602423e-11 -1.0010879e-11     3.481533     3.481533    3.4815365    42.199954 
     101            0   -21.551412   -212472.87   -212472.72   -212472.72   -212473.17 -1.0010879e-11 -1.6860428e-11 1.5279763e-11     3.481533     3.481533    3.4815365    42.199954 
     102            0   -21.551412   -212472.87   -212472.72   -212472.72   -212473.17 1.2645321e-11 4.7419954e-11 3.0559526e-11     3.481533     3.481533    3.4815365    42.199954 
Loop time of 9.08375e-05 on 1 procs for 2 steps with 4 atoms

83.7% CPU use with 1 MPI tasks x no OpenMP threads

Minimization stats:
  Stopping criterion = force tolerance
  Energy initial, next-to-last, final = 
        -21.5514121747     -21.5514122259     -21.5514122259
  Force two-norm initial, final = 0.00121996 6.86305e-15
  Force max component initial, final = 0.000352173 2.47025e-15
  Final line search alpha, max atom move = 1 2.47025e-15
  Iterations, force evaluations = 2 4

MPI task timing breakdown:
Section |  min time  |  avg time  |  max time  |%varavg| %total
---------------------------------------------------------------
Pair    | 5.1022e-05 | 5.1022e-05 | 5.1022e-05 |   0.0 | 56.17
Neigh   | 0          | 0          | 0          |   0.0 |  0.00
Comm    | 1.0967e-05 | 1.0967e-05 | 1.0967e-05 |   0.0 | 12.07
Output  | 9.0599e-06 | 9.0599e-06 | 9.0599e-06 |   0.0 |  9.97
Modify  | 0          | 0          | 0          |   0.0 |  0.00
Other   |            | 1.979e-05  |            |       | 21.78

Nlocal:    4 ave 4 max 4 min
Histogram: 1 0 0 0 0 0 0 0 0 0
Nghost:    360 ave 360 max 360 min
Histogram: 1 0 0 0 0 0 0 0 0 0
Neighs:    156 ave 156 max 156 min
Histogram: 1 0 0 0 0 0 0 0 0 0

Total # of neighbors = 156
Ave neighs/atom = 39
Neighbor list builds = 0
Dangerous builds = 0
Reading restart file ...
  restart file = 11 Aug 2017, LAMMPS = 11 Aug 2017
  triclinic box = (0.0175835 0.0175835 0.0175835) to (3.49912 3.49912 3.49912) with tilt (0 -0 0)
  1 by 1 by 1 MPI processor grid
  4 atoms
4 atoms in group Ni
Changing box ...
  triclinic box = (0.0175835 0.0175835 0.0175835) to (3.49912 3.49912 3.49912) with tilt (0 -0 -3.48153e-06)
Neighbor list info ...
  update every 1 steps, delay 0 steps, check yes
  max neighbors/atom: 2000, page size: 100000
  master list distance cutoff = 5.64464
  ghost atom cutoff = 5.64464
  binsize = 2.82232, bins = 2 2 2
  1 neighbor lists, perpetual/occasional/extra = 1 0 0
  (1) pair eam/alloy, perpetual
      attributes: half, newton on
      pair build: half/bin/newton/tri
      stencil: half/bin/3d/newton/tri
      bin: standard
Setting up cg style minimization ...
  Unit style    : metal
  Current step  : 100
Per MPI rank memory allocation (min/avg/max) = 4.086 | 4.086 | 4.086 Mbytes
Step Temp PotEng Press Pxx Pyy Pzz Pxy Pxz Pyz Lx Ly Lz Volume 
     100            0   -21.551418   -212471.75   -212471.75   -212471.75   -212471.75 9.2732447e-11 -7.3764446e-12   0.76637836     3.481533     3.481533     3.481533    42.199912 
     101            0   -21.551418   -212471.76   -212471.76   -212471.76   -212471.76 5.268889e-13 1.5806667e-11   0.76637837     3.481533     3.481533     3.481533    42.199912 
     102            0   -21.551418   -212471.76   -212471.76   -212471.76   -212471.76 -3.8989779e-11 -5.268889e-13   0.76637837     3.481533     3.481533     3.481533    42.199912 
     103            0   -21.551418   -212471.76   -212471.76   -212471.76   -212471.76  -1.4226e-11 1.1064667e-11   0.76637837     3.481533     3.481533     3.481533    42.199912 
Loop time of 0.000119925 on 1 procs for 3 steps with 4 atoms

87.6% CPU use with 1 MPI tasks x no OpenMP threads

Minimization stats:
  Stopping criterion = force tolerance
  Energy initial, next-to-last, final = 
         -21.551417771     -21.5514178222     -21.5514178222
  Force two-norm initial, final = 0.00121997 2.31183e-15
  Force max component initial, final = 0.000352176 1.77289e-15
  Final line search alpha, max atom move = 1 1.77289e-15
  Iterations, force evaluations = 3 6

MPI task timing breakdown:
Section |  min time  |  avg time  |  max time  |%varavg| %total
---------------------------------------------------------------
Pair    | 7.2002e-05 | 7.2002e-05 | 7.2002e-05 |   0.0 | 60.04
Neigh   | 0          | 0          | 0          |   0.0 |  0.00
Comm    | 1.2636e-05 | 1.2636e-05 | 1.2636e-05 |   0.0 | 10.54
Output  | 1.6928e-05 | 1.6928e-05 | 1.6928e-05 |   0.0 | 14.12
Modify  | 0          | 0          | 0          |   0.0 |  0.00
Other   |            | 1.836e-05  |            |       | 15.31

Nlocal:    4 ave 4 max 4 min
Histogram: 1 0 0 0 0 0 0 0 0 0
Nghost:    360 ave 360 max 360 min
Histogram: 1 0 0 0 0 0 0 0 0 0
Neighs:    156 ave 156 max 156 min
Histogram: 1 0 0 0 0 0 0 0 0 0

Total # of neighbors = 156
Ave neighs/atom = 39
Neighbor list builds = 0
Dangerous builds = 0
Reading restart file ...
  restart file = 11 Aug 2017, LAMMPS = 11 Aug 2017
  triclinic box = (0.0175835 0.0175835 0.0175835) to (3.49912 3.49912 3.49912) with tilt (0 -0 0)
  1 by 1 by 1 MPI processor grid
  4 atoms
4 atoms in group Ni
Changing box ...
  triclinic box = (0.0175835 0.0175835 0.0175835) to (3.49912 3.49912 3.49912) with tilt (0 -0 3.48153e-06)
Neighbor list info ...
  update every 1 steps, delay 0 steps, check yes
  max neighbors/atom: 2000, page size: 100000
  master list distance cutoff = 5.64464
  ghost atom cutoff = 5.64464
  binsize = 2.82232, bins = 2 2 2
  1 neighbor lists, perpetual/occasional/extra = 1 0 0
  (1) pair eam/alloy, perpetual
      attributes: half, newton on
      pair build: half/bin/newton/tri
      stencil: half/bin/3d/newton/tri
      bin: standard
Setting up cg style minimization ...
  Unit style    : metal
  Current step  : 100
Per MPI rank memory allocation (min/avg/max) = 4.086 | 4.086 | 4.086 Mbytes
Step Temp PotEng Press Pxx Pyy Pzz Pxy Pxz Pyz Lx Ly Lz Volume 
     100            0   -21.551418   -212471.75   -212471.75   -212471.75   -212471.75 3.1613334e-12 -6.3226668e-12  -0.76637836     3.481533     3.481533     3.481533    42.199912 
     101            0   -21.551418   -212471.76   -212471.76   -212471.76   -212471.76 -1.3699111e-11 9.4840003e-12  -0.76637837     3.481533     3.481533     3.481533    42.199912 
     102            0   -21.551418   -212471.76   -212471.76   -212471.76   -212471.76 -3.7409112e-11 -3.2667112e-11  -0.76637837     3.481533     3.481533     3.481533    42.199912 
     103            0   -21.551418   -212471.76   -212471.76   -212471.76   -212471.76 -2.1075556e-12 -1.5279778e-11  -0.76637837     3.481533     3.481533     3.481533    42.199912 
Loop time of 0.000121117 on 1 procs for 3 steps with 4 atoms

86.7% CPU use with 1 MPI tasks x no OpenMP threads

Minimization stats:
  Stopping criterion = force tolerance
  Energy initial, next-to-last, final = 
         -21.551417771     -21.5514178222     -21.5514178222
  Force two-norm initial, final = 0.00121997 2.3842e-15
  Force max component initial, final = 0.000352176 1.9082e-15
  Final line search alpha, max atom move = 1 1.9082e-15
  Iterations, force evaluations = 3 6

MPI task timing breakdown:
Section |  min time  |  avg time  |  max time  |%varavg| %total
---------------------------------------------------------------
Pair    | 7.081e-05  | 7.081e-05  | 7.081e-05  |   0.0 | 58.46
Neigh   | 0          | 0          | 0          |   0.0 |  0.00
Comm    | 1.3828e-05 | 1.3828e-05 | 1.3828e-05 |   0.0 | 11.42
Output  | 1.7166e-05 | 1.7166e-05 | 1.7166e-05 |   0.0 | 14.17
Modify  | 0          | 0          | 0          |   0.0 |  0.00
Other   |            | 1.931e-05  |            |       | 15.94

Nlocal:    4 ave 4 max 4 min
Histogram: 1 0 0 0 0 0 0 0 0 0
Nghost:    360 ave 360 max 360 min
Histogram: 1 0 0 0 0 0 0 0 0 0
Neighs:    156 ave 156 max 156 min
Histogram: 1 0 0 0 0 0 0 0 0 0

Total # of neighbors = 156
Ave neighs/atom = 39
Neighbor list builds = 0
Dangerous builds = 0
Reading restart file ...
  restart file = 11 Aug 2017, LAMMPS = 11 Aug 2017
  triclinic box = (0.0175835 0.0175835 0.0175835) to (3.49912 3.49912 3.49912) with tilt (0 -0 0)
  1 by 1 by 1 MPI processor grid
  4 atoms
4 atoms in group Ni
Changing box ...
  triclinic box = (0.0175835 0.0175835 0.0175835) to (3.49912 3.49912 3.49912) with tilt (0 -3.48153e-06 0)
Neighbor list info ...
  update every 1 steps, delay 0 steps, check yes
  max neighbors/atom: 2000, page size: 100000
  master list distance cutoff = 5.64464
  ghost atom cutoff = 5.64464
  binsize = 2.82232, bins = 2 2 2
  1 neighbor lists, perpetual/occasional/extra = 1 0 0
  (1) pair eam/alloy, perpetual
      attributes: half, newton on
      pair build: half/bin/newton/tri
      stencil: half/bin/3d/newton/tri
      bin: standard
Setting up cg style minimization ...
  Unit style    : metal
  Current step  : 100
Per MPI rank memory allocation (min/avg/max) = 4.086 | 4.086 | 4.086 Mbytes
Step Temp PotEng Press Pxx Pyy Pzz Pxy Pxz Pyz Lx Ly Lz Volume 
     100            0   -21.551418   -212471.75   -212471.75   -212471.75   -212471.75 6.2172891e-11   0.76637836 -8.9571114e-12     3.481533     3.481533     3.481533    42.199912 
     101            0   -21.551418   -212471.76   -212471.76   -212471.76   -212471.76 2.5817556e-11   0.76637837 -5.268889e-13     3.481533     3.481533     3.481533    42.199912 
     102            0   -21.551418   -212471.76   -212471.76   -212471.76   -212471.76 -7.9033336e-12   0.76637837 -1.5279778e-11     3.481533     3.481533     3.481533    42.199912 
     103            0   -21.551418   -212471.76   -212471.76   -212471.76   -212471.76 6.3753557e-11   0.76637837 6.3226668e-12     3.481533     3.481533     3.481533    42.199912 
Loop time of 0.000118971 on 1 procs for 3 steps with 4 atoms

88.3% CPU use with 1 MPI tasks x no OpenMP threads

Minimization stats:
  Stopping criterion = force tolerance
  Energy initial, next-to-last, final = 
         -21.551417771     -21.5514178222     -21.5514178222
  Force two-norm initial, final = 0.00121997 5.25943e-15
  Force max component initial, final = 0.000352176 2.47198e-15
  Final line search alpha, max atom move = 1 2.47198e-15
  Iterations, force evaluations = 3 6

MPI task timing breakdown:
Section |  min time  |  avg time  |  max time  |%varavg| %total
---------------------------------------------------------------
Pair    | 7.2002e-05 | 7.2002e-05 | 7.2002e-05 |   0.0 | 60.52
Neigh   | 0          | 0          | 0          |   0.0 |  0.00
Comm    | 1.6928e-05 | 1.6928e-05 | 1.6928e-05 |   0.0 | 14.23
Output  | 1.8835e-05 | 1.8835e-05 | 1.8835e-05 |   0.0 | 15.83
Modify  | 0          | 0          | 0          |   0.0 |  0.00
Other   |            | 1.121e-05  |            |       |  9.42

Nlocal:    4 ave 4 max 4 min
Histogram: 1 0 0 0 0 0 0 0 0 0
Nghost:    360 ave 360 max 360 min
Histogram: 1 0 0 0 0 0 0 0 0 0
Neighs:    156 ave 156 max 156 min
Histogram: 1 0 0 0 0 0 0 0 0 0

Total # of neighbors = 156
Ave neighs/atom = 39
Neighbor list builds = 0
Dangerous builds = 0
Reading restart file ...
  restart file = 11 Aug 2017, LAMMPS = 11 Aug 2017
  triclinic box = (0.0175835 0.0175835 0.0175835) to (3.49912 3.49912 3.49912) with tilt (0 -0 0)
  1 by 1 by 1 MPI processor grid
  4 atoms
4 atoms in group Ni
Changing box ...
  triclinic box = (0.0175835 0.0175835 0.0175835) to (3.49912 3.49912 3.49912) with tilt (0 3.48153e-06 0)
Neighbor list info ...
  update every 1 steps, delay 0 steps, check yes
  max neighbors/atom: 2000, page size: 100000
  master list distance cutoff = 5.64464
  ghost atom cutoff = 5.64464
  binsize = 2.82232, bins = 2 2 2
  1 neighbor lists, perpetual/occasional/extra = 1 0 0
  (1) pair eam/alloy, perpetual
      attributes: half, newton on
      pair build: half/bin/newton/tri
      stencil: half/bin/3d/newton/tri
      bin: standard
Setting up cg style minimization ...
  Unit style    : metal
  Current step  : 100
Per MPI rank memory allocation (min/avg/max) = 4.086 | 4.086 | 4.086 Mbytes
Step Temp PotEng Press Pxx Pyy Pzz Pxy Pxz Pyz Lx Ly Lz Volume 
     100            0   -21.551418   -212471.75   -212471.75   -212471.75   -212471.75 4.320489e-11  -0.76637836 -2.0548667e-11     3.481533     3.481533     3.481533    42.199912 
     101            0   -21.551418   -212471.76   -212471.76   -212471.76   -212471.76 -9.4840003e-12  -0.76637837 3.6882223e-11     3.481533     3.481533     3.481533    42.199912 
     102            0   -21.551418   -212471.76   -212471.76   -212471.76   -212471.76 -1.5806667e-12  -0.76637837 -3.8989779e-11     3.481533     3.481533     3.481533    42.199912 
     103            0   -21.551418   -212471.76   -212471.76   -212471.76   -212471.76 5.7957779e-12  -0.76637837 -2.4763778e-11     3.481533     3.481533     3.481533    42.199912 
Loop time of 0.000121117 on 1 procs for 3 steps with 4 atoms

90.0% CPU use with 1 MPI tasks x no OpenMP threads

Minimization stats:
  Stopping criterion = force tolerance
  Energy initial, next-to-last, final = 
         -21.551417771     -21.5514178222     -21.5514178222
  Force two-norm initial, final = 0.00121997 2.34027e-16
  Force max component initial, final = 0.000352176 1.11022e-16
  Final line search alpha, max atom move = 1 1.11022e-16
  Iterations, force evaluations = 3 6

MPI task timing breakdown:
Section |  min time  |  avg time  |  max time  |%varavg| %total
---------------------------------------------------------------
Pair    | 7.1049e-05 | 7.1049e-05 | 7.1049e-05 |   0.0 | 58.66
Neigh   | 0          | 0          | 0          |   0.0 |  0.00
Comm    | 1.5736e-05 | 1.5736e-05 | 1.5736e-05 |   0.0 | 12.99
Output  | 1.7166e-05 | 1.7166e-05 | 1.7166e-05 |   0.0 | 14.17
Modify  | 0          | 0          | 0          |   0.0 |  0.00
Other   |            | 1.717e-05  |            |       | 14.17

Nlocal:    4 ave 4 max 4 min
Histogram: 1 0 0 0 0 0 0 0 0 0
Nghost:    360 ave 360 max 360 min
Histogram: 1 0 0 0 0 0 0 0 0 0
Neighs:    156 ave 156 max 156 min
Histogram: 1 0 0 0 0 0 0 0 0 0

Total # of neighbors = 156
Ave neighs/atom = 39
Neighbor list builds = 0
Dangerous builds = 0
Reading restart file ...
  restart file = 11 Aug 2017, LAMMPS = 11 Aug 2017
  triclinic box = (0.0175835 0.0175835 0.0175835) to (3.49912 3.49912 3.49912) with tilt (0 -0 0)
  1 by 1 by 1 MPI processor grid
  4 atoms
4 atoms in group Ni
Changing box ...
  triclinic box = (0.0175835 0.0175835 0.0175835) to (3.49912 3.49912 3.49912) with tilt (-3.48153e-06 -0 0)
Neighbor list info ...
  update every 1 steps, delay 0 steps, check yes
  max neighbors/atom: 2000, page size: 100000
  master list distance cutoff = 5.64464
  ghost atom cutoff = 5.64464
  binsize = 2.82232, bins = 2 2 2
  1 neighbor lists, perpetual/occasional/extra = 1 0 0
  (1) pair eam/alloy, perpetual
      attributes: half, newton on
      pair build: half/bin/newton/tri
      stencil: half/bin/3d/newton/tri
      bin: standard
Setting up cg style minimization ...
  Unit style    : metal
  Current step  : 100
Per MPI rank memory allocation (min/avg/max) = 4.086 | 4.086 | 4.086 Mbytes
Step Temp PotEng Press Pxx Pyy Pzz Pxy Pxz Pyz Lx Ly Lz Volume 
     100            0   -21.551418   -212471.75   -212471.75   -212471.75   -212471.75   0.76637836 6.3753557e-11 -1.0010889e-11     3.481533     3.481533     3.481533    42.199912 
     101            0   -21.551418   -212471.76   -212471.76   -212471.76   -212471.76   0.76637837 2.3710001e-11 4.5839335e-11     3.481533     3.481533     3.481533    42.199912 
     102            0   -21.551418   -212471.76   -212471.76   -212471.76   -212471.76   0.76637837 -1.5806667e-11 -3.4247779e-11     3.481533     3.481533     3.481533    42.199912 
     103            0   -21.551418   -212471.76   -212471.76   -212471.76   -212471.76   0.76637837 2.4763778e-11 2.9505779e-11     3.481533     3.481533     3.481533    42.199912 
Loop time of 0.000119925 on 1 procs for 3 steps with 4 atoms

89.2% CPU use with 1 MPI tasks x no OpenMP threads

Minimization stats:
  Stopping criterion = force tolerance
  Energy initial, next-to-last, final = 
         -21.551417771     -21.5514178222     -21.5514178222
  Force two-norm initial, final = 0.00121997 5.7749e-15
  Force max component initial, final = 0.000352176 3.01148e-15
  Final line search alpha, max atom move = 1 3.01148e-15
  Iterations, force evaluations = 3 6

MPI task timing breakdown:
Section |  min time  |  avg time  |  max time  |%varavg| %total
---------------------------------------------------------------
Pair    | 7.0095e-05 | 7.0095e-05 | 7.0095e-05 |   0.0 | 58.45
Neigh   | 0          | 0          | 0          |   0.0 |  0.00
Comm    | 1.4782e-05 | 1.4782e-05 | 1.4782e-05 |   0.0 | 12.33
Output  | 1.7881e-05 | 1.7881e-05 | 1.7881e-05 |   0.0 | 14.91
Modify  | 0          | 0          | 0          |   0.0 |  0.00
Other   |            | 1.717e-05  |            |       | 14.31

Nlocal:    4 ave 4 max 4 min
Histogram: 1 0 0 0 0 0 0 0 0 0
Nghost:    360 ave 360 max 360 min
Histogram: 1 0 0 0 0 0 0 0 0 0
Neighs:    156 ave 156 max 156 min
Histogram: 1 0 0 0 0 0 0 0 0 0

Total # of neighbors = 156
Ave neighs/atom = 39
Neighbor list builds = 0
Dangerous builds = 0
Reading restart file ...
  restart file = 11 Aug 2017, LAMMPS = 11 Aug 2017
  triclinic box = (0.0175835 0.0175835 0.0175835) to (3.49912 3.49912 3.49912) with tilt (0 -0 0)
  1 by 1 by 1 MPI processor grid
  4 atoms
4 atoms in group Ni
Changing box ...
  triclinic box = (0.0175835 0.0175835 0.0175835) to (3.49912 3.49912 3.49912) with tilt (3.48153e-06 -0 0)
Neighbor list info ...
  update every 1 steps, delay 0 steps, check yes
  max neighbors/atom: 2000, page size: 100000
  master list distance cutoff = 5.64464
  ghost atom cutoff = 5.64464
  binsize = 2.82232, bins = 2 2 2
  1 neighbor lists, perpetual/occasional/extra = 1 0 0
  (1) pair eam/alloy, perpetual
      attributes: half, newton on
      pair build: half/bin/newton/tri
      stencil: half/bin/3d/newton/tri
      bin: standard
Setting up cg style minimization ...
  Unit style    : metal
  Current step  : 100
Per MPI rank memory allocation (min/avg/max) = 4.086 | 4.086 | 4.086 Mbytes
Step Temp PotEng Press Pxx Pyy Pzz Pxy Pxz Pyz Lx Ly Lz Volume 
     100            0   -21.551418   -212471.75   -212471.75   -212471.75   -212471.75  -0.76637836 2.3183112e-11 -1.6860445e-11     3.481533     3.481533     3.481533    42.199912 
     101            0   -21.551418   -212471.76   -212471.76   -212471.76   -212471.76  -0.76637837 -1.7914223e-11 -8.4302225e-12     3.481533     3.481533     3.481533    42.199912 
     102            0   -21.551418   -212471.76   -212471.76   -212471.76   -212471.76  -0.76637837 -1.4752889e-11 -5.268889e-13     3.481533     3.481533     3.481533    42.199912 
     103            0   -21.551418   -212471.76   -212471.76   -212471.76   -212471.76  -0.76637837 -3.3194001e-11 -1.8441112e-11     3.481533     3.481533     3.481533    42.199912 
Loop time of 0.000126123 on 1 procs for 3 steps with 4 atoms

100.7% CPU use with 1 MPI tasks x no OpenMP threads

Minimization stats:
  Stopping criterion = force tolerance
  Energy initial, next-to-last, final = 
         -21.551417771     -21.5514178222     -21.5514178222
  Force two-norm initial, final = 0.00121997 5.29643e-15
  Force max component initial, final = 0.000352176 2.60902e-15
  Final line search alpha, max atom move = 1 2.60902e-15
  Iterations, force evaluations = 3 6

MPI task timing breakdown:
Section |  min time  |  avg time  |  max time  |%varavg| %total
---------------------------------------------------------------
Pair    | 7.6056e-05 | 7.6056e-05 | 7.6056e-05 |   0.0 | 60.30
Neigh   | 0          | 0          | 0          |   0.0 |  0.00
Comm    | 1.3828e-05 | 1.3828e-05 | 1.3828e-05 |   0.0 | 10.96
Output  | 1.812e-05  | 1.812e-05  | 1.812e-05  |   0.0 | 14.37
Modify  | 0          | 0          | 0          |   0.0 |  0.00
Other   |            | 1.812e-05  |            |       | 14.37

Nlocal:    4 ave 4 max 4 min
Histogram: 1 0 0 0 0 0 0 0 0 0
Nghost:    360 ave 360 max 360 min
Histogram: 1 0 0 0 0 0 0 0 0 0
Neighs:    156 ave 156 max 156 min
Histogram: 1 0 0 0 0 0 0 0 0 0

Total # of neighbors = 156
Ave neighs/atom = 39
Neighbor list builds = 0
Dangerous builds = 0
c11 = 141.432099200029 GPa
c22 = 141.432099200029 GPa
c33 = 141.432099200029 GPa
c12 = 96.1180682992563 GPa
c13 = 96.1180683239945 GPa
c23 = 96.1180682992563 GPa
c44 = 76.6378372178455 GPa
c55 = 76.637837217345 GPa
c66 = 76.6378372221397 GPa
c14 = 3.81995232111644e-10 GPa
c15 = 2.1338992156668e-09 GPa
c16 = 2.51589463218957e-09 GPa
c24 = 4.47856279173033e-10 GPa
c25 = 5.13717800434435e-10 GPa
c26 = -9.0888192255826e-10 GPa
c34 = -9.22054974992785e-10 GPa
c35 = -1.19867108286172e-09 GPa
c36 = -3.95166440435003e-10 GPa
c45 = 1.4357722617091e-09 GPa
c46 = 8.95711135745126e-10 GPa
c56 = 2.89788896858718e-09 GPa
lammps_sim_done
Total wall time: 0:00:00
