# ['Ni']

18 atoms
1 atom types

    0.0000     2.1404 xlo xhi
    0.0000     3.7074 ylo yhi
    0.0000    31.4528 zlo zhi

    0.0000     0.0000    -0.0003 xy xz yz

Atoms

1 1     0.0000     0.0000     0.0000
2 1     1.0702     0.6179     1.7474
3 1     0.0000     1.2358     3.4947
4 1     1.0702     1.8537     0.0000
5 1     0.0000     2.4716     1.7474
6 1     1.0702     3.0895     3.4947
7 1     0.0000     0.0000     5.2421
8 1     1.0702     0.6179     6.9895
9 1     0.0000     1.2358     8.7369
10 1     1.0702     1.8537     5.2421
11 1     0.0000     2.4716     6.9895
12 1     1.0702     3.0895     8.7369
13 1     0.0000     0.0000    10.4842
14 1     1.0702     0.6179    12.2316
15 1     0.0000     1.2358    13.9790
16 1     1.0702     1.8537    10.4842
17 1     0.0000     2.4716    12.2316
18 1     1.0702     3.0895    13.9790
