# ['Ni']

28 atoms
1 atom types

    0.0000     2.4804 xlo xhi
    0.0000     4.2961 ylo yhi
    0.0000    28.3529 zlo zhi

    0.0000     0.0000     0.0000 xy xz yz

Atoms

1 1     0.0000     0.0000     0.0000
2 1     1.2402     2.1481     0.0000
3 1     1.2402     0.7160     2.0252
4 1     0.0000     2.8641     2.0252
5 1     0.0000     1.4320     4.0504
6 1     1.2402     3.5801     4.0504
7 1     0.0000     0.0000     6.0756
8 1     1.2402     2.1481     6.0756
9 1     1.2402     0.7160     8.1008
10 1     0.0000     2.8641     8.1008
11 1     0.0000     1.4320    10.1260
12 1     1.2402     3.5801    10.1260
13 1     0.0000     0.0000    12.1512
14 1     1.2402     2.1481    12.1512
15 1     0.0000     1.4320    14.1764
16 1     1.2402     3.5801    14.1764
17 1     0.0000     0.0000    16.2017
18 1     1.2402     2.1481    16.2017
19 1     1.2402     0.7160    18.2269
20 1     0.0000     2.8641    18.2269
21 1     0.0000     1.4320    20.2521
22 1     1.2402     3.5801    20.2521
23 1     0.0000     0.0000    22.2773
24 1     1.2402     2.1481    22.2773
25 1     1.2402     0.7160    24.3025
26 1     0.0000     2.8641    24.3025
27 1     0.0000     1.4320    26.3277
28 1     1.2402     3.5801    26.3277
