# ['Ni']

28 atoms
1 atom types

    0.0000     2.3585 xlo xhi
    0.0000     4.0850 ylo yhi
    0.0000    26.9594 zlo zhi

    0.0000     0.0000     0.0000 xy xz yz

Atoms

1 1     0.0000     0.0000     0.0000
2 1     1.1792     2.0425     0.0000
3 1     1.1792     0.6808     1.9257
4 1     0.0000     2.7233     1.9257
5 1     0.0000     1.3617     3.8513
6 1     1.1792     3.4041     3.8513
7 1     0.0000     0.0000     5.7770
8 1     1.1792     2.0425     5.7770
9 1     1.1792     0.6808     7.7027
10 1     0.0000     2.7233     7.7027
11 1     0.0000     1.3617     9.6284
12 1     1.1792     3.4041     9.6284
13 1     0.0000     0.0000    11.5540
14 1     1.1792     2.0425    11.5540
15 1     0.0000     1.3617    13.4797
16 1     1.1792     3.4041    13.4797
17 1     0.0000     0.0000    15.4054
18 1     1.1792     2.0425    15.4054
19 1     1.1792     0.6808    17.3311
20 1     0.0000     2.7233    17.3311
21 1     0.0000     1.3617    19.2568
22 1     1.1792     3.4041    19.2568
23 1     0.0000     0.0000    21.1824
24 1     1.1792     2.0425    21.1824
25 1     1.1792     0.6808    23.1081
26 1     0.0000     2.7233    23.1081
27 1     0.0000     1.3617    25.0338
28 1     1.1792     3.4041    25.0338
