LAMMPS (11 Aug 2017)
Reading data file ...
  triclinic box = (0 0 0) to (3.6 6.2354 5.8788) with tilt (0 0 0)
  1 by 1 by 1 MPI processor grid
  reading atoms ...
  4 atoms
4 atoms in group Ni
Neighbor list info ...
  update every 1 steps, delay 0 steps, check yes
  max neighbors/atom: 2000, page size: 100000
  master list distance cutoff = 11
  ghost atom cutoff = 11
  binsize = 5.5, bins = 1 2 2
  1 neighbor lists, perpetual/occasional/extra = 1 0 0
  (1) pair eam/alloy, perpetual
      attributes: half, newton on
      pair build: half/bin/newton/tri
      stencil: half/bin/3d/newton/tri
      bin: standard
Setting up cg style minimization ...
  Unit style    : metal
  Current step  : 0
WARNING: Energy due to 3 extra global DOFs will be included in minimizer energies
Per MPI rank memory allocation (min/avg/max) = 4.231 | 4.231 | 4.231 Mbytes
Step PotEng Xhi Xlo Yhi Ylo Zhi Xy Xz Yz Press Pxx Pyy Pzz Pxy Pxz Pyz c_eatoms 
       0   -6.2414742          3.6            0       6.2354            0       5.8788            0            0            0    -123153.5   -123126.28   -123124.58   -123209.63 2.2101835e-11 1.8689565e-11 2.9612095e-11   -6.2414742 
      10   -6.5519776    3.5820125  0.017987544     6.204245  0.031154994     5.849406            0            0            0   -130899.37   -130869.23   -130867.42   -130961.46 2.9446184e-12 1.739341e-11 3.5359909e-11   -6.5519776 
      20   -6.8752503    3.5640255  0.035974454    6.1730911  0.062308886     5.820012            0            0            0   -139000.72    -138967.4   -138965.48   -139069.26 1.5157638e-11 2.8771691e-12 -1.8920113e-12   -6.8752503 
      30    -7.211424    3.5460393  0.053960715    6.1419384  0.093461648     5.790618            0            0            0   -147453.33   -147416.59   -147414.55   -147528.86 -1.4022348e-11 1.0315619e-11 -1.1500024e-11    -7.211424 
      40   -7.5605719    3.5280537   0.07194631    6.1107867   0.12461325     5.761224            0            0            0   -156252.72   -156212.26    -156210.1    -156335.8 2.8389119e-12 -1.3266776e-11 -1.3359975e-11   -7.5605719 
      50   -7.9226997    3.5100688  0.089931209    6.0796364   0.15576364      5.73183            0            0            0   -165371.66   -165327.17   -165324.88   -165462.95 5.8414404e-12 1.8216667e-11 1.1830157e-11   -7.9226997 
      60   -8.2977456    3.4920846   0.10791539    6.0484872   0.18691278     5.702436            0            0            0   -174813.02   -174764.19   -174761.77   -174913.11 3.601834e-12 6.1571531e-12 8.4383123e-12   -8.2977456 
      70   -8.6855581    3.4741012   0.12589883    6.0173394   0.21806064     5.673042            0            0            0   -184517.06   -184463.59   -184461.04   -184626.55 -2.841021e-11 1.8861215e-11 -2.4567631e-11   -8.6855581 
      80   -9.0858901    3.4561185   0.14388151    5.9861928   0.24920718     5.643648            0            0            0   -194460.46   -194402.09    -194399.4    -194579.9 -1.0284531e-11 -1.3218991e-11 -2.9747552e-11   -9.0858901 
      90   -9.4983792    3.4381366   0.16186343    5.9550476   0.28035239     5.614254            0            0            0   -204599.39   -204535.85   -204533.01    -204729.3 5.6613945e-12 -1.3163393e-11 1.8894126e-11   -9.4983792 
     100   -9.9225412    3.4201554   0.17984457    5.9239038   0.31149624      5.58486            0            0            0   -214874.29   -214805.31   -214802.33   -215015.24 3.0494689e-11 -2.3966946e-11 -3.4989692e-11   -9.9225412 
     110   -10.357739    3.4021751    0.1978249    5.8927613    0.3426387     5.555466            0            0            0   -225178.95   -225104.29   -225101.16   -225331.41 1.2372345e-11 -6.7743519e-11 -7.9762896e-11   -10.357739 
     120   -10.803178    3.3841956   0.21580443    5.8616203   0.37377974     5.526072            0            0            0   -235455.15   -235374.59   -235371.32   -235619.54 8.0634646e-11 -1.9333705e-11 -1.5092554e-11   -10.803178 
     130   -11.257876    3.3662169   0.23378312    5.8304807   0.40491933     5.496678            0            0            0    -245566.8    -245480.2   -245476.79   -245743.41 2.5174004e-11 6.0940868e-11 4.882648e-11   -11.257876 
     140   -11.720636     3.348239   0.25176097    5.7993425   0.43605746     5.467284            0            0            0   -255306.69   -255213.96   -255210.42    -255495.7 -1.6839424e-12 3.6219767e-11 6.0606708e-11   -11.720636 
     150   -12.190032    3.3302621   0.26973795    5.7682059   0.46719408      5.43789            0            0            0   -264632.02   -264533.07    -264529.4   -264833.59 -4.013348e-11 -1.4718015e-11 1.405884e-10   -12.190032 
     160   -12.664365     3.312286   0.28771404    5.7370709   0.49832915     5.408496            0            0            0   -273287.76   -273182.63   -273178.83   -273501.81 1.1162962e-10 -9.9882378e-11 -3.475619e-11   -12.664365 
     170   -13.141653    3.2943108   0.30568922    5.7059374   0.52946264     5.379102            0            0            0   -280984.36   -280873.25   -280869.34   -281210.48 -2.8543694e-11 5.2668853e-12 -8.939293e-12   -13.141653 
     180   -13.619564    3.2763365   0.32366348    5.6748055   0.56059451     5.349708            0            0            0   -287520.22   -287403.43   -287399.42   -287757.81 -3.774086e-11 2.0007569e-11 1.569788e-10   -13.619564 
     190   -14.095408    3.2583632   0.34163678    5.6436753   0.59172472     5.320314            0            0            0   -292458.16   -292336.16   -292332.08   -292706.23 3.1087805e-11 -3.8190461e-11 -9.920042e-11   -14.095408 
     200   -14.566073    3.2403909   0.35960909    5.6125468   0.62285322      5.29092            0            0            0   -295455.25   -295328.72   -295324.59   -295712.45 -4.1517114e-11 -8.7798503e-11 -1.5159411e-10   -14.566073 
     210   -15.027981    3.2224196    0.3775804      5.58142   0.65397995     5.261526            0            0            0   -296020.83   -295890.72   -295886.56    -296285.2 1.1582809e-11 6.3763337e-12 1.2144242e-10   -15.027981 
     220   -15.477046    3.2044494   0.39555065    5.5502951   0.68510486     5.232132            0            0            0   -293658.39   -293525.92   -293521.78   -293927.46 4.5432596e-11 -1.4945208e-10 -2.0670288e-10   -15.477046 
     230   -15.908602    3.1864802   0.41351981    5.5191721   0.71622786     5.202738            0            0            0   -287628.23   -287495.04   -287490.95   -287898.68 8.9430947e-11 1.6308755e-12 -1.047697e-10   -15.908602 
     240   -16.317348    3.1685122   0.43148782    5.4880511   0.74734886     5.173344            0            0            0   -277248.06   -277116.21   -277112.23   -277515.76 7.3217169e-11 -1.8467017e-11 1.9463425e-11   -16.317348 
     250   -16.697266    3.1505454   0.44945462    5.4569323   0.77846773      5.14395            0            0            0   -261576.29   -261448.31    -261444.5   -261836.06 -6.8372661e-12 5.7902561e-11 3.0458462e-11   -16.697266 
     260   -17.041562    3.1325799   0.46742008    5.4258157   0.80958428     5.114556            0            0            0   -239631.95   -239510.95   -239507.38    -239877.5 -1.6867608e-11 3.5215579e-11 2.3393698e-10   -17.041562 
     270   -17.342562     3.114616   0.48538404    5.3947018    0.8406982     5.085162            0            0            0   -210187.94   -210077.76   -210074.53   -210411.54 4.5073114e-11 -1.0864022e-10 -2.3120366e-10   -17.342562 
     280   -17.591623    3.0966538   0.50334617    5.3635911   0.87180892     5.055768            0            0            0   -171881.61   -171786.87   -171784.07   -172073.91 6.506202e-11 9.3639963e-11 2.0025573e-10   -17.591623 
     290   -17.779034    3.0786942   0.52130575    5.3324848   0.90291518     5.026374            0            0            0   -122985.23   -122911.54   -122909.28   -123134.86 -1.8908904e-10 3.9696273e-10 -3.8119735e-10   -17.779034 
     300   -17.893902    3.0607396   0.53926039    5.3013873   0.93401275      4.99698            0            0            0   -61692.927   -61646.954   -61645.392   -61786.437 1.9047049e-10 -3.6094699e-11 -3.5621841e-11   -17.893902 
     310   -17.925472    3.0465738   0.55342616    5.2769246   0.95847542    4.9696528            0            0            0    544.44279    608.08341    610.70093    414.54404 -9.1718354e-11 -5.4774077e-12 -1.8964569e-10   -17.925472 
     320   -17.925688    3.0532133   0.54678672    5.2888772   0.94652276    4.9466776            0            0            0    1822.8754    2254.5523    2267.5279    946.54615 1.6773604e-10 -1.3834056e-10 4.9101891e-11   -17.925688 
     330   -17.926297    3.0605944   0.53940562     5.301994   0.93340602    4.9245611            0            0            0    870.53857    1668.1169    1688.3821   -744.88321 -9.4144207e-11 1.3580334e-10 -8.5635863e-11   -17.926297 
     340   -17.927372    3.0697818   0.53021823    5.3182237   0.91717625    4.8999773            0            0            0   -2156.0751   -917.47364   -889.93646   -4660.8153 9.6549002e-11 -8.0777244e-11 -3.6702765e-11   -17.927372 
     350   -17.928987    3.0782149   0.52178509    5.3331132   0.90228677    4.8729967            0            0            0    298.52291    1872.3699    1903.9948    -2880.796 1.0152808e-11 6.4680727e-11 3.6291014e-10   -17.928987 
     360   -17.931289    3.0885865   0.51141345    5.3513616   0.88403844    4.8436027            0            0            0    719.37792    2668.3562    2704.1571   -3214.3796 1.1496286e-10 1.3553111e-10 -6.4055598e-11   -17.931289 
     370   -17.934151    3.0995786   0.50042139    5.3706607   0.86473926    4.8142087            0            0            0    614.54145    2913.1879     2952.487   -4022.0506 -1.7209234e-10 1.8329426e-11 -8.3827603e-11   -17.934151 
     380   -17.937511    3.1109194    0.4890806    5.3905437   0.84485633    4.7848147            0            0            0    747.89707    3344.0703     3385.998    -4486.377 -5.7437212e-11 1.4990172e-10 1.9741453e-10   -17.937511 
     390   -17.941332     3.122674   0.47732599    5.4111282   0.82427179    4.7554207            0            0            0    947.62766    3791.2793    3835.2461   -4783.6424 5.9575978e-11 2.2619068e-10 -1.169061e-10   -17.941332 
     400   -17.945569    3.1348666   0.46513337    5.4324602   0.80293977    4.7260267            0            0            0    1152.7542    4194.3121    4239.9321   -4975.9815 -5.9095022e-11 -7.6837627e-11 -1.216107e-10   -17.945569 
     410   -17.950169    3.1475013   0.45249874    5.4545501   0.78084991    4.6966327            0            0            0    1354.2987    4543.7949    4590.8446   -5071.7436 5.8391134e-11 1.2681919e-10 1.7128767e-10   -17.950169 
     420   -17.955071    3.1605756   0.43942437    5.4773972   0.75800284    4.6672387            0            0            0    1544.2376    4832.2412    4880.6537   -5080.1821 -8.0750025e-13 1.3493781e-10 -1.6903159e-10   -17.955071 
     430   -17.960212    3.1740876   0.42591245    5.5010011   0.73439886    4.6378447            0            0            0    1717.7275     5056.139    5105.9986   -5008.9552 2.6902278e-12 1.1578893e-10 2.2949578e-10   -17.960212 
     440   -17.965525    3.1880378   0.41196224    5.5253673   0.71003273    4.6084507            0            0            0    1869.4168    5212.4035    5263.9609    -4868.114 -4.4941328e-11 2.3526484e-11 -3.7440337e-10   -17.965525 
     450   -17.970944    3.2024298   0.39757017    5.5505064   0.68489363    4.5790567            0            0            0    1996.4654    5301.2041    5354.8647   -4666.6727 9.7471724e-11 -2.762984e-10 3.2435792e-10   -17.970944 
     460   -17.976403    3.2172724   0.38272765     5.576439   0.65896101    4.5496627            0            0            0    2094.6979    5322.2636    5378.6334   -4416.8034 2.6055417e-10 1.4528664e-11 -1.2222884e-10   -17.976403 
     470    -17.98184    3.2325674   0.36743264    5.6031758    0.6322242    4.5202687            0            0            0    2162.0452    5278.1804     5338.071   -4130.1157 2.5409428e-10 -3.9340241e-11 -1.0651368e-10    -17.98184 
     480   -17.987193     3.248318   0.35168197    5.6307316   0.60466838    4.4908747            0            0            0       2198.5    5174.4634    5238.9611   -3817.9245 2.9116755e-10 2.8924464e-11 -1.3772106e-10   -17.987193 
     490   -17.992411    3.2645294    0.3354706    5.6591276   0.57627237    4.4614807            0            0            0    2205.4962    5018.8979    5089.4028   -3491.8122 1.7324063e-10 -3.4532185e-10 -2.121338e-10   -17.992411 
     500   -17.997449    3.2812079   0.31879207    5.6883919   0.54700814    4.4320867            0            0            0    2187.0936    4822.6008    4900.9467   -3162.2667 8.3764247e-11 3.9009254e-10 5.6069492e-11   -17.997449 
     510   -18.002279    3.2983675   0.30163254    5.7185715   0.51682848    4.4026927            0            0            0    2148.6097    4598.7598    4687.3476   -2840.2783 1.3741758e-10 -2.3706926e-10 1.2934847e-10   -18.002279 
     520   -18.006869    3.3159589   0.28404106    5.7496114   0.48578862    4.3734093            0            0            0    2095.9394    4362.7217    4464.6645   -2539.5682 -4.69488e-11 1.0687381e-11 1.0454263e-10   -18.006869 
     530   -18.011114    3.3335506    0.2664494    5.7807844    0.4546156    4.3450744            0            0            0    1877.8551    3984.9013    4104.1336   -2455.4694 7.004806e-11 1.183044e-10 -4.7419402e-11   -18.011114 
     540   -18.014616     3.349195   0.25080504    5.8086449   0.42675506    4.3209807            0            0            0    1106.6105    3120.4194     3260.233   -3060.8209 1.6146439e-10 -3.5196364e-10 -3.5567657e-10   -18.014616 
     550   -18.017828    3.3641738   0.23582621    5.8354827   0.39991725    4.2978173            0            0            0    1282.9976     3183.511    3344.9784   -2679.4966 1.2997595e-10 -2.6392239e-12 -2.5416354e-10   -18.017828 
     560   -18.020888    3.3791148   0.22088523    5.8624275   0.37297249    4.2754452            0            0            0    1244.2918    3069.2326    3257.2376   -2593.5948 8.0120835e-11 1.1635156e-10 -3.2491983e-10   -18.020888 
     570   -18.023874    3.3941978   0.20580223    5.8898226   0.34557745     4.253706            0            0            0    841.95305    2640.0663    2861.1676   -2975.3747 1.3310167e-10 -1.2664277e-10 6.5563485e-11   -18.023874 
     580   -18.026867    3.4092889   0.19071106    5.9174571   0.31794293    4.2318698            0            0            0    1390.3144    3146.9186    3402.4497   -2378.4251 3.9890857e-10 4.3664569e-10 -1.8117836e-11   -18.026867 
     590    -18.02989    3.4245211   0.17547889    5.9455514   0.28984855    4.2107849            0            0            0    1487.7303    3263.4361    3560.1256   -2360.3709 -2.0487924e-11 -2.2543994e-10 1.5807547e-10    -18.02989 
     600   -18.033048    3.4400821   0.15991792    5.9744329    0.2609671    4.1901752            0            0            0    1212.0351    3069.4151    3414.3926   -2847.7025 1.0730318e-10 -1.0206038e-10 -6.129876e-11   -18.033048 
     610    -18.03642     3.455769   0.14423098    6.0037091   0.23169088    4.1694567            0            0            0    1876.5783    3807.0735    4197.0144    -2374.353 3.7650153e-10 2.4151102e-12 1.1108044e-10    -18.03642 
     620   -18.040037    3.4716744   0.12832563     6.033466   0.20193401    4.1495145            0            0            0    2105.9759    4179.8398    4618.4959    -2480.408 1.9231625e-10 -1.5879131e-11 -2.4080765e-10   -18.040037 
     630   -18.044041    3.4880751   0.11192494    6.0641555   0.17124448     4.129984            0            0            0    2068.4313    4353.6224    4843.2803   -2991.6089 5.4849329e-10 -9.5293338e-12 2.0478001e-10   -18.044041 
     640   -18.048454    3.5045479  0.095452064    6.0949414   0.14045862    4.1106093            0            0            0    3071.3158    5541.4799    6067.1607   -2394.6933 -2.3425161e-11 1.1836984e-11 1.6168164e-10   -18.048454 
     650   -18.053333    3.5212958  0.078704215    6.1261184   0.10928162    4.0920369            0            0            0    3660.3265    6385.1848    6945.1371   -2349.3423 2.6718585e-10 1.6551306e-10 -2.5301451e-11   -18.053333 
     660    -18.05869    3.5381282  0.061871757    6.1572954  0.078104623    4.0742824            0            0            0     4246.705    7260.3429    7846.8069   -2367.0349 3.4399288e-10 -9.2171075e-11 -1.769364e-10    -18.05869 
     670   -18.064567     3.555058  0.044941955    6.1884724  0.046927623    4.0572778            0            0            0    4932.6263    8253.8171    8856.8395   -2312.7776 1.5775253e-10 -2.5267765e-11 -2.5072889e-10   -18.064567 
     680   -18.070994    3.5720919  0.027908121    6.2196494  0.015750623    4.0410041            0            0            0    5723.4388    9361.4207    9970.4075   -2161.5119 1.6916567e-10 4.6831352e-11 -1.7291314e-11   -18.070994 
     690   -18.077985    3.5892318  0.010768184    6.2508264 -0.015426377    4.0254909            0            0            0    6459.9937    10432.464    11039.499   -2091.9818 2.2140546e-10 -9.6241105e-11 -1.7417281e-11   -18.077985 
     700    -18.08555    3.6064759 -0.0064758907    6.2820034 -0.046603377    4.0107355            0            0            0    7128.8573    11448.914    12046.901   -2109.2439 9.8389776e-11 -4.1204109e-11 -8.2768325e-11    -18.08555 
     710   -18.093684    3.6238197  -0.02381969    6.3131804 -0.077780377    3.9967304            0            0            0     7791.698    12457.613     13038.98   -2121.4999 8.5802163e-11 -2.4055758e-10 -1.8531226e-10   -18.093684 
     720   -18.102378    3.6412569 -0.041256911    6.3443574  -0.10895738    3.9834021            0            0            0    8444.7013    13450.125    14008.235    -2124.256 6.0242912e-11 2.1714919e-10 -1.3373227e-10   -18.102378 
     730   -18.111618     3.658781 -0.058780984    6.3755344  -0.14013438    3.9706765            0            0            0    9091.1509    14424.984     14953.86    -2105.391 1.6094601e-10 1.5796906e-10 -4.3702702e-11   -18.111618 
     740   -18.121372    3.6763865 -0.076386478    6.4067114  -0.17131138    3.9586645            0            0            0    9710.7108    15354.203    15849.024   -2071.0949 3.6874043e-10 4.5013605e-11 -1.1352996e-10   -18.121372 
     750   -18.131615    3.6940661 -0.094066081    6.4378884  -0.20248838    3.9472331            0            0            0    10294.501    16230.333    16687.456   -2034.2869 7.2891943e-11 -5.1283667e-11 -2.1618882e-10   -18.131615 
     760   -18.142315    3.7118138  -0.11181381    6.4690654  -0.23366538    3.9363402            0            0            0    10853.455    17059.346    17475.627   -1974.6087 2.8698523e-10 -1.1146063e-10 -3.6472702e-11   -18.142315 
     770   -18.153428    3.7296246  -0.12962464    6.5002424  -0.26484238    3.9260953            0            0            0    11363.508    17812.904    18186.442   -1908.8216 8.6250854e-11 1.0135784e-10 -8.9128219e-11   -18.153428 
     780   -18.164923    3.7474924  -0.14749243    6.5314194  -0.29601938    3.9163262            0            0            0    11825.985    18497.096    18826.807   -1845.9473 -1.8986454e-10 6.9092997e-11 6.0329599e-11   -18.164923 
     790   -18.176759    3.7654126  -0.16541263    6.5625964  -0.32719638    3.9070546            0            0            0    12249.544    19115.178      19400.4   -1766.9466 -2.4832049e-10 -1.4226704e-10 1.2900917e-10   -18.176759 
     800   -18.188893    3.7833809   -0.1833809    6.5937734  -0.35837338    3.8983003            0            0            0    12622.616    19655.553    19896.439   -1684.1447  2.40637e-10 -5.1291842e-11 1.438597e-10   -18.188893 
     810    -18.20128    3.8013799  -0.20137993    6.6249279  -0.38952792    3.8899856            0            0            0    12943.916    20120.382     20317.65   -1606.2839 4.7550503e-11 2.9974225e-11 5.8033031e-13    -18.20128 
     820   -18.213862    3.8193799  -0.21937993     6.656015  -0.42061497    3.8821108            0            0            0    13219.703    20514.047    20668.785   -1523.7231 -6.0435652e-11 5.1667908e-11 -1.1284918e-10   -18.213862 
     830   -18.226603    3.8373799  -0.23737993     6.687039  -0.45163896    3.8746688            0            0            0    13450.828    20837.393    20951.036   -1435.9443 7.6134066e-11 2.5078571e-11 -1.3815217e-10   -18.226603 
     840   -18.239467    3.8553799  -0.25537993    6.7180056  -0.48260559    3.8676188            0            0            0    13629.225    21087.419    21161.892   -1361.6373 7.9233423e-11 8.718758e-11 3.0702389e-11   -18.239467 
     850   -18.252426    3.8733799  -0.27337993    6.7489199   -0.5135199    3.8609261            0            0            0     13772.71    21278.891    21315.984   -1276.7447 2.2908214e-10 3.6762783e-11 1.3267136e-11   -18.252426 
     860   -18.265445    3.8913799  -0.29137993    6.7797863  -0.54438632     3.854602            0            0            0    13870.576    21404.846     21406.75   -1199.8672 8.2067092e-11 -1.3789246e-10 1.0661745e-10   -18.265445 
     870   -18.278499    3.9093799  -0.30937993    6.8106091  -0.57520905    3.8485888            0            0            0    13930.799    21474.891    21443.767   -1126.2608 -2.2959583e-11 3.0342841e-11 4.8579203e-11   -18.278499 
     880   -18.291561    3.9273799  -0.32737993    6.8413917  -0.60599174    3.8428821            0            0            0    13956.152    21492.273    21430.348   -1054.1661 -1.2613125e-10 -1.7758687e-10 1.0508679e-10   -18.291561 
     890   -18.304606    3.9453799  -0.34537993    6.8721378  -0.63673777    3.8374656            0            0            0     13949.01    21460.691    21370.241   -983.90207 -8.509822e-11 2.8575396e-11 -3.8322447e-11   -18.304606 
     900   -18.317613    3.9633799  -0.36337993    6.9028502  -0.66745022    3.8323274            0            0            0     13910.04    21382.681    21265.968   -918.52752 -1.6054911e-10 4.1725689e-11 -2.5937841e-11   -18.317613 
     910   -18.330561    3.9813799  -0.38137993    6.9335319  -0.69813191    3.8274358            0            0            0    13842.819    21263.612    21122.855   -858.00959 6.2631318e-12 -4.1472433e-11 -2.0040449e-11   -18.330561 
     920   -18.343431    3.9993799  -0.39937993    6.9641854  -0.72878537    3.8227852            0            0            0     13753.16    21108.632    20945.941   -795.09268 -1.4401211e-10 -5.5335761e-11 3.0580059e-11   -18.343431 
     930   -18.356205    4.0173799  -0.41737993     6.994813  -0.75941298    3.8183647            0            0            0    13652.164     20925.93    20743.184   -712.62253 -1.1854929e-12  1.77822e-11 1.5225937e-11   -18.356205 
     940   -18.368871    4.0353799  -0.43537993    7.0254171  -0.79001707    3.8140797            0            0            0    13671.487    20793.656    20590.092   -369.28818 6.1231904e-11  4.25017e-11 -4.604679e-11   -18.368871 
     950   -18.381407    4.0533799  -0.45337993    7.0559999  -0.82059993    3.8097782            0            0            0    14136.637    20889.732    20658.387     861.7929 -2.2785899e-11 -9.7734212e-13 2.5789717e-12   -18.381407 
     960   -18.393796    4.0713799  -0.47137993    7.0865628  -0.85116284    3.8057564            0            0            0    14389.346    20838.718    20585.664    1743.6559 -1.0106981e-10 2.9730829e-11 -3.3256494e-11   -18.393796 
     970   -18.406059    4.0893799  -0.48937993    7.1171071  -0.88170709    3.8022883            0            0            0    13859.934    20345.449    20087.099    1147.2548 -6.3528054e-11 -1.9587515e-11 -4.7099768e-12   -18.406059 
     980   -18.418151    4.1073799  -0.50737993    7.1476351  -0.91223512    3.7987758            0            0            0    13750.795    20068.475    19798.319     1385.592 -2.2489462e-11 2.1341075e-11 4.5684996e-11   -18.418151 
     990   -18.430052    4.1253799  -0.52537993    7.1781484  -0.94274841    3.7951945            0            0            0    14108.946    20016.864     19728.02    2581.9539 -1.1209464e-10 5.2792273e-11 1.6504538e-11   -18.430052 
    1000   -18.441831    4.1433799  -0.54337993    7.2086473  -0.97324732    3.7923416            0            0            0    13288.533    19355.729    19070.499    1439.3718 -2.5210637e-11 -2.4034761e-11 2.2809625e-12   -18.441831 
    1010   -18.453396    4.1613799  -0.56137993    7.2391343   -1.0037343    3.7892637            0            0            0    13201.491    19057.963    18764.595    1781.9147 -9.4360772e-11 -4.9512462e-11 -3.4949174e-12   -18.453396 
    1020   -18.464728    4.1793799  -0.57937993    7.2696104   -1.0342104    3.7860053            0            0            0      13730.5    19042.893    18732.428    3416.1795 -1.0145455e-10 -1.0839451e-11 -1.1166782e-11   -18.464728 
    1030   -18.475978    4.1973799  -0.59737993    7.3000754   -1.0646754    3.7837705            0            0            0      12495.5     18187.96    17890.688    1407.8508 -1.958236e-11 1.4877435e-12 2.0745355e-11   -18.475978 
    1040   -18.486966    4.2153799  -0.61537993     7.330532    -1.095132    3.7810786            0            0            0    12402.157    17867.416    17565.502    1773.5534 -1.0016876e-10 1.4627337e-11 1.2266902e-11   -18.486966 
    1050   -18.497693    4.2333799  -0.63337993    7.3609808   -1.1255808    3.7781148            0            0            0    13042.642    17864.008    17547.248    3716.6693 -8.2983017e-11 5.6833195e-11 3.7494326e-11   -18.497693 
    1060   -18.508363    4.2513799  -0.65137993    7.3914215   -1.1560215     3.776349            0            0            0    11609.084    16946.994    16648.015    1232.2432 -9.6866469e-11 -4.5319788e-11 5.3000125e-11   -18.508363 
    1070   -18.518751    4.2693799  -0.66937993    7.4218563   -1.1864563    3.7740875            0            0            0    11321.665    16534.998    16236.983    1193.0137 -8.126359e-11 1.5993597e-11 -7.886857e-12   -18.518751 
    1080   -18.528805    4.2873799  -0.68737993    7.4522862   -1.2168862    3.7710916            0            0            0    12580.138    16755.281    16437.058    4548.0735 -5.0440469e-11 -5.1337561e-12 -8.783659e-12   -18.528805 
    1090   -18.538905    4.3053799  -0.70537993    7.4827099   -1.2473099      3.77043            0            0            0    9703.6207    15296.151    15016.506   -1201.7958 -7.1132157e-11 1.1193419e-11 6.5668418e-12   -18.538905 
    1100   -18.548657    4.3233799  -0.72337993    7.5131302   -1.2777302    3.7686129            0            0            0    9145.2195    14792.143    14518.636   -1875.1202 -2.0719952e-11 8.8773455e-12 7.0408495e-12   -18.548657 
    1110   -18.558158    4.3413799  -0.74137993     7.543547    -1.308147    3.7670957            0            0            0    8223.4966    14157.393    13895.096   -3381.9991 -7.9967221e-11 -3.3399012e-11 2.6986275e-11   -18.558158 
    1120    -18.56754    4.3593799  -0.75937993    7.5739614   -1.3385614    3.7650914            0            0            0    8305.5038    13909.429    13645.663   -2638.5802 -7.6575364e-11 3.6486441e-11 -1.3967387e-11    -18.56754 
    1130    -18.57523    4.3746907  -0.77469067    7.5998296   -1.3644296    3.7640941            0            0            0    7262.3373    13292.118    13041.392   -4546.4981 -8.569358e-11 -1.8299994e-11 -2.1123754e-11    -18.57523 
    1140   -18.581399    4.3870595  -0.78705947    7.6207266   -1.3853266    3.7629878            0            0            0    7014.3963     13016.27    12768.744   -4741.8252 -7.5111832e-11 -1.8777243e-12 6.7979126e-12   -18.581399 
    1150   -18.587947    4.4001327  -0.80013273    7.6428138   -1.4074138    3.7599556            0            0            0    10011.117    13861.724    13579.369    2592.2578 -4.1428273e-11 -2.1649111e-11 3.1945271e-12   -18.587947 
    1160   -18.594417    4.4138305  -0.81383051    7.6659539   -1.4305539     3.760716            0            0            0    6476.5406    12427.224    12187.142   -5184.7445 -5.6881379e-11 4.0586649e-12 2.6027783e-11   -18.594417 
    1170   -18.600421    4.4265199  -0.82651989    7.6873909   -1.4519909    3.7597128            0            0            0    6191.9789    12142.401    11906.389   -5472.8537 -6.5178059e-11 -2.2166258e-11 -1.3937026e-11   -18.600421 
    1180   -18.606844    4.4398327  -0.83983273    7.7098817   -1.4744817    3.7567561            0            0            0    9132.0143    12910.113    12642.883     1843.047 -3.1755156e-11 -5.6127296e-12 -2.2062536e-11   -18.606844 
    1190   -18.613276     4.454431  -0.85443097    7.7345425   -1.4991425    3.7576066            0            0            0    5601.0699    11539.018    11311.915    -6047.723 -8.5313732e-11 2.8456949e-12 1.8846871e-11   -18.613276 
    1200   -18.619418    4.4681669   -0.8681669    7.7577475   -1.5223475    3.7566394            0            0            0    5292.3435    11242.314    11019.932    -6385.216 -6.2827902e-11 -1.8363797e-12 2.2135123e-11   -18.619418 
    1210   -18.625806    4.4819356  -0.88193564     7.781009    -1.545609    3.7536084            0            0            0    8386.1327    11997.494    11745.226    1415.6783 -5.8196993e-11 -3.4547943e-12 -8.225623e-12   -18.625806 
    1220    -18.63211    4.4970972  -0.89709718    7.8066229   -1.5712229    3.7543754            0            0            0    5201.4861    10800.238    10582.455   -5778.2344  -7.8594e-11 -8.4125124e-12 6.4246431e-12    -18.63211 
    1230    -18.63787    4.5107605  -0.91076048     7.829707    -1.594307    3.7535148            0            0            0    4907.9854    10519.082     10306.17   -6101.2957 -6.2404654e-11 2.9629025e-12 2.5095279e-11    -18.63787 
    1240   -18.643813    4.5243288  -0.92432882     7.852632    -1.617232    3.7506812            0            0            0    7784.6031    11158.346    10920.449    1275.0146 -8.9200764e-11 -2.0401389e-12 -1.5402959e-11   -18.643813 
    1250    -18.64969    4.5394177  -0.93941775    7.8781263   -1.6427263    3.7515566            0            0            0    4692.0489    10056.791    9850.5217    -5831.166 -6.0753766e-11 4.8348267e-12 -1.2909171e-11    -18.64969 
    1260   -18.655116    4.5530122  -0.95301225    7.9010972   -1.6656972    3.7507142            0            0            0     4528.444    9823.9601    9621.5445   -5860.1725 -6.3475548e-11 -1.9323375e-11 4.1776077e-12   -18.655116 
    1270    -18.66068    4.5664801  -0.96648006    7.9238558   -1.6884558    3.7480583            0            0            0    7205.8864    10363.091    10139.843    1114.7253 -6.524582e-11 -1.1809276e-11 9.3761128e-12    -18.66068 
    1280   -18.666193    4.5814949  -0.98149486    7.9492293   -1.7138293    3.7489034            0            0            0    4396.4937     9401.888    9205.9312    -5418.338 -3.4088207e-11 2.2768799e-12 1.6845722e-11   -18.666193 
    1290   -18.671226    4.5948467  -0.99484668    7.9717944   -1.7363944    3.7481042            0            0            0    4321.3973    9203.6781    9010.9843   -5250.4706 -5.5536166e-11 5.5854399e-12 -1.0780292e-11   -18.671226 
    1300   -18.676429    4.6083042   -1.0083042    7.9945402   -1.7591402    3.7457063            0            0            0    6657.4037    9615.5029     9406.808    949.90021 -8.6075846e-11 -4.5840466e-13 2.0799704e-11   -18.676429 
    1310   -18.681631    4.6233009   -1.0233009    8.0198887   -1.7844887     3.746466            0            0            0    4183.0628    8794.2694    8608.5483   -4853.6291 -6.1279731e-11 1.2950731e-12 1.3006201e-11   -18.681631 
    1320   -18.686272     4.636563    -1.036563    8.0423073   -1.8069073    3.7459114            0            0            0    3865.3271    8545.6877     8365.218   -5314.9243 -5.3268412e-11 -2.2711759e-12 -2.9367225e-11   -18.686272 
    1330    -18.69118     4.649975    -1.049975    8.0649816   -1.8295816    3.7435786            0            0            0    6149.0298    8915.0409    8720.5594    811.48915 -5.9352027e-11 1.4551424e-12 3.4076285e-12    -18.69118 
    1340   -18.695924    4.6646985   -1.0646985    8.0898748   -1.8544748    3.7444883            0            0            0    3662.2259    8143.5506    7970.6194   -5127.4922 -6.0947692e-11 7.3460102e-12 -8.3704641e-12   -18.695924 
    1350   -18.700287     4.677779    -1.077779    8.1119925   -1.8765925    3.7438202            0            0            0    3622.4138    7973.1246    7803.3314   -4909.2146 -4.8716788e-11 2.1258087e-12 5.7730413e-12   -18.700287 
    1360   -18.704866    4.6911246   -1.0911246    8.1345608   -1.8991608     3.741667            0            0            0      5684.24    8266.0784    8085.2014    701.44032 -3.7744577e-11 2.5619162e-12 -1.3047057e-11   -18.704866 
    1370   -18.709222    4.7054644   -1.1054644    8.1588123   -1.9234123    3.7425131            0            0            0    3476.6026    7606.2852    7443.6117   -4620.0891 -4.3104695e-11 4.2684715e-12 2.5926544e-12   -18.709222 
    1380   -18.713324    4.7185784   -1.1185784    8.1809932   -1.9455932    3.7419197            0            0            0    3411.8511     7437.354    7278.0276   -4479.8283 -7.2380002e-11 8.8533343e-12 4.1579767e-12   -18.713324 
    1390   -18.717605    4.7319256   -1.1319256    8.2035708   -1.9681708    3.7398842            0            0            0    5335.0383    7678.9317    7510.5495    815.63379 -5.4806346e-11 2.949172e-12 -4.6068637e-12   -18.717605 
    1400   -18.721507    4.7456104   -1.1456104    8.2267219   -1.9913219    3.7407907            0            0            0    3226.3872    7086.5765    6934.4499   -4341.8649 -5.2746722e-11 3.0336931e-12 9.1190625e-12   -18.721507 
    1410   -18.725297    4.7583781   -1.1583781    8.2483238   -2.0129238    3.7401396            0            0            0    3330.2713    6962.9573    6813.0633   -3785.2068 -7.1307081e-11 1.1436986e-12 6.4522416e-13   -18.725297 
    1420   -18.729118    4.7711501   -1.1711501    8.2699356   -2.0345356    3.7384229            0            0            0    4879.9923    7119.9869    6964.0145    555.97561 -6.9043455e-11 -1.0109142e-11 -4.3242105e-12   -18.729118 
    1430   -18.732996    4.7857215   -1.1857215    8.2945946   -2.0591946    3.7393354            0            0            0    2838.1981    6566.4607    6425.4755    -4477.342 -4.9771726e-11 1.1726957e-11 -2.4347053e-12   -18.732996 
    1440   -18.736438    4.7979911   -1.1979911    8.3153607   -2.0799607    3.7386967            0            0            0    3011.6773    6467.3686    6328.1162    -3760.453 -5.6738237e-11 2.1633446e-12 3.6737744e-12   -18.736438 
    1450   -18.740109    4.8110194   -1.2110194    8.3374135   -2.1020135    3.7370113            0            0            0     4525.128    6603.0945    6458.6655    513.62404 -3.5960198e-11 8.7866802e-13 2.7979598e-12   -18.740109 
    1460   -18.743803    4.8257902   -1.2257902    8.3624188   -2.1270188     3.737901            0            0            0    2620.1826     6105.897    5974.7634   -4220.1127 -6.6616942e-11 -9.6487216e-12 3.9769379e-12   -18.743803 
    1470   -18.747034    4.8381247   -1.2381247    8.3833022   -2.1479022    3.7373532            0            0            0    2724.1395    5998.7074    5869.6824   -3695.9713 -4.4147662e-11 -4.7337197e-12 -5.1711431e-12   -18.747034 
    1480   -18.750516    4.8512713   -1.2512713    8.4055632   -2.1701632    3.7356831            0            0            0    4226.3069    6120.7606    5987.2065    570.95367 -5.4500809e-11 -4.7793314e-12 -8.8079362e-12   -18.750516 
    1490   -18.753749    4.8651102   -1.2651102    8.4289993   -2.1935993    3.7366271            0            0            0    2403.3502    5677.3716    5555.5992   -4022.9203 -5.0142069e-11 -5.574983e-13 3.0132666e-12   -18.753749 
    1500    -18.75672    4.8771197   -1.2771197    8.4493398   -2.2139398    3.7360652            0            0            0    2583.3094    5591.0695    5470.9444   -3312.0857 -5.8860506e-11 4.1150248e-12 3.0064771e-13    -18.75672 
    1510   -18.759939    4.8901195   -1.2901195    8.4713603   -2.2359603    3.7345531            0            0            0    3903.5292    5676.1769    5552.8054     481.6053 -4.539792e-11 3.5488183e-12 5.1116169e-13   -18.759939 
    1520   -18.763095    4.9042129   -1.3042129     8.495236    -2.259836    3.7352402            0            0            0    2479.3871    5319.6655    5205.5567    -3087.061 -5.1514626e-11 7.0569383e-12 7.7919032e-12   -18.763095 
    1530   -18.765897    4.9165531   -1.3165531    8.5161444   -2.2807444    3.7349141            0            0            0     2392.875    5193.5818    5082.3212   -3097.2779 -4.3608926e-11 4.5344302e-12 1.0572168e-11   -18.765897 
    1540   -18.768901    4.9295123   -1.3295123    8.5381044   -2.3027044    3.7334808            0            0            0    3628.8791    5259.7532    5145.9582    480.92598 -4.9273525e-11 -9.5188468e-13 3.0698787e-12   -18.768901 
    1550   -18.771624    4.9427042   -1.3427042    8.5604613   -2.3250613    3.7343427            0            0            0    2109.9362     4919.888    4814.9076   -3404.9871 -5.1734346e-11 -5.7488697e-13 1.181799e-11   -18.771624 
    1560   -18.774218    4.9547488   -1.3547488    8.5808763   -2.3454763    3.7339536            0            0            0    2146.6305     4821.519    4718.6889   -3100.3163 -4.7630151e-11 -2.0849723e-12 -2.6628837e-12   -18.774218 
    1570   -18.777076    4.9678283   -1.3678283    8.6030483   -2.3676483    3.7325245            0            0            0    3380.8466     4881.385    4776.3325    484.82227 -5.4297905e-11 1.4227929e-12 -1.7777077e-12   -18.777076 
    1580   -18.779468    4.9799267   -1.3799267    8.6235597   -2.3881597    3.7331741            0            0            0    2214.1915    4619.4961    4521.1264   -2498.0479 -5.7350329e-11 -3.7168069e-12 -5.3243966e-12   -18.779468 
    1590   -18.781703    4.9912613   -1.3912613    8.6427783   -2.4073783    3.7330756            0            0            0    1967.6614     4493.934    4398.5368   -2989.4867 -5.5357659e-11 6.4930511e-13 -5.2287706e-12   -18.781703 
    1600   -18.784388    5.0042993   -1.4042993    8.6648879   -2.4294879     3.731725            0            0            0    3117.3795    4538.7699    4441.6783    371.69021 -5.1567012e-11 -2.4021319e-12 1.6139116e-12   -18.784388 
    1610   -18.786793    5.0175048   -1.4175048    8.6872844   -2.4518844    3.7325406            0            0            0    1786.9896    4263.3799    4173.2603   -3075.6715 -4.7296424e-11 -2.1198871e-13 3.5013304e-13   -18.786793 
    1620   -18.789077    5.0295468   -1.4295468    8.7077101   -2.4723101    3.7322183            0            0            0    1805.0869    4173.4951    4085.3865   -2843.6208 -4.1332661e-11 -3.8784407e-13 -2.357076e-12   -18.789077 
    1630   -18.791588    5.0425591   -1.4425591    8.7297846   -2.4943846    3.7308731            0            0            0     2953.118    4214.7254    4125.1229    519.50585 -5.7365059e-11 -4.5524505e-12 -8.0020481e-13   -18.791588 
    1640   -18.793539    5.0535851   -1.4535851    8.7484917   -2.5130917    3.7313716            0            0            0    2093.6281    4028.6355    3943.6593   -1691.4106 -4.9023214e-11 -6.5352377e-13 5.4956652e-12   -18.793539 
    1650   -18.795225    5.0631121   -1.4631121    8.7646571   -2.5292571    3.7312142            0            0            0    2016.6213    3949.8436    3866.6891   -1766.6687 -4.7843763e-11 -4.3328728e-12 -2.5167706e-12   -18.795225 
    1660   -18.797188     5.074112    -1.474112    8.7833237   -2.5479237    3.7303312            0            0            0    2704.4474    3949.4208    3865.9969    297.92456 -5.0133438e-11 -2.4706317e-12 1.1232076e-12   -18.797188 
    1670   -18.799344    5.0875127   -1.4875127     8.806067    -2.570667    3.7311526            0            0            0    1471.1158    3715.0476    3637.4297   -2939.1299 -4.796341e-11 -4.6871038e-12 2.2018097e-12   -18.799344 
    1680   -18.801303    5.0989183   -1.4989183    8.8254268   -2.5900268    3.7307334            0            0            0    1654.8805    3657.4473    3581.0621   -2273.8678 -5.1836812e-11 -1.8983206e-12 1.907744e-12   -18.801303 
    1690   -18.803455    5.1115758   -1.5115758     8.846914    -2.611514    3.7296824            0            0            0    2490.4141    3661.7739    3585.0084    224.46013 -4.323766e-11 -3.1670163e-13 5.8286168e-13   -18.803455 
    1700   -18.805692    5.1260115   -1.5260115    8.8714233   -2.6360233    3.7302292            0            0            0     1580.628    3469.5481     3397.443    -2125.107 -4.2007208e-11 1.5645132e-12 -8.8512019e-12   -18.805692 
    1710   -18.807554    5.1378679   -1.5378679     8.891556    -2.656156    3.7299971            0            0            0    1570.7726    3392.2855     3321.933   -2001.9008 -4.7178164e-11 -1.4445664e-12 1.7684034e-12   -18.807554 
    1720   -18.809533    5.1503687   -1.5503687    8.9127856   -2.6773856    3.7290543            0            0            0    2297.8096    3386.0448    3315.6359    191.74817 -4.8747525e-11 1.933081e-12 -2.3255307e-12   -18.809533 
    1730   -18.811574    5.1647425   -1.5647425    8.9371991   -2.7017991    3.7297759            0            0            0    1253.2137    3193.8805    3128.1002   -2562.3396 -3.907742e-11 2.1120084e-12 5.1481497e-12   -18.811574 
    1740   -18.813243    5.1758013   -1.5758013    8.9559846   -2.7205846    3.7293741            0            0            0    1454.5829    3146.9019    3082.1324   -1865.2855 -4.9846832e-11 5.2146368e-14 2.8079788e-13   -18.813243 
    1750   -18.815078    5.1881896   -1.5881896    8.9770309   -2.7416309    3.7284876            0            0            0     2128.785    3136.5697    3071.8856    177.89984 -4.6692225e-11 1.1398109e-13 3.4373272e-14   -18.815078 
    1760   -18.816985    5.2026432   -1.6026432    9.0015892   -2.7661892    3.7292489            0            0            0    1087.8115    2956.9058    2896.5016   -2589.9729 -4.94646e-11 -3.7616959e-12 -1.7464017e-12   -18.816985 
    1770   -18.818453     5.212582    -1.612582    9.0184784   -2.7830784    3.7284977            0            0            0    1670.7064    2953.2837    2892.8457   -834.01035 -4.445525e-11 -2.2229768e-13 3.5512328e-12   -18.818453 
    1780   -18.820412    5.2271946   -1.6271946    9.0433124   -2.8079124    3.7283247            0            0            0    1592.2742    2864.9495     2806.521   -894.64798 -4.6978289e-11 -4.8704775e-13 -2.1166696e-13   -18.820412 
    1790   -18.821997    5.2395043   -1.6395043    9.0642356   -2.8288356     3.727304            0            0            0    2402.9719    2866.6747    2808.0801    1534.1607 -4.090122e-11 -2.8080912e-12 1.0672589e-12   -18.821997 
    1800   -18.823374    5.2499008   -1.6499008    9.0819088   -2.8465088    3.7276262            0            0            0    1911.8739     2769.069     2712.755    253.79785 -4.7812658e-11 1.8571243e-12 -2.1088809e-12   -18.823374 
    1810     -18.8247    5.2605032   -1.6605032     9.099934    -2.864534    3.7278679            0            0            0    1504.7966    2679.7661    2625.5207   -790.89691 -4.1815458e-11 -1.2863458e-12 -1.3502682e-12     -18.8247 
    1820   -18.826303    5.2735078   -1.6735078    9.1220454   -2.8866454    3.7271088            0            0            0    2045.4847    2656.2065    2602.4211    877.82643 -4.8888192e-11 -6.8677832e-13 4.6676461e-13   -18.826303 
    1830   -18.828107    5.2883592   -1.6883592    9.1473002   -2.9119002    3.7271605            0            0            0    1774.5156    2559.7548    2508.1705    255.62146 -4.6623219e-11 1.4438578e-13 2.1808021e-12   -18.828107 
    1840    -18.82971    5.3029375   -1.7029375    9.1720937   -2.9366937    3.7279586            0            0            0    804.55372    2414.8497    2366.6117   -2367.8003 -4.1835487e-11 1.3759362e-12 -1.5989021e-12    -18.82971 
    1850   -18.831311    5.3159602   -1.7159602    9.1942447   -2.9588447    3.7269227            0            0            0    1613.2136    2413.7912    2365.4913     60.35815 -4.0096427e-11 -1.0008165e-13 1.8170814e-12   -18.831311 
    1860   -18.832841    5.3299466   -1.7299466    9.2180377   -2.9826377    3.7272826            0            0            0    1088.1543    2310.8913    2264.9301   -1311.3584 -4.6961678e-11 -3.0620195e-13 -9.2373134e-13   -18.832841 
    1870   -18.834026    5.3404642   -1.7404642    9.2359325   -3.0005325    3.7266203            0            0            0     1575.838    2297.9893    2252.2714    177.25347 -4.8225154e-11 2.8096652e-12 -3.4627666e-12   -18.834026 
    1880   -18.835055    5.3506143   -1.7506143    9.2532036   -3.0178036    3.7272364            0            0            0    875.82833    2204.1919    2160.6074   -1737.3143 -4.318142e-11 1.4036417e-12 -2.058458e-12   -18.835055 
    1890   -18.836681     5.365508    -1.765508    9.2785481   -3.0431481     3.726496            0            0            0    1383.1314    2174.4835    2131.5164   -156.60559 -3.922221e-11 -1.115342e-12 -1.989215e-12   -18.836681 
    1900   -18.837992    5.3783413   -1.7783413      9.30039     -3.06499    3.7264784            0            0            0    1249.2687    2111.2505     2069.686   -433.13041 -4.0140946e-11 1.1592705e-12 -1.170513e-13   -18.837992 
    1910   -18.838979    5.3881582   -1.7881582       9.3171      -3.0817    3.7260931            0            0            0    1489.2731    2086.0557    2045.0305    336.73313 -3.8903606e-11 3.0974107e-12 -2.4199604e-12   -18.838979 
    1920   -18.840031    5.3988139   -1.7988139    9.3352391   -3.0998391    3.7262333            0            0            0    1244.7151    2026.9917    1987.2773   -280.12355 -4.003598e-11 2.8612402e-13 -1.8308199e-12   -18.840031 
    1930   -18.841137      5.41028     -1.81028    9.3547601   -3.1193601    3.7261779            0            0            0    1171.9141    1976.8162    1938.2034   -399.27741 -3.5503068e-11 9.1754797e-13 3.1165756e-12   -18.841137 
    1940   -18.842195     5.421423    -1.821423    9.3737327   -3.1383327    3.7259112            0            0            0    1295.1868    1940.8859    1903.0502    41.624332 -3.5844524e-11 2.0595862e-13 -2.2346015e-12   -18.842195 
    1950    -18.84346    5.4350901   -1.8350901    9.3970056   -3.1616056     3.725781            0            0            0    1272.5618    1887.3398    1850.6707    79.674852 -3.5820918e-11 1.6473584e-12 -1.8196815e-12    -18.84346 
    1960   -18.844918    5.4513502   -1.8513502    9.4246974   -3.1892974    3.7254524            0            0            0    1401.6542    1834.3375    1798.8149    571.81012 -3.1482406e-11 1.780371e-12 5.1131357e-14   -18.844918 
    1970   -18.845773    5.4609896   -1.8609896    9.4411159   -3.2057159    3.7257078            0            0            0    1088.9038    1781.6722    1747.3004   -262.26128 -2.8581586e-11 -1.8354401e-12 5.3200185e-13   -18.845773 
    1980   -18.846459    5.4689217   -1.8689217    9.4546276   -3.2192276    3.7256613            0            0            0     1056.998    1751.7594    1718.0339   -298.79941 -2.748384e-11 -1.0833884e-12 9.1328931e-13   -18.846459 
    1990   -18.847432    5.4803301   -1.8803301    9.4740623   -3.2386623    3.7255019            0            0            0    1093.3317    1714.0039    1681.0899   -115.09886 -3.3465782e-11 8.7767462e-13 2.874378e-13   -18.847432 
    2000   -18.848263    5.4903119   -1.8903119    9.4910682   -3.2556682    3.7252541            0            0            0     1218.153    1686.5381    1654.2106     313.7105 -3.210852e-11 6.8311783e-13 -1.2150728e-12   -18.848263 
    2010   -18.849216    5.5019342   -1.9019342    9.5108706   -3.2754706    3.7252203            0            0            0    1148.4846    1643.8501    1612.4397    189.16398 -2.6273833e-11 -1.216205e-13  4.93649e-13   -18.849216 
    2020   -18.850157    5.5136664   -1.9136664    9.5308626   -3.2954626    3.7252133            0            0            0    1058.3693     1600.765     1570.277    4.0659531 -2.3688645e-11 7.8341369e-13 -1.0859509e-13   -18.850157 
    2030    -18.85118    5.5267224   -1.9267224    9.5531126   -3.3177126     3.725113            0            0            0    1038.9138    1558.0565    1528.4781    30.206814 -2.8843598e-11 1.0209445e-12 4.7571959e-13    -18.85118 
    2040   -18.852352    5.5426704   -1.9426704    9.5802938   -3.3448938    3.7255722            0            0            0    534.05616    1484.1547    1456.1518    -1338.138 -2.4933874e-11 1.1851545e-12 1.7623107e-12   -18.852352 
    2050    -18.85329    5.5546991   -1.9546991    9.6007979   -3.3653979    3.7248892            0            0            0    1013.5275    1470.8596     1443.129    126.59401 -2.3665153e-11 -6.4499504e-13 8.6626443e-13    -18.85329 
    2060   -18.854116    5.5667529   -1.9667529    9.6213471   -3.3859471    3.7254571            0            0            0    460.44788    1409.7665    1383.3291    -1411.752 -2.511197e-11 -2.5592375e-13 2.0411838e-12   -18.854116 
    2070   -18.855035    5.5793703   -1.9793703    9.6428588   -3.4074588    3.7252374            0            0            0    555.44517    1378.2029     1352.425   -1064.2925 -2.2435416e-11 -3.7641948e-13 -3.2376579e-13   -18.855035 
    2080   -18.856027    5.5938659   -1.9938659    9.6675757   -3.4321757    3.7241658            0            0            0    1332.2291    1371.8661    1346.2131    1278.6081 -2.2419898e-11 -2.0035473e-13 1.4557619e-12   -18.856027 
    2090   -18.856802    5.6047442   -2.0047442    9.6861261   -3.4507261    3.7248044            0            0            0    743.10225     1316.532    1292.0381   -379.26333 -2.2129297e-11 -3.9769355e-13 -5.0506475e-13   -18.856802 
    2100   -18.857334    5.6127742   -2.0127742    9.6998209   -3.4644209    3.7248142            0            0            0    684.90136    1292.5996    1268.6032   -506.49876 -1.8693655e-11 -1.9286034e-13 2.3420912e-12   -18.857334 
    2110   -18.858071    5.6239409   -2.0239409    9.7188665   -3.4834665    3.7245241            0            0            0    847.76315    1270.0447    1246.5145    26.730277 -1.9093665e-11 6.3928192e-13 1.0173101e-12   -18.858071 
    2120   -18.858909    5.6370684   -2.0370684    9.7412584   -3.5058584    3.7245395            0            0            0    757.63967    1232.6385    1209.8815   -169.60093 -1.9099435e-11 -2.893954e-13 -1.8567268e-12   -18.858909 
    2130    -18.85961    5.6482612   -2.0482612    9.7603519   -3.5249519    3.7243557            0            0            0    836.72574    1207.7004    1185.4567    117.02015 -1.6900057e-11 -1.7812267e-13 -7.4973224e-13    -18.85961 
    2140   -18.860443    5.6619005   -2.0619005    9.7836211   -3.5482211    3.7243618            0            0            0    755.83539    1171.1454    1149.6523    -53.29155 -1.549831e-11 -8.1685259e-13 -1.4992817e-12   -18.860443 
    2150   -18.861024    5.6716123   -2.0716123    9.8001914   -3.5647914    3.7242708            0            0            0    773.33961    1148.5797    1127.5481    43.891037 -1.7384343e-11 -6.7266875e-13 1.3522039e-12   -18.861024 
    2160   -18.861716    5.6834416   -2.0834416    9.8203763   -3.5849763     3.724175            0            0            0    784.13555    1121.2616    1100.7872    130.35788 -1.8053389e-11 -4.0478784e-13 -4.9058596e-13   -18.861716 
    2170   -18.862476    5.6967001   -2.0967001    9.8430018   -3.6076018    3.7241915            0            0            0    703.87508    1088.0616    1068.2611   -44.697441 -1.5405768e-11 4.7445565e-13 1.5699413e-12   -18.862476 
    2180   -18.863019    5.7063972   -2.1063972    9.8595514   -3.6241514    3.7241099            0            0            0    717.48746    1066.9142    1047.5413    38.006893 -1.7665355e-11 1.2852433e-13 -7.4446881e-13   -18.863019 
    2190   -18.863655    5.7183735   -2.1183735    9.8799921   -3.6445921    3.7236857            0            0            0    982.89819     1049.864    1030.8361    867.99445 -1.6389375e-11 -1.3551246e-14 -6.1889983e-13   -18.863655 
    2200   -18.864284    5.7296669   -2.1296669    9.8992691   -3.6638691    3.7240213            0            0            0    673.24057     1015.159    996.82971    7.7330256 -1.4855384e-11 -8.5238836e-13 -1.0624983e-12   -18.864284 
    2210   -18.864877    5.7410301   -2.1410301    9.9186668   -3.6832668     3.724153            0            0            0    523.58738    986.54249    968.78693   -384.56728 -1.6432812e-11 -5.6773947e-14 8.9420479e-13   -18.864877 
    2220   -18.865352    5.7502434   -2.1502434    9.9343955   -3.6989955    3.7237495            0            0            0    782.77846     976.1908    958.64297    413.50161 -1.3672943e-11 8.7630029e-13 -9.6512204e-13   -18.865352 
    2230    -18.86592    5.7613695   -2.1613695    9.9533912   -3.7179912    3.7239243            0            0            0    604.61396    948.20672     931.2168   -65.581633 -1.4963625e-11 -8.025549e-13 -1.2145418e-12    -18.86592 
    2240   -18.866404    5.7711191   -2.1711191    9.9700379   -3.7346379    3.7238544            0            0            0    614.73303    929.44567    912.82882    1.9245893 -1.5177769e-11 -1.3519156e-12 -1.1758935e-12   -18.866404 
    2250   -18.866876    5.7808055   -2.1808055     9.986578    -3.751178    3.7237554            0            0            0    647.14441    911.83804    895.57053    134.02466 -1.4983476e-11 1.0942659e-13 1.1756241e-13   -18.866876 
    2260   -18.867395    5.7916542   -2.1916542    10.005104   -3.7697039    3.7238155            0            0            0    560.10647    888.81567    873.00196   -81.498225 -1.5120669e-11 -4.1576211e-13 -2.9557514e-13   -18.867395 
    2270   -18.867862    5.8023418   -2.2023418    10.023356    -3.787956    3.7242182            0            0            0    226.38842    859.42178    844.18453   -1024.4411 -1.4480777e-11 1.1462185e-13 -2.5589717e-12   -18.867862 
    2280   -18.868465    5.8147704   -2.2147704    10.044583   -3.8091831    3.7237341            0            0            0    530.44298    846.01335    831.04039   -85.724806 -1.2969429e-11 6.8950012e-13 -5.8005216e-13   -18.868465 
    2290   -18.869045    5.8283096   -2.2283096    10.067709   -3.8323087    3.7240701            0            0            0    240.48178    814.29088    799.93767    -892.7832 -1.2836309e-11 2.803154e-13 3.984801e-13   -18.869045 
    2300   -18.869436    5.8375573   -2.2375573    10.083506   -3.8481055    3.7241393            0            0            0    159.61733    796.42858    782.42309   -1099.9997 -1.2749813e-11 -4.9381422e-13 -5.1414152e-14   -18.869436 
    2310   -18.869954    5.8486988   -2.2486988    10.102539   -3.8671386    3.7236263            0            0            0    486.42793     786.7277    772.91224   -100.35615 -1.1923923e-11 2.0573144e-13 -9.991474e-14   -18.869954 
    2320   -18.870397    5.8592582   -2.2592582    10.120579   -3.8851786    3.7236708            0            0            0     420.0664    767.72345    754.27628   -261.80054 -1.1689836e-11 4.195753e-13 -1.5964224e-12   -18.870397 
    2330   -18.870755    5.8678815   -2.2678815    10.135312   -3.8999118    3.7235095            0            0            0    504.20041    756.08768    742.86602    13.647522 -1.2714255e-11 2.0448654e-13 5.8264485e-13   -18.870755 
    2340   -18.871283    5.8809257   -2.2809257      10.1576   -3.9221999    3.7234763            0            0            0    485.53822    735.13906    722.32143  -0.84583953 -1.1725356e-11 -1.0401539e-12 -1.1146905e-12   -18.871283 
    2350   -18.871743    5.8927987   -2.2927987    10.177888   -3.9424882    3.7231908            0            0            0    647.60443    720.93489    708.39127    513.48713 -1.0728278e-11 -1.3810735e-13 -2.0482062e-13   -18.871743 
    2360   -18.872262    5.9060159   -2.3060159    10.200475   -3.9650753    3.7234755            0            0            0    410.06985    695.45362    683.39701   -148.64109 -1.0681532e-11 1.4259101e-13 8.3840237e-13   -18.872262 
    2370   -18.872568    5.9141124   -2.3141124    10.214312   -3.9789124    3.7232763            0            0            0    522.43478    686.30353     674.4223     206.5785 -1.1137585e-11 4.2503323e-13 5.6487291e-14   -18.872568 
    2380   -18.872951    5.9243714   -2.3243714    10.231846   -3.9964464    3.7233499            0            0            0    442.53877    669.74854    658.18224  -0.31448424 -1.0473404e-11 3.2198721e-13 -2.1086204e-12   -18.872951 
    2390   -18.873427    5.9382908   -2.3382908    10.255638   -4.0202382    3.7228714            0            0            0    730.58846     656.7553    645.43736    889.57272 -1.0912264e-11 2.1223854e-13 6.7234021e-13   -18.873427 
    2400   -18.873741    5.9462984   -2.3462984    10.269326   -4.0339261    3.7233039            0            0            0    413.44185    638.74287    627.76432   -26.181656 -9.955452e-12 7.7008078e-14 2.7566288e-13   -18.873741 
    2410   -18.874147    5.9582591   -2.3582591    10.289772   -4.0543724    3.7235386            0            0            0    225.62028    618.70992    608.10831   -549.95738 -1.0181755e-11 -4.1901479e-15 -8.5721932e-13   -18.874147 
    2420   -18.874493    5.9683579   -2.3683579    10.307037   -4.0716371    3.7229665            0            0            0    582.94158    613.13598    602.64111    533.04765 -9.2250764e-12 2.3935432e-13 3.4576064e-13   -18.874493 
    2430   -18.874906    5.9803902   -2.3803902    10.327608   -4.0922083     3.723204            0            0            0    392.73403    593.76785    583.63542   0.79879916 -9.0668182e-12 -6.4975612e-13 1.8215366e-13   -18.874906 
    2440   -18.875257    5.9910951   -2.3910951    10.345912   -4.1105117    3.7231775            0            0            0    384.28063    580.24739    570.36769    2.2268251 -9.4451119e-12 -7.6825822e-13 -1.080908e-13   -18.875257 
    2450   -18.875608    6.0020334   -2.4020334    10.364615   -4.1292152    3.7231384            0            0            0    384.06315    566.90566    557.27462    28.009155 -9.2040293e-12 3.5928482e-13 9.3295181e-13   -18.875608 
    2460   -18.875938    6.0125579   -2.4125579    10.382612   -4.1472121    3.7231295            0            0            0    365.74755    553.99901    544.60732   -1.3636849 -8.1562006e-12 -3.0729424e-13 -2.5948853e-13   -18.875938 
    2470   -18.876249    6.0231663   -2.4231663    10.400753   -4.1653534     3.723432            0            0            0    146.53971    537.47012    528.38209   -626.23307 -9.096637e-12 5.4210988e-13 5.5085133e-13   -18.876249 
    2480    -18.87656    6.0338815   -2.4338815    10.419079   -4.1836785     3.723524            0            0            0    64.426245    523.80921    514.97173   -845.50221 -7.0749367e-12 3.2532293e-14 1.1078013e-12    -18.87656 
    2490   -18.876899     6.044464    -2.444464    10.437178   -4.2017776    3.7231862            0            0            0     260.9269    515.68667    506.99985   -239.90582 -8.1051478e-12 3.2129687e-13 -6.5697714e-13   -18.876899 
    2500   -18.877246    6.0563782   -2.4563782    10.457556   -4.2221555     3.723036            0            0            0    332.07423    504.00394    495.53223   -3.3134754 -8.5473069e-12 1.728892e-13 3.4912301e-13   -18.877246 
    2510    -18.87766     6.071267    -2.471267    10.483023   -4.2476228    3.7232012            0            0            0    198.71525    485.92904    477.78779   -367.57109 -6.465499e-12 1.6228549e-13 -3.4990237e-13    -18.87766 
    2520   -18.878039    6.0849508   -2.4849508     10.50643   -4.2710304    3.7228904            0            0            0    368.26799    474.76127    466.82479    163.21793 -7.5669531e-12 -1.0921668e-13 1.4644039e-13   -18.878039 
    2530   -18.878269    6.0934529   -2.4934529    10.520975   -4.2855752    3.7229597            0            0            0     308.5353    465.22059    457.45742    2.9278845 -6.9466213e-12 9.2604974e-13 -1.1974587e-12   -18.878269 
    2540    -18.87859    6.1056886   -2.5056886    10.541909   -4.3065085    3.7228704            0            0            0    342.07054    453.73209    446.17752    126.30201 -6.7397375e-12 -6.2836725e-13 4.1878512e-13    -18.87859 
    2550   -18.878872     6.116643    -2.516643    10.560651   -4.3252507    3.7228696            0            0            0    322.99818    442.90842    435.54955     90.53656 -6.6638094e-12 -2.6545851e-13 2.1125578e-12   -18.878872 
    2560   -18.879198     6.129582    -2.529582     10.58279   -4.3473896    3.7228795            0            0            0    294.48042    430.35612     423.2218    29.863338 -6.5810872e-12 -8.0239986e-14 6.8804084e-13   -18.879198 
    2570   -18.879407    6.1389088   -2.5389088    10.598749    -4.363349    3.7225164            0            0            0    504.50797    424.98917    417.95098    670.58377 -6.2492684e-12 8.0672795e-15 -6.5721628e-13   -18.879407 
    2580   -18.879649    6.1480992   -2.5480992    10.614476   -4.3790755    3.7228851            0            0            0     260.5076     413.0903    406.26422   -37.831717 -6.4750256e-12 -2.6948513e-13 6.7412418e-13   -18.879649 
    2590   -18.879909    6.1590487   -2.5590487    10.633213   -4.3978132    3.7228556            0            0            0    261.10333    403.49785    396.84355   -17.031408 -6.087746e-12 7.4395971e-14 -3.2434827e-13   -18.879909 
    2600   -18.880163    6.1700103   -2.5700103    10.651972   -4.4165725    3.7228378            0            0            0    254.95476    394.01635    387.53135   -16.683414 -4.9857601e-12 1.4015388e-13 -1.4634538e-12   -18.880163 
    2610   -18.880412    6.1809681   -2.5809681    10.670726   -4.4353261    3.7228205            0            0            0    248.94716    384.75666    378.43653   -16.351697 -5.7354733e-12 5.4015765e-13 -6.0583476e-13   -18.880412 
    2620   -18.880627     6.190647    -2.590647    10.687292    -4.451892    3.7228276            0            0            0     230.5736    376.57608    370.40117   -55.256464 -5.438115e-12 1.6997508e-13 2.1002183e-13   -18.880627 
    2630   -18.880844    6.2014631   -2.6014631    10.705805    -4.470405    3.7224161            0            0            0    463.26607    370.99619    364.92107    653.88094 -5.5127175e-12 -5.4900265e-14 5.0915901e-13   -18.880844 
    2640   -18.881072    6.2112094   -2.6112094    10.722488   -4.4870875    3.7228141            0            0            0    209.81716    359.99148       354.11   -84.650013 -5.0827654e-12 -4.3076683e-13 4.4423724e-13   -18.881072 
    2650   -18.881313    6.2235271   -2.6235271    10.743573   -4.5081727    3.7224177            0            0            0    429.78027    353.35363    347.58818    588.39901 -5.5125173e-12 -2.6988609e-13 -1.005545e-12   -18.881313 
    2660   -18.881512    6.2324222   -2.6324222      10.7588   -4.5233998    3.7227523            0            0            0    218.01156     344.0012    338.39866   -28.365174 -5.2960186e-12 -5.8546801e-13 -7.6004575e-13   -18.881512 
    2670   -18.881745    6.2440226   -2.6440226    10.778659   -4.5432586    3.7227156            0            0            0    224.64366    335.57906    330.12437    8.2275592 -4.6195894e-12 9.1301641e-14 2.0903048e-12   -18.881745 
    2680   -18.881963    6.2550683   -2.6550683    10.797569   -4.5621688    3.7227141            0            0            0    211.69052    327.51657    322.20291   -14.647932 -5.1379695e-12 -9.7521406e-13 -1.9543604e-13   -18.881963 
    2690   -18.882132    6.2638298   -2.6638298    10.812569   -4.5771692    3.7227141            0            0            0    200.99324    321.25071    316.04637   -34.317349 -5.2014323e-12 -2.9560127e-13 -9.4985167e-13   -18.882132 
    2700   -18.882316     6.273586    -2.673586    10.829273   -4.5938733    3.7226893            0            0            0    203.72234    314.57934     309.4912   -12.903534 -4.6418083e-12 3.1947935e-14  3.11378e-13   -18.882316 
    2710   -18.882504     6.283695    -2.683695    10.846582   -4.6111821    3.7226812            0            0            0    196.68167    307.69806    302.72947   -20.382529 -4.6989137e-12 -1.0899175e-13 -9.7883913e-15   -18.882504 
    2720   -18.882659    6.2921625   -2.6921625    10.861081    -4.625681    3.7226785            0            0            0    188.63963    302.02343    297.15318   -33.257725 -3.9766591e-12 1.6732966e-13 -1.8385304e-13   -18.882659 
    2730   -18.882844    6.3024883   -2.7024883    10.878762   -4.6433623    3.7226538            0            0            0    191.26779    295.37656    290.62129   -12.194468 -4.1154999e-12 -1.2964839e-13 -2.4963736e-13   -18.882844 
    2740   -18.883036    6.3134249   -2.7134249     10.89749   -4.6620903    3.7226415            0            0            0    186.48283    288.41189    283.77679   -12.740188 -3.9605292e-12 -4.921313e-13 6.9334913e-13   -18.883036 
    2750   -18.883181    6.3218517   -2.7218517    10.911921   -4.6765213    3.7226453            0            0            0    175.46694     283.0784    278.53506   -35.212626 -4.1268606e-12 3.3462443e-13 7.006261e-13   -18.883181 
    2760   -18.883374      6.33329     -2.73329     10.93151   -4.6961099    3.7226187            0            0            0    178.68859    276.17817    271.75337   -11.865767 -3.904865e-12 -5.4162284e-13 1.7348532e-13   -18.883374 
    2770   -18.883562    6.3446844   -2.7446844    10.951025   -4.7156245    3.7226227            0            0            0    165.05138    269.29972    264.99271   -39.138292 -3.806824e-12 5.6621789e-14 -1.0403507e-12   -18.883562 
    2780   -18.883695    6.3528923   -2.7528923    10.965082   -4.7296823    3.7225993            0            0            0     170.1053    264.59481    260.36821   -14.647115 -3.6712016e-12 -8.0089572e-14 2.004524e-13   -18.883695 
    2790     -18.8839    6.3660591   -2.7660591    10.987634   -4.7522336    3.7227272            0            0            0    87.351454    256.34498     252.2589   -246.54952 -3.3449251e-12 5.0920273e-13 -1.5115807e-13     -18.8839 
    2800   -18.884073    6.3773236   -2.7773236    11.006928   -4.7715281     3.722388            0            0            0    264.95166    251.80587    247.79734    295.25177 -3.5272811e-12 -1.8941812e-13 -1.6771621e-13   -18.884073 
    2810   -18.884241    6.3892836   -2.7892836    11.027415   -4.7920147    3.7229037            0            0            0    -29.32558    242.65913    238.80509   -569.44096 -3.3769603e-12 3.3574683e-13 1.4215681e-12   -18.884241 
    2820   -18.884378    6.3973064   -2.7973064    11.041158   -4.8057577    3.7225519            0            0            0     155.6705    240.12308    236.31232   -9.4239132 -2.968581e-12 3.1512375e-13 3.8887141e-13   -18.884378 
    2830   -18.884543    6.4086747   -2.8086747    11.060632   -4.8252321    3.7224984            0            0            0    175.16808    234.42734    230.71281    60.364091 -2.9055288e-12 4.5984238e-13 -3.9515534e-13   -18.884543 
    2840   -18.884654    6.4164498   -2.8164498    11.073952   -4.8385517    3.7225534            0            0            0    138.71613    230.17842    226.53541   -40.565418 -3.0099049e-12 -8.3358439e-13 1.1178288e-12   -18.884654 
    2850    -18.88477    6.4246834   -2.8246834    11.088057   -4.8526572    3.7225263            0            0            0    146.66762    226.15559    222.58026   -8.7329854 -2.9382274e-12 6.0356251e-13 -6.132406e-13    -18.88477 
    2860    -18.88495    6.4377955   -2.8377955    11.110521    -4.875121    3.7224732            0            0            0    164.85294    219.93672    216.46583    58.156254 -2.6296528e-12 -1.1429309e-14 1.6007608e-13    -18.88495 
    2870   -18.885055    6.4455065   -2.8455065    11.123732    -4.888332    3.7225268            0            0            0     130.0221    215.98742    212.58262   -38.503757 -2.695555e-12 -3.1331277e-13 -4.8819679e-13   -18.885055 
    2880   -18.885159     6.453396    -2.853396    11.137249   -4.9018494    3.7225012            0            0            0     137.7054    212.36503     209.0208    -8.269652 -2.6744572e-12 -8.4964202e-13 1.1374389e-14   -18.885159 
    2890   -18.885285    6.4630851   -2.8630851    11.153851   -4.9184506    3.7225663            0            0            0    96.064306    207.59601    204.33129   -123.73439 -2.5978141e-12 7.8930516e-13 9.421923e-14   -18.885285 
    2900   -18.885388    6.4710314   -2.8710314    11.167466   -4.9320659    3.7225035            0            0            0    123.53335    204.23958    201.03081   -34.670355 -2.6701839e-12 1.1100921e-14 -3.6615829e-13   -18.885388 
    2910   -18.885485    6.4787359   -2.8787359    11.180668   -4.9452675    3.7224803            0            0            0    130.30759    200.88474    197.73178   -7.6937604 -2.6734135e-12 -5.2960416e-14 -1.9365128e-13   -18.885485 
    2920   -18.885606     6.488783    -2.888783    11.197883   -4.9624835    3.7223049            0            0            0    216.38995    197.16657    194.07546     257.9278 -2.5512714e-12 -8.5481754e-14 -1.4429947e-13   -18.885606 
    2930   -18.885684    6.4948835   -2.8948835    11.208337   -4.9729371    3.7224814            0            0            0     118.5283    193.83648    190.80043   -29.052017 -2.6299472e-12 1.7499057e-14 -3.4203824e-13   -18.885684 
    2940    -18.88579    6.5036283   -2.9036283    11.223322   -4.9879223    3.7224608            0            0            0    123.42125    190.20279    187.22688   -7.1659187 -2.7312427e-12 -2.0392132e-13 1.5158316e-12    -18.88579 
    2950   -18.885903    6.5134112   -2.9134112    11.240087    -5.004687    3.7223256            0            0            0    187.87954     186.6352    183.71831    193.28511 -2.7071222e-12 -3.2007246e-13 5.3294333e-13   -18.885903 
    2960   -18.885976     6.519469    -2.919469    11.250468   -5.0150682    3.7224631            0            0            0    111.94506    183.64736    180.77966   -28.591852 -2.4337838e-12 -8.8913155e-14 -9.5414418e-14   -18.885976 
    2970   -18.886064    6.5272096   -2.9272096    11.263734   -5.0283336    3.7224434            0            0            0    117.21033    180.60012    177.78262   -6.7517356 -2.5370457e-12 1.5638017e-13 2.120263e-13   -18.886064 
    2980    -18.88617    6.5366355   -2.9366355    11.279888   -5.0444876    3.7223636            0            0            0    152.69003    177.15318     174.3924     106.5245 -2.4848712e-12 1.4408241e-13 -6.6074637e-14    -18.88617 
    2990   -18.886238    6.5426789   -2.9426789    11.290245    -5.054845    3.7224468            0            0            0    105.95047    174.51259    171.79512   -28.456292 -2.1023954e-12 9.6050199e-13 -9.6922817e-13   -18.886238 
    3000    -18.88632     6.550164    -2.950164    11.303073   -5.0676734    3.7224274            0            0            0     111.4634    171.71242     169.0404   -6.3626246 -2.230485e-12 -1.0857725e-13 8.7821544e-13    -18.88632 
    3010   -18.886419    6.5594002   -2.9594002    11.318903   -5.0835033    3.7223474            0            0            0     147.0638    168.50516    165.88405    106.80219 -2.1773191e-12 -1.7071245e-13 -5.4187804e-13   -18.886419 
    3020   -18.886483    6.5654009   -2.9654009    11.329188   -5.0937882    3.7224314            0            0            0    100.53868    166.00826    163.42687   -27.819085 -1.8518435e-12 -6.506614e-14 3.108927e-13   -18.886483 
    3030    -18.88656    6.5726996   -2.9726996    11.341698   -5.1062977    3.7224124            0            0            0    106.09008    163.41065    160.87168   -6.0120903 -2.1883563e-12 1.303763e-13 7.0929739e-13    -18.88656 
    3040   -18.886652    6.5817667   -2.9817667    11.357238   -5.1218385    3.7223309            0            0            0    142.44959    160.42128    157.93122    108.99627 -2.117486e-12 -1.7100703e-13 -4.9969222e-13   -18.886652 
    3050   -18.886713    6.5877295   -2.9877295    11.367459   -5.1320589     3.722417            0            0            0    95.487874    158.05225    155.60082    -27.18945 -1.8273566e-12 5.7568285e-13 -6.3848433e-14   -18.886713 
    3060   -18.886785    6.5948744   -2.9948744    11.379706   -5.1443058    3.7223984            0            0            0     101.0525    155.62959    153.21766   -5.6897611 -1.9555972e-12 5.2702274e-13 2.8287422e-13   -18.886785 
    3070   -18.886872    6.6038037   -3.0038037    11.395011   -5.1596113    3.7223148            0            0            0    138.46428    152.83308    150.46671    112.09306 -2.1251785e-12 -2.5638217e-13 8.4499304e-13   -18.886872 
    3080   -18.886931     6.609732    -3.009732    11.405173   -5.1697733    3.7224035            0            0            0     90.76371    150.58047    148.25068   -26.540018 -1.8908884e-12 -9.3460371e-13 -8.3264244e-14   -18.886931 
    3090   -18.886998    6.6167527   -3.0167527    11.417208   -5.1818079    3.7223852            0            0            0    96.312242     148.3108    146.01786   -5.3919301 -1.8977542e-12 -1.0472535e-13 9.9836947e-14   -18.886998 
    3100   -18.887081     6.625572    -3.025572    11.432326    -5.196926    3.7222988            0            0            0    135.06102    145.68682    143.43646    116.05979 -1.7674142e-12 4.6045581e-14 3.7889807e-13   -18.887081 
    3110   -18.887136    6.6314688   -3.0314688    11.442435   -5.2070346    3.7223907            0            0            0    86.338379    143.54123    141.32558   -25.851665 -1.9790021e-12 8.7168607e-15 1.2936654e-12   -18.887136 
    3120     -18.8872    6.6383915   -3.0383915    11.454302   -5.2189019    3.7223729            0            0            0    91.838454    141.40608    139.22497   -5.1156967 -1.7564077e-12 8.1979574e-13 1.4283106e-13     -18.8872 
    3130   -18.887278    6.6471261   -3.0471261    11.469276   -5.2338757     3.722283            0            0            0     132.2089    138.93738    136.79617    120.89314 -1.6610015e-12 -1.8543549e-13 5.8317423e-14   -18.887278 
    3140   -18.887331    6.6529873   -3.0529873    11.479324   -5.2439237    3.7223786            0            0            0    82.203834    136.89271    134.78446   -25.065661 -1.7921252e-12 -6.0616552e-14 -9.3868695e-14   -18.887331 
    3150   -18.887391    6.6598387   -3.0598387     11.49107   -5.2556695    3.7223612            0            0            0    87.603193    134.87548    132.79973   -4.8656328 -1.7893841e-12 6.3097338e-13 -3.122379e-13   -18.887391 
    3160   -18.887466    6.6685128   -3.0685128     11.50594   -5.2705403     3.722268            0            0            0    129.44626    132.54473    130.50652    125.28754 -1.6128868e-12 2.157395e-13 3.2408479e-13   -18.887466 
    3170   -18.887517    6.6743684   -3.0743684    11.515979   -5.2805794     3.722367            0            0            0    78.335359    130.58783    128.58104   -24.162787 -1.7000182e-12 4.9608871e-13 -5.6654571e-14   -18.887517 
    3180   -18.887574    6.6811931   -3.0811931     11.52768   -5.2922801    3.7223501            0            0            0    83.590156    128.66888     126.6929    -4.591311 -1.696613e-12 7.3056127e-14 8.6443658e-14   -18.887574 
    3190   -18.887645     6.689826    -3.089826    11.542481   -5.3070811    3.7222525            0            0            0    127.41691    126.46548    124.52486    131.26038 -1.6310583e-12 -2.8849719e-13 1.4318476e-13   -18.887645 
    3200   -18.887694    6.6956768   -3.0956768    11.552513   -5.3171126     3.722356            0            0            0    74.645892    124.58939    122.67879   -23.330509 -1.663343e-12 -3.247256e-13 5.129568e-13   -18.887694 
    3210   -18.887749    6.7024814   -3.1024814    11.564179   -5.3287793    3.7223395            0            0            0    79.764274    122.76201    120.88065   -4.3498399 -1.5668206e-12 -9.043415e-14 -1.6842513e-12   -18.887749 
    3220   -18.887816    6.7110967   -3.1110967    11.578951    -5.343551    3.7222362            0            0            0    126.14532    120.67549    118.82749    138.93298 -1.5642814e-12 -2.8226085e-13 8.8283499e-13   -18.887816 
    3230   -18.887863    6.7169226   -3.1169226     11.58894   -5.3535402    3.7223456            0            0            0    71.107912    118.87918    117.05982   -22.615258 -1.5772889e-12 8.3214139e-13 7.5123286e-13   -18.887863 
    3240   -18.887916    6.7237059   -3.1237059    11.600571   -5.3651712    3.7223296            0            0            0    76.115104    117.13925    115.34764   -4.1415783 -1.537167e-12 2.372303e-13 -4.712067e-13   -18.887916 
    3250    -18.88798    6.7323269   -3.1323269    11.615353   -5.3799535    3.7222196            0            0            0    125.46409    115.15938    113.39931    147.83358 -1.5040773e-12 4.9569383e-15 -8.220633e-13    -18.88798 
    3260   -18.888025    6.7381161   -3.1381161     11.62528   -5.3898801    3.7223357            0            0            0    67.711234    113.44035    111.70749    -22.01414 -1.5289682e-12 -1.4202782e-13 1.201017e-12   -18.888025 
    3270   -18.888075    6.7449141   -3.1449141    11.636937   -5.4015369      3.72232            0            0            0    72.635982    111.77615    110.06845   -3.9366574 -1.4605277e-12 8.3762235e-14 3.4424392e-13   -18.888075 
    3280   -18.888137    6.7535748   -3.1535748    11.651788   -5.4163876    3.7222013            0            0            0    125.86035    109.89499    108.21559    159.47048 -1.354121e-12 -4.6261794e-14 1.1281529e-12   -18.888137 
    3290    -18.88818    6.7593609   -3.1593609    11.661709   -5.4263094    3.7223265            0            0            0    64.403695    108.23868    106.58487   -21.612464 -1.3972472e-12 3.3310542e-13 -7.36904e-13    -18.88818 
    3300   -18.888229    6.7662422   -3.1662422    11.673509    -5.438109    3.7223109            0            0            0    69.306351    106.63068    105.00247   -3.7140985 -1.3445495e-12 -4.0246468e-13 -1.0081062e-12   -18.888229 
    3310   -18.888288    6.7750091   -3.1750091    11.688542   -5.4531424    3.7221787            0            0            0    128.56224    104.83675    103.23708    177.61288 -1.3174942e-12 1.6479191e-13 -2.3115783e-14   -18.888288 
    3320   -18.888331    6.7808084   -3.1808084    11.698487   -5.4630871    3.7223178            0            0            0    61.104445     103.2276    101.65344   -21.567698 -1.2700843e-12 -1.9732326e-14 -4.7730329e-13   -18.888331 
    3330   -18.888379    6.7878923   -3.1878923    11.710635   -5.4752349     3.722302            0            0            0    66.081061    101.64781    100.09871   -3.5033412 -1.316991e-12 1.8361808e-14 2.3245947e-13   -18.888379 
    3340   -18.888436    6.7969516   -3.1969516     11.72617   -5.4907705    3.7221445            0            0            0    136.82818    99.918364    98.396684    212.16948 -1.3980451e-12 -1.3844283e-13 1.4905061e-13   -18.888436 
[...]
    4240   -18.890914    7.4927003   -3.8927003     12.91997   -6.6845702    3.7221634            0            0            0    13.270076    21.107456     20.79554   -2.0927692 -2.8613052e-13 -1.0320046e-13 -1.1847115e-13   -18.890914 
    4250   -18.890929    7.5022486   -3.9022486     12.93636   -6.7009602    3.7221647            0            0            0    12.268835    20.658169    20.352917   -4.2045812 -2.3700454e-13 5.9634154e-14 2.4280021e-14   -18.890929 
    4260   -18.890941     7.509554    -3.909554      12.9489   -6.7135002    3.7221609            0            0            0    13.185674    20.322347    20.022075   -0.7873999 -2.5192811e-13 -2.1564289e-14 9.2872721e-15   -18.890941 
    4270   -18.890955    7.5189555   -3.9189555    12.965038   -6.7296382     3.722157            0            0            0    14.053582    19.897828    19.603848    2.6590719 -2.6405081e-13 -3.4424644e-13 4.2108306e-13   -18.890955 
    4280   -18.890967    7.5270163   -3.9270163    12.978875   -6.7434751    3.7221627            0            0            0    11.583032    19.538006    19.249358   -4.0382667 -2.678164e-13 6.8656752e-14 1.9627562e-13   -18.890967 
    4290    -18.89098    7.5359168   -3.9359168    12.994153   -6.7587534    3.7221583            0            0            0    12.649219    19.151437    18.868515 -0.072296721 -2.6198849e-13 4.1965059e-13 1.3610775e-13    -18.89098 
    4300   -18.890996    7.5470635   -3.9470635    13.013287   -6.7778874    3.7221774            0            0            0    5.3511506    18.670685    18.394883   -21.012117 -2.4006335e-13 6.2339383e-13 -5.1905307e-14   -18.890996 
    4310   -18.891007    7.5546291   -3.9546291    13.026275   -6.7908745    3.7221577            0            0            0    11.896706    18.360728    18.089512  -0.76012059 -2.2263852e-13 -3.225193e-13 -2.9639654e-13   -18.891007 
    4320   -18.891017    7.5616731   -3.9616731    13.038366   -6.8029662     3.722157            0            0            0    11.767244    18.071633    17.804696  -0.57459806 -2.4698582e-13 -6.9231516e-13 3.0555883e-13   -18.891017 
    4330   -18.891031    7.5718703   -3.9718703    13.055871   -6.8204706    3.7221583            0            0            0    10.821482    17.660476    17.399621   -2.5956528 -2.2756024e-13 -2.3401177e-13 -1.2940145e-12   -18.891031 
    4340   -18.891043    7.5806417   -3.9806417    13.070928   -6.8355277    3.7221596            0            0            0    9.9230808    17.314144    17.058411   -4.6033123 -2.3164408e-13 2.2923674e-14 -3.4318653e-14   -18.891043 
    4350   -18.891051    7.5865064   -3.9865064    13.080995   -6.8455953    3.7221551            0            0            0    11.208481    17.087794    16.835407  -0.29775947 -2.2502445e-13 -1.3243988e-14 -6.567272e-13   -18.891051 
    4360   -18.891061    7.5941358   -3.9941358    13.094092    -6.858692    3.7221353            0            0            0     17.69569    16.801389    16.553234    19.732447 -2.2110035e-13 1.0176476e-13 7.808445e-13   -18.891061 
    4370   -18.891069    7.6007193   -4.0007193    13.105393   -6.8699935    3.7221367            0            0            0    16.877366    16.553236    16.308748    17.770115 -2.0987674e-13 1.395026e-13 -1.8942282e-13   -18.891069 
    4380   -18.891078     7.607577    -4.007577    13.117166   -6.8817655    3.7221514            0            0            0    11.506473    16.295245     16.05457    2.1696051 -1.9482536e-13 -2.3885381e-13 -4.7720289e-13   -18.891078 
    4390   -18.891089     7.617334    -4.017334    13.133915   -6.8985148    3.7220721            0            0            0    38.349536    15.960067    15.724338    83.364204 -1.9152421e-13 7.0555194e-14 -2.7195242e-13   -18.891089 
    4400   -18.891105    7.6304485   -4.0304485    13.156428   -6.9210279    3.7222345            0            0            0   -17.689828    15.455119    15.226856   -83.751459 -1.9170894e-13 -4.2525487e-13 5.7414605e-13   -18.891105 
    4410   -18.891119    7.6412604   -4.0412604    13.174988   -6.9395883    3.7221517            0            0            0    9.9226685    15.101642    14.878593  -0.21222948 -1.9402329e-13 -3.6650995e-13 -2.11403e-13   -18.891119 
    4420   -18.891129    7.6504554   -4.0504554    13.190773   -6.9553731    3.7220909            0            0            0    30.211053    14.805151    14.586473    61.241537 -1.8775452e-13 -2.8456086e-13 4.9055641e-13   -18.891129 
    4430    -18.89114    7.6596274   -4.0596274    13.206519   -6.9711185    3.7221362            0            0            0    14.423455    14.491187    14.277144    14.502035 -1.8553262e-13 -1.2103368e-13 -2.9892001e-13    -18.89114 
    4440   -18.891149    7.6671956   -4.0671956    13.219511   -6.9841106     3.722145            0            0            0    11.151413    14.243445    14.033056     5.177737 -2.0463404e-13 2.7193887e-13 -6.1050177e-13   -18.891149 
    4450   -18.891158     7.675462    -4.075462    13.233702   -6.9983016    3.7221497            0            0            0    9.2506008    13.978694     13.77221 0.00089850175 -1.7338152e-13 9.0441672e-14 2.8897471e-13   -18.891158 
    4460   -18.891168    7.6854031   -4.0854031    13.250767   -7.0153675    3.7220894            0            0            0    29.111754    13.680693    13.478599    60.175971 -1.7313856e-13 6.4426966e-14 -7.5243657e-13   -18.891168 
    4470   -18.891179    7.6947037   -4.0947037    13.266734   -7.0313338    3.7221493            0            0            0    8.6681486    13.383481    13.185771  -0.56480627 -1.6238486e-13 2.3435016e-14 -1.8156636e-13   -18.891179 
    4480   -18.891187    7.7030597   -4.1030597    13.281079   -7.0456788    3.7220885            0            0            0    28.647538    13.145144    12.950943    59.846527 -1.6114405e-13 2.4618138e-13 -8.3524454e-14   -18.891187 
    4490   -18.891194    7.7100856   -4.1100856     13.29314   -7.0577402    3.7221051            0            0            0    22.823219    12.934473    12.743377    42.791807 -1.502363e-13 -1.3032778e-13 5.5069301e-13   -18.891194 
    4500   -18.891202    7.7179737   -4.1179737    13.306682   -7.0712819    3.7221476            0            0            0    8.4024506    12.697271    12.509672 0.00040895025 -1.5481224e-13 5.368281e-13 2.6394563e-13   -18.891202 
    4510   -18.891211    7.7267061   -4.1267061    13.321673    -7.086273    3.7221157            0            0            0    18.654271     12.45481    12.270781    31.237222 -1.6181332e-13 -1.3397375e-13 3.6385321e-13   -18.891211 
    4520    -18.89122    7.7360677   -4.1360677    13.337744   -7.1023444    3.7221261            0            0            0    14.854915    12.191585    12.011433    20.361729 -1.5667935e-13 -1.6462122e-13 2.9134829e-13    -18.89122 
    4530   -18.891227     7.742779    -4.142779    13.349266    -7.113866    3.7221408            0            0            0    9.8037182    12.004963     11.82756    5.5786311 -1.4920684e-13 -3.794187e-13 -4.070338e-13   -18.891227 
    4540   -18.891235    7.7518605   -4.1518605    13.364857   -7.1294566    3.7221461            0            0            0    7.7587237    11.759535    11.585746 -0.069109432 -1.4703321e-13 8.6515427e-14 6.1844108e-13   -18.891235 
    4550   -18.891242    7.7590868   -4.1590868    13.377262   -7.1418624    3.7221307            0            0            0     12.56972     11.57126    11.400242    14.737659 -1.3297278e-13 -2.1062705e-14 4.1395167e-15   -18.891242 
    4560   -18.891248    7.7654101   -4.1654101    13.388118   -7.1527179    3.7221462            0            0            0    7.3155033    11.403918    11.235363   -0.6927705 -1.4977786e-13 -2.641652e-14 -3.8363735e-14   -18.891248 
    4570   -18.891257    7.7766857   -4.1766857    13.407475   -7.1720753    3.7222176            0            0            0   -16.098619    11.104091    10.939953   -70.339901 -1.3780356e-13 -3.6128686e-13 -4.6386496e-13   -18.891257 
    4580   -18.891263    7.7822308   -4.1822308    13.416995   -7.1815951     3.722147            0            0            0    6.5528711    10.977077    10.814804   -2.1332679 -1.3785678e-13 -1.791062e-13 -5.2242129e-14   -18.891263 
    4590   -18.891268    7.7879763   -4.1879763    13.426859   -7.1914586    3.7221447            0            0            0    7.1070579    10.835338    10.675151  -0.18931585 -1.3499985e-13 -2.6313787e-13 6.4449513e-13   -18.891268 
    4600   -18.891274    7.7956038   -4.1956038    13.439953   -7.2045534    3.7221549            0            0            0    3.6014433    10.647836    10.490408   -10.333914 -1.3053767e-13 -2.5203803e-13 -6.2513571e-14   -18.891274 
    4610   -18.891278    7.8004736   -4.2004736    13.448314   -7.2129137    3.7221452            0            0            0     6.608533    10.532397    10.376667   -1.0834656 -1.3592025e-13 -2.6750529e-13 8.7954979e-14   -18.891278 
    4620   -18.891284      7.80685     -4.20685    13.459261   -7.2238607    3.7221444            0            0            0     6.683709    10.381226    10.227719  -0.55781807 -1.2913205e-13 -2.8723008e-13 -1.1432154e-12   -18.891284 
    4630   -18.891291    7.8157738   -4.2157738    13.474581   -7.2391808    3.7221245            0            0            0    12.796843    10.176128    10.025638    18.188763 -1.3102753e-13 -2.1848768e-13 3.9556041e-13   -18.891291 
    4640   -18.891296    7.8213832   -4.2213832    13.484211    -7.248811    3.7221463            0            0            0    5.6754303     10.04407    9.8955236   -2.9133033 -1.2639957e-13 -3.8839163e-13 -2.9765712e-14   -18.891296 
    4650     -18.8913    7.8274201   -4.2274201    13.494575    -7.259175    3.7221434            0            0            0     6.419141    9.9077606    9.7612184  -0.41155599 -1.2000366e-13 -6.473806e-13 -8.6855066e-13     -18.8913 
    4660   -18.891307    7.8353391   -4.2353391     13.50817   -7.2727702     3.722136            0            0            0    8.5721192    9.7322591    9.5882975    6.3958011 -1.2978062e-13 4.7463611e-13 1.3881201e-13   -18.891307 
    4670   -18.891311     7.840473    -4.240473    13.516984   -7.2815841    3.7221456            0            0            0    5.3920905    9.6180428    9.4757612   -2.9175326 -1.2317688e-13 -1.6346002e-13 -5.2170652e-13   -18.891311 
    4680   -18.891315    7.8461898   -4.2461898    13.526799   -7.2913986    3.7221427            0            0            0    6.1568964    9.4943471    9.3538844  -0.37754238 -1.1685868e-13 3.5434502e-13 5.5538995e-13   -18.891315 
    4690   -18.891321    7.8539296   -4.2539296    13.540086   -7.3046864    3.7221355            0            0            0    8.2481085    9.3298399    9.1917957      6.22269 -1.1518174e-13 -2.1888674e-13 -2.8186976e-13   -18.891321 
    4700   -18.891325    7.8589234   -4.2589234     13.54866   -7.3132597    3.7221449            0            0            0    5.1528004    9.2232529    9.0867762   -2.8516279 -1.291918e-13 1.705165e-13 1.8442151e-13   -18.891325 
    4710   -18.891329    7.8645724   -4.2645724    13.558358    -7.322958    3.7221421            0            0            0    5.9025765    9.1059611    8.9712087  -0.36944044 -1.1868774e-13 2.3115475e-14 5.8348306e-14   -18.891329 
    4720   -18.891335     7.872267    -4.272267    13.571568   -7.3361681    3.7221363            0            0            0    7.5427969    8.9488237    8.8163813    4.8631857 -1.1718536e-13 -9.2739991e-14 -9.8774428e-14   -18.891335 
    4730   -18.891338    7.8772634   -4.2772634    13.580146   -7.3447459    3.7221443            0            0            0    4.9127635    8.8466702    8.7157298   -2.8241094 -1.1868953e-13 5.8085869e-13 8.029938e-13   -18.891338 
    4740   -18.891342    7.8829586   -4.2829586    13.589924   -7.3545235    3.7221415            0            0            0    5.6516515    8.7331806    8.6039084  -0.38213437 -1.1610157e-13 -1.4276791e-13 -4.2501644e-13   -18.891342 
    4750   -18.891348     7.890738    -4.290738    13.603279   -7.3678794    3.7221365            0            0            0    7.0383807    8.5806292    8.4535994    4.0809135 -1.1713028e-13 6.7863262e-14 7.2680278e-14   -18.891348 
    4760   -18.891351    7.8957355   -4.2957355    13.611859   -7.3764591    3.7221436            0            0            0     4.693916    8.4827119    8.3571216   -2.7580854 -1.1507282e-13 -1.3134876e-13 -1.0155782e-12   -18.891351 
    4770   -18.891355      7.90147     -4.30147    13.621704   -7.3863042    3.7221409            0            0            0    5.4114361    8.3730695    8.2490907  -0.38785188 -1.0951519e-13 3.581125e-14 -2.4785855e-13   -18.891355 
    4780    -18.89136    7.9093086   -4.3093086    13.635162   -7.3997616    3.7221365            0            0            0    6.6066005    8.2255398    8.1037293    3.4905324 -1.1051725e-13 -7.6404373e-15 2.6097056e-13    -18.89136 
    4790   -18.891364    7.9143238   -4.3143238    13.643772   -7.4083719     3.722143            0            0            0    4.4902082    8.1313736    8.0109474   -2.6716964 -1.1003011e-13 8.1843151e-15 -3.0058711e-13   -18.891364 
    4800   -18.891368    7.9201078   -4.3201078    13.653702    -7.418302    3.7221404            0            0            0    5.1789781    8.0252942     7.906427   -0.3947869 -1.0922942e-13 1.9760893e-13 -1.817694e-13   -18.891368 
    4810   -18.891373    7.9280223   -4.3280223     13.66729   -7.4318898    3.7221364            0            0            0    6.2362238    7.8823894    7.7656224    3.0606597 -1.0096613e-13 4.0038529e-13 -1.4829116e-13   -18.891373 
    4820   -18.891376    7.9330494   -4.3330494     13.67592   -7.4405205    3.7221424            0            0            0    4.2987229    7.7919509    7.6765134   -2.5722955 -1.1014445e-13 4.2400417e-13 -4.4852143e-13   -18.891376 
    4830    -18.89138    7.9388658   -4.3388658    13.685906   -7.4505062    3.7221398            0            0            0    4.9560483    7.6896565    7.5757223  -0.39723376 -1.0628214e-13 -1.1824265e-13 1.7166922e-13    -18.89138 
    4840   -18.891385    7.9468326   -4.3468326    13.699584   -7.4641839    3.7221362            0            0            0    5.9021366    7.5517014    7.4397945    2.7149139 -1.0720263e-13 -1.3929306e-13 1.9539628e-13   -18.891385 
    4850   -18.891388    7.9518754   -4.3518754    13.708242   -7.4728415    3.7221417            0            0            0    4.1176673    7.4647875    7.3541581   -2.4659437 -9.9982164e-14 -3.4145655e-15 -3.0264393e-13   -18.891388 
    4860   -18.891391    7.9577331   -4.3577331    13.718298   -7.4828982    3.7221393            0            0            0    4.7391981    7.3660187    7.2568409   -0.4052653 -1.0604632e-13 9.938828e-14 -1.9795566e-13   -18.891391 
    4870   -18.891396    7.9657983   -4.3657983    13.732145   -7.4967449    3.7221363            0            0            0      5.49575    7.2321327    7.1249464    2.1301708 -9.0879513e-14 -1.301401e-13 8.7675682e-14   -18.891396 
    4880   -18.891399    7.9713058   -4.3713058      13.7416   -7.5062004    3.7221409            0            0            0    4.0142638    7.1414845    7.0356304   -2.1343237 -9.6909989e-14 -1.8381248e-13 3.3075172e-14   -18.891399 
    4890   -18.891403    7.9770203   -4.3770203    13.751411   -7.5160114    3.7221387            0            0            0    4.5777363    7.0493266    6.9448267  -0.26094437 -1.0053058e-13 7.1910925e-13 5.2080394e-13   -18.891403 
    4900   -18.891407    7.9841285   -4.3841285    13.763615    -7.528215    3.7221364            0            0            0    5.1251235    6.9362766    6.8334379    1.6056561 -9.7846113e-14 -1.7615987e-13 3.0983725e-13   -18.891407 
    4910   -18.891411    7.9910549   -4.3910549    13.775507   -7.5401065     3.722139            0            0            0    4.2027756    6.8273586    6.7261206  -0.94515235 -9.3873068e-14 7.2100021e-14 -3.4162236e-14   -18.891411 
    4920   -18.891414     7.997699    -4.397699    13.786913   -7.5515134    3.7221376            0            0            0    4.5144488    6.7248527    6.6251209    0.1933727 -9.3783782e-14 -1.19009e-13 -2.9798953e-13   -18.891414 
    4930   -18.891418    8.0034326   -4.4034326    13.796757   -7.5613572    3.7221392            0            0            0    3.9445224    6.6373443    6.5388985   -1.3426757 -9.5956167e-14 -3.1860856e-13 1.3465155e-13   -18.891418 
    4940   -18.891421    8.0099483   -4.4099483    13.807944   -7.5725437    3.7221232            0            0            0    8.6474589    6.5409566    6.4439269    12.957493 -9.7621254e-14 1.7364112e-13 -1.5452332e-13   -18.891421 
    4950   -18.891424    8.0160622   -4.4160622     13.81844   -7.5830404    3.7221378            0            0            0    4.1382449    6.4489787    6.3533012  -0.38754519 -8.7379521e-14 1.0545754e-13 5.3990254e-13   -18.891424 
    4960   -18.891429    8.0242429   -4.4242429    13.832486   -7.5970856    3.7221367            0            0            0    4.3401045    6.3298107    6.2358844   0.45461848 -9.1706404e-14 -2.19223e-13 -2.4469691e-13   -18.891429 
    4970   -18.891433    8.0319482   -4.4319482    13.845714   -7.6103145    3.7221373            0            0            0    4.0347287     6.219404    6.1271004  -0.24231824 -8.7003331e-14 -1.0010756e-13 2.510947e-13   -18.891433 
    4980   -18.891435    8.0371482   -4.4371482    13.854642    -7.619242    3.7221371            0            0            0    4.0116401     6.146025    6.0547999  -0.16590466 -8.862875e-14 -4.7236682e-14 -3.220193e-13   -18.891435 
    4990   -18.891438    8.0431528   -4.4431528    13.864951   -7.6295511    3.7221292            0            0            0    6.2765926    6.0630271    5.9730216    6.7937292 -8.9320275e-14 -4.3541656e-13 -2.6974946e-13   -18.891438 
    5000   -18.891441     8.049053    -4.449053    13.875081   -7.6396809    3.7221137            0            0            0    10.772765    5.9832118     5.894379    20.440705 -8.6835605e-14  1.12236e-13 5.1885999e-13   -18.891441 
Loop time of 0.757302 on 1 procs for 5000 steps with 4 atoms

34.4% CPU use with 1 MPI tasks x no OpenMP threads

Minimization stats:
  Stopping criterion = max iterations
  Energy initial, next-to-last, final = 
        -6.24147420694     -18.8914410914     -18.8914413731
  Force two-norm initial, final = 17.5692 0.0201777
  Force max component initial, final = 10.1482 0.0201676
  Final line search alpha, max atom move = 0.00296819 5.98613e-05
  Iterations, force evaluations = 5000 7169

MPI task timing breakdown:
Section |  min time  |  avg time  |  max time  |%varavg| %total
---------------------------------------------------------------
Pair    | 0.53553    | 0.53553    | 0.53553    |   0.0 | 70.72
Neigh   | 0.00156    | 0.00156    | 0.00156    |   0.0 |  0.21
Comm    | 0.045451   | 0.045451   | 0.045451   |   0.0 |  6.00
Output  | 0.006314   | 0.006314   | 0.006314   |   0.0 |  0.83
Modify  | 0          | 0          | 0          |   0.0 |  0.00
Other   |            | 0.1684     |            |       | 22.24

Nlocal:    4 ave 4 max 4 min
Histogram: 1 0 0 0 0 0 0 0 0 0
Nghost:    354 ave 354 max 354 min
Histogram: 1 0 0 0 0 0 0 0 0 0
Neighs:    88 ave 88 max 88 min
Histogram: 1 0 0 0 0 0 0 0 0 0

Total # of neighbors = 88
Ave neighs/atom = 22
Neighbor list builds = 46
Dangerous builds = 0
pypospack:output_section:begin
tot_energy = -18.8914413730623
num_atoms = 4
a11 = 12.498105950657
a22 = 21.5147617509104
a33 = 1.56542743412159
a12 = 0
a13 = 0
a23 = 0
tot_press = 10.772765127095
pxx = 5.98321184099273
pyy = 5.89437900686676
pzz = 20.4407045334256
pxy = -8.68356047054837e-14
pxz = 1.12236002406239e-13
pyz = 5.18859986592475e-13
pypospack:output_section:done
pypospack:lammps_sim:done
Total wall time: 0:00:00
