LAMMPS (10 Feb 2015)
# ---- initialize simulations
clear
units metal
dimension 3
boundary p p p
atom_style charge
atom_modify map array
# ---- create atoms
read_data /Users/eugeneragasa/pyflamestk_git/pypospack/tests/tests_integration/workflow/WorkflowLammpsThermalExpansion/param_8221/MgO_NaCl_unit.npt.T700/lammps.structure
  triclinic box = (0 0 0) to (4.2565 4.2565 4.2565) with tilt (0 0 0)
  1 by 1 by 1 MPI processor grid
  reading atoms ...
  8 atoms
# ---- define interatomic potential
include potential.mod
mass 1 24.305
mass 2 15.999

group Mg type 1
4 atoms in group Mg
group O type 2
4 atoms in group O

set group Mg charge 1.65389423724
  4 settings made for charge
set group O charge -1.65389423724
  4 settings made for charge

variable R_cut equal 10.0

pair_style buck/coul/long ${R_cut}
pair_style buck/coul/long 10
pair_coeff 1 1 0.0 0.5 0.0 ${R_cut}
pair_coeff 1 1 0.0 0.5 0.0 10
pair_coeff 1 2 1300.0678519 0.288744572517 0.0 ${R_cut}
pair_coeff 1 2 1300.0678519 0.288744572517 0.0 10
pair_coeff 2 2 40472.9144105 0.202420171096 26.2679081719 ${R_cut}
pair_coeff 2 2 40472.9144105 0.202420171096 26.2679081719 10

kspace_style pppm 1.0e-5

neighbor 1.0 bin
neigh_modify every 1 delay 0 check yes
# ---- define settings
compute eng all pe/atom
compute eatoms all reduce sum c_eng
# ---- run minimization
reset_timestep 0
fix 1 all box/relax iso 0.0 vmax 0.001
thermo 10
thermo_style custom step pe lx ly lz xy xz yz press pxx pyy pzz pxy pxz pyz c_eatoms
min_style cg
minimize 1e-25 1e-25 5000 10000
PPPM initialization ...
  G vector (1/distance) = 0.352799
  grid = 8 8 8
  stencil order = 5
  estimated absolute RMS force accuracy = 3.93787e-05
  estimated relative force accuracy = 2.7347e-06
  using double precision FFTs
  3d grid and FFT values/proc = 3375 512
Neighbor list info ...
  1 neighbor list requests
  update every 1 steps, delay 0 steps, check yes
  master list distance cutoff = 11
Memory usage per processor = 4.06549 Mbytes
Step PotEng Lx Ly Lz Xy Xz Yz Press Pxx Pyy Pzz Pxy Pxz Pyz eatoms 
       0   -110.27609       4.2565       4.2565       4.2565            0            0            0    110960.29    110960.29    110960.29    110960.29 9.3314123e-11 1.6239754e-10 5.8891323e-11   -110.27609 
      10   -110.39349     4.299065     4.299065     4.299065            0            0            0    52923.265    52923.265    52923.265    52923.265 1.8718586e-11 -3.674075e-11 -9.001309e-11   -110.39349 
      20   -110.43343      4.34163      4.34163      4.34163            0            0            0    2089.5567    2089.5567    2089.5567    2089.5567 6.9298069e-11 -1.296578e-10 -9.997383e-11   -110.43343 
      22   -110.43352     4.343513     4.343513     4.343513            0            0            0   -5.7193123   -5.7193123   -5.7193123   -5.7193123 4.586585e-11 9.062077e-11 2.6249224e-10   -110.43352 
Loop time of 0.0231249 on 1 procs for 22 steps with 8 atoms

Minimization stats:
  Stopping criterion = linesearch alpha is zero
  Energy initial, next-to-last, final = 
        -110.276087498     -110.433524975     -110.433524975
  Force two-norm initial, final = 16.0227 0.00180648
  Force max component initial, final = 16.0227 0.000859982
  Final line search alpha, max atom move = 0.00390625 3.35931e-06
  Iterations, force evaluations = 22 39

Pair  time (%) = 0.00598168 (25.8668)
Kspce time (%) = 0.00473571 (20.4788)
Neigh time (%) = 0 (0)
Comm  time (%) = 0.000736952 (3.18683)
Outpt time (%) = 4.19617e-05 (0.181456)
Other time (%) = 0.0116286 (50.2861)

Nlocal:    8 ave 8 max 8 min
Histogram: 1 0 0 0 0 0 0 0 0 0
Nghost:    2189 ave 2189 max 2189 min
Histogram: 1 0 0 0 0 0 0 0 0 0
Neighs:    2344 ave 2344 max 2344 min
Histogram: 1 0 0 0 0 0 0 0 0 0

Total # of neighbors = 2344
Ave neighs/atom = 293
Neighbor list builds = 0
Dangerous builds = 0
unfix 1
# ---- define output variables ----
variable natoms equal "count(all)"
variable tot_energy equal "c_eatoms"
variable length_x equal "lx"
variable length_y equal "ly"
variable length_z equal "lz"
variable tilt_xy equal "xy"
variable tilt_xz equal "xz"
variable tilt_yz equal "yz"
variable tot_press equal "press"
variable press_xx equal "pxx"
variable press_yy equal "pyy"
variable press_zz equal "pzz"
variable press_xy equal "pxy"
variable press_xz equal "pxz"
variable press_yz equal "pyz"

# ---- output ----
print "pypospack:output_section:begin"
pypospack:output_section:begin
print "tot_energy = ${tot_energy}"
tot_energy = -110.433524975286
print "num_atoms = ${natoms}"
num_atoms = 8
print "xx = ${length_x}"
xx = 4.34351296178449
print "yy = ${length_y}"
yy = 4.34351296178449
print "zz = ${length_z}"
zz = 4.34351296178449
print "xy = ${tilt_xy}"
xy = 0
print "xz = ${tilt_xz}"
xz = 0
print "yz = ${tilt_yz}"
yz = 0
print "tot_press = ${tot_press}"
tot_press = -5.71931225965551
print "pxx = ${press_xx}"
pxx = -5.71931225981032
print "pyy = ${press_yy}"
pyy = -5.71931225968463
print "pzz = ${press_zz}"
pzz = -5.71931225947158
print "pxy = ${press_xy}"
pxy = 4.5865850341772e-11
print "pxz = ${press_xz}"
pxz = 9.06207702771322e-11
print "pyz = ${press_yz}"
pyz = 2.62492238241466e-10
print "pypospack:output_section:done"
pypospack:output_section:done
print "pypospack:lammps_sim:done"
pypospack:lammps_sim:done
#------------------------------------------------------------------------------
# RUN THERMOSTAT
# running using an NPT Nose-Hoover style thermostat
#------------------------------------------------------------------------------
variable tempdamp equal 0.1
variable pressdamp equal 1.0
# set initial velocities
velocity all create 700 1217662 mom yes dist gaussian loop all
# fix for Nose-Hoover style thermostat
fix 20 all npt temp 700 700 0.1 aniso 0.0 0.0 1.0 drag 1.0 couple xyz
variable boxx equal lx
variable boxy equal ly
variable boxz equal lz
variable boxp equal press
variable boxt equal temp
# calculate averages every 10000 steps
reset_timestep 0
fix 21 all ave/time 10 10 100 v_boxx v_boxy v_boxz v_boxp v_boxt file lattice.out
thermo_style custom step temp pe ke etotal press lx ly lz press pxx pyy pzz pxy pxz pyz vol
thermo_modify flush yes
thermo 100
run 100000
PPPM initialization ...
  G vector (1/distance) = 0.351923
  grid = 8 8 8
  stencil order = 5
  estimated absolute RMS force accuracy = 4.10067e-05
  estimated relative force accuracy = 2.84776e-06
  using double precision FFTs
  3d grid and FFT values/proc = 3375 512
Memory usage per processor = 3.06549 Mbytes
Step Temp PotEng KinEng TotEng Press Lx Ly Lz Press Pxx Pyy Pzz Pxy Pxz Pyz Volume 
       0          700   -110.43354   0.63337471   -109.80016    8247.9541     4.343513     4.343513     4.343513    8247.9541    11650.164    9050.9854    4042.7129     3076.076   -4778.7606   -2774.6708    81.945171 
     100    310.57373   -109.99377   0.28101364   -109.71275    -13239.68    4.3684829    4.3684829    4.3684829    -13239.68   -10445.136   -4049.3769   -25224.529    1633.3527    9304.5291    2623.1301    83.366569 
     200    481.24521   -109.97367   0.43544078   -109.53823   -7572.8296    4.3668384    4.3668384    4.3668384   -7572.8296   -10979.356    11747.806   -23486.938    6676.2809    6306.3434     988.6975    83.272456 
     300    660.65406   -109.98856   0.59777368   -109.39078    17541.768    4.3634416    4.3634416    4.3634416    17541.768    22345.132    44296.544   -14016.371   -8065.4122   -6130.3291   -1664.5446    83.078283 
     400    366.65657   -109.61193   0.33175857   -109.28017    3844.2145    4.3754636    4.3754636    4.3754636    3844.2145   -9459.7954    52671.803   -31679.364   -8574.4147    15376.876   -1748.9106     83.76686 
     500    418.79372   -109.57939   0.37893336   -109.20046     9835.105    4.3761398    4.3761398    4.3761398     9835.105    14735.279    38568.721   -23798.685   -5591.2887   -3003.3482    1373.9687    83.805699 
     600    688.72944   -109.78181   0.62317687   -109.15864    12263.591    4.3714871    4.3714871    4.3714871    12263.591    12318.314    45511.178    -21038.72   -12976.925   -1652.1408   -918.68546    83.538678 
     700    683.56913   -109.77234   0.61850771   -109.15383    3428.8273    4.3725226    4.3725226    4.3725226    3428.8273    28344.433    5962.6396    -24020.59   -3923.0469    12835.739     1438.323    83.598061 
     800    584.90658   -109.68342   0.52923576   -109.15419    -20755.84    4.3864034    4.3864034    4.3864034    -20755.84    1268.3785   -28830.937   -34704.962    10362.447   -10418.115    10080.057    84.396747 
     900    874.79859   -109.93968   0.79153615   -109.14814    7334.1024    4.3569828    4.3569828    4.3569828    7334.1024    23494.588    8947.9677   -10440.249    1802.2606    3990.2664   -1872.1609    82.709905 
    1000    846.54699   -109.92876   0.76597351   -109.16278   -15286.943    4.3780236    4.3780236    4.3780236   -15286.943   -19909.839    4178.0411   -30129.033    8178.5923    11261.314    7360.3312    83.913975 
    1100    587.01636   -109.69526   0.53114474   -109.16411   -25480.752    4.3792532    4.3792532    4.3792532   -25480.752   -20237.068   -37550.517    -18654.67    13979.104    -11571.42    10921.834      83.9847 
    1200     762.7971   -109.84455   0.69019485   -109.15435    22643.286    4.3545745    4.3545745    4.3545745    22643.286    4727.5497    64348.379   -1146.0711    5137.8392    5278.4917   -4781.9213    82.572828 
    1300    842.44073   -109.92055   0.76225808    -109.1583   -18837.364    4.3866238    4.3866238    4.3866238   -18837.364   -12433.264   -15246.295   -28832.532   -8384.9724    5068.9027    5191.0114    84.409467 
    1400    403.76632   -109.52566   0.36533625   -109.16033    12004.694    4.3620701    4.3620701    4.3620701    12004.694    1398.8954    31503.494    3111.6917   -1696.6609   -11001.381    9047.4179     82.99997 
    1500    925.67512   -110.00047    0.8375703    -109.1629    227.14345    4.3693795    4.3693795    4.3693795    227.14345    14713.522    527.28992   -14559.382     2542.776    5485.4478   -3018.3704    83.417907 
    1600    791.62121   -109.87896   0.71627551   -109.16269    5933.4419    4.3732051    4.3732051    4.3732051    5933.4419    24884.633     2493.202   -9577.5093   -15519.927   -2776.2648    1311.4442    83.637213 
    1700    496.08054   -109.61709    0.4488641   -109.16822    2293.4814    4.3689845    4.3689845    4.3689845    2293.4814     15553.79   -4618.1198   -4055.2258    8588.8626   -8869.2172     4534.204    83.395286 
    1800    948.01049    -110.0163   0.85777982   -109.15852   -12226.105    4.3813518    4.3813518    4.3813518   -12226.105   -3275.4258    -10833.36   -22569.529    10239.158    1072.0589   -3232.5515    84.105494 
    1900    824.18397   -109.90096   0.74573897   -109.15522    3502.4532    4.3666016    4.3666016    4.3666016    3502.4532   -4184.0918    13422.868    1268.5828   -7811.7342    -5927.649   -319.57567    83.258905 
    2000    445.76054   -109.56797   0.40333351   -109.16463   -15440.912    4.3767294    4.3767294    4.3767294   -15440.912   -31637.787    4562.2416    -19247.19     8338.885   -8557.2373    1070.4519    83.839576 
    2100    807.76314   -109.88852   0.73088106   -109.15764    2640.9531     4.373615     4.373615     4.373615    2640.9531    893.54205    16009.003   -8979.6856    5693.5505   -2317.3338   -5190.2224    83.660729 
    2200    659.71081    -109.7558   0.59692021   -109.15888    126.76293    4.3751937    4.3751937    4.3751937    126.76293    5499.6145    4811.9238   -9931.2495   -17251.349   -4439.8445    -1223.936    83.751356 
    2300    368.07181   -109.49504   0.33303911   -109.16201    6577.0895    4.3695094    4.3695094    4.3695094    6577.0895    28148.031    4802.8546   -13219.617    136.29092   -13594.065    1391.9486    83.425348 
    2400    617.31201   -109.71913   0.55855688   -109.16058    8486.6951    4.3723918    4.3723918    4.3723918    8486.6951    33238.013    2235.3818    -10013.31   -1434.1974    1059.1102   -5099.4506    83.590556 
    2500    620.57784   -109.72305   0.56151187   -109.16154    6481.6936    4.3726254    4.3726254    4.3726254    6481.6936    23958.182    6486.3471   -10999.448   -11580.842   -1682.3234    566.96386    83.603953 
    2600     656.6307   -109.75448   0.59413325   -109.16034    2061.1872    4.3723181    4.3723181    4.3723181    2061.1872    18671.077   -2760.2126   -9727.3029    6074.3249   -10503.135   -1795.7316    83.586332 
    2700    827.43104   -109.90541     0.748677   -109.15673   -12584.893    4.3779197    4.3779197    4.3779197   -12584.893   -26807.899     491.0505    -11437.83    6349.9821    9446.0768   -4873.8403    83.907999 
    2800    702.01079   -109.79068   0.63519412   -109.15549    10325.914    4.3648601    4.3648601    4.3648601    10325.914    26028.283     4582.522    366.93821    2658.6461    1640.5271    1908.3498     83.15933 
    2900    699.45441   -109.79182   0.63288105   -109.15894   -10551.703    4.3778787    4.3778787    4.3778787   -10551.703    11938.612   -21402.101    -22191.62    12692.229   -2046.7951   -994.27258    83.905641 
    3000    488.46357   -109.60451    0.4419721   -109.16253   -2571.0284    4.3705102    4.3705102    4.3705102   -2571.0284    14937.931   -8698.8455   -13952.171    16614.624    16460.599   -971.97858    83.482688 
    3100     649.6495   -109.74762   0.58781652    -109.1598    16242.752    4.3643166    4.3643166    4.3643166    16242.752    64890.744   -11176.191   -4986.2975   -2875.9238    6048.5113    3044.6373    83.128272 
    3200     830.4211   -109.91011   0.75138247   -109.15873   -21352.034    4.3824438    4.3824438    4.3824438   -21352.034    -13155.87   -24593.029   -26307.203    12087.362   -1989.6311      2186.75    84.168401 
    3300    496.62384     -109.609   0.44935568   -109.15964    3768.3089    4.3605763    4.3605763    4.3605763    3768.3089    3760.7538    4631.5656    2912.6072    10123.286    22841.303   -1676.0199    82.914723 
    3400    903.77041   -109.98038   0.81775046   -109.16263   -2051.3278    4.3705237    4.3705237    4.3705237   -2051.3278    16176.118   -9799.5265   -12530.575   -487.09002    2676.4501    6621.4299     83.48346 
    3500    889.70203   -109.96769   0.80502109   -109.16267   -5836.1239    4.3746492    4.3746492    4.3746492   -5836.1239    18701.709   -17856.549   -18353.532   -2825.2022   -2752.2358    2731.5106    83.720095 
    3600    339.92624   -109.47279    0.3075724   -109.16522    21431.619     4.357746     4.357746     4.357746    21431.619    46709.682    9958.6967    7626.4778    1664.9111     22417.17   -1772.3552    82.753381 
    3700    766.71253   -109.85509   0.69373761   -109.16135    -12328.28    4.3846425    4.3846425    4.3846425    -12328.28    16199.716   -24754.368   -28430.188   -6892.1684   -4434.8176    12519.066    84.295148 
    3800    815.79623   -109.89474   0.73814958   -109.15659    7256.1463    4.3639263    4.3639263    4.3639263    7256.1463    20695.517      12586.5   -11513.579   -5494.5473    2266.8059   -1669.2842    83.105969 
    3900    408.52443   -109.53318   0.36964149   -109.16354    5363.8619    4.3620994    4.3620994    4.3620994    5363.8619   -18025.754    31430.333    2687.0068      9667.84    15813.359    1966.8667    83.001641 
    4000    756.63432   -109.84064   0.68461864   -109.15602   -15711.859    4.3858704    4.3858704    4.3858704   -15711.859    -10302.44    1122.5575   -37955.695   -10006.905   -7318.7277    12929.038    84.365983 
    4100    862.31979   -109.93245   0.78024506   -109.15221    9209.5782     4.361073     4.361073     4.361073    9209.5782   -996.60161    34007.843   -5382.5069    11763.396    3671.7536   -5651.2732    82.943063 
    4200    479.95167   -109.59507   0.43427035    -109.1608    1021.9385    4.3686491    4.3686491    4.3686491    1021.9385   -9198.6317    17808.891   -5544.4436    8299.7487    13489.943    5726.2095    83.376084 
    4300    753.61455   -109.83784   0.68188628   -109.15595   -14038.871     4.384435     4.384435     4.384435   -14038.871    2898.3315   -5712.6441   -39302.301    5204.1283   -13622.568     8712.466     84.28318 
    4400    653.92482   -109.74895   0.59168492   -109.15726    21397.718    4.3605063    4.3605063    4.3605063    21397.718    35758.148    31844.104   -3409.0983    13398.046   -189.28365   -1500.3473    82.910732 
    4500     485.6892   -109.60641   0.43946179   -109.16694    14051.814    4.3706214    4.3706214    4.3706214    14051.814    59456.631   -7374.0294   -9927.1611    7565.2898    6868.8097    10026.591    83.489061 
    4600    515.84401   -109.62465    0.4667465    -109.1579   -10571.882    4.3934292    4.3934292    4.3934292   -10571.882    21093.506   -16246.704   -36562.448    1814.4952   -17854.721    7867.0859    84.802939 
    4700    728.29589    -109.8052   0.65897743   -109.14623    26496.804    4.3537822    4.3537822    4.3537822    26496.804    35758.678    22579.536      21152.2    8688.2799    -566.2918    430.48256    82.527768 
    4800    730.02779   -109.81919   0.66054449   -109.15865   -13254.754    4.3755462    4.3755462    4.3755462   -13254.754   -12650.442   -14971.946   -12141.875    4907.0224    2091.0412    18765.737    83.771601 
    4900    761.02945   -109.83932   0.68859544   -109.15072   -17111.975    4.3866427    4.3866427    4.3866427   -17111.975    -27133.56    -2451.786   -21750.579   -9273.4193   -16601.028    2128.8498     84.41056 
    5000    806.72864   -109.87349   0.72994503   -109.14354    16343.394     4.354782     4.354782     4.354782    16343.394     7998.377    12933.644     28098.16    5326.6316   -406.89975    7253.1526    82.584637 
    5100    571.36951     -109.676   0.51698714   -109.15901   -4803.1961     4.374614     4.374614     4.374614   -4803.1961    14154.743   -19364.411   -9199.9198    -3745.589    13419.457    20083.929    83.718071 
    5200      549.901   -109.65577   0.49756198   -109.15821    2689.5775     4.380365     4.380365     4.380365    2689.5775    21483.754   -8535.7563   -4879.2655   -6589.4441     -9218.81   -1464.7755    84.048681 
    5300    698.98955   -109.79107   0.63246044   -109.15861    15391.088    4.3584602    4.3584602    4.3584602    15391.088     33761.48   -1850.0445    14261.828   -7250.4735    4992.5026    10944.235    82.794076 
    5400    612.89656   -109.72119   0.55456169   -109.16662    11500.557    4.3680697    4.3680697    4.3680697    11500.557    56852.144   -10498.304   -11852.169    837.32424    4506.0178     14216.31    83.342912 
    5500    651.47466   -109.74864   0.58946796   -109.15917   -20849.934    4.3879848    4.3879848    4.3879848   -20849.934   -26545.951    -15425.67   -20578.181   -13063.958   -6963.0578   -2344.8904    84.488063 
    5600    689.43876    -109.7768   0.62381868   -109.15298    13953.043    4.3530965    4.3530965    4.3530965    13953.043    32742.479    8309.6823    806.96835     -9162.11   -8511.9973    10087.099    82.488782 
    5700    882.12686   -109.95787   0.79816692    -109.1597   -4770.5728    4.3647464    4.3647464    4.3647464   -4770.5728    5926.8306    479.18724   -20717.736    6221.7147    8479.9033    14110.686    83.152832 
    5800    562.46572   -109.66897    0.5089308   -109.16003   -19181.906    4.3842492    4.3842492    4.3842492   -19181.906   -24820.465   -3718.8259   -29006.426   -8293.9796       -13492   -2216.6948    84.272462 
    5900    613.98796   -109.71051   0.55554921   -109.15496    7692.7627    4.3579076    4.3579076    4.3579076    7692.7627    34298.491    6783.2666   -18003.469   -112.96944   -6108.3623    13982.543    82.762589 
    6000    712.36914   -109.79904   0.64456657   -109.15447    821.39735    4.3716246    4.3716246    4.3716246    821.39735    31542.261   -4101.1419   -24976.927    9076.5721    6868.6845    9005.5404     83.54656 
    6100    697.22346   -109.78684   0.63086244   -109.15598   -4773.9196    4.3679631    4.3679631    4.3679631   -4773.9196    1376.8117    1808.2231   -17506.794   -2661.4318   -15236.936   -2761.3628    83.336809 
    6200    549.38347   -109.66039   0.49709371    -109.1633   -6818.0609    4.3675768    4.3675768    4.3675768   -6818.0609    33395.525   -25461.391   -28388.316    7.9029332   -1758.5835    20192.568    83.314704 
    6300    895.26237   -109.97171   0.81005221   -109.16166    9768.8433    4.3606103    4.3606103    4.3606103    9768.8433    32561.929    4976.9373   -8232.3366    11838.333   -557.96805    5489.3863    82.916668 
    6400    808.20585   -109.90263   0.73128164   -109.17135   -14338.387    4.3727717    4.3727717    4.3727717   -14338.387   -4428.4656   -13386.345   -25200.351   -12026.174    -5718.528    936.94625    83.612344 
    6500    529.17027   -109.64694   0.47880438   -109.16814    -22565.34     4.375915     4.375915     4.375915    -22565.34    3286.2692    -33045.06   -37937.229   -1163.5981   -10051.363    27116.501    83.792785 
    6600    1065.2892   -110.11655   0.96389602   -109.15265    18210.748    4.3453613    4.3453613    4.3453613    18210.748    31036.118    9585.1968    14010.931    835.46807    9918.0234   -3255.4921    82.049829 
    6700    458.00746   -109.57985   0.41441477   -109.16544   -15052.525    4.3826774    4.3826774    4.3826774   -15052.525     12153.13   -26644.582   -30666.123   -822.04884   -12517.577    11118.945    84.181857 
    6800    572.01597   -109.67987   0.51757207    -109.1623   -11165.793    4.3679953    4.3679953    4.3679953   -11165.793    27844.548   -34099.563   -27242.366    -7093.988   -400.01074    18857.039    83.338658 
    6900    792.31613   -109.86902   0.71690428   -109.15212     24944.06    4.3534828    4.3534828    4.3534828     24944.06    45817.642    12447.769    16566.769    11222.673    3330.5371    -8253.601    82.510744 
    7000    572.36794   -109.67693   0.51789054   -109.15904   -18396.348    4.3808453    4.3808453    4.3808453   -18396.348   -4306.1448   -24106.022   -26776.878    4773.4823    -8138.708    21683.024     84.07633 
    7100    650.16729   -109.74418   0.58828503   -109.15589    2342.9842    4.3629663    4.3629663    4.3629663    2342.9842     20540.21   -4489.7722   -9021.4852   -5301.1667   -2552.7911    6034.2354    83.051134 
    7200    930.33739   -109.99572   0.84178882   -109.15394   -481.66316    4.3642587    4.3642587    4.3642587   -481.66316    2279.4127   -11044.422    7320.0201    19485.907   -689.18627    -4418.265    83.124962 
    7300    586.15686   -109.68928   0.53036705   -109.15891   -3882.7842    4.3713757    4.3713757    4.3713757   -3882.7842    16943.169   -11685.848   -16905.673   -543.35277   -5775.9742    23056.394    83.532291 
    7400     741.8994   -109.82975   0.67128617   -109.15846    4467.9339    4.3680243    4.3680243    4.3680243    4467.9339     29189.02     -6224.72   -9560.4984    261.16466   -10634.274    45.321513    83.340317 
    7500    803.08125   -109.88506   0.72664479   -109.15841    3605.2739    4.3653144    4.3653144    4.3653144    3605.2739    29120.947   -18824.074    518.94897    1177.2397    5169.9077    4435.1956    83.185301 
    7600    347.41313   -109.47847    0.3143467   -109.16412    18038.803    4.3672219    4.3672219    4.3672219    18038.803    64701.185   -185.07853   -10399.696    1142.0061   -13018.658    20161.087    83.294393 
    7700    977.46311    -110.0413   0.88442916   -109.15687   -10920.247    4.3748093    4.3748093    4.3748093   -10920.247   -9080.0994   -19482.273   -4198.3702   -6115.4176   -3594.4065   -4249.7499    83.729284 
    7800    510.14756   -109.62305   0.46159223   -109.16146    14285.754     4.354803     4.354803     4.354803    14285.754    32318.786   -13366.431    23904.907    12706.502    2381.0077    13422.821    82.585828 
    7900    662.65793   -109.76972   0.59958682   -109.17013   -10696.027    4.3698631    4.3698631    4.3698631   -10696.027   -6994.8415   -16222.934   -8870.3041      1313.56   -3297.7881    17269.495     83.44561 
    8000    911.57219   -109.98088   0.82480968   -109.15607   -16085.823    4.3833562    4.3833562    4.3833562   -16085.823   -18784.188   -17870.241    -11603.04   -455.05867   -3364.0784   -6359.7222    84.220978 
    8100    553.44738   -109.65482   0.50077082   -109.15405    5896.7177    4.3533154    4.3533154    4.3533154    5896.7177    14154.449   -11611.693    15147.397    5209.5125    9511.4729    22557.238    82.501224 
    8200    593.36786   -109.69982   0.53689171   -109.16293   -1059.4852    4.3715067    4.3715067    4.3715067   -1059.4852    18262.535   -3909.8453   -17531.145   -70.352814   -1987.6914    12716.126    83.539805 
    8300    927.52647   -109.99433   0.83924544   -109.15509   -9081.0047    4.3782111    4.3782111    4.3782111   -9081.0047    2797.1725   -17884.932   -12155.255    920.33591   -4977.7285     -7332.04    83.924755 
    8400    495.01703    -109.6051   0.44790181    -109.1572    11036.408    4.3558646    4.3558646    4.3558646    11036.408    35670.929    1408.5458   -3970.2509    2496.0822    5235.6965     22575.36    82.646243 
    8500    621.51997   -109.72295   0.56236433   -109.16058   -2997.4142     4.374535     4.374535     4.374535   -2997.4142    14735.712   -13766.289   -9961.6658    2607.3258   -8972.3138    2883.5437    83.713537 
    8600    866.50234   -109.93989   0.78402953   -109.15586     3276.823    4.3702434    4.3702434    4.3702434     3276.823    12895.832   -9312.2859     6246.923   -4390.1914   -2051.7098   -11576.198    83.467401 
    8700    527.53682   -109.63677    0.4773264   -109.15945    13592.743    4.3606558    4.3606558    4.3606558    13592.743    26309.303    2937.5878    11531.337    8369.9991   -4615.8273     20233.58    82.919261 
    8800    801.52942   -109.88265   0.72524066   -109.15741    -1520.808    4.3724898    4.3724898    4.3724898    -1520.808   -4808.2729   -13679.128    13924.977   -4487.9195   -25.654576   -4336.5008    83.596176 
    8900    664.64797   -109.75862   0.60138745   -109.15723    3377.7356    4.3701384    4.3701384    4.3701384    3377.7356   -1551.2174   -3224.7715    14909.196    2746.7953   -5609.7422    -8619.286    83.461381 
    9000    737.21275   -109.82305   0.66704559   -109.15601    2021.8826    4.3623792    4.3623792    4.3623792    2021.8826   -1776.9144   -3223.6844    11066.247    5495.7581    -1008.443      20372.6    83.017612 
    9100    776.05848   -109.86137   0.70219402   -109.15917   -3668.4412    4.3672907    4.3672907    4.3672907   -3668.4412    -1487.359   -9102.3269   -415.63774   -1706.3375    5085.8922   -4338.8918    83.298329 
    9200    600.71793   -109.70707   0.54354221   -109.16353   -4015.4657    4.3692117    4.3692117    4.3692117   -4015.4657   -3726.7743    9178.1897   -17497.812    4460.8465   -1098.6407   -13610.479    83.408296 
    9300     923.0432   -109.99358   0.83518889    -109.1584    -3242.205    4.3673498    4.3673498    4.3673498    -3242.205    -4754.616   -10989.616    6017.6174    4297.1043    3090.8486    13225.402    83.301715 
    9400    729.83903   -109.81996   0.66037369   -109.15959   -8582.1258    4.3690733    4.3690733    4.3690733   -8582.1258   -16223.903   -4975.1978   -4547.2768    4138.6859    3267.2931   -10992.179    83.400374 
    9500    529.81698   -109.64107   0.47938954   -109.16169    3837.6584    4.3657997    4.3657997    4.3657997    3837.6584   -2810.1952    11580.787    2742.3831     1731.489   -926.47921   -16754.279    83.213044 
    9600    916.47743   -109.98501   0.82924803   -109.15576    2683.4163    4.3708008    4.3708008    4.3708008    2683.4163   -13545.328   -17383.053     38978.63    6496.6014    486.58579    10157.994    83.499341 
    9700    717.55545   -109.81132   0.64925925   -109.16206    3444.1778    4.3608742    4.3608742    4.3608742    3444.1778   -2198.1578    5027.6907    7503.0006   -1804.1925     3183.455   -17722.008    82.931723 
    9800    381.37903   -109.51544   0.34507977   -109.17036    4343.8065    4.3680916    4.3680916    4.3680916    4343.8065    -4862.859    3019.1143    14875.164    4723.1532   -7538.5877   -13807.202    83.344168 
    9900    1142.0117   -110.18864    1.0333162   -109.15532   -14471.532    4.3737855    4.3737855    4.3737855   -14471.532   -18701.584   -24085.045     -627.968    7968.1544    2784.2033    4859.9663    83.670513 
   10000    483.25165   -109.59654   0.43725625   -109.15928    14369.795    4.3574098    4.3574098    4.3574098    14369.795    5538.6704    23633.221    13937.494   -5089.8569    710.59984   -16628.845     82.73423 
   10100    604.16857   -109.70889   0.54666442   -109.16222   -9803.7998    4.3716605    4.3716605    4.3716605   -9803.7998   -12551.434    -6716.294   -10143.672    8167.1651   -3751.1486   -7755.7783    83.548623 
   10200    904.55798   -109.97648   0.81846307   -109.15801      11354.5    4.3640067    4.3640067    4.3640067      11354.5    8244.0318   -3853.6175    29673.086    375.45242    1936.1799    9229.0929    83.110565 
   10300      644.692   -109.74676   0.58333087   -109.16343    13114.585    4.3586008    4.3586008    4.3586008    13114.585    3334.8795    17904.046    18104.831    920.03692   -1350.9199   -11291.018    82.802087 
   10400    514.55809   -109.62904   0.46558297   -109.16346    -7628.362    4.3788381    4.3788381    4.3788381    -7628.362   -13705.265   -17244.148    8064.3272    2573.1579     2021.133   -11141.312    83.960816 
   10500    990.06857   -110.05078   0.89583485   -109.15494     8192.155    4.3559596    4.3559596    4.3559596     8192.155    1584.0724    9309.3397    13683.053   -5176.6342   -6615.3492    13604.872    82.651651 
   10600    592.28702   -109.69901   0.53591374    -109.1631    281.09658     4.364037     4.364037     4.364037    281.09658    2706.8186    6946.8166   -8810.3455    2053.3987    7307.8518   -11116.979    83.112295 
   10700    726.00433   -109.81648   0.65690397   -109.15957   -16959.313    4.3742482    4.3742482    4.3742482   -16959.313   -23812.738   -15966.188   -11099.013   -3546.8936   -3665.3442   -12488.684    83.697074 
   10800    665.09019   -109.75878   0.60178758   -109.15699    17277.342    4.3541798    4.3541798    4.3541798    17277.342    21660.728    11370.213    18801.086    3180.2798   -3093.6025    22250.648    82.550382 
   10900    647.44773    -109.7466   0.58582432   -109.16078   -9702.1368     4.371855     4.371855     4.371855   -9702.1368   -5830.0388   -20140.852   -3135.5195   -1655.0964    7872.9187   -3744.0396    83.559773 
   11000     722.4929   -109.80983   0.65372676    -109.1561    1184.6022    4.3668613    4.3668613    4.3668613    1184.6022   -8030.9285   -3217.3177    14802.053    -2761.963   -4694.5274   -6632.1289    83.273766 
   11100    679.57024   -109.77218   0.61488944   -109.15729    3792.3634     4.362424     4.362424     4.362424    3792.3634     5825.431   -6544.8651    12096.524    5319.7374    4129.2273     28229.46    83.020168 
   11200    880.82474   -109.95325   0.79698873   -109.15626   -13421.257    4.3686696    4.3686696    4.3686696   -13421.257   -7181.1336   -21098.024   -11984.614   -3443.0536   -438.89658   -2226.9964    83.377257 
   11300    653.81405   -109.75163    0.5915847   -109.16005    9811.7487    4.3592533    4.3592533    4.3592533    9811.7487   -3024.2285    7088.0269    25371.448    1719.1536    885.30852   -4619.4975    82.839282 
   11400    639.69857   -109.74411   0.57881271    -109.1653   -20817.496    4.3725104    4.3725104    4.3725104   -20817.496   -3821.4128   -38656.335   -19974.739    1278.7365    185.11225    36274.102    83.597356 
   11500    690.31435   -109.78373   0.62461093   -109.15911    8627.9257    4.3635655    4.3635655    4.3635655    8627.9257    251.71952   -10460.564    36092.621   -4118.1933    1645.2594   -4184.8577    83.085359 
   11600    753.62827   -109.84202   0.68189869   -109.16012    -946.2905     4.360444     4.360444     4.360444    -946.2905   -9573.0341   -4760.7646    11494.927    3126.0353    35.746324   -904.52567    82.907182 
   11700    384.94608   -109.51099    0.3483073   -109.16268   -14119.684    4.3779982    4.3779982    4.3779982   -14119.684   -842.84981   -44571.962    3055.7599    1683.9242    1121.8896    36492.519    83.912517 
   11800    1169.9513   -110.21197    1.0585965   -109.15338     4607.878    4.3545851    4.3545851    4.3545851     4607.878   -1174.5644   -1326.4401    16324.639   -1590.9123    685.84711   -8024.4219    82.573436 
   11900    569.80938    -109.6838    0.5155755   -109.16823    4764.1551    4.3602826    4.3602826    4.3602826    4764.1551    3426.4313   -16896.538    27762.572    14.285281   -4759.6947    16626.763    82.897976 
   12000    387.46547   -109.52131    0.3505869   -109.17073   -18001.839    4.3797628    4.3797628    4.3797628   -18001.839    1426.6072   -53172.288   -2259.8368    1047.5362    4957.6655    36068.782     84.01402 
   12100    1166.5391   -110.20849    1.0555091   -109.15298     16691.04    4.3539184    4.3539184    4.3539184     16691.04   -159.83621    6269.0085    43963.948    6032.8484   -10574.747   -10935.807    82.535516 
   12200    443.79164   -109.56911     0.401552   -109.16756   -470.27201    4.3649553    4.3649553    4.3649553   -470.27201    20501.636   -26908.577    4996.1247   -3852.1268     1996.856    32361.299    83.164772 
   12300    565.74973   -109.67499   0.51190225   -109.16309   -21652.538    4.3760195    4.3760195    4.3760195   -21652.538   -3335.5203   -42405.647   -19216.448    6084.5168     -989.791    24552.343    83.798789 
   12400    995.37199   -110.05226   0.90063349   -109.15162    17228.456     4.353448     4.353448     4.353448    17228.456    12657.506    11570.037    27457.824    1244.2839   -5628.6316   -14946.094    82.508763 
   12500    564.58179   -109.67448   0.51084547   -109.16364   -15567.772    4.3705383    4.3705383    4.3705383   -15567.772    2602.6303   -33015.559   -16290.387    1088.3245    8151.4179    33593.764    83.484294 
   12600     504.8024   -109.61834   0.45675582   -109.16159    1609.9144    4.3706615    4.3706615    4.3706615    1609.9144    9688.7263   -15308.668    10449.685    9477.4838   -6705.4948    7698.0904    83.491355 
   12700    971.27641   -110.03146   0.87883131   -109.15263    4275.2986    4.3593813    4.3593813    4.3593813    4275.2986    4230.6855   -1387.4171    9982.6274   -6063.7475    10463.358   -16012.897    82.846578 
   12800    428.97908   -109.54983   0.38814929   -109.16168   -4927.3871     4.368255     4.368255     4.368255   -4927.3871    21887.002   -25968.931   -10700.232      5966.65    1557.3951    34974.069     83.35352 
   12900    787.16907   -109.87152   0.71224712   -109.15928    -5517.145    4.3646152    4.3646152    4.3646152    -5517.145    6718.7134   -11501.105   -11769.043    2820.6776    1269.0522   -327.51891    83.145332 
   13000    684.19887   -109.77737   0.61907751   -109.15829    -4505.023    4.3707715    4.3707715    4.3707715    -4505.023    14232.255    -24879.66   -2867.6633    1906.4295    7299.2299   -10300.643    83.497659 
   13100    706.02992   -109.79605   0.63883071   -109.15722   -8814.5454    4.3657618    4.3657618    4.3657618   -8814.5454    25591.436   -29005.798   -23029.274    436.89077   -7888.3772    33673.969    83.210877 
   13200    704.81893   -109.79411   0.63773498   -109.15638    7084.3476    4.3620775    4.3620775    4.3620775    7084.3476    14723.354   -6492.7507     13022.44    2651.1739    4889.8249   -7338.3497    83.000387 
   13300    693.13341   -109.78465   0.62716167   -109.15749   -17989.698    4.3760711    4.3760711    4.3760711   -17989.698    9786.5919     -36034.8   -27720.887    3299.5434   -5706.9659   -3349.8736    83.801751 
   13400    686.47632   -109.77727    0.6211382   -109.15613    15212.503    4.3565756    4.3565756    4.3565756    15212.503    37799.484   -6852.2084    14690.233   -4822.5896   -7200.2668      19958.3    82.686722 
   13500    707.44128   -109.80194   0.64010774   -109.16183   -6761.6769    4.3706518    4.3706518    4.3706518   -6761.6769   -7600.7733   -13884.096    1199.8389    8783.8629   -5280.8659   -12356.122    83.490801 
   13600     425.8624   -109.54512   0.38532925   -109.15979    388.79649    4.3744872    4.3744872    4.3744872    388.79649    17216.387   -24233.146    8183.1486   -6512.7782   -8388.8072   -9485.1661    83.710792 
   13700    851.33315   -109.92128   0.77030412   -109.15097      17620.8    4.3538429    4.3538429    4.3538429      17620.8    25220.288    8760.0446    18882.068    517.64786    787.84175    10534.081    82.531218 
   13800    362.67081   -109.48873   0.32815217   -109.16057   -12739.401    4.3811818    4.3811818    4.3811818   -12739.401   -13167.819   -19597.431   -5452.9524    3586.8531   -10446.406   -17626.235    84.095704 
   13900    671.18085   -109.76355   0.60729854   -109.15625    985.32215    4.3639848    4.3639848    4.3639848    985.32215    20941.582   -5984.3825   -12001.233   -7666.4708    4950.3465   -15907.299     83.10931 
   14000    879.30245   -109.94839   0.79561133   -109.15278    14206.704    4.3601154    4.3601154    4.3601154    14206.704    12584.161    11658.589    18377.362    372.24535   -6012.0592    8559.0948    82.888436 
   14100    513.97028   -109.62647   0.46505111   -109.16142   -16233.135    4.3770077    4.3770077    4.3770077   -16233.135   -13514.394    -14954.54   -20230.473     2820.384   -903.46556   -16574.434    83.855572 
   14200    710.45426   -109.79894   0.64283394    -109.1561    10761.301    4.3663983    4.3663983    4.3663983    10761.301    20687.688   -1079.1529    12675.368   -3456.8595    3259.2348   -9603.5419    83.247281 
   14300    1068.0949   -110.12035   0.96643473   -109.15391    1215.0042    4.3625357    4.3625357    4.3625357    1215.0042   -10343.059    4858.3275    9129.7444   -350.98225   -8735.8905    10311.212    83.026546 
   14400    303.11614   -109.44416   0.27426585   -109.16989    4661.3369    4.3613633    4.3613633    4.3613633    4661.3369     7971.827   -7047.7604    13059.944    8469.5834   -3176.1554   -16412.433    82.959628 
   14500    746.74905   -109.84345   0.67567423   -109.16778   -6106.4563    4.3742685    4.3742685    4.3742685   -6106.4563    4822.3409   -22994.951   -146.75842   -4126.3124   -6905.0703    -11477.91    83.698237 
   14600     874.3294   -109.94985   0.79111162   -109.15873    10404.243    4.3618413    4.3618413    4.3618413    10404.243    4727.8093    3684.8108    22800.108    7271.8705    2231.4144    9309.1016    82.986905 
   14700    363.79963   -109.49433   0.32917355   -109.16516   -6003.8068    4.3651159    4.3651159    4.3651159   -6003.8068    1533.6328   -13727.696   -5817.3569    2907.7171   -10620.746   -23624.415    83.173953 
   14800    877.68261   -109.95029   0.79414567   -109.15615   -12611.851    4.3731897    4.3731897    4.3731897   -12611.851   -2477.5413   -20949.597   -14408.416    2416.8012    1479.7435   -7477.5818    83.636329 
   14900    799.31055   -109.87873   0.72323298   -109.15549    13765.524    4.3558652    4.3558652    4.3558652    13765.524    15421.144    1658.9016    24216.527    6125.1623    4158.7787    14226.909     82.64628 
   15000    523.87486   -109.63997   0.47401298   -109.16595   -9708.8729    4.3710893    4.3710893    4.3710893   -9708.8729   -3054.3088   -24481.444   -1590.8655    3105.1995      -5837.8   -27960.285    83.515877 
   15100    744.56237   -109.83175   0.67369568   -109.15805    2948.0277    4.3696802    4.3696802    4.3696802    2948.0277    5034.3466   -21738.039    25547.776    2711.0155    8638.1139    876.07367     83.43513 
   15200    580.13187   -109.68367    0.5249155   -109.15875    8008.4669    4.3631196    4.3631196    4.3631196    8008.4669    20024.386    -8714.575    12715.589    1697.7846    -142.8621     11079.55    83.059888 
   15300    621.72909   -109.71993   0.56255354   -109.15737   -11445.127     4.375352     4.375352     4.375352   -11445.127   -698.39527   -23017.731   -10619.255    6644.0565    1120.5644   -23444.975     83.76045 
   15400    818.45799   -109.89423   0.74055798   -109.15367     464.7851    4.3640262    4.3640262    4.3640262     464.7851    15764.937   -15130.257    759.67477   -310.12976    365.59153    19172.844    83.111676 
   15500    655.68761   -109.75084   0.59327993   -109.15756    1610.9902    4.3646828    4.3646828    4.3646828    1610.9902    17564.394   -10370.286   -2361.1378    2883.2467    -3441.445    13903.622      83.1492 
   15600    748.84577   -109.83445   0.67757139   -109.15688    3380.1229    4.3685576    4.3685576    4.3685576    3380.1229   -4923.0105   -14827.881     29891.26    4715.2746   -3392.4115   -15471.374    83.370843 
   15700    580.18594   -109.68395   0.52496443   -109.15898    6720.9755    4.3680121    4.3680121    4.3680121    6720.9755    14317.013   -25755.895    31601.808     314.0306   -3823.4425     27212.71    83.339619 
   15800     675.8717   -109.76881   0.61154292   -109.15727    6381.8508    4.3675307    4.3675307    4.3675307    6381.8508     12525.96   -15865.745    22485.337     660.6958   -1398.6538    7680.4959    83.312067 
   15900      926.069   -109.99228    0.8379267   -109.15436   -2188.9275    4.3627564    4.3627564    4.3627564   -2188.9275    2438.8008   -16820.926    7815.3427    3132.4732   -7976.6875    -11231.83    83.039152 
   16000    466.41299   -109.58568   0.42202027   -109.16366   -9320.3478    4.3668387    4.3668387    4.3668387   -9320.3478    17895.418   -31722.192   -14134.269    973.28182   -644.49314    36825.778    83.272474 
   16100    927.32887   -109.99659   0.83906665   -109.15752   -2819.8688    4.3687387    4.3687387    4.3687387   -2819.8688   -1157.1456   -18629.432    11326.971    5308.1261    1917.6358   -2831.0054    83.381211 
   16200    664.31529   -109.76058   0.60108643   -109.15949   -8741.8678    4.3711409    4.3711409    4.3711409   -8741.8678   -11841.426   -32579.701    18195.523    4950.1961   -4897.2514    4764.3879     83.51883 
   16300    365.69795     -109.495   0.33089119   -109.16411    4038.0598    4.3583763    4.3583763    4.3583763    4038.0598    26197.205    -32347.11    18264.084   -4159.3913    1971.8428    38724.955    82.789293 
   16400    1034.2151   -110.09371    0.9357796   -109.15793    926.62724    4.3682264    4.3682264    4.3682264    926.62724   -7599.1414   -16400.795    26779.818    4858.5895   -94.848419   -7752.4273    83.351881 
   16500    701.10148   -109.79937   0.63437135     -109.165   -16725.949    4.3715997    4.3715997    4.3715997   -16725.949   -3751.7961    -34742.43    -11683.62    2309.0718   -1905.5411    24787.517    83.545136 
   16600    563.09301   -109.67409   0.50949839   -109.16459    2741.0302    4.3516148    4.3516148    4.3516148    2741.0302     26104.49   -20245.054    2363.6546   -1194.4941    4604.5892    34062.423    82.404575 
   16700    914.12356   -109.98771   0.82711821   -109.16059   -3018.7129    4.3774783    4.3774783    4.3774783   -3018.7129   -17512.097   -21075.611    29531.569    3537.1242   -2775.8453   -14734.974    83.882623 
   16800    558.88461   -109.67024   0.50569054   -109.16455   -13141.543    4.3706961    4.3706961    4.3706961   -13141.543   -2077.7624   -32019.441   -5327.4268   -812.29608    4415.6346    28710.367    83.493341 
   16900    483.98588   -109.59527    0.4379206   -109.15735    21902.547    4.3436546    4.3436546    4.3436546    21902.547    29423.606    2329.4552     33954.58   -1.0511996   -6445.2879    17435.425    81.953188 
   17000    943.46182    -110.0106   0.85366408   -109.15694   -16794.798     4.380366     4.380366     4.380366   -16794.798   -27194.579   -13109.903   -10079.912    1473.2678    5349.9226   -18682.964    84.048741 
   17100    546.85756   -109.65479   0.49480821   -109.15998   -9591.4795    4.3709274    4.3709274    4.3709274   -9591.4795   -3881.4263    -6304.838   -18588.174    1268.3682    4814.9455    32635.974    83.506598 
   17200    758.51524   -109.83832   0.68632053     -109.152    13363.042    4.3454198    4.3454198    4.3454198    13363.042    23485.568    3208.7465    13394.813   -759.49683   -8780.9735    11610.334    82.053144 
   17300    731.28198   -109.82107    0.6616793   -109.15939   -6601.5072    4.3763521    4.3763521    4.3763521   -6601.5072   -25390.676   -9194.0142    14780.169   -2250.0803    5241.8363   -10919.097    83.817896 
   17400    516.20423   -109.62684   0.46707243   -109.15976   -2427.0277     4.373008     4.373008     4.373008   -2427.0277   -12645.036    -13379.58    18743.533   -586.70583    -1006.602    33780.007    83.625903 
   17500    751.77815   -109.83209   0.68022467   -109.15187    13920.619    4.3491789    4.3491789    4.3491789    13920.619    9321.1278   -406.44936    32847.179    1626.0777   -6211.7427   -1779.9854    82.266272 
   17600    585.95009   -109.69238   0.53017995    -109.1622   -12849.497    4.3751364    4.3751364    4.3751364   -12849.497   -19052.252   -15749.988   -3746.2492   -342.85736    3964.0607   -13249.586    83.748067 
   17700    934.50729   -109.99957   0.84556184   -109.15401   -14780.224    4.3737704    4.3737704    4.3737704   -14780.224   -15511.783   -12287.553   -16541.335   -1318.6489    4997.6873    19380.103    83.669649 
   17800    671.73678   -109.76257   0.60780156   -109.15477    11527.817    4.3524614    4.3524614    4.3524614    11527.817    4623.1994    4705.1608    25255.091    3751.9085    -9594.969   -12234.649    82.452684 
   17900    552.16852   -109.66464   0.49961368   -109.16503   -2163.7875    4.3653061    4.3653061    4.3653061   -2163.7875   -9069.1705   -14604.239    17182.047   -1252.8551    12026.228   -18299.344    83.184826 
   18000    828.69636   -109.90839   0.74982188   -109.15857    -1995.451      4.37556      4.37556      4.37556    -1995.451   -18701.696   -11359.874    24075.218    878.22461    1677.9238    9177.7703    83.772397 
   18100    592.60177   -109.69664   0.53619853   -109.16044    8115.7241    4.3563001    4.3563001    4.3563001    8115.7241    1624.5345   -5163.4995    27886.137    5317.2062   -4481.2107    -13395.88    82.671035 
   18200    505.58151   -109.62242   0.45746077   -109.16496    347.18964    4.3625705    4.3625705    4.3625705    347.18964    2067.5398   -15108.735    14082.764   -7398.5526    6558.6535   -14010.304    83.028535 
   18300     1065.007   -110.11471   0.96364071   -109.15107   -16625.359    4.3798613    4.3798613    4.3798613   -16625.359   -19805.462   -23514.733   -6555.8828    7700.8422    2071.8674    3644.7794     84.01969 
   18400    533.47222   -109.64091   0.48269688   -109.15821   -968.60706    4.3575341    4.3575341    4.3575341   -968.60706   -223.64834   -4419.3511    1737.1782    7471.4827   -4902.9132   -14238.626    82.741309 
   18500    588.22873   -109.69594   0.53224172    -109.1637    387.16437    4.3571821    4.3571821    4.3571821    387.16437    10960.579    -2852.172   -6946.9138   -6540.9433    3880.8947    -14063.74    82.721258 
   18600    1039.2815   -110.09724   0.94036374   -109.15688   -18296.882    4.3819855    4.3819855    4.3819855   -18296.882    -31519.99    -18766.09   -4604.5667    7152.6367    7176.2219    9363.0915    84.141995 
   18700    432.96736   -109.55671   0.39175796   -109.16496    10140.123    4.3547209    4.3547209    4.3547209    10140.123    2819.9297   -8580.1562    36180.595      1386.62    -10785.07   -11128.617    82.581157 
   18800     577.5401   -109.68802   0.52257042   -109.16545    2029.6236    4.3595629    4.3595629    4.3595629    2029.6236   -767.63383   -7182.8901    14039.395   -833.72674    8108.1056   -16140.941    82.856934 
   18900     803.7654   -109.88275   0.72726383   -109.15549   -10653.429    4.3790213    4.3790213    4.3790213   -10653.429   -18601.314   -20851.654    7492.6798    3812.1691     4019.491    18112.521     83.97136 
   19000    647.40757   -109.74195   0.58578797   -109.15616    10869.647    4.3512165    4.3512165    4.3512165    10869.647    14210.684    1322.2275    17076.028   -2914.1483   -7475.6741    -15427.71    82.381949 
   19100    674.17565   -109.77085    0.6100083   -109.16084   -7328.0655    4.3627709    4.3627709    4.3627709   -7328.0655     822.1524   -11218.109    -11588.24   -2561.8906    5733.8352   -13082.564    83.039975 
   19200    751.57534   -109.83692   0.68004116   -109.15688   -15331.972    4.3740573    4.3740573    4.3740573   -15331.972   -15056.341   -18491.419   -12448.156    2801.6988    2988.4195    20972.217    83.686113 
   19300    750.05589   -109.83371   0.67866634   -109.15504    2789.6189    4.3577811    4.3577811    4.3577811    2789.6189    10984.031   -12647.448    10032.274    -108.2723   -5520.0933   -13440.428    82.755379 
   19400    819.82036   -109.89888   0.74179069   -109.15709   -2823.6654    4.3586725    4.3586725    4.3586725   -2823.6654    -1866.097     3568.377   -10173.276   -6901.3992    4607.5445     -3455.66    82.806175 
   19500     467.1974   -109.58943   0.42273003    -109.1667   -2319.5387    4.3702274    4.3702274    4.3702274   -2319.5387   -5051.6995   -10155.196    8248.2797    6979.7499    3537.9244    23323.042    83.466483 
   19600     914.8391   -109.98788   0.82776564   -109.16012     6147.319    4.3618747    4.3618747    4.3618747     6147.319    8828.0209   -5983.1929    15597.129    -1773.527   -1471.7763   -6642.8439    82.988815 
   19700    733.29914   -109.82349   0.66350447   -109.15999    17552.984    4.3552413    4.3552413    4.3552413    17552.984    4460.9764    16220.168    31977.806   -4377.6936    5099.4083    6449.8867    82.610769 
   19800    313.63398   -109.45258   0.28378262    -109.1688   -14938.619     4.374568     4.374568     4.374568   -14938.619   -8222.1619   -28257.955   -8335.7392    9851.9795    5183.6457    26746.483    83.715433 
   19900    937.47077    -110.0102   0.84824325   -109.16196     12277.23    4.3527473    4.3527473    4.3527473     12277.23    9477.4024    1382.7295    25971.557   -5900.4958     6369.372   -4096.7657     82.46893 
   20000    857.91177   -109.94333    0.7762566   -109.16707    9616.0762    4.3597787    4.3597787    4.3597787    9616.0762    8052.4916    10451.549    10344.188    1313.5126   -1841.8564    8783.5082    82.869238 
   20100    386.59953   -109.52115   0.34980338   -109.17134   -23634.416     4.375024     4.375024     4.375024   -23634.416   -13794.842   -22284.968   -34823.437    9148.0244    6428.2047    21575.633    83.741615 
   20200    855.72286   -109.93294   0.77427603   -109.15867    21686.986     4.347287     4.347287     4.347287    21686.986    24514.485    14850.724    25695.749   -4009.1859    2079.3485   -4814.5743    82.158961 
   20300    974.48345   -110.04318   0.88173311   -109.16145   -12867.211    4.3703624    4.3703624    4.3703624   -12867.211   -8460.4452    -10120.09   -20021.097    -959.7745   -4348.1766    3127.1897    83.474219 
   20400    384.71718   -109.51776   0.34810019   -109.16966   -6922.0126    4.3630954    4.3630954    4.3630954   -6922.0126    6842.7816   -4929.3053   -22679.514     9918.955    9965.8473     17329.31    83.058507 
   20500    811.05182   -109.89752   0.73385673   -109.16366     6024.995    4.3550714    4.3550714    4.3550714     6024.995    7933.7537   -2466.2341    12607.465     4056.409   -4927.8115   -11820.187    82.601104 
   20600    812.19528   -109.89398   0.73489136   -109.15909   -8326.0815    4.3719023    4.3719023    4.3719023   -8326.0815    4426.9836   -11595.853   -17809.376     -6905.04    1248.7547     -4473.02    83.562485 
   20700    565.66442   -109.67299   0.51182505   -109.16116    10721.463    4.3525167    4.3525167    4.3525167    10721.463     7794.055    23181.562    1188.7735    14151.018    10248.955    17038.921    82.455827 
   20800    657.56413   -109.75793   0.59497784   -109.16295    -9051.511    4.3684059    4.3684059    4.3684059    -9051.511   -1342.6584   -24281.799   -1530.0751    2005.4672   -2988.5096   -15182.059    83.362159 
   20900    791.68582   -109.87542   0.71633396   -109.15909   -2281.8077    4.3626915    4.3626915    4.3626915   -2281.8077    100.85642     7419.334   -14365.614   -6431.9593    9161.9122   -8126.0493    83.035442 
   21000    636.54749    -109.7369   0.57596155   -109.16094     13356.04    4.3556304    4.3556304    4.3556304     13356.04    10074.028    22761.641    7232.4507    10917.871    3912.3514    13821.113    82.632913 
   21100     688.2684   -109.78322   0.62275971   -109.16046   -17542.474    4.3737275    4.3737275    4.3737275   -17542.474   -17888.115   -25033.227   -9706.0807   -1055.4315   -1977.8572   -12546.018    83.667185 
   21200    700.26514   -109.79241   0.63361462   -109.15879    14198.745    4.3520622    4.3520622    4.3520622    14198.745    15882.141    22356.802    4357.2911    -7364.026    6614.8803   -12238.157    82.429999 
   21300    867.60199   -109.94731   0.78502451   -109.16228   -6111.5078    4.3644944    4.3644944    4.3644944   -6111.5078   -17826.954   -349.82638   -157.74277    3757.3398    1694.8995    9848.4714    83.138429 
   21400    542.97856   -109.65636   0.49129841   -109.16506   -8577.3861    4.3699064    4.3699064    4.3699064   -8577.3861   -1714.6136   -18274.457   -5743.0881    3218.2689     2049.698    -12430.69    83.448088 
   21500    803.90087   -109.88495    0.7273864   -109.15756    5332.1502    4.3561055    4.3561055    4.3561055    5332.1502     3530.673    4576.0818    7889.6958   -8812.3164    1271.7688    -17067.01    82.659957 
   21600    827.64711   -109.90575    0.7488725   -109.15688   -2683.0365    4.3680985    4.3680985    4.3680985   -2683.0365   -11139.042   -2848.7945    5938.7271    3184.8106    9442.0895    10122.688    83.344561 
   21700    539.97311   -109.64979   0.48857902   -109.16121    5389.7163    4.3619395    4.3619395    4.3619395    5389.7163    5884.1453   -4465.0102    14750.014    11141.673    683.76514   -21744.664    82.992513 
   21800    748.56025   -109.83833   0.67731305   -109.16101    1161.2232    4.3634702    4.3634702    4.3634702    1161.2232   -1604.8479   -1721.9045     6810.422   -9680.9352     1441.844   -14675.997    83.079913 
   21900    869.39077   -109.94456   0.78664304   -109.15792     4959.282    4.3639793    4.3639793    4.3639793     4959.282   -17480.918    16225.591    16133.173    4035.0819    10957.171    6247.3711    83.109001 
   22000    479.32726   -109.59802   0.43370538   -109.16432    8430.1971    4.3624301    4.3624301    4.3624301    8430.1971    10268.455    6027.1892    8994.9466    11749.979   -3710.2361   -29024.174    83.020518 
   22100    816.33331   -109.89965   0.73863553   -109.16102    -1378.479    4.3665795    4.3665795    4.3665795    -1378.479   -2646.8106   -3327.9957    1839.3693   -8719.9522    3931.7638   -3059.8121    83.257645 
   22200    791.83931   -109.87569   0.71647285   -109.15922    13156.275    4.3568189    4.3568189    4.3568189    13156.275   -4315.7896    24406.842    19377.773  0.028354192    7179.2066    2457.5147    82.700572 
   22300    469.41933   -109.59245   0.42474047   -109.16771    1173.1795    4.3634159    4.3634159    4.3634159    1173.1795    13569.757   -12046.987    1996.7683    10249.644   -6246.1069    -26994.79    83.076814 
   22400    789.06856   -109.87432   0.71396581   -109.16036    -4911.003    4.3689117    4.3689117    4.3689117    -4911.003   -6963.9554   -10270.839    2501.7853   -1939.2998    3019.0028    1592.7343    83.391118 
   22500    816.32936     -109.895   0.73863196   -109.15636    2345.4303    4.3576397    4.3576397    4.3576397    2345.4303   -10455.839    3218.6149    14273.515   -10797.259    2952.5158   -2054.0528    82.747323 
   22600    462.53231   -109.58204   0.41850896   -109.16353    1221.4086    4.3631427    4.3631427    4.3631427    1221.4086    12204.493   -4717.6332   -3822.6339    13825.897   -2147.3844   -24708.607    83.061208 
   22700    829.04309   -109.90844   0.75013561    -109.1583   -7307.7426    4.3684635    4.3684635    4.3684635   -7307.7426   -7027.8427   -8370.2265   -6525.1585    -5133.712    1005.3474    3877.1901    83.365459 
   22800    677.42916   -109.77278   0.61295214   -109.15983     13483.45    4.3536706    4.3536706    4.3536706     13483.45    5602.5321    22964.758    11883.059   -18359.598     2407.643   -2446.1181    82.521419 
   22900    622.37501    -109.7308   0.56313799   -109.16766   -5005.0308    4.3647987    4.3647987    4.3647987   -5005.0308    10848.501   -4324.9306   -21538.663    13161.763    -1616.107   -26547.241    83.155819 
   23000    728.21603   -109.81923   0.65890517   -109.16032   -854.37322    4.3715311    4.3715311    4.3715311   -854.37322   -4979.0121    3549.8864   -1133.9939   -5017.7176   -3194.4004    2850.2243    83.541201 
   23100    869.21778   -109.94318   0.78648651    -109.1567    5744.1801    4.3523052    4.3523052    4.3523052    5744.1801    13083.449    4670.3273   -521.23618   -10474.599    6807.6542   -7030.8492    82.443804 
   23200    496.61395   -109.61402   0.44934674   -109.16467   -1140.6941    4.3655229    4.3655229    4.3655229   -1140.6941    12704.505     2186.467   -18313.054    12552.109    -2493.725   -25355.793     83.19722 
   23300    885.07052   -109.95844   0.80083041    -109.1576   -3994.6578    4.3679048    4.3679048    4.3679048   -3994.6578   -2623.0372   -4633.7294   -4727.2069    370.97946   -1309.5154    2017.7574    83.333476 
   23400    723.62005   -109.81356   0.65474662   -109.15882    13035.637    4.3542426    4.3542426    4.3542426    13035.637    12552.888    28365.845    -1811.821   -8686.2505     7696.548   -7223.4186    82.553954 
   23500    446.05753   -109.57139   0.40360223   -109.16779   -4287.5368    4.3645033    4.3645033    4.3645033   -4287.5368    6394.1582   -2734.6144   -16522.154    15426.141     -5070.65   -19569.024    83.138938 
   23600    887.29031   -109.96271   0.80283891   -109.15987    2136.5053    4.3666813    4.3666813    4.3666813    2136.5053     691.9945    4376.3158    1341.2056    7040.7445    3068.1068    2218.8723    83.263464 
   23700    787.56376   -109.87231   0.71260424    -109.1597    1116.0348    4.3634278    4.3634278    4.3634278    1116.0348    6806.4605    7129.7606   -10588.117   -9620.8085    472.58073   -8129.0133    83.077494 
   23800    479.37805   -109.59652   0.43375134   -109.16277   -3879.4328    4.3580815    4.3580815    4.3580815   -3879.4328    18772.253   -20000.236   -10410.316    18558.945     -3782.83   -21300.122    82.772495 
   23900    878.32427   -109.95567   0.79472625   -109.16094    2484.3087    4.3645426    4.3645426    4.3645426    2484.3087    4052.6987    3203.9795    196.24792    9922.6428     2599.548    8718.6724    83.141186 
   24000    860.97346   -109.94106   0.77902688   -109.16203    -8683.535    4.3671103    4.3671103    4.3671103    -8683.535    1899.6475    -2086.836   -25863.417   -10092.293   -1579.9205   -11358.441    83.288007 
   24100    310.50329   -109.44669    0.2809499   -109.16574     17638.32    4.3499715    4.3499715    4.3499715     17638.32    23887.412    13314.691    15712.858    18177.523    944.02247   -22053.234    82.311259 
   24200     894.7684   -109.97208   0.80960525   -109.16247   -11502.312    4.3747819    4.3747819    4.3747819   -11502.312    -17231.03   -1299.7042   -15976.201    4105.1444   -3022.4145    16048.547    83.727711 
   24300    763.04273   -109.84974    0.6904171   -109.15932    3258.4612    4.3635517    4.3635517    4.3635517    3258.4612    7866.9801    6607.7786   -4699.3751   -5100.3263    5315.0087   -16042.046    83.084571 
   24400    588.01908   -109.69208   0.53205202   -109.16003    5702.7434    4.3473572    4.3473572    4.3473572    5702.7434    13516.472   -4859.0306    8450.7885    22400.774   -42.276585   -14886.948     82.16294 
   24500    719.59343   -109.81157   0.65110326   -109.16047   -14153.266    4.3764609    4.3764609    4.3764609   -14153.266   -16792.795   -19213.816   -6453.1873    6243.7019    -2520.137    13619.443    83.824151 
   24600    967.72695   -110.03131   0.87561968   -109.15569   -2977.3797    4.3611986    4.3611986    4.3611986   -2977.3797    4073.6014   -2393.7369   -10612.004   -4968.2718    5993.5245    -16433.51    82.950231 
   24700     507.5628   -109.61949   0.45925349   -109.16023    8470.9386    4.3528842    4.3528842    4.3528842    8470.9386      5114.79   -3167.4959    23465.522     27453.76   -2153.3466   -3558.8491     82.47671 
   24800    790.52814   -109.87313   0.71528647   -109.15784   -16391.241    4.3729526    4.3729526    4.3729526   -16391.241   -18900.493   -20553.226   -9720.0029    5500.3942    4791.2042    9980.8322    83.622723 
   24900    797.28988   -109.87767   0.72140464   -109.15626    983.90723    4.3623995    4.3623995    4.3623995    983.90723   -530.35966    3680.1438   -198.06241   -8493.8331    3250.0677   -6838.6729    83.018774 
   25000     660.1688   -109.75698   0.59733461   -109.15964    2691.1258    4.3535027    4.3535027    4.3535027    2691.1258    3406.6199   -4996.5107    9663.2682    32445.472    2150.8799   -1251.1051    82.511875 
   25100    640.76986   -109.74216   0.57978204   -109.16237    498.28107     4.371056     4.371056     4.371056    498.28107   -8862.7894    2620.4828    7737.1498   -1353.9849    3128.3087    7563.4133    83.513964 
   25200    847.40575   -109.92327   0.76675053   -109.15652   -253.92633     4.364655     4.364655     4.364655   -253.92633    4261.4369   -7028.8808    2005.6649   -11952.181    1079.9604    4438.0665    83.147611 
   25300    527.96436   -109.63677   0.47771325   -109.15906    8699.3737    4.3555838    4.3555838    4.3555838    8699.3737    6755.8509   -3699.8636    23042.134    35747.075    4104.6802   -4493.2893    82.630261 
   25400     789.5199   -109.87239    0.7143742   -109.15802   -3570.5949    4.3663253    4.3663253    4.3663253   -3570.5949    3324.3375   -16427.922    2391.8002   -5894.2657   -3573.5096    8655.6611    83.243106 
   25500    655.59088   -109.75146   0.59319241   -109.15827    696.90303    4.3620982    4.3620982    4.3620982    696.90303    15153.784   -12643.031   -420.04377    -6501.762    5838.3705    5104.3846    83.001571 
   25600    549.00036   -109.65901   0.49674707   -109.16227   -10287.518    4.3618916    4.3618916    4.3618916   -10287.518   -12525.926   -27151.342    8814.7149    37340.275   -1496.0583   -6860.5136    82.989778 
   25700    857.98376   -109.93248   0.77632174   -109.15616    4882.9793    4.3602506    4.3602506    4.3602506    4882.9793    14169.236   -2100.9946    2580.6969   -8318.1892   -5504.5718    7925.6212    82.896149 
   25800    666.44695   -109.76335    0.6030152   -109.16033   -10253.027    4.3661252    4.3661252    4.3661252   -10253.027   -14379.236   -24682.357    8302.5111    3346.3978    8618.6687   -234.15411    83.231662 
   25900    568.08201   -109.67891   0.51401254   -109.16489   -8115.0562      4.35825      4.35825      4.35825   -8115.0562   -10243.283   -25754.053    11652.167    34276.098   -8180.9277   -6395.6906    82.782093 
   26000     912.7439   -109.98609   0.82586986   -109.16022    4892.0079    4.3610623    4.3610623    4.3610623    4892.0079    24052.337   -4667.0939   -4709.2196   -9080.0807    2339.9363   -667.84311    82.942452 
   26100    694.29388   -109.79086    0.6282117   -109.16265   -12884.574    4.3686194    4.3686194    4.3686194   -12884.574   -6910.5363   -33278.977    1535.7901    6746.5062    1138.7318    1032.1667    83.374384 
   26200    442.06852   -109.56307   0.39999289   -109.16307    8530.5935    4.3551109    4.3551109    4.3551109    8530.5935    29391.372   -18829.559    15029.968    24024.042   -3926.0228   -7826.3759    82.603346 
   26300    990.25492   -110.05244   0.89600346   -109.15644   -5488.5127    4.3669745    4.3669745    4.3669745   -5488.5127    17590.284   -13495.917   -20559.905   -8082.1516    1086.9968   -5794.1749    83.280241 
   26400    516.89353   -109.63021   0.46769613   -109.16251    2078.9178    4.3619819    4.3619819    4.3619819    2078.9178    7146.1284   -20196.996     19287.62    13114.049   -6895.0089    4563.0815    82.994932 
   26500    605.99443   -109.71257    0.5483165   -109.16426   -7573.9341    4.3570785    4.3570785    4.3570785   -7573.9341     6398.548    -31814.62    2694.2698    20226.297    4054.5447   -11553.811     82.71536 
   26600    925.78247   -109.99522   0.83766744   -109.15755   -9976.4165    4.3697151    4.3697151    4.3697151   -9976.4165    4689.2935   -12529.986   -22088.557   -7056.6597   -5789.4143    -2963.013     83.43713 
   26700    614.38463   -109.71608   0.55590813   -109.16017   -5864.0883    4.3616295    4.3616295    4.3616295   -5864.0883    824.17708   -32485.231    14068.789    21466.509    613.25299    1282.9705    82.974819 
   26800    502.26915   -109.61816   0.45446368    -109.1637   -2396.2688    4.3588474    4.3588474    4.3588474   -2396.2688    16927.826    -28904.55    4787.9175    11259.279    5575.9329   -14553.131    82.816144 
   26900    1017.1408   -110.07742   0.92033039   -109.15709    3881.2693    4.3620114    4.3620114    4.3620114    3881.2693    26818.243   -9497.7882   -5676.6468   -2765.6604   -3273.4829   -1331.3311    82.996614 
   27000    544.62751   -109.65757   0.49279041   -109.16478   -1387.4349    4.3680194    4.3680194    4.3680194   -1387.4349    17559.176   -34473.509    12752.029    23723.087    3861.3011   -1722.7525    83.340032 
   27100    445.96615     -109.568   0.40351954   -109.16448   -4720.8915    4.3617822    4.3617822    4.3617822   -4720.8915    15934.811   -33446.833    3349.3481    1244.2718    -1006.605   -17325.348    82.983533 
   27200    975.80701   -110.03945   0.88293069   -109.15652    9680.5058    4.3532394    4.3532394    4.3532394    9680.5058    17614.909   -2315.7321    13742.341   -3038.3474   -1751.3753   -2815.8253    82.496904 
   27300    609.36718   -109.71596   0.55136823   -109.16459   -16151.875    4.3749742    4.3749742    4.3749742   -16151.875   -11838.582   -39021.754    2404.7122    20377.637   -1227.8514   -487.43207    83.738754 
   27400    528.10119    -109.6409   0.47783705   -109.16306    1252.5102     4.358495     4.358495     4.358495    1252.5102    15986.022   -26775.991      14547.5   -6229.5653   -4825.1916   -18255.912     82.79606 
   27500     890.7106   -109.96045   0.80593367   -109.15452    16174.909    4.3564094    4.3564094    4.3564094    16174.909     26781.94    355.45808    21387.329   -7132.5718   -2303.4477    1503.5306    82.677259 
   27600    637.70444   -109.73544   0.57700838   -109.15843   -7889.0185    4.3731679    4.3731679    4.3731679   -7889.0185    9211.3693   -37262.703    4384.2782    15922.934   -2674.9214    941.66867    83.635077 
   27700    507.95008   -109.61927    0.4596039   -109.15967    8166.9342    4.3570398    4.3570398    4.3570398    8166.9342    26916.692   -17852.264    15436.375   -15787.957   -931.41095   -18647.603    82.713156 
   27800    823.19277   -109.90206   0.74484211   -109.15722    5235.8833    4.3597006    4.3597006    4.3597006    5235.8833     27744.83   -15379.677    3342.4966   -6990.6324     191.5726    13358.204    82.864781 
   27900    679.52664   -109.77575   0.61484999    -109.1609   -11485.098    4.3691352    4.3691352    4.3691352   -11485.098   -6834.5667   -24429.256   -3191.4696    8947.1394     537.4001   -529.77694     83.40392 
   28000    525.17756   -109.63717   0.47519169   -109.16198    -2327.542    4.3593376    4.3593376    4.3593376    -2327.542    669.65147   -17907.906    10255.629    -17700.96    5575.9186   -16611.505    82.844086 
   28100    754.04995   -109.84157   0.68228024   -109.15929   -3453.1804    4.3608645    4.3608645    4.3608645   -3453.1804    14194.826   -12429.531   -12124.835    1542.3179   -658.52547    25533.863    82.931169 
   28200    857.00213   -109.93225   0.77543354   -109.15681   -17987.911    4.3709137    4.3709137    4.3709137   -17987.911   -12937.695    -24987.57    -16038.47    3212.6698    4017.9594    543.20898    83.505811 
   28300    570.31623   -109.67468   0.51603411   -109.15864   -5560.9266    4.3600671    4.3600671    4.3600671   -5560.9266   -1023.5846   -17036.788    1377.5932   -15153.079    7882.4654   -6502.9117    82.885681 
   28400    751.14434   -109.83968   0.67965119   -109.16003   -7756.3483    4.3588296    4.3588296    4.3588296   -7756.3483    22051.534   -29097.179     -16223.4    2268.8856     37.87753    34692.656    82.815126 
   28500     962.3457   -110.02708   0.87075061   -109.15632   -8528.6468    4.3691698    4.3691698    4.3691698   -8528.6468   -10340.802   -16689.847    1444.7087    90.017003    1293.5496    1191.2367    83.405898 
   28600      593.045   -109.69884   0.53659958   -109.16224    931.41855    4.3576008    4.3576008    4.3576008    931.41855    8018.2246   -20379.915    15155.946    -9316.909    1230.3571    934.11717    82.745105 
   28700    429.69548   -109.55712    0.3887975   -109.16832    506.99582    4.3627372    4.3627372    4.3627372    506.99582    26757.193    -32723.62    7487.4142    942.70956    3172.4387    35198.847    83.038051 
   28800    1059.8836   -110.11611     0.959005    -109.1571   -261.28165     4.366365     4.366365     4.366365   -261.28165   -12067.394   -10052.897    21336.446   -2507.1631     5.275825   -4708.9597    83.245376 
   28900    561.19274   -109.67321   0.50777898   -109.16543   -2244.5705    4.3584676    4.3584676    4.3584676   -2244.5705    8673.2397   -26521.926    11114.975   -6094.1219   -3948.2011    12347.334    82.794496 
   29000    406.49134   -109.53806   0.36780191   -109.17026   -13114.049    4.3641914    4.3641914    4.3641914   -13114.049    25859.917   -42770.127   -22431.936    1494.3496    960.12993    34128.075    83.121116 
   29100    1220.8563   -110.26267    1.1046564   -109.15802   -1142.1086     4.361263     4.361263     4.361263   -1142.1086   -6616.2452   -5424.3265     8614.246    957.98623   -5692.5996   -10878.961    82.953905 
   29200    566.01002   -109.68205   0.51213776   -109.16991   -2538.9578    4.3605038    4.3605038    4.3605038   -2538.9578    15561.544   -25518.417    2339.9992   -5276.0458    1719.3019    27481.303    82.910589 
   29300    473.41784   -109.59907   0.42835841   -109.17071   -3219.5707    4.3629865    4.3629865    4.3629865   -3219.5707    25958.384   -35531.195   -85.900725      2561.07   -3667.9768    21634.633    83.052287 
   29400    929.69704   -109.99676   0.84120942   -109.15555   -4163.1861    4.3731518    4.3731518    4.3731518   -4163.1861   -15517.989   -17064.819    20093.249     4944.415   -5066.6171   -11904.747    83.634153 
   29500    525.85191   -109.63775   0.47580186   -109.16194    5457.7948    4.3513295    4.3513295    4.3513295    5457.7948    26382.707   -16808.471    6799.1485    -1976.186    4750.5948    33604.784     82.38837 
   29600     477.3156   -109.60017   0.43188519   -109.16829    2444.8273    4.3598865    4.3598865    4.3598865    2444.8273     19519.31   -22396.222    10211.394    1946.9892    362.54555    15998.811    82.875385 
   29700    1005.3602   -110.06459   0.90967099   -109.15492   -19925.444    4.3789359    4.3789359    4.3789359   -19925.444   -22760.906   -28102.966   -8912.4593    8122.3934       1444.7   -12673.578    83.966442 
   29800    608.28132   -109.70746   0.55038573   -109.15707    13773.973    4.3491912    4.3491912    4.3491912    13773.973    33362.037    8556.3658   -596.48208   -891.23822     381.9442    31771.643    82.266968 
   29900    727.78754   -109.81898   0.65851746   -109.16046   -4910.1379    4.3633948    4.3633948    4.3633948   -4910.1379    14868.971   -17156.725   -12442.659    3112.3724    4751.9484    4939.4894    83.075606 
   30000    819.21856    -109.8966   0.74124617   -109.15536   -12272.912     4.376184     4.376184     4.376184   -12272.912   -13025.874   -11053.203    -12739.66    9872.3677    1913.7235   -13743.882    83.808242 
   30100    678.92717   -109.77013   0.61430757   -109.15582    18931.188    4.3450711    4.3450711    4.3450711    18931.188    35482.014    15282.389    6029.1623   -3556.5268    -1402.012    26407.473    82.033393 
   30200    608.82248   -109.71653   0.55087537   -109.16566   -2142.6426    4.3634209    4.3634209    4.3634209   -2142.6426    1369.7867   -15643.368    7845.6535    1335.9497    5023.0117   -1773.4192    83.077101 
   30300    652.58667   -109.74967   0.59047413   -109.15919   -12854.716    4.3775604    4.3775604    4.3775604   -12854.716   -20363.873   -21105.283    2905.0076    3288.8077    1348.5876   -12761.323    83.887344 
   30400    885.83921   -109.95369   0.80152593   -109.15217    14864.304    4.3464662    4.3464662    4.3464662    14864.304    25673.512    10603.208    8316.1913   -2851.3171     1517.732    19273.387    82.112434 
   30500    588.40514   -109.69475   0.53240133   -109.16234   -453.58008    4.3615403    4.3615403    4.3615403   -453.58008   -7351.3718   -13430.008    19420.639   -266.10652   -2825.5706   -3740.6543     82.96973 
   30600    594.09273   -109.69889   0.53754759   -109.16134   -16110.397    4.3754892    4.3754892    4.3754892   -16110.397    -16862.81   -31070.788     -397.593    3283.3688    1925.1489   -10092.671    83.768327 
   30700    1056.5459   -110.10841   0.95598496   -109.15242    14049.921    4.3513724    4.3513724    4.3513724    14049.921    28697.257    3918.8809    9533.6249   -1613.2226   -2898.4382    12186.058    82.390808 
   30800    529.30648   -109.64459   0.47892762   -109.16567   -299.42596    4.3601639    4.3601639    4.3601639   -299.42596    5866.8033   -20509.084    13744.003     2873.047   -3469.3985   -4647.2597    82.891203 
   30900    343.67378   -109.48072   0.31096326   -109.16976   -15058.327    4.3737201    4.3737201    4.3737201   -15058.327   -104.45516   -38886.324   -6184.2025     4968.998    1312.6006   -10773.043     83.66676 
   31000    1172.5393   -110.21796    1.0609382   -109.15702    12243.168    4.3525335    4.3525335    4.3525335    12243.168    28566.136    1472.6269    6690.7393   -976.82032   -8682.7665     7328.397    82.456781 
   31100    529.73232   -109.65053   0.47931293   -109.17122    12320.729     4.355875     4.355875     4.355875    12320.729     17509.65   -1969.6524     21422.19    8914.8065    3288.1179   -7658.6042    82.646837 
   31200    376.19537   -109.51182   0.34038948   -109.17144   -20693.607      4.37613      4.37613      4.37613   -20693.607   -9148.1529   -43516.621   -9416.0474     2167.112    723.09642   -11285.395    83.805137 
   31300    1091.5492     -110.145   0.98765663   -109.15734    17542.494    4.3505263    4.3505263    4.3505263    17542.494    22167.434    18053.716    12406.331    1121.2304   -6185.3904    9078.6544    82.342753 
   31400    683.04699   -109.78655   0.61803527   -109.16851    1502.8937    4.3594651    4.3594651    4.3594651    1502.8937    8640.3912   -13165.278    9033.5675    4951.3343    4026.1827   -7630.7687    82.851352 
   31500    425.86629   -109.54997   0.38533277   -109.16463   -15111.961    4.3746301    4.3746301    4.3746301   -15111.961   -8502.2344   -33043.849   -3789.7984    681.39165    1214.6393   -10529.539    83.718997 
   31600    971.69865   -110.03167   0.87921336   -109.15245    15385.353    4.3497126    4.3497126    4.3497126    15385.353    18340.661    16787.828    11027.571   -948.22285   -1075.7931    10273.419    82.296559 
   31700    670.71839    -109.7689   0.60688009   -109.16202   -3471.5199    4.3617737    4.3617737    4.3617737   -3471.5199    5610.0106   -10235.379   -5789.1911    2681.4495   -2026.9951   -5767.1722    82.983047 
   31800    617.32634   -109.72051   0.55856984   -109.16194   -5881.2159    4.3662455    4.3662455    4.3662455   -5881.2159    9000.1598   -29093.941    2450.1339     2282.668    2928.1451   -11044.716    83.238538 
   31900    824.83509   -109.90379   0.74632812   -109.15746    3498.5756    4.3576135    4.3576135    4.3576135    3498.5756    9944.4611    10514.665   -9963.3997   -7116.1363   -4071.1474    12698.664     82.74583 
   32000    722.35603   -109.81357   0.65360292   -109.15997   -8535.1635    4.3627813    4.3627813    4.3627813   -8535.1635    14507.403   -22612.511   -17500.383    6408.3421   -5499.8299   -2254.4055    83.040572 
   32100    722.25654   -109.81243    0.6535129   -109.15892    2341.7581    4.3620219    4.3620219    4.3620219    2341.7581    20600.114   -16475.362    2900.5221   -5099.8538    4368.9311   -14238.342    82.997215 
   32200    854.64539    -109.9303   0.77330111     -109.157   -9545.7053     4.363904     4.363904     4.363904   -9545.7053   -484.85299   -5734.3133    -22417.95   -3705.0008   -10021.611    18668.797    83.104698 
   32300    582.83439   -109.68798    0.5273608   -109.16062   -3805.6024    4.3582296    4.3582296    4.3582296   -3805.6024    19283.891   -14758.011   -15942.687    4735.6138   -2696.2787    97.231256    82.780932 
   32400    799.29375   -109.88313   0.72321778   -109.15992   -208.09832     4.361874     4.361874     4.361874   -208.09832     10077.77   -16644.546    5942.4814   -10418.185    1616.1294   -17486.278    82.988775 
   32500    661.76838   -109.75894   0.59878193   -109.16016   -7574.6776    4.3672271    4.3672271    4.3672271   -7574.6776    10612.177   -14014.604   -19321.606    5972.9994   -12265.448    29173.467    83.294693 
   32600    676.08886   -109.77159   0.61173941   -109.15985    1425.6071    4.3544121    4.3544121    4.3544121    1425.6071    17039.266   -13904.091    1141.6461   -1593.8977   -557.85402   -163.76119    82.563592 
   32700    745.28774   -109.83457   0.67435201   -109.16022    765.20866    4.3645089    4.3645089    4.3645089    765.20866    6456.2923   -19179.209    15018.542   -148.18544    644.92099   -11538.799    83.139262 
   32800    630.49108   -109.73009   0.57048158    -109.1596   -9062.0487    4.3668158    4.3668158    4.3668158   -9062.0487    5906.1766   -22857.792   -10234.531     1593.361   -2595.3745    34091.952    83.271162 
   32900     686.6192   -109.77798   0.62126748   -109.15671    12616.867    4.3518016    4.3518016    4.3518016    12616.867     19946.97   -2981.4156    20885.047   -1416.1745   -7694.3243   -1345.7138    82.415192 
   33000    762.03898   -109.84827   0.68950888   -109.15876   -9211.7567    4.3679032    4.3679032    4.3679032   -9211.7567   -3466.8929   -25762.275    1593.8979     3422.995    3547.3606   -1804.0295    83.333383 
   33100    380.88562   -109.50909   0.34463332   -109.16446    1938.4985    4.3605841    4.3605841    4.3605841    1938.4985    28956.762   -15504.968   -7636.2982   -3933.8606    2627.1376     36192.81    82.915169 
   33200    958.97269   -110.02477   0.86769865   -109.15707    2629.9061    4.3552231    4.3552231    4.3552231    2629.9061   -537.36535   -759.17556    9186.2591    3755.7941   -16245.823    -3937.019    82.609733 
   33300    655.04277    -109.7538   0.59269646    -109.1611   -11093.569    4.3689523    4.3689523    4.3689523   -11093.569    1945.0151   -24569.712    -10656.01   -4972.7038    8229.8317    9619.9594    83.393447 
   33400    532.98652   -109.64611    0.4822574   -109.16385     1102.508    4.3556623    4.3556623    4.3556623     1102.508    14821.082   -10693.645   -819.91292    1224.0399   -2929.6835    30345.198    82.634728 
   33500    915.33037   -109.98653   0.82821016   -109.15832    5612.5921    4.3625507    4.3625507    4.3625507    5612.5921    8202.9112   -1941.5449     10576.41   -2061.6056   -13647.691   -9411.0219    83.027404 
[...]
   91300    927.58758   -110.00071   0.83930074   -109.16141    5361.1173    4.3517597    4.3517597    4.3517597    5361.1173   -2369.2306    6904.6375    11547.945    12341.486     1754.433    4468.7524     82.41281 
   91400    689.15297   -109.78837   0.62356009   -109.16481   -2580.8758     4.356377     4.356377     4.356377   -2580.8758   -3549.8604   -2924.6939   -1268.0729   -25495.392    366.09648    -9610.809    82.675412 
   91500    491.92931   -109.61139   0.44510798   -109.16628    1760.5954    4.3521918    4.3521918    4.3521918    1760.5954   -11358.241    5127.7683    11512.259    20557.351   -3290.4712   -13803.732     82.43736 
   91600    800.00609    -109.8861   0.72386233   -109.16223    3258.9037    4.3538069    4.3538069    4.3538069    3258.9037    483.33436    4419.2789    4874.0978    11558.332    4902.7946    13244.281    82.529173 
   91700    653.98451   -109.75546   0.59173893   -109.16372    1777.0892    4.3544715    4.3544715    4.3544715    1777.0892    3391.9897    5630.6647   -3691.3867    -17351.65    1082.8236   -1843.9608    82.566975 
   91800    594.91642   -109.70297   0.53829288   -109.16467   -5477.4468     4.354282     4.354282     4.354282   -5477.4468   -10188.963   -9217.3874    2974.0096    16781.615   -1919.3483   -18542.432     82.55619 
   91900    715.63076   -109.81104   0.64751775   -109.16352   -292.68505    4.3517445    4.3517445    4.3517445   -292.68505    6628.4346   -1475.8176   -6030.6722    9059.5839    4399.8567    27538.651    82.411945 
   92000    726.24257   -109.82083   0.65711954   -109.16371   -2626.5815    4.3562679    4.3562679    4.3562679   -2626.5815    5830.2224   -4773.6462   -8936.3206   -9882.1842    634.61473    1021.5993    82.669202 
   92100     814.6949   -109.89955   0.73715307    -109.1624   -4344.9943    4.3542052    4.3542052    4.3542052   -4344.9943   -5834.1875    -12131.16    4930.3647    8214.7042    463.65478   -21537.298    82.551825 
   92200    579.45441   -109.69045   0.52430253   -109.16615    2791.2297    4.3491049    4.3491049    4.3491049    2791.2297    15146.214    1188.0367   -7960.5618    6991.2268    4581.4306    35889.926    82.262075 
   92300     819.8891   -109.90625   0.74185289    -109.1644   -7526.0279    4.3597879    4.3597879    4.3597879   -7526.0279    2075.8743   -6111.9768   -18541.981    -5055.711    3636.3883    6271.4779    82.869758 
   92400    905.17448   -109.98087    0.8190209   -109.16185    4124.0033    4.3512377    4.3512377    4.3512377    4124.0033   -622.73932    4018.0018    8976.7474    1026.4302   -1126.2225   -14268.669    82.383158 
   92500     309.7878   -109.45188   0.28030251   -109.17158   -2053.2356    4.3515882    4.3515882    4.3515882   -2053.2356    17803.252    2706.5862   -26669.545    6107.6778      3301.31    39878.977    82.403067 
   92600    827.01216   -109.91488   0.74829798   -109.16658   -2866.0912    4.3587062    4.3587062    4.3587062   -2866.0912   -1704.5449    6095.7021   -12989.431     -3095.48    5735.5037    7847.4938    82.808094 
   92700    952.49649   -110.02513   0.86183884   -109.16329    8999.5685    4.3499435    4.3499435    4.3499435    8999.5685    5599.8795    17898.521    3500.3054    396.94757   -3439.6936   -2094.9495    82.309666 
   92800    227.05906   -109.38156   0.20544781   -109.17611   -11990.762    4.3546196    4.3546196    4.3546196   -11990.762    14149.069   -16311.865   -33809.492     5879.046    2570.9257    41977.348    82.575396 
   92900    784.79743   -109.87975   0.71010121   -109.16965   -1152.1633    4.3558712    4.3558712    4.3558712   -1152.1633   -7505.8641    12325.206   -8275.8318    1405.6852    4891.7256    -890.0017    82.646619 
   93000    1018.9088   -110.08548   0.92193014   -109.16355    2986.9794    4.3531753    4.3531753    4.3531753    2986.9794    9629.0074    1783.9008     -2451.97    752.71488   -1318.4588    6430.9496    82.493258 
   93100    434.99693   -109.56457   0.39359436   -109.17097    -3151.789    4.3532288    4.3532288    4.3532288    -3151.789    15003.916   -14952.114   -9507.1692    2793.2311    468.86962    37121.745    82.496301 
   93200    713.16597   -109.81181   0.64528756   -109.16652    75.291392    4.3556673    4.3556673    4.3556673    75.291392   -7475.0044    14282.691    -6581.812    3709.8192     8017.176   -9632.6273    82.635014 
   93300    912.06047   -109.98691   0.82525148   -109.16166    617.09769    4.3539455    4.3539455    4.3539455    617.09769    13465.415   -6468.9694   -5145.1526   -3572.4694    1172.7684    3758.7981    82.537054 
   93400     614.2525   -109.72051   0.55578857   -109.16472     5340.007    4.3506646    4.3506646    4.3506646     5340.007    13994.148   -2692.6841    4718.5574     2680.485   -1563.3896    27991.736    82.350611 
   93500     543.3315   -109.65787   0.49161776   -109.16625   -5903.5646    4.3581711    4.3581711    4.3581711   -5903.5646   -8394.6632    13614.106   -22930.136    4564.2969    15385.507   -14441.805    82.777598 
   93600    765.05361   -109.85482   0.69223658   -109.16258    6615.9595     4.352288     4.352288     4.352288    6615.9595    20504.127   -1876.7943    1220.5454   -4592.5902   -2438.1683   -5964.4612    82.442826 
   93700    827.45999   -109.91042   0.74870319   -109.16172    4170.2651    4.3525664    4.3525664    4.3525664    4170.2651    7996.0271    2653.9408    1860.8273    3823.8731    3765.3146    20120.792    82.458647 
   93800    440.20425   -109.56642   0.39830605   -109.16812   -6752.0797    4.3569248    4.3569248    4.3569248   -6752.0797   -4748.0979    9363.7891    -24871.93    4152.4813    19571.441   -12218.977    82.706602 
   93900     789.5984   -109.88033   0.71444523   -109.16589    3945.5299    4.3516005    4.3516005    4.3516005    3945.5299    17711.632   -2368.8922   -3506.1498   -268.67831   -5244.1864   -16527.616    82.403763 
   94000    1046.1749   -110.10811   0.94660101   -109.16151    1878.7112    4.3546738    4.3546738    4.3546738    1878.7112    2171.8825    1893.0466    1571.2045    1626.6157    6745.9846    8990.2742    82.578483 
   94100    388.94912   -109.52346   0.35192933   -109.17153   -4925.4506    4.3549059    4.3549059    4.3549059   -4925.4506   -2799.2849    9744.8545   -21721.922    2868.6695    22581.181   -13859.003    82.591682 
   94200    712.69034   -109.81332   0.64485719   -109.16846   -2451.3537    4.3547194    4.3547194    4.3547194   -2451.3537    12557.667   -2987.2239   -16924.504    619.65675   -6272.7314   -20445.689    82.581072 
   94300    1025.7984   -110.08898   0.92816394   -109.16081    495.33269     4.353846     4.353846     4.353846    495.33269   -3164.6925    6150.0037   -1499.3131   -4335.8666    660.80648    6935.0684    82.531394 
   94400    322.86196   -109.46356   0.29213228   -109.17142   -6260.0066    4.3530184    4.3530184    4.3530184   -6260.0066   -1283.5316     7951.941   -25448.429    5756.2388     25391.51   -19603.947    82.484339 
   94500    630.55949   -109.73956   0.57054348   -109.16901   -8521.7553    4.3566424    4.3566424    4.3566424   -8521.7553    7990.3708   -2360.5115   -31195.125   -472.78679   -7795.3885   -20417.977    82.690523 
   94600    934.87043   -110.00677   0.84589041   -109.16088    2107.8074    4.3538807    4.3538807    4.3538807    2107.8074   -2992.2882    5690.7551    3624.9554   -4280.0013   -2207.8859    13509.885    82.533371 
   94700    430.40491   -109.55793   0.38943941   -109.16849   -4572.2164    4.3536405    4.3536405    4.3536405   -4572.2164   -5514.5943     3916.459   -12118.514    7519.3976     21332.64    -22144.04    82.519713 
   94800    770.08487   -109.86218   0.69678897   -109.16539   -2612.7462    4.3553555    4.3553555    4.3553555   -2612.7462    6856.6574      2769.95   -17464.846   -2605.5702    -4266.865   -16963.866    82.617267 
   94900    936.73651   -110.00881   0.84757888   -109.16123    3581.5231    4.3532755    4.3532755    4.3532755    3581.5231   -137.39404    1700.1523     9181.811   -339.24064   -745.16931    18942.241    82.498956 
   95000    459.65408   -109.58506   0.41590467   -109.16915   -4197.3856    4.3538901    4.3538901    4.3538901   -4197.3856   -9873.3481    4497.5288   -7216.3374    6291.8516    15628.716   -23502.411    82.533906 
   95100     791.7824   -109.88113   0.71642136   -109.16471   -1074.3811    4.3557545    4.3557545    4.3557545   -1074.3811    3626.0818    5063.7251    -11912.95   -716.17582     3916.126   -11732.582    82.639977 
   95200    916.76873   -109.99047   0.82951162   -109.16095    5243.2138    4.3532131    4.3532131    4.3532131    5243.2138    2915.3299     2203.848    10610.464    -87.30508   -2183.9787    21309.596    82.495408 
   95300    346.01275   -109.48274   0.31307961   -109.16966   -2031.1663     4.353979     4.353979     4.353979   -2031.1663   -5893.6087    7502.6845   -7702.5747    2899.6309    16205.999   -23843.128    82.538959 
   95400    741.32892   -109.83777   0.67076998     -109.167   -3118.9732    4.3553544    4.3553544    4.3553544   -3118.9732   -1957.6531     3937.825   -11337.092    1478.0301    9590.9683   -10154.641    82.617203 
   95500    1030.8986   -110.09319   0.93277872   -109.16042     7967.802    4.3527669    4.3527669    4.3527669     7967.802    3349.1163    3932.5785    16621.711   -1101.6644   -5270.6477    16429.294    82.470047 
   95600    330.46749   -109.47065   0.29901393   -109.17163   -8198.9398    4.3569803    4.3569803    4.3569803   -8198.9398   -16499.733   -1292.2074   -6804.8784    3194.6752    19108.515   -24527.685    82.709763 
   95700    639.33039   -109.74922   0.57847957   -109.17074    -185.6055    4.3520357    4.3520357    4.3520357    -185.6055   -8049.6519    7248.3964    244.43898    24.671248    7151.6058   -8169.1588    82.428491 
   95800    1152.8578   -110.20402      1.04313   -109.16089    8363.9619    4.3532498    4.3532498    4.3532498    8363.9619   -3448.4564     3746.358    24793.984   -3095.9367   -8723.9373    8757.8479    82.497499 
   95900    350.67351   -109.49182   0.31729676   -109.17452   -11229.983    4.3583734    4.3583734    4.3583734   -11229.983   -12210.995   -5488.1326   -15990.822     5722.611     20986.44    -28275.38    82.789127 
   96000    515.05617   -109.63906   0.46603365   -109.17302    989.06097    4.3495977    4.3495977    4.3495977    989.06097   -11823.603    13654.698    1136.0876   -1599.2146   -159.36333   -6945.4646    82.290039 
   96100     1132.562    -110.1851    1.0247659   -109.16033   -1010.4042    4.3579013    4.3579013    4.3579013   -1010.4042   -13033.424    1066.8855    8935.3262   -3446.9228   -10505.159      4192.12    82.762227 
   96200    467.12691   -109.59386   0.42266624    -109.1712    -4704.456    4.3542609    4.3542609    4.3542609    -4704.456   -8729.9179    6361.5918   -11745.042    4215.5009    21131.327   -25080.884    82.554994 
   96300    577.98683   -109.69291   0.52297463   -109.16993     2536.256    4.3504832    4.3504832    4.3504832     2536.256   -14666.969    18607.963    3667.7734   -1131.3098    -1823.461   -5893.7483    82.340307 
   96400    1057.5031   -110.11727   0.95685105   -109.16042   -1244.7551    4.3587262    4.3587262    4.3587262   -1244.7551   -9956.8972    3534.8082    2687.8238   -1571.5632   -10597.522    4385.9518    82.809234 
   96500    563.90695   -109.67845   0.51023486   -109.16822    2595.7074    4.3499854    4.3499854    4.3499854    2595.7074    3750.8446    14238.576   -10202.298    718.11593    19422.731   -16878.879    82.312044 
   96600    644.87471   -109.75026   0.58349619   -109.16676   -2613.7988    4.3565122    4.3565122    4.3565122   -2613.7988   -16174.368    11617.714   -3284.7427    413.48805    5878.8089   -5352.0527    82.683109 
   96700    942.48499   -110.01311   0.85278022   -109.16033    88.742569      4.35463      4.35463      4.35463    88.742569    -5524.031    4571.9118    1218.3469   -4121.8755   -9809.3625    9155.1744    82.575986 
   96800    387.25592   -109.51888   0.35039729   -109.16849    1561.7901    4.3507332    4.3507332    4.3507332    1561.7901    6002.5407    17385.734   -18702.905    14.133529    16910.074   -14936.139    82.354504 
   96900    715.33166   -109.81308   0.64724712   -109.16584   -5481.2515    4.3588317    4.3588317    4.3588317   -5481.2515   -17899.518    16239.497   -14783.733    2846.2295    14198.331   -7883.2407     82.81525 
   97000    951.81672   -110.02228   0.86122377   -109.16105    9095.5228    4.3497051    4.3497051    4.3497051    9095.5228    3496.5297    18531.343    5258.6958   -7641.7191   -7546.4364    10562.701    82.296136 
   97100    254.78891   -109.40451   0.23053836   -109.17397   -12137.862    4.3561234    4.3561234    4.3561234   -12137.862    1148.0664    799.66789    -38361.32   -3018.6281      19824.9   -13918.532    82.660975 
   97200    717.37991   -109.82044   0.64910042   -109.17134   -2959.9466    4.3550238    4.3550238    4.3550238   -2959.9466   -9142.5881    16766.539    -16503.79    1798.8176    16652.832   -6844.4742    82.598392 
   97300    1103.2741   -110.16068   0.99826559   -109.16242    5262.1321    4.3516405    4.3516405    4.3516405    5262.1321    313.91788     13739.66    1732.8186    -2455.835    -8474.336    3374.1951    82.406035 
   97400    295.89186   -109.44329   0.26772917   -109.17556   -14035.558    4.3574665    4.3574665    4.3574665   -14035.558    980.33401   -2132.5017   -40954.508    335.29121      24977.3   -13807.686    82.737459 
   97500    722.63461   -109.82451   0.65385498   -109.17065    4406.6749    4.3517925    4.3517925    4.3517925    4406.6749     9894.908    16751.049   -13425.932    2216.8888    12688.055   -6812.3693    82.414672 
   97600     1093.278   -110.15102   0.98922093    -109.1618     -2722.97    4.3572355    4.3572355    4.3572355     -2722.97   -4460.6016    7102.8189   -10811.127    -2100.197    -17353.37     2578.539    82.724302 
   97700    499.64101   -109.62243   0.45208568   -109.17035   -494.51968    4.3507952    4.3507952    4.3507952   -494.51968    12448.272    11285.701   -25217.533   -2570.9106    20714.533    -14218.44    82.358022 
   97800    680.12147   -109.78272    0.6153882   -109.16733     -509.598    4.3553083    4.3553083    4.3553083     -509.598    3169.4529    10448.466   -15146.713    5291.3608    6741.2512   -7449.8937    82.614584 
   97900    865.07812    -109.9448   0.78274086   -109.16206   -5004.6857    4.3572455    4.3572455    4.3572455   -5004.6857   -14962.562    11100.667   -11152.162    1157.5735   -24835.767    5789.0767    82.724869 
   98000    640.10083     -109.742   0.57917669   -109.16282    5976.2186    4.3475431    4.3475431    4.3475431    5976.2186    11046.805    12940.445   -6058.5939   -5648.9498    17365.796   -14898.022    82.173482 
   98100    572.05859   -109.68098   0.51761063   -109.16337   -7449.7655    4.3610114    4.3610114    4.3610114   -7449.7655   -2861.1765   -1174.2948   -18313.825    6560.5667    1154.6717   -4721.2031    82.939546 
   98200    723.10742   -109.81627   0.65428279   -109.16199    1981.1922    4.3509394    4.3509394    4.3509394    1981.1922   -3832.9521    13626.159   -3849.6299     3404.653    -28576.32    5145.1252    82.366215 
   98300    728.47748   -109.82081   0.65914174   -109.16167    6102.4279    4.3506506    4.3506506    4.3506506    6102.4279    12844.239    5328.6283    134.41666   -5854.3758    15937.739   -15523.857    82.349816 
   98400    608.85322    -109.7145   0.55090319    -109.1636   -9964.5874    4.3607844    4.3607844    4.3607844   -9964.5874   -690.75372   -8191.8882    -21011.12    8440.6944   -827.38413   -4823.3931    82.926597 
   98500    685.05474   -109.78218   0.61985192   -109.16233    7313.0899    4.3481297    4.3481297    4.3481297    7313.0899    11145.931    9105.2939    1688.0446     5488.844    -29646.26    5474.8301    82.206749 
   98600    797.45005   -109.88271   0.72154956   -109.16116   -2224.5013    4.3558042    4.3558042    4.3558042   -2224.5013    14448.582   -17087.178   -4034.9085   -9594.2375    12497.347   -9906.9343    82.642804 
   98700    633.74091    -109.7369    0.5734221   -109.16348   -2922.4835    4.3562234    4.3562234    4.3562234   -2922.4835    10729.071   -2618.8331   -16877.688    2996.9099   -3161.7173   -10016.016    82.666669 
   98800    756.38082    -109.8467   0.68438926   -109.16231    4240.8642    4.3498115    4.3498115    4.3498115    4240.8642    814.50346    9984.4907    1923.5985    3654.3369   -25094.347    6454.9282    82.302173 
   98900    707.95699    -109.8035   0.64057436   -109.16293   -5427.2204    4.3569492    4.3569492    4.3569492   -5427.2204    8722.4633   -23654.912    -1349.212   -12651.136    9400.1011   -3351.4473    82.707994 
   99000    702.92519   -109.79959   0.63602148   -109.16356   -3903.8243     4.354049     4.354049     4.354049   -3903.8243    1138.5431   -1291.1286   -11558.887     654.5406   -7315.2528   -17168.279    82.542941 
   99100    842.90219   -109.92383   0.76267561   -109.16115     147.5942     4.352628     4.352628     4.352628     147.5942   -4167.2293    2846.7239     1763.288    2056.6679   -17624.401     9774.323     82.46215 
   99200    567.08088   -109.67784    0.5131067   -109.16473   -7580.5345    4.3556316    4.3556316    4.3556316   -7580.5345    10543.304   -34457.358    1172.4505   -17531.287     7126.058   -1514.1702     82.63298 
   99300    646.17141   -109.74935   0.58466947   -109.16468   -4218.1723    4.3535714    4.3535714    4.3535714   -4218.1723    2644.1686   -10709.093   -4589.5922    -810.1476   -2404.6419   -18801.573     82.51578 
   99400    865.18232   -109.94328   0.78283514   -109.16044    2134.7974    4.3545075    4.3545075    4.3545075    2134.7974   -2168.6183    2778.8906    5794.1198    2392.7887   -10314.728    10468.901    82.569022 
   99500     477.6715   -109.59924   0.43220721   -109.16703   -4266.3379    4.3529602    4.3529602    4.3529602   -4266.3379    12893.199   -33116.625    7424.4121   -18764.209    2754.8827   -520.48116    82.481033 
   99600    579.03052   -109.69118   0.52391898   -109.16727    -6297.277    4.3554584    4.3554584    4.3554584    -6297.277    1362.0899   -16086.547   -4167.3739   -947.99334    2259.0974   -17389.587    82.623124 
   99700    953.75126   -110.02332   0.86297418   -109.16035   -3386.8947     4.355421     4.355421     4.355421   -3386.8947   -6862.6436   -5952.8778    2654.8374    3983.7706   -9379.6958    7435.6127    82.620994 
   99800     596.4355   -109.70531   0.53966737   -109.16565    1367.2544    4.3502731    4.3502731    4.3502731    1367.2544    13178.889   -17299.043    8221.9179   -11364.395    3455.7984    3793.7537    82.328377 
   99900     657.6505   -109.76095   0.59505599   -109.16589   -7372.1787    4.3581849    4.3581849    4.3581849   -7372.1787   -7128.0351   -12948.353   -2040.1484     1877.633    7218.0454   -18613.515    82.778388 
  100000     897.7258   -109.97349   0.81228117   -109.16121    2073.1859    4.3527546    4.3527546    4.3527546    2073.1859    -6777.624    4.3518695     12992.83    11224.222   -5224.2799    8216.5807    82.469346 
Loop time of 25.2283 on 1 procs for 100000 steps with 8 atoms

Pair  time (%) = 7.95583 (31.5353)
Kspce time (%) = 6.24264 (24.7446)
Neigh time (%) = 0 (0)
Comm  time (%) = 1.26769 (5.02486)
Outpt time (%) = 0.031354 (0.124281)
Other time (%) = 9.7308 (38.5709)

Nlocal:    8 ave 8 max 8 min
Histogram: 1 0 0 0 0 0 0 0 0 0
Nghost:    2189 ave 2189 max 2189 min
Histogram: 1 0 0 0 0 0 0 0 0 0
Neighs:    2056 ave 2056 max 2056 min
Histogram: 1 0 0 0 0 0 0 0 0 0

Total # of neighbors = 2056
Ave neighs/atom = 257
Neighbor list builds = 0
Dangerous builds = 0
unfix 20
unfix 21
print "seeds:1217662"
seeds:1217662
