LAMMPS (11 Aug 2017)
# ---- initialize simulations
clear
units metal
dimension 3
boundary p p p
atom_style atomic
atom_modify map array
# ---- create atoms
read_data /home/eragasa/repos/pypospack/examples/Ni__eam__born_exp_rose/preconditioning_3.5NN/rank_107/Ni_fcc.lmps_min_all/lammps.structure
  triclinic box = (0 0 0) to (3.5167 3.5167 3.5167) with tilt (0 -0 0)
  1 by 1 by 1 MPI processor grid
  reading atoms ...
  4 atoms
# ---- define interatomic potential
include potential.mod
mass 1 58.6934

group Ni type 1
4 atoms in group Ni

pair_style eam/alloy
pair_coeff * * /home/eragasa/repos/pypospack/examples/Ni__eam__born_exp_rose/preconditioning_3.5NN/rank_107/Ni_fcc.lmps_min_all/Ni.eam.alloy Ni

neighbor 1.0 bin
neigh_modify every 1 delay 0 check yes
# ---- define settings
compute eng all pe/atom
compute eatoms all reduce sum c_eng
# ---- run minimization
reset_timestep 0
fix 1 all box/relax aniso 0.0 vmax 0.001
thermo 10
thermo_style custom step pe xhi xlo yhi ylo zhi xy xz yz press pxx pyy pzz pxy pxz pyz c_eatoms
min_style cg
minimize 1e-25 1e-25 5000 10000
Neighbor list info ...
  update every 1 steps, delay 0 steps, check yes
  max neighbors/atom: 2000, page size: 100000
  master list distance cutoff = 5.64464
  ghost atom cutoff = 5.64464
  binsize = 2.82232, bins = 2 2 2
  1 neighbor lists, perpetual/occasional/extra = 1 0 0
  (1) pair eam/alloy, perpetual
      attributes: half, newton on
      pair build: half/bin/newton/tri
      stencil: half/bin/3d/newton/tri
      bin: standard
Per MPI rank memory allocation (min/avg/max) = 4.211 | 4.211 | 4.211 Mbytes
Step PotEng Xhi Xlo Yhi Ylo Zhi Xy Xz Yz Press Pxx Pyy Pzz Pxy Pxz Pyz c_eatoms 
       0   -17.838812       3.5167            0       3.5167            0       3.5167            0           -0            0    8827.3489    8827.3489    8827.3489    8827.3489 1.6334111e-10 1.6998723e-10 -1.6027367e-10   -17.838812 
      10   -22.155556    3.5259534 -0.009253447    3.5259534 -0.009253447    3.5259534            0           -0            0   -230541.09   -230541.09   -230541.09   -230541.09 -2.4598991e-09 5.5257144e-10 -1.9753523e-07   -22.155556 
      20   -24.016444    3.5083699  0.008330053    3.5083699  0.008330053    3.5083699            0           -0            0    -280924.4    -280924.4    -280924.4    -280924.4 -3.3531063e-09 4.988692e-10 -2.7403217e-07   -24.016444 
      30   -26.323582    3.4907864  0.025913553    3.4907864  0.025913553    3.4907864            0           -0            0   -366937.66   -366937.66   -366937.66   -366937.66 -3.3910317e-09 -2.0787709e-09 -4.4434863e-07   -26.323582 
      40   -29.167168    3.4732029  0.043497053    3.4732029  0.043497053    3.4732029            0           -0            0   -496262.81   -496262.81   -496262.81   -496262.81 -7.5186178e-09 -3.9108717e-09 -6.2068664e-07   -29.167168 
      50   -32.546293    3.4556194  0.061080553    3.4556194  0.061080553    3.4556194            0           -0            0   -670858.44   -670858.44   -670858.44   -670858.44 -8.2168684e-09 -4.6856898e-09 -8.1605866e-07   -32.546293 
      60   -36.495469    3.4380359  0.078664053    3.4380359  0.078664053    3.4380359            0           -0            0   -887872.81   -887872.81   -887872.81   -887872.81 -7.9808776e-09 -9.563212e-09 -1.0619165e-06   -36.495469 
      70   -41.078204    3.4204524  0.096247553    3.4204524  0.096247553    3.4204524            0           -0            0   -1181264.8   -1181264.8   -1181264.8   -1181264.8 -1.217975e-08 -2.0289496e-08 -1.3571857e-06   -41.078204 
      80   -46.373972    3.4028689   0.11383105    3.4028689   0.11383105    3.4028689            0           -0            0   -1544915.4   -1544915.4   -1544915.4   -1544915.4 -4.7568861e-09 -3.8245064e-10 -1.042203e-07   -46.373972 
      90   -52.484111    3.3852854   0.13141455    3.3852854   0.13141455    3.3852854            0           -0            0     -1975923     -1975923     -1975923     -1975923 -1.9789286e-08 -3.4809059e-08 -2.1545745e-06   -52.484111 
     100   -59.543918    3.3677019   0.14899805    3.3677019   0.14899805    3.3677019            0           -0            0   -2533514.1   -2533514.1   -2533514.1   -2533514.1 -1.133105e-08 -3.8212741e-08 -2.6297363e-06   -59.543918 
     110   -67.677787    3.3501184   0.16658155    3.3501184   0.16658155    3.3501184            0           -0            0   -3212023.9   -3212023.9   -3212023.9   -3212023.9 7.2391078e-09 -1.0154017e-07 -6.0624446e-06   -67.677787 
     120   -77.077996    3.3325349   0.18416505    3.3325349   0.18416505    3.3325349            0           -0            0   -4009390.5   -4009390.5   -4009390.5   -4009390.5 1.0150546e-09 -5.7631847e-08 -4.3783439e-06   -77.077996 
     130   -87.990148    3.3149514   0.20174855    3.3149514   0.20174855    3.3149514            0           -0            0   -5419059.2   -5419059.2   -5419059.2   -5419059.2 5.1595422e-09 -7.6854186e-08 -5.637645e-06   -87.990148 
     140   -101.14379    3.2973679   0.21933205    3.2973679   0.21933205    3.2973679            0           -0            0   -8404139.9   -8404139.9   -8404139.9   -8404139.9 1.0540544e-08 -1.1033883e-07 -7.2784825e-06   -101.14379 
     150    -117.3386    3.2797844   0.23691555    3.2797844   0.23691555    3.2797844            0           -0            0    -11931409    -11931409    -11931409    -11931409 9.320433e-09 -1.4947725e-07 -9.1176261e-06    -117.3386 
     160    -137.2696    3.2622009   0.25449905    3.2622009   0.25449905    3.2622009            0           -0            0    -16142684    -16142684    -16142684    -16142684 -1.7100733e-08 -2.1318798e-07 -1.1333932e-05    -137.2696 
     170   -161.64859    3.2446174   0.27208255    3.2446174   0.27208255    3.2446174            0           -0            0    -21180092    -21180092    -21180092    -21180092 -1.2073262e-07 -2.405066e-07 -1.3918523e-05   -161.64859 
     180   -191.26132    3.2270339   0.28966605    3.2270339   0.28966605    3.2270339            0           -0            0    -27200709    -27200709    -27200709    -27200709 -6.0234229e-08 -3.3442507e-07 -1.6936099e-05   -191.26132 
     190   -226.99442    3.2094504   0.30724955    3.2094504   0.30724955    3.2094504            0           -0            0    -34383195    -34383195    -34383195    -34383195 -1.1912608e-07 -4.1875548e-07 -2.0269599e-05   -226.99442 
     200    -269.8563    3.1918669   0.32483305    3.1918669   0.32483305    3.1918669            0           -0            0    -42932984    -42932984    -42932984    -42932984 3.8006685e-08 -4.3875382e-07 -2.4132406e-05    -269.8563 
     210   -320.99779    3.1742834   0.34241655    3.1742834   0.34241655    3.1742834            0           -0            0    -53087391    -53087391    -53087391    -53087391 5.0664599e-08 -5.1691043e-07 -2.8639761e-05   -320.99779 
     220   -381.73307    3.1566999   0.36000005    3.1566999   0.36000005    3.1566999            0           -0            0    -65120934    -65120934    -65120934    -65120934 -1.0330208e-07 -5.97083e-07 -3.3825859e-05   -381.73307 
     230   -453.56305    3.1391164   0.37758355    3.1391164   0.37758355    3.1391164            0           -0            0    -79351293    -79351293    -79351293    -79351293 4.1858477e-08 -9.4162892e-07 -3.9984586e-05   -453.56305 
     240   -538.20176    3.1215329   0.39516705    3.1215329   0.39516705    3.1215329            0           -0            0    -96144200    -96144200    -96144200    -96144200 -2.2368773e-08 -1.1499654e-06 -4.6789644e-05   -538.20176 
     250   -637.60539    3.1039494   0.41275055    3.1039494   0.41275055    3.1039494            0           -0            0 -1.1592219e+08 -1.1592219e+08 -1.1592219e+08 -1.1592219e+08 1.1234285e-07 -1.1679662e-06 -5.4509352e-05   -637.60539 
     260   -754.00714    3.0863659   0.43033405    3.0863659   0.43033405    3.0863659            0           -0            0 -1.3917775e+08 -1.3917775e+08 -1.3917775e+08 -1.3917775e+08 2.4059329e-07 -1.3567044e-06 -6.3403378e-05   -754.00714 
     270    -889.9549    3.0687824   0.44791755    3.0687824   0.44791755    3.0687824            0           -0            0 -1.6647936e+08 -1.6647936e+08 -1.6647936e+08 -1.6647936e+08 3.0972243e-07 -1.3975899e-06 -7.2881297e-05    -889.9549 
     280   -1048.3547    3.0511989   0.46550105    3.0511989   0.46550105    3.0511989            0           -0            0 -1.9848125e+08 -1.9848125e+08 -1.9848125e+08 -1.9848125e+08 4.4824718e-07 -1.6094575e-06 -8.4151858e-05   -1048.3547 
     290   -1232.5203    3.0336154   0.48308455    3.0336154   0.48308455    3.0336154            0           -0            0 -2.3593709e+08 -2.3593709e+08 -2.3593709e+08 -2.3593709e+08 7.7434727e-07 -1.8059825e-06 -9.7306198e-05   -1232.5203 
     300   -1446.2311    3.0160319   0.50066805    3.0160319   0.50066805    3.0160319            0           -0            0 -2.7971958e+08 -2.7971958e+08 -2.7971958e+08 -2.7971958e+08 1.0735774e-06 -2.4747329e-06 -0.00011174016   -1446.2311 
     310   -1693.7964    2.9984484   0.51825155    2.9984484   0.51825155    2.9984484            0           -0            0 -3.3083085e+08 -3.3083085e+08 -3.3083085e+08 -3.3083085e+08 4.0820489e-07 -2.5209312e-06 -0.00012756487   -1693.7964 
     320   -1980.1316    2.9808649   0.53583505    2.9808649   0.53583505    2.9808649            0           -0            0 -3.9042811e+08 -3.9042811e+08 -3.9042811e+08 -3.9042811e+08 8.5465109e-07 -4.1814921e-06 -0.0001439266   -1980.1316 
     330    -2310.844    2.9632814   0.55341855    2.9632814   0.55341855    2.9632814            0           -0            0  -4.5984e+08  -4.5984e+08  -4.5984e+08  -4.5984e+08 6.1588479e-07 -4.2264628e-06 -0.00016125451    -2310.844 
     340   -2692.3334    2.9456979   0.57100205    2.9456979   0.57100205    2.9456979            0           -0            0 -5.4059351e+08 -5.4059351e+08 -5.4059351e+08 -5.4059351e+08 1.894178e-06 -4.8324013e-06 -0.00018043296   -2692.3334 
     350   -3131.9091    2.9281144   0.58858555    2.9281144   0.58858555    2.9281144            0           -0            0 -6.3444219e+08 -6.3444219e+08 -6.3444219e+08 -6.3444219e+08 1.7137154e-06 -4.0797827e-06 -0.00019782754   -3131.9091 
     360   -3637.9244    2.9105309   0.60616905    2.9105309   0.60616905    2.9105309            0           -0            0 -7.4339475e+08 -7.4339475e+08 -7.4339475e+08 -7.4339475e+08 1.7707056e-06 -5.6464637e-06 -0.00022049807   -3637.9244 
     370   -4219.9367    2.8929474   0.62375255    2.8929474   0.62375255    2.8929474            0           -0            0 -8.6974941e+08 -8.6974941e+08 -8.6974941e+08 -8.6974941e+08 4.112612e-06 -5.5137604e-06 -0.00023769996   -4219.9367 
     380    -4888.897    2.8753639   0.64133605    2.8753639   0.64133605    2.8753639            0           -0            0 -1.0161456e+09 -1.0161456e+09 -1.0161456e+09 -1.0161456e+09 1.5601392e-06 -8.4702785e-06 -0.00025713554    -4888.897 
     390   -5657.3679    2.8577804   0.65891955    2.8577804   0.65891955    2.8577804            0           -0            0 -1.1856022e+09 -1.1856022e+09 -1.1856022e+09 -1.1856022e+09 1.4482272e-06 -8.2934121e-06 -0.00027177103   -5657.3679 
     400   -6539.7906    2.8401969   0.67650305    2.8401969   0.67650305    2.8401969            0           -0            0 -1.3815618e+09 -1.3815618e+09 -1.3815618e+09 -1.3815618e+09 3.998469e-06 -8.7198864e-06 -0.00028160246   -6539.7906 
     410   -7552.8074    2.8226134   0.69408655    2.8226134   0.69408655    2.8226134            0           -0            0 -1.6079288e+09 -1.6079288e+09 -1.6079288e+09 -1.6079288e+09 1.0397928e-06 -1.0503981e-05 -0.00028406006   -7552.8074 
     420   -8715.6433    2.8050299   0.71167005    2.8050299   0.71167005    2.8050299            0           -0            0 -1.8691793e+09 -1.8691793e+09 -1.8691793e+09 -1.8691793e+09 -1.6218717e-06 -1.0211435e-05 -0.00027239293   -8715.6433 
     430   -10050.578    2.7874464   0.72925355    2.7874464   0.72925355    2.7874464            0           -0            0 -2.1703634e+09 -2.1703634e+09 -2.1703634e+09 -2.1703634e+09 4.872396e-06 -4.0907249e-06 -0.00024008529   -10050.578 
     440   -11583.542    2.7698629   0.74683705    2.7698629   0.74683705    2.7698629            0           -0            0 -2.5171914e+09 -2.5171914e+09 -2.5171914e+09 -2.5171914e+09 5.1932668e-09 -9.7034574e-06 -0.00019679011   -11583.542 
     450   -13344.837    2.7522794   0.76442055    2.7522794   0.76442055    2.7522794            0           -0            0 -2.9161268e+09 -2.9161268e+09 -2.9161268e+09 -2.9161268e+09 3.5586699e-06 2.5401849e-06 -0.00010023316   -13344.837 
     460   -15370.071    2.7346959   0.78200405    2.7346959   0.78200405    2.7346959            0           -0            0 -3.3743893e+09 -3.3743893e+09 -3.3743893e+09 -3.3743893e+09 7.3938744e-07 1.5703459e-05 4.4507403e-05   -15370.071 
     470   -17701.375    2.7171124   0.79958755    2.7171124   0.79958755    2.7171124            0           -0            0 -3.9000113e+09 -3.9000113e+09 -3.9000113e+09 -3.9000113e+09 -6.2540942e-06 2.6741948e-05 0.00024194122   -17701.375 
     480   -20388.959    2.6995289   0.81717105    2.6995289   0.81717105    2.6995289            0           -0            0 -4.501878e+09 -4.501878e+09 -4.501878e+09 -4.501878e+09 8.3332683e-07 3.2950304e-05 0.00051583364   -20388.959 
     490   -23493.229    2.6819454   0.83475455    2.6819454   0.83475455    2.6819454            0           -0            0 -5.189639e+09 -5.189639e+09 -5.189639e+09 -5.189639e+09 -1.503393e-05 6.2023014e-05 0.00092713492   -23493.229 
     500   -27087.701    2.6643619   0.85233805    2.6643619   0.85233805    2.6643619            0           -0            0 -5.9736708e+09 -5.9736708e+09 -5.9736708e+09 -5.9736708e+09 -2.5806064e-05 6.371945e-05 0.0014527809   -27087.701 
     510   -31263.005    2.6467784   0.86992155    2.6467784   0.86992155    2.6467784            0           -0            0 -6.8647234e+09 -6.8647234e+09 -6.8647234e+09 -6.8647234e+09 -1.4221905e-05 1.5553165e-05 0.0021297506   -31263.005 
     520   -36132.732    2.6291949   0.88750505    2.6291949   0.88750505    2.6291949            0           -0            0 -7.873413e+09 -7.873413e+09 -7.873413e+09 -7.873413e+09 -5.8576592e-05 9.4265929e-05 0.0032084268   -36132.732 
     530   -41842.241    2.6116114   0.90508855    2.6116114   0.90508855    2.6116114            0           -0            0 -9.0092136e+09 -9.0092136e+09 -9.0092136e+09 -9.0092136e+09 -5.1431723e-05 0.00021787194 0.0046849194   -41842.241 
     540   -48582.142    2.5940279   0.92267205    2.5940279   0.92267205    2.5940279            0           -0            0 -1.027867e+10 -1.027867e+10 -1.027867e+10 -1.027867e+10 -0.00011930671 6.2517566e-05 0.0063681869   -48582.142 
     550    -56610.47    2.5764444   0.94025555    2.5764444   0.94025555    2.5764444            0           -0            0 -1.1682056e+10 -1.1682056e+10 -1.1682056e+10 -1.1682056e+10 -8.7261022e-05 0.00024046823 0.0090696263    -56610.47 
     560   -66291.373    2.5588609   0.95783905    2.5588609   0.95783905    2.5588609            0           -0            0 -1.3206926e+10 -1.3206926e+10 -1.3206926e+10 -1.3206926e+10 -0.00016846544 0.00037932242   0.01268609   -66291.373 
     570    -78166.88    2.5412774   0.97542255    2.5412774   0.97542255    2.5412774            0           -0            0 -1.4815382e+10 -1.4815382e+10 -1.4815382e+10 -1.4815382e+10 -0.00019611076 0.00056191098  0.017593332    -78166.88 
     580   -93106.382    2.5236939   0.99300605    2.5236939   0.99300605    2.5236939            0           -0            0 -1.6415613e+10 -1.6415613e+10 -1.6415613e+10 -1.6415613e+10 -0.00030112969 0.00051221348  0.024178493   -93106.382 
     590   -112667.08    2.5061104    1.0105896    2.5061104    1.0105896    2.5061104            0           -0            0 -1.7790995e+10 -1.7790995e+10 -1.7790995e+10 -1.7790995e+10 -0.00056340645 0.00080362386  0.033818047   -112667.08 
     600   -140179.83    2.4885269    1.0281731    2.4885269    1.0281731    2.4885269            0           -0            0 -1.8376526e+10 -1.8376526e+10 -1.8376526e+10 -1.8376526e+10 -0.00081023368 0.00053977971  0.047214231   -140179.83 
     610   -185865.56    2.4709434    1.0457566    2.4709434    1.0457566    2.4709434            0           -0            0 -1.6149695e+10 -1.6149695e+10 -1.6149695e+10 -1.6149695e+10 -0.00067810637  0.001886134  0.066978883   -185865.56 
     620   -259381.72    2.4568853    1.0598147    2.4568853    1.0598147    2.4568853            0           -0            0 -2.4965637e+09 -2.4965637e+09 -2.4965637e+09 -2.4965637e+09 -4.4141743e-06 -0.0017186924 -0.072574163   -259381.72 
     630   -259619.04    2.4458294    1.0708706    2.4458294    1.0708706    2.4458294            0           -0            0 -3.255157e+09 -3.255157e+09 -3.255157e+09 -3.255157e+09 -0.00043839896 -0.0017385922 -0.078529345   -259619.04 
     640   -259974.75     2.431459     1.085241     2.431459     1.085241     2.431459            0           -0            0 -4.1191933e+09 -4.1191933e+09 -4.1191933e+09 -4.1191933e+09  0.020651524  0.073434552    3.5115559   -259974.75 
     650   -260373.83    2.4181702    1.0985298    2.4181702    1.0985298    2.4181702            0           -0            0 -4.9218158e+09 -4.9218158e+09 -4.9218158e+09 -4.9218158e+09  0.031767957   0.11217356     5.317086   -260373.83 
     660   -260755.18    2.4073437    1.1093563    2.4073437    1.1093563    2.4073437            0           -0            0 -5.9487532e+09 -5.9487532e+09 -5.9487532e+09 -5.9487532e+09 -0.016198723  -0.05705663   -2.7098382   -260755.18 
     670   -261381.24    2.3920155    1.1246845    2.3920155    1.1246845    2.3920155            0           -0            0 -7.7970649e+09 -7.7970649e+09 -7.7970649e+09 -7.7970649e+09  -0.07207259  -0.25339759   -12.039936   -261381.24 
     680   -262145.44    2.3770536    1.1396464    2.3770536    1.1396464    2.3770536            0           -0            0 -9.5865668e+09 -9.5865668e+09 -9.5865668e+09 -9.5865668e+09 -0.043460057  -0.15310696   -7.2687918   -262145.44 
     690   -263151.43    2.3607291    1.1559709    2.3607291    1.1559709    2.3607291            0           -0            0 -1.2576856e+10 -1.2576856e+10 -1.2576856e+10 -1.2576856e+10    0.3045983    1.0695906    50.811033   -263151.43 
     700    -264484.1    2.3431456    1.1735544    2.3431456    1.1735544    2.3431456            0           -0            0 -1.636508e+10 -1.636508e+10 -1.636508e+10 -1.636508e+10 -0.00091709654 -0.0032643424  -0.15348961    -264484.1 
     710   -266155.22    2.3255621    1.1911379    2.3255621    1.1911379    2.3255621            0           -0            0 -2.1945036e+10 -2.1945036e+10 -2.1945036e+10 -2.1945036e+10 1.5328418e-05 9.9341295e-05 0.00028556622   -266155.22 
     720   -268222.85    2.3079786    1.2087214    2.3079786    1.2087214    2.3079786            0           -0            0 -2.9024358e+10 -2.9024358e+10 -2.9024358e+10 -2.9024358e+10 2.4384433e-05 -3.2649469e-05 -3.1747909e-05   -268222.85 
     730   -270791.33    2.2903951    1.2263049    2.2903951    1.2263049    2.2903951            0           -0            0 -3.8264802e+10 -3.8264802e+10 -3.8264802e+10 -3.8264802e+10 -4.1538832e-06 -4.6856151e-05 -6.4209931e-05   -270791.33 
     740   -273974.09    2.2728116    1.2438884    2.2728116    1.2438884    2.2728116            0           -0            0 -5.0717795e+10 -5.0717795e+10 -5.0717795e+10 -5.0717795e+10 -1.7569276e-05 -0.00036933445 4.7915839e-05   -273974.09 
     750   -277921.13    2.2552281    1.2614719    2.2552281    1.2614719    2.2552281            0           -0            0 -6.7434028e+10 -6.7434028e+10 -6.7434028e+10 -6.7434028e+10 8.243769e-05 0.00012481163 9.0792567e-05   -277921.13 
     760   -282814.65    2.2376446    1.2790554    2.2376446    1.2790554    2.2376446            0           -0            0 -8.9894986e+10 -8.9894986e+10 -8.9894986e+10 -8.9894986e+10 1.0490149e-05 -7.1279105e-06 -7.534204e-06   -282814.65 
     770   -288891.76    2.2200611    1.2966389    2.2200611    1.2966389    2.2200611            0           -0            0 -1.2033648e+11 -1.2033648e+11 -1.2033648e+11 -1.2033648e+11 -0.00015845411 -0.00036644623 -0.00031718611   -288891.76 
     780   -296447.07    2.2024776    1.3142224    2.2024776    1.3142224    2.2024776            0           -0            0 -1.6181313e+11 -1.6181313e+11 -1.6181313e+11 -1.6181313e+11 -0.00014863995 0.00029912389 0.00032061693   -296447.07 
     790    -305857.8    2.1848941    1.3318059    2.1848941    1.3318059    2.1848941            0           -0            0 -2.1873997e+11 -2.1873997e+11 -2.1873997e+11 -2.1873997e+11 -8.1265863e-05 0.0010330266 0.00087921232    -305857.8 
     800   -317608.41    2.1673106    1.3493894    2.1673106    1.3493894    2.1673106            0           -0            0 -2.9751562e+11 -2.9751562e+11 -2.9751562e+11 -2.9751562e+11 0.00013913225 -0.0012403391 -0.00067221851   -317608.41 
     810   -332326.12    2.1497271    1.3669729    2.1497271    1.3669729    2.1497271            0           -0            0 -4.0755245e+11 -4.0755245e+11 -4.0755245e+11 -4.0755245e+11 -0.00021740031 -0.00026598063 -0.00052775824   -332326.12 
     820   -350830.28    2.1321436    1.3845564    2.1321436    1.3845564    2.1321436            0           -0            0 -5.6289388e+11 -5.6289388e+11 -5.6289388e+11 -5.6289388e+11 0.00016486339 -0.00070631107 0.0011900546   -350830.28 
     830   -374202.92    2.1145601    1.4021399    2.1145601    1.4021399    2.1145601            0           -0            0 -7.8485471e+11 -7.8485471e+11 -7.8485471e+11 -7.8485471e+11 0.00013420475 -1.346451e-05 0.0015637033   -374202.92 
     840   -403889.54    2.0969766    1.4197234    2.0969766    1.4197234    2.0969766            0           -0            0 -1.1063694e+12 -1.1063694e+12 -1.1063694e+12 -1.1063694e+12 -0.00077711368 -0.0025862673 -0.0010923455   -403889.54 
     850   -441847.17    2.0793931    1.4373069    2.0793931    1.4373069    2.0793931            0           -0            0 -1.57941e+12 -1.57941e+12 -1.57941e+12 -1.57941e+12 1.5237261e-05  0.010002338 0.0051919616   -441847.17 
     860   -490766.49    2.0618096    1.4548904    2.0618096    1.4548904    2.0618096            0           -0            0 -2.2879331e+12 -2.2879331e+12 -2.2879331e+12 -2.2879331e+12 -0.0010615377 -0.015595102 -0.0093513115   -490766.49 
