LAMMPS (10 Feb 2015)
Reading data file ...
  triclinic box = (0 0 0) to (4.2565 4.2565 4.2565) with tilt (0 0 0)
  1 by 1 by 1 MPI processor grid
  reading atoms ...
  8 atoms
4 atoms in group Mg
4 atoms in group O
Setting atom values ...
  4 settings made for charge
Setting atom values ...
  4 settings made for charge
PPPM initialization ...
  G vector (1/distance) = 0.353152
  grid = 8 8 8
  stencil order = 5
  estimated absolute RMS force accuracy = 4.10333e-05
  estimated relative force accuracy = 2.84961e-06
  using double precision FFTs
  3d grid and FFT values/proc = 3375 512
Neighbor list info ...
  1 neighbor list requests
  update every 1 steps, delay 0 steps, check yes
  master list distance cutoff = 11
Setting up minimization ...
Memory usage per processor = 4.06549 Mbytes
Step PotEng Lx Ly Lz Xy Xz Yz Press Pxx Pyy Pzz Pxy Pxz Pyz eatoms 
       0   -119.82944       4.2565       4.2565       4.2565            0            0            0   -43102.631   -43102.631   -43102.631   -43102.631 -1.1410716e-10 2.0651384e-11 1.0044018e-10   -119.82944 
       9    -119.8549     4.222448     4.222448     4.222448            0            0            0   -490.28356   -490.28356   -490.28356   -490.28356 -3.7927136e-11 -7.2182599e-11 3.2130495e-11    -119.8549 
Loop time of 0.126617 on 1 procs for 9 steps with 8 atoms

Minimization stats:
  Stopping criterion = linesearch alpha is zero
  Energy initial, next-to-last, final = 
        -119.829437963     -119.854898204     -119.854898204
  Force two-norm initial, final = 6.22404 0.0696885
  Force max component initial, final = 6.22404 0.069669
  Final line search alpha, max atom move = 1.75215e-06 1.2207e-07
  Iterations, force evaluations = 9 35

Pair  time (%) = 0.0881159 (69.5924)
Kspce time (%) = 0.00897121 (7.0853)
Neigh time (%) = 0 (0)
Comm  time (%) = 0.00215316 (1.70053)
Outpt time (%) = 0 (0)
Other time (%) = 0.0273769 (21.6218)

Nlocal:    8 ave 8 max 8 min
Histogram: 1 0 0 0 0 0 0 0 0 0
Nghost:    2189 ave 2189 max 2189 min
Histogram: 1 0 0 0 0 0 0 0 0 0
Neighs:    2344 ave 2344 max 2344 min
Histogram: 1 0 0 0 0 0 0 0 0 0

Total # of neighbors = 2344
Ave neighs/atom = 293
Neighbor list builds = 0
Dangerous builds = 0
pypospack:output_section:begin
tot_energy = -119.854898204259
num_atoms = 8
xx = 4.222448
yy = 4.222448
zz = 4.222448
xy = 0
xz = 0
yz = 0
tot_press = -490.283556338482
pxx = -490.283556338668
pyy = -490.283556338614
pzz = -490.283556338163
pxy = -3.79271362347293e-11
pxz = -7.2182599384956e-11
pyz = 3.21304951944417e-11
pypospack:output_section:done
pypospack:lammps_sim:done
PPPM initialization ...
  G vector (1/distance) = 0.353501
  grid = 8 8 8
  stencil order = 5
  estimated absolute RMS force accuracy = 4.03791e-05
  estimated relative force accuracy = 2.80417e-06
  using double precision FFTs
  3d grid and FFT values/proc = 3375 512
Setting up run ...
Memory usage per processor = 3.06549 Mbytes
Step Temp PotEng KinEng TotEng Press Lx Ly Lz Press Pxx Pyy Pzz Pxy Pxz Pyz Volume 
       0          200    -119.8549    0.1809642   -119.67393    2077.6902     4.222448     4.222448     4.222448    2077.6902    1833.3324    1009.2943    3390.4438   -714.93997   -98.094417   -468.81721    75.282309 
     100    73.932075   -119.71593  0.066895295   -119.64903   -4071.2639    4.2289157    4.2289157    4.2289157   -4071.2639    368.41032    -4443.875    -8138.327    870.70505    1762.4606    2066.4643     75.62878 
     200     151.2165   -119.73939   0.13682387   -119.60256   -8789.7771    4.2315013    4.2315013    4.2315013   -8789.7771   -5366.5143   -12272.841   -8729.9761    -472.2588   -170.58755   -450.91668    75.767581 
     300    87.523834   -119.63594  0.079193404   -119.55675    10814.836    4.2281935    4.2281935    4.2281935    10814.836    15272.361    619.55888    16552.588    885.07212    666.40394    634.28769     75.59004 
     400    289.21223   -119.78537    0.2616853   -119.52368    3032.1358    4.2267131    4.2267131    4.2267131    3032.1358    3333.7116    1004.5523    4758.1435    50.970768    192.16026   -797.98593    75.510666 
     500    169.48974   -119.65561   0.15335788   -119.50225    3928.0595    4.2329403    4.2329403    4.2329403    3928.0595     6861.796    520.49136    4401.8913    899.64091   -716.96064    726.29124     75.84491 
     600    180.74251   -119.65789   0.16353962   -119.49435     2914.878    4.2324115    4.2324115    4.2324115     2914.878    5794.5577   -5513.8886    8463.9648   -263.78647   -1279.2414    -386.0734    75.816489 
     700    125.53067   -119.60538   0.11358279    -119.4918     3610.253    4.2259739    4.2259739    4.2259739     3610.253    9093.4623    2573.2186   -835.92185    1141.3731   -147.85422     1392.547    75.471059 
     800    196.83155    -119.6682   0.17809733    -119.4901   -8844.6978    4.2351956    4.2351956    4.2351956   -8844.6978   -3436.0794    -8950.845   -14147.169   -372.86035   -1106.8762    1218.0228    75.966201 
     900    283.84675   -119.74715    0.2568305   -119.49032   -7122.7263    4.2352909    4.2352909    4.2352909   -7122.7263   -2816.8645    -11215.76    -7335.554    1004.7539    79.980233   -545.31929    75.971331 
    1000     169.8884   -119.64549   0.15371859   -119.49177    2599.0349    4.2256587    4.2256587    4.2256587    2599.0349     10137.73   -149.43329   -2191.1922    998.52252    56.552095      3744.56    75.454173 
    1100    173.14142   -119.64934     0.156662   -119.49268   -6118.0586    4.2344818    4.2344818    4.2344818   -6118.0586    1406.1639   -16812.457   -2947.8831    -594.3034    -1569.086   -1287.8067    75.927799 
    1200     136.2504   -119.61578   0.12328223    -119.4925    4414.4753    4.2343854    4.2343854    4.2343854    4414.4753    8704.5768   -8855.1599    13394.009    1055.3973    2250.3932     741.0643    75.922612 
    1300    326.69648    -119.7871   0.29560184    -119.4915    5016.5459    4.2241539    4.2241539    4.2241539    5016.5459    3315.8955    1314.9301    10418.812   -1257.3293   -1285.4145    -1445.718    75.373591 
    1400    170.89503    -119.6464   0.15462941   -119.49177    3126.9099    4.2333133    4.2333133    4.2333133    3126.9099    4234.6199   -4434.4508    9580.5606     1175.298    1421.1666    2507.4646    75.864958 
    1500    188.82975   -119.66343   0.17085712   -119.49257    -3997.785    4.2349203    4.2349203    4.2349203    -3997.785   -1745.9334   -10816.701    569.27939   -1172.7635   -797.71476    81.843151     75.95139 
    1600    122.43744   -119.60367   0.11078397   -119.49289     3928.748    4.2249998    4.2249998    4.2249998     3928.748    9656.7346     977.4588    1152.0506    601.17586    1202.3261    2430.6784    75.418882 
    1700    278.88337   -119.74395   0.25233953   -119.49161   -6558.5441     4.234457     4.234457     4.234457   -6558.5441   -3844.4291   -6676.7326   -9154.4707   -1149.1317    563.52835   -12.302792    75.926463 
    1800    203.05016   -119.67513   0.18372405    -119.4914   -4039.3889    4.2351913    4.2351913    4.2351913   -4039.3889    5103.8662   -11442.903   -5779.1304    906.93796    409.82148    1420.9294    75.965972 
    1900    220.84121   -119.69168   0.19982176   -119.49186      497.351    4.2263244    4.2263244    4.2263244      497.351    5244.6735    -752.4901   -3000.1304   -1557.4265     -649.455    3296.1246    75.489836 
    2000    147.24368   -119.62588   0.13322917   -119.49265    1032.6082    4.2342162    4.2342162    4.2342162    1032.6082     11223.47    -14670.17    6544.5247    701.60098    1331.3282   -1202.0121    75.913513 
    2100    217.16295   -119.68805    0.1964936   -119.49155   -2525.0174    4.2336107    4.2336107    4.2336107   -2525.0174    506.49359   -10787.662    2706.1163   -704.42518    196.82421   -679.92257    75.880952 
    2200    243.20043     -119.711   0.22005286   -119.49095    3626.2471    4.2261056    4.2261056    4.2261056    3626.2471    5671.4818   -2976.9175     8184.177   -587.00919    897.38651   -348.40641    75.478111 
    2300    222.92096   -119.69386   0.20170357   -119.49215   -1329.8049    4.2337281    4.2337281    4.2337281   -1329.8049   -249.07424   -6046.0498    2305.7094    2297.6489    835.83383    2912.1661     75.88726 
    2400    151.36136   -119.62979   0.13695494   -119.49284   -1177.9611    4.2319481    4.2319481    4.2319481   -1177.9611    6996.5077   -10877.742    347.35129   -2458.6854    152.67746   -591.51829    75.791589 
    2500     155.8782   -119.63369   0.14104187   -119.49265    1795.4424     4.227519     4.227519     4.227519    1795.4424    6943.1135    1021.3425   -2578.1289    1382.9112    3135.5765    1585.1625    75.553869 
    2600    233.69816   -119.70341   0.21145501   -119.49196   -798.33588    4.2343043    4.2343043    4.2343043   -798.33588    5917.7236   -7193.9914   -1118.7398   -931.35019   -846.08187   -328.72713    75.918251 
    2700    199.13015   -119.67178   0.18017715   -119.49161    1305.9565    4.2318162    4.2318162    4.2318162    1305.9565    7917.6752   -4009.6865    9.8806298    242.41226   -113.05821    3587.7417    75.784499 
    2800     182.4666   -119.65699   0.16509961   -119.49189    491.07402    4.2287999    4.2287999    4.2287999    491.07402    4334.8614   -3593.5372    731.89788   -1622.3117   -962.27909    2490.4085    75.622565 
    2900    144.72471   -119.62332   0.13094995   -119.49237    1569.6455    4.2342496    4.2342496    4.2342496    1569.6455    9175.6467   -12923.945     8457.235    351.61209   -943.95104   -2148.6004    75.915309 
    3000    243.70422   -119.71251    0.2205087     -119.492    -3825.858    4.2308581    4.2308581    4.2308581    -3825.858   -3939.7459   -8244.6354    706.80747   -3299.1373   -726.77663   -2812.3531    75.733038 
    3100    197.37547   -119.67005   0.17858947   -119.49146   -708.19977    4.2290883    4.2290883    4.2290883   -708.19977   -764.21661   -7288.5415    5928.1588    725.65641   -1440.3605    544.85601    75.638038 
    3200    250.89968   -119.71894   0.22701931   -119.49192   -4533.1131    4.2343469    4.2343469    4.2343469   -4533.1131   -3408.6481    -6701.124   -3489.5671   -921.25104   -2156.0357    625.30673    75.920545 
    3300    156.35893   -119.63403   0.14147685   -119.49255    547.69708    4.2297195    4.2297195    4.2297195    547.69708    8536.8589   -9761.8576      2868.09   -1251.0938    678.80274   -1906.8683    75.671912 
    3400    240.54605   -119.70969   0.21765112   -119.49204   -1483.6256    4.2298834    4.2298834    4.2298834   -1483.6256   -14.155224    513.95026   -4950.6719    1412.9681   -195.34595   -1232.1125    75.680707 
    3500    197.97086   -119.67064    0.1791282   -119.49152    2536.5447    4.2339029    4.2339029    4.2339029    2536.5447    14829.253   -7663.5939    443.97486   -1793.3975    559.04932   -627.38727    75.896664 
    3600    252.31571   -119.71999   0.22830055   -119.49169    526.35628    4.2294816    4.2294816    4.2294816    526.35628    2015.0296   -1070.0804    634.11963    2357.4598    897.71546    3668.7985    75.659144 
    3700    158.09204    -119.6353     0.143045   -119.49225     1534.264    4.2307308    4.2307308    4.2307308     1534.264    6722.7985   -5623.5512    3503.5448   -2072.2091   -625.15592    615.94391    75.726204 
    3800    191.52064   -119.66541    0.1732919   -119.49212   -2780.4227    4.2342879    4.2342879    4.2342879   -2780.4227    1764.7171   -10520.819    414.83349    2801.8686    2336.8775   -2360.2393    75.917368 
    3900    200.96122   -119.67363   0.18183393    -119.4918   -1841.3588    4.2297813    4.2297813    4.2297813   -1841.3588    -1736.414    -6518.668    2731.0058   -1777.9924   -291.19687   -1421.6562    75.675228 
    4000    197.38746   -119.67038   0.17860032   -119.49178   -2978.4986    4.2312807    4.2312807    4.2312807   -2978.4986   -5297.0409   -5125.9891    1487.5341    3279.1934    -803.9986     499.8653    75.755737 
    4100    197.88911   -119.67056   0.17905422   -119.49151   -2638.1534    4.2341177    4.2341177    4.2341177   -2638.1534    5842.0061   -9976.1249   -3780.3415   -967.64186   -1437.3404    -1210.059    75.908214 
    4200    146.48736   -119.62435   0.13254484    -119.4918    4073.6226    4.2286132    4.2286132    4.2286132    4073.6226    11964.398    -5671.092    5927.5616    1792.8474   -541.89647   -3781.2018    75.612551 
    4300    230.46721   -119.70042   0.20853157   -119.49189    937.62971    4.2309626    4.2309626    4.2309626    937.62971    5237.2685   -2508.9723    84.592904   -1202.7503   -1437.3351    -3548.607     75.73865 
    4400    168.20906   -119.64411   0.15219909   -119.49191    6090.5407    4.2330495    4.2330495    4.2330495    6090.5407    18967.306   -6405.5462    5709.8621   -260.42338   -993.57682    -702.7082    75.850778 
    4500    253.34915   -119.72086   0.22923563   -119.49163    860.03647    4.2285133    4.2285133    4.2285133    860.03647    828.49955   -2799.9366    4551.5465    -598.0933   -3071.5767   -100.01267     75.60719 
    4600    125.07544   -119.60538   0.11317088   -119.49221    2366.8405     4.231209     4.231209     4.231209    2366.8405    8947.7029   -7350.6989    5503.5174    -2867.184    809.73577   -2882.5636    75.751883 
    4700    243.73284   -119.71256    0.2205346   -119.49202   -7526.9287    4.2344162    4.2344162    4.2344162   -7526.9287    -4079.869   -12427.776   -6073.1411    483.59695   -41.953308   -3575.5566    75.924271 
    4800    164.75118   -119.64084   0.14907033   -119.49177   -634.18684    4.2287994    4.2287994    4.2287994   -634.18684    2062.5215   -7188.7096    3223.6275   -3401.6063    1963.6882   -1229.3185    75.622538 
    4900    277.82938   -119.74311   0.25138586   -119.49173   -7993.6095    4.2324213    4.2324213    4.2324213   -7993.6095   -9407.1323   -8888.4209   -5685.2752    916.02669     1434.316    1878.7334    75.817012 
    5000    149.11116   -119.62774   0.13491891   -119.49282   -58.253877    4.2336089    4.2336089    4.2336089   -58.253877    13271.562   -11382.133   -2064.1902    -1205.931    907.14366   -1101.6886    75.880853 
    5100     221.7051   -119.69314   0.20060343   -119.49253    492.95298    4.2283782    4.2283782    4.2283782    492.95298    5683.7637   -7232.7149    3027.8101    949.96209    4321.9381   -3449.1552    75.599945 
    5200    199.25976    -119.6726   0.18029442   -119.49231    3983.1891    4.2314234    4.2314234    4.2314234    3983.1891    10773.379   -2079.1685    3255.3571   -798.84658    1879.7068   -252.05208    75.763401 
    5300    233.68843   -119.70292    0.2114462   -119.49147    2053.1252    4.2329189    4.2329189    4.2329189    2053.1252    7691.7089   -8458.1927    6925.8594    612.54866    101.17441    1527.6813    75.843759 
    5400    219.82021    -119.6906   0.19889795   -119.49171    1428.2392    4.2283445    4.2283445    4.2283445    1428.2392    562.85198   -2758.3904    6480.2559    457.68142    80.002271   -934.20217    75.598138 
    5500    145.34238   -119.62375   0.13150884   -119.49225    551.66115    4.2317109    4.2317109    4.2317109    551.66115    2835.7785   -8322.9684    7142.1733   -539.23627   -1321.9602   -3523.4628    75.778845 
    5600    224.51954   -119.69537      0.20315   -119.49222   -6335.9681    4.2335705    4.2335705    4.2335705   -6335.9681     -4514.93   -12674.078    -1818.896    546.97885   -1376.1597   -4419.7547    75.878788 
    5700    170.51892    -119.6461   0.15428911   -119.49182   -89.544047    4.2288461    4.2288461    4.2288461   -89.544047   -1612.1867   -5921.7845     7265.339    -4349.695   -981.12093   -1481.7195    75.625046 
    5800    255.38425   -119.72298   0.23107704    -119.4919   -4693.4414    4.2326099    4.2326099    4.2326099   -4693.4414   -3094.2422   -9243.5696   -1742.5123    262.73993   -4773.3497    27.827639     75.82715 
    5900    119.21817   -119.60003    0.1078711   -119.49216    1716.3356    4.2333689    4.2333689    4.2333689    1716.3356    14945.214   -14221.242     4425.034   -1951.1658    -270.6348   -5268.8359    75.867951 
    6000    212.96894   -119.68494   0.19269878   -119.49224    1226.4605    4.2289859    4.2289859    4.2289859    1226.4605    3895.6371    -5247.178    5030.9224   -341.10706   -1725.0513   -3460.1646    75.632545 
    6100    192.78419   -119.66631   0.17443519   -119.49187    3651.6989    4.2318005    4.2318005    4.2318005    3651.6989    15265.767   -8591.9765    4281.3058   -1540.1385   -50.368543    1563.5183    75.783655 
    6200    245.40761   -119.71351   0.22204996   -119.49146    424.21054    4.2328514    4.2328514    4.2328514    424.21054    933.59191   -5035.8623     5374.902   -148.73019    -30.64108    2092.5132    75.840129 
    6300    193.98049     -119.667   0.17551763   -119.49148    827.22214    4.2281923    4.2281923    4.2281923    827.22214    4457.5344   -5205.8899    3230.0219    559.22375    771.25119   -268.16132    75.589971 
    6400    161.07275   -119.63767   0.14574201   -119.49193   -597.19166    4.2323854    4.2323854    4.2323854   -597.19166   -238.98784   -2543.0819    990.49476    413.00063      786.572   -1213.4417    75.815083 
    6500    238.97726   -119.70763   0.21623165    -119.4914   -4752.2424    4.2329278    4.2329278    4.2329278   -4752.2424   -651.87526   -10836.107    -2768.745     1142.896    2573.0509   -757.30602    75.844234 
    6600    179.00874   -119.65346   0.16197087   -119.49149   -130.21157    4.2287853    4.2287853    4.2287853   -130.21157   -4449.1377    1226.8286    2831.6744   -2962.8665   -329.11483    2482.6003    75.621784 
    6700    259.59993   -119.72669   0.23489148    -119.4918    -3979.847     4.233125     4.233125     4.233125    -3979.847    953.15633   -7018.5695   -5874.1278    3020.4063   -424.24168   -975.79613    75.854839 
    6800    116.91494    -119.5984   0.10578709   -119.49262     2895.202    4.2321488    4.2321488    4.2321488     2895.202    10348.508   -9015.3607    7352.4586    -1842.424    648.84102   -5091.6539    75.802373 
    6900    239.79397   -119.70933   0.21697062   -119.49236   -1189.2132    4.2290202    4.2290202    4.2290202   -1189.2132    1626.5402   -5904.3772    710.19737     2104.119   -1694.4313   -2313.5358    75.634384 
    7000    161.06743   -119.63776   0.14573719   -119.49203    4480.2596    4.2325486    4.2325486    4.2325486    4480.2596    9606.8634   -5244.6955    9078.6108   -2919.6145    1090.8711    1104.7007    75.823854 
    7100    278.32055    -119.7434   0.25183028   -119.49157   -2859.6256     4.231896     4.231896     4.231896   -2859.6256   -3284.7605   -9047.3005    3753.1843   -90.093537   -3039.4598    -502.1969    75.788785 
    7200    143.78852   -119.62195   0.13010288   -119.49185    2538.0632    4.2289535    4.2289535    4.2289535    2538.0632    1521.8911   -696.21811    6788.5165   -1969.2541    850.54261   -1801.3968    75.630805 
    7300    204.88166   -119.67772   0.18538124   -119.49234   -4306.5715    4.2329854    4.2329854    4.2329854   -4306.5715   -5794.4214   -7883.8388    758.54581   -868.05426   -2011.5451   -2511.4222    75.847332 
    7400    191.62115   -119.66575   0.17338284   -119.49237   -627.12032    4.2314012    4.2314012    4.2314012   -627.12032   -453.38822   -5588.9507    4160.9779    -2776.116    1942.7108    2677.3481    75.762208 
    7500    231.59567    -119.7015   0.20955263   -119.49195   -1839.9341    4.2290848    4.2290848    4.2290848   -1839.9341   -7677.8618   -95.722994    2253.7826    -1611.472   -1350.2911    3496.2647     75.63785 
    7600    195.28472   -119.66896   0.17669772   -119.49226   -410.24741    4.2332094    4.2332094    4.2332094   -410.24741    3770.2991    -5446.272    445.23066   -213.67437   -101.32808     39.67669    75.859372 
    7700    157.06699   -119.63454   0.14211751   -119.49243    2811.9753    4.2310912    4.2310912    4.2310912    2811.9753    7910.1873   -7473.7936    7999.5323    537.48564    40.257857   -1458.7178    75.745555 
    7800    212.35362   -119.68438   0.19214202   -119.49224     728.2922    4.2292477    4.2292477    4.2292477     728.2922    6246.9119   -2411.8876   -1650.1476    900.64028    837.30299    64.836921    75.646589 
    7900    174.29148   -119.64938    0.1577026   -119.49167    2719.0906    4.2336343    4.2336343    4.2336343    2719.0906    5770.8815   -5792.4638     8178.854   -796.02772    221.34579    2829.4664    75.882219 
    8000    240.58355   -119.70932   0.21768505   -119.49164   -748.84002    4.2309285    4.2309285    4.2309285   -748.84002    1997.8201   -1812.9838   -2431.3564    1422.9418   -313.15824   -86.939124    75.736819 
    8100    182.71664   -119.65677   0.16532586   -119.49145     174.8224    4.2293609    4.2293609    4.2293609     174.8224    322.48344   -2876.6821    3078.6659   -510.35112    1521.4649   -4570.6672    75.652666 
    8200     211.2262   -119.68277    0.1911219   -119.49165   -3849.7421    4.2340122    4.2340122    4.2340122   -3849.7421   -2651.9793   -7404.0409   -1493.2062    640.76421   -2181.9139   -3365.7857    75.902541 
    8300    182.88091   -119.65718   0.16547449   -119.49171   -1731.5702    4.2305662    4.2305662    4.2305662   -1731.5702   -289.61882   -6581.8672    1676.7754   -3370.0831    3065.6933    745.41076    75.717366 
    8400    252.97559   -119.72016   0.22889763   -119.49126   -1994.9117    4.2297484    4.2297484    4.2297484   -1994.9117   -4599.0743    951.67672   -2337.3376   -1591.5359   -4723.0314   -1405.9589     75.67346 
    8500    212.48929   -119.68395   0.19226477   -119.49168   -1633.9827    4.2336697    4.2336697    4.2336697   -1633.9827    1814.2608     -9732.49    3016.2811   -1221.1653    1648.8739   -2127.7104    75.884121 
    8600    181.57432   -119.65631   0.16429226   -119.49202    1644.6814    4.2300356    4.2300356    4.2300356    1644.6814    4765.2309   -4250.8438    4419.6571    -1377.554   -1428.1773   -4148.4267    75.688876 
    8700    195.94498   -119.66938   0.17729513   -119.49209    1425.9878    4.2299751    4.2299751    4.2299751    1425.9878    5419.6264   -3305.0709     2163.408   -1750.4139    959.30763     828.8185    75.685633 
    8800    185.70883   -119.65994   0.16803325   -119.49191    2312.2793    4.2332351    4.2332351    4.2332351    2312.2793    986.03005   -4134.0848    10084.893   -1390.5406   -651.87266    3781.8124    75.860757 
    8900    236.52722   -119.70529    0.2140148   -119.49128   -467.45337    4.2304006    4.2304006    4.2304006   -467.45337    194.96241    415.72041   -2013.0429    963.39812    1577.6508   -298.21576    75.708472 
    9000     149.2543   -119.62671   0.13504843   -119.49166     1379.644    4.2302916    4.2302916    4.2302916     1379.644   -1988.8848    1923.6275    4204.1892     217.1291    152.29528   -1382.4446    75.702619 
    9100    232.72565   -119.70254   0.21057506   -119.49196   -5127.5739    4.2339568    4.2339568    4.2339568   -5127.5739   -1433.9698   -11311.553   -2637.1986    2243.4637    1325.8068    1598.2069    75.899559 
    9200    124.56368   -119.60486   0.11270783   -119.49215    1627.7084    4.2298555    4.2298555    4.2298555    1627.7084   -1033.7264     942.0196    4974.8321   -2060.1117    1802.5628    1011.4702    75.679211 
    9300    267.15352   -119.73312   0.24172612    -119.4914   -4093.9709    4.2308677    4.2308677    4.2308677   -4093.9709   -4100.4556   -5064.4534   -3117.0037    2463.0495   -2243.6692    550.67163    75.733554 
    9400     174.8077   -119.65021   0.15816968   -119.49204    3472.6495    4.2328617    4.2328617    4.2328617    3472.6495    5281.4594   -5075.1763    10211.665    526.77531    2890.5526   -3311.5982    75.840683 
    9500    225.75633   -119.69618   0.20426907   -119.49191    335.14914    4.2295191    4.2295191    4.2295191    335.14914    7082.0004   -8510.7675    2434.2145    827.45242   -2978.2103   -3718.6787    75.661155 
    9600    122.91212   -119.60374   0.11121347   -119.49253    4767.0208    4.2303194    4.2303194    4.2303194    4767.0208    10031.712   -464.87701    4734.2271   -588.27173    2747.4399    1427.0496    75.704116 
    9700    248.24699   -119.71663    0.2246191   -119.49202   -2533.2531    4.2331828    4.2331828    4.2331828   -2533.2531    3041.1468   -10735.815    94.909297   -819.56683   -2642.8696    1281.1107    75.857943 
    9800    203.20498   -119.67577   0.18386414   -119.49191    1111.7055    4.2292829    4.2292829    4.2292829    1111.7055    2569.3513    3322.6855   -2556.9203    553.98873    2851.4493   -3142.8055    75.648481 
    9900    198.43876   -119.67126   0.17955156   -119.49171   -3586.4589    4.2312967    4.2312967    4.2312967   -3586.4589   -2498.5229   -5960.1793   -2300.6745   -561.42688   -914.93551   -126.93419    75.756595 
   10000    172.19481   -119.64812   0.15580548   -119.49231   -2829.0233    4.2336282    4.2336282    4.2336282   -2829.0233    1373.3566   -6999.8053   -2860.6211    671.44055    1481.5103    273.26998    75.881893 
   10100    209.27721    -119.6815   0.18935842   -119.49214   -683.94785    4.2298804    4.2298804    4.2298804   -683.94785   -1702.4948     -2544.73    2195.3812   -2372.0566    1189.6992    2907.1938    75.680549 
   10200    239.04566   -119.70797   0.21629354   -119.49167   -1531.7314    4.2313995    4.2313995    4.2313995   -1531.7314   -1800.7699   -821.60503   -1972.8194    2247.2751   -104.91856     1257.436    75.762116 
   10300    204.55576   -119.67639   0.18508635    -119.4913    522.06102    4.2330235    4.2330235    4.2330235    522.06102    2620.6847   -9697.1584    8642.6567    104.14178    1801.9776   -1117.2124    75.849381 
   10400    222.52821    -119.6932    0.2013482   -119.49185    389.61238    4.2293962    4.2293962    4.2293962    389.61238    5662.8151   -4262.3167    -231.6613    2450.1709    496.04928    996.83083    75.654561 
   10500    158.57232   -119.63531   0.14347957   -119.49183    1516.2407    4.2307118    4.2307118    4.2307118    1516.2407    4524.9217    -5965.225    5989.0253   -931.00255    2052.0113    4910.9717    75.725185 
   10600    239.65171   -119.70826    0.2168419   -119.49141   -2863.7883    4.2328888    4.2328888    4.2328888   -2863.7883    268.14966   -6540.1746   -2319.3399    1450.3821   -333.70672    1090.3979    75.842138 
   10700    220.17924   -119.69083   0.19922281   -119.49161   -444.71266    4.2294832    4.2294832    4.2294832   -444.71266   -250.40469    654.26575   -1737.9991    388.64073    4417.0123   -246.85918    75.659228 
   10800     207.2647   -119.68002   0.18753745   -119.49248   -2062.2585    4.2314824    4.2314824    4.2314824   -2062.2585    342.83827   -5435.5265   -1094.0872    860.37748   -3051.7516    -66.26958     75.76657 
   10900    117.60537   -119.59904   0.10641181   -119.49263    376.48117    4.2331931    4.2331931    4.2331931    376.48117    5828.3297     -7215.72    2516.8339   -1067.4123    3082.5818    1059.0556      75.8585 
   11000     206.3616   -119.67903   0.18672031   -119.49231    1769.2057    4.2295926    4.2295926    4.2295926    1769.2057    2684.4169    739.32422    1883.8759    -2505.596   -4226.1337    1373.0365    75.665099 
   11100    226.17649   -119.69659   0.20464924   -119.49194    2464.9184    4.2312859    4.2312859    4.2312859    2464.9184    6322.2282   -2717.4199    3789.9469   -669.37573   -495.53397   -1879.8828    75.756016 
   11200    183.89459   -119.65832   0.16639169   -119.49193    1033.9731    4.2328453    4.2328453    4.2328453    1033.9731    4853.7495   -8794.5641    7042.7339   -2074.6795   -1573.9893   -951.48211      75.8398 
   11300    158.42821   -119.63577   0.14334917   -119.49242    1230.8987    4.2289132    4.2289132    4.2289132    1230.8987    13433.251   -5749.2001   -3991.3544   -63.335405   -381.44105    1413.7851    75.628646 
   11400    177.86276   -119.65311   0.16093396   -119.49217    -460.8453    4.2317629    4.2317629    4.2317629    -460.8453    4188.2743   -8937.2698    3366.4597    -2219.533   -116.92346    3813.3476    75.781634 
   11500    251.14242   -119.71874   0.22723894    -119.4915   -3419.3392    4.2327102    4.2327102    4.2327102   -3419.3392    2015.5305   -6646.5099    -5627.038    243.59155    725.46212    357.06244    75.832539 
   11600    195.63814   -119.66835    0.1770175   -119.49134   -251.17734    4.2293378    4.2293378    4.2293378   -251.17734    993.70908    856.40142   -2603.6425   -281.86305    2482.2707    1471.9765    75.651426 
   11700    223.34137   -119.69435   0.20208397   -119.49227   -2401.7674     4.232297     4.232297     4.232297   -2401.7674    966.01132   -7972.1449   -199.16846    473.54463   -253.44795    1877.4859    75.810332 
   11800     134.9903   -119.61477   0.12214206   -119.49263    2474.3478    4.2324016    4.2324016    4.2324016    2474.3478    2983.1938    -4650.376    9090.2255   -816.57736    3855.1192    4341.7961    75.815958 
   11900    252.03869   -119.71982    0.2280499   -119.49177   -1184.0113    4.2294411    4.2294411    4.2294411   -1184.0113   -1233.7292     1334.225   -3652.5297    -834.0921   -1849.9747    580.61778    75.656971 
   12000    219.77672   -119.69023    0.1988586   -119.49137    1934.1372     4.232652     4.232652     4.232652    1934.1372     1161.284   -3000.3671    7641.4946   -727.29237    4521.2026   -287.04729    75.829414 
   12100    252.11229   -119.72007    0.2281165   -119.49195   -3908.3105    4.2322027    4.2322027    4.2322027   -3908.3105   -2712.5618   -8275.4356   -736.93399   -805.73762   -1824.3954   -38.627392    75.805265 
   12200    112.95547   -119.59435   0.10220448   -119.49215   -122.19931     4.229283     4.229283     4.229283   -122.19931    8878.2003   -4613.2707   -4631.5275   -761.65991    3538.3086    1045.8438    75.648488 
   12300     234.6063    -119.7041   0.21227671   -119.49182   -5210.5149    4.2329939    4.2329939    4.2329939   -5210.5149   -3317.4344   -11048.963   -1265.1472   -1918.0771    -1485.141    2011.2457     75.84779 
   12400    231.86242   -119.70158   0.20979399   -119.49178   -292.89911    4.2312685    4.2312685    4.2312685   -292.89911    3084.3208   -3329.3066   -633.71152   -499.49999    3504.0122   -1917.5597    75.755077 
   12500    236.58104   -119.70595    0.2140635   -119.49189   -643.29962    4.2293033    4.2293033    4.2293033   -643.29962    569.36364   -557.36351    -1941.899   -443.81671    727.64552   -374.48999    75.649575 
   12600    128.77749   -119.60935   0.11652058   -119.49283    1977.5398    4.2330297    4.2330297    4.2330297    1977.5398    8427.7876   -8531.6341     6036.466    733.46012    248.16374    1204.7844    75.849713 
   12700    176.96281   -119.65318   0.16011967   -119.49306    3453.2177    4.2309482    4.2309482    4.2309482    3453.2177    5888.2458   -4527.1755    8998.5826   -444.69832    1088.1001    2385.3228    75.737876 
   12800     228.9277   -119.69941   0.20713859   -119.49227     1537.629    4.2295373    4.2295373    4.2295373     1537.629    5858.7508    382.43703   -1628.3009    433.56319   -1061.1451   -1693.9587    75.662133 
   12900    201.15511   -119.67359   0.18200937   -119.49159    348.37844    4.2330709    4.2330709    4.2330709    348.37844    410.26898   -5865.0876    6499.9539    119.48124    790.21616    1002.7872    75.851929 
   13000    212.27963   -119.68432   0.19207507   -119.49224   -2571.1325    4.2303852    4.2303852    4.2303852   -2571.1325    2376.7405   -5661.8213   -4428.3168    1205.8657   -351.61059   -293.97768    75.707648 
   13100    109.30344   -119.59183  0.098900053   -119.49293    45.109764      4.22954      4.22954      4.22954    45.109764     7302.388   -5455.0731   -1711.9856    1182.1906    1960.3932    2848.5619    75.662278 
   13200    238.15886   -119.70761   0.21549114   -119.49212    -5405.421    4.2338324    4.2338324    4.2338324    -5405.421   -6054.4187   -9981.4832   -180.36116   -197.08521   -1942.4654    2027.2572    75.892873 
   13300    198.54259    -119.6714   0.17964551   -119.49175    2714.6221    4.2304008    4.2304008    4.2304008    2714.6221    1726.0402    1575.7918    4842.0342    448.44083    4570.1602   -1087.0055    75.708483 
   13400    291.16535   -119.75547   0.26345253   -119.49201   -1404.9118    4.2301804    4.2301804    4.2301804   -1404.9118    -4285.675   -3339.2873    3410.2269    844.90284   -2460.3482    1847.5685    75.696651 
   13500     97.85534   -119.58116  0.088541568   -119.49261    3875.7639    4.2333436    4.2333436    4.2333436    3875.7639     3906.551   -7544.1488    15264.889    953.47877    3665.6144    487.78139    75.866588 
   13600    209.45652   -119.68208   0.18952066   -119.49256   -1393.9248    4.2301627    4.2301627    4.2301627   -1393.9248   -209.54599   -5611.0625    1638.8339    270.70707    -592.4556   -1396.2247      75.6957 
   13700     207.1999   -119.67973   0.18747883   -119.49225    1494.8159    4.2301407    4.2301407    4.2301407    1494.8159    3519.9126    -2025.238     2989.773   -285.71528     1041.963   -4711.4709     75.69452 
   13800    269.82483    -119.7357   0.24414317   -119.49155   -5338.3413    4.2338182    4.2338182    4.2338182   -5338.3413   -6321.5251   -8784.2078   -909.29104   -690.61815    2216.5943   -740.20907    75.892106 
   13900    142.20041   -119.62071   0.12866592   -119.49205   -146.81617    4.2298812    4.2298812    4.2298812   -146.81617    7419.9888    -3463.848   -4396.5893    1862.1667    206.61838    -3559.308    75.680592 
   14000    155.28908   -119.63314   0.14050883   -119.49263   -630.44541    4.2305345    4.2305345    4.2305345   -630.44541    6392.8613   -6817.1756   -1467.0219    184.74645    2405.0683    1419.6268     75.71566 
   14100    202.70826   -119.67596   0.18341469   -119.49255    557.33874    4.2330393    4.2330393    4.2330393    557.33874   -533.51736   -6115.7721    8321.3057    605.76779   -232.70428    -2199.238    75.850228 
   14200    234.58045   -119.70371   0.21225332   -119.49146    2844.4405    4.2293206    4.2293206    4.2293206    2844.4405    3529.2593    3499.3857    1504.6764   -303.47183    2220.6227    636.99779    75.650501 
   14300    239.70504   -119.70868   0.21689016   -119.49179    406.23247    4.2314191    4.2314191    4.2314191    406.23247    -3145.417   -1233.5644    5597.6788    319.77402   -1761.8785    742.56905    75.763166 
   14400    170.99462   -119.64676   0.15471953   -119.49204   -266.58415    4.2334861    4.2334861    4.2334861   -266.58415    1511.0553   -10233.028    7922.2205   -128.93015    2597.0128    1888.0068    75.874253 
   14500    181.84573   -119.65649   0.16453784   -119.49195   -2968.5454    4.2301279    4.2301279    4.2301279   -2968.5454    530.52131   -2549.3359   -6886.8218   -669.79401   -2392.2266   -452.16138    75.693835 
   14600    232.88902   -119.70197   0.21072288   -119.49125   -4212.8655    4.2319985    4.2319985    4.2319985   -4212.8655   -2275.2118   -7626.0181   -2737.3668   -2113.7435    1646.0632   -1404.2557    75.794294 
   14700    278.52963   -119.74327   0.25201946   -119.49125   -3841.0352    4.2321568    4.2321568    4.2321568   -3841.0352   -2275.9256   -5937.6281   -3309.5519   -1214.0278   -1088.6703   -158.90814      75.8028 
   14800    193.09824   -119.66687   0.17471935   -119.49215   -1096.8937    4.2289739    4.2289739    4.2289739   -1096.8937    6601.5201   -7250.1857   -2642.0155    608.10794   -25.478838   -2335.6618    75.631899 
   14900    126.17135   -119.60721   0.11416249   -119.49304    1464.8941    4.2318085    4.2318085    4.2318085    1464.8941    6447.6203   -6604.4449    4551.5068   -1185.9267    648.18046    227.74623    75.784088 
   15000    188.71519   -119.66323   0.17075347   -119.49247    2890.8432    4.2318661    4.2318661    4.2318661    2890.8432    2411.4226   -9720.8133     15981.92    494.19058    556.78845   -1429.4592    75.787183 
   15100    234.54817   -119.70378   0.21222411   -119.49155     4604.525    4.2293332    4.2293332    4.2293332     4604.525    6484.0366    3351.5487    3977.9897    -1748.385      1950.84   -412.76804    75.651182 
   15200    205.19545   -119.67719   0.18566515   -119.49153    379.94496    4.2331586    4.2331586    4.2331586    379.94496   -2911.0709   -6927.4265    10978.332    1330.5379     786.6258   -2488.0932    75.856641 
   15300    144.24209   -119.62309   0.13051328   -119.49258   -346.81135    4.2317691    4.2317691    4.2317691   -346.81135    5541.1125   -5860.7125   -720.83398   -1266.4282    3104.2967    1486.6438    75.781972 
   15400    168.46762   -119.64498   0.15243304   -119.49254   -2301.2054    4.2295179    4.2295179    4.2295179   -2301.2054     3670.415   -7824.6929   -2749.3382   -191.87455    256.50137   -1701.9005    75.661094 
   15500    213.39706   -119.68481   0.19308615   -119.49172   -4480.7368    4.2338583    4.2338583    4.2338583   -4480.7368   -4812.7763   -5701.0663   -2928.3678   -3470.6838    2520.9361    837.58995    75.894264 
   15600     251.1648   -119.71806   0.22725919    -119.4908   -2192.3563    4.2309818    4.2309818    4.2309818   -2192.3563    904.24318   -8605.7317    1124.4195    -625.0008   -1411.0713    424.97999    75.739678 
   15700    205.10234    -119.6775   0.18558091   -119.49192     1945.275    4.2291582    4.2291582    4.2291582     1945.275    6679.6569   -3097.9665    2254.1345   -103.41254    1593.2082   -654.65925    75.641788 
   15800    157.02417   -119.63474   0.14207877   -119.49266    1226.6658    4.2331945    4.2331945    4.2331945    1226.6658    2153.6197   -12277.084    13803.462   -137.68622   -2002.4799    2099.9298    75.858573 
   15900    178.12277   -119.65351   0.16116922   -119.49234    3937.5539    4.2295668    4.2295668    4.2295668    3937.5539    5783.0765   -3326.8929     9356.478   -113.41163   -204.62767    2211.3055    75.663714 
   16000    274.03991   -119.73942   0.24795707   -119.49146    386.65382    4.2296896    4.2296896    4.2296896    386.65382    2653.4719   -1727.2443    233.73378   -1049.6642     -596.775    1792.7736    75.670309 
   16100    214.79698   -119.68631   0.19435282   -119.49196   -2021.5517    4.2344524    4.2344524    4.2344524   -2021.5517   -4990.5428   -5325.7763     4251.664    2476.8512   -1738.9174   -392.95497     75.92622 
   16200     155.1118   -119.63277   0.14034842   -119.49242   -4055.7844    4.2306435    4.2306435    4.2306435   -4055.7844    5784.6198   -5453.0204   -12498.953    697.99318    1457.9881     805.9522    75.721514 
   16300    146.60163   -119.62525   0.13264824   -119.49261   -1845.7845    4.2307176    4.2307176    4.2307176   -1845.7845    2344.2988    -1719.651   -6162.0014    1356.1957   -988.38667   -2964.0954    75.725491 
   16400    263.03144    -119.7297   0.23799637    -119.4917   -4591.1275    4.2339998    4.2339998    4.2339998   -4591.1275   -2958.3047   -7014.1416   -3800.9361   -2089.5552    1158.3545    849.89931    75.901873 
   16500    210.70216   -119.68217   0.19064775   -119.49152    2399.2442    4.2290889    4.2290889    4.2290889    2399.2442    7956.8982   -2067.0759    1307.9103    1403.4485    513.63829    -3992.405     75.63807 
   16600    206.74551   -119.67955   0.18706768   -119.49248    2609.7801    4.2296897    4.2296897    4.2296897    2609.7801    9567.5003   -4801.9586    3063.7986    258.98809    1498.5948   -1623.8961    75.670313 
   16700    142.91727   -119.62212   0.12931455   -119.49281    3753.3383      4.23301      4.23301      4.23301    3753.3383    3931.6492   -10782.659    18111.025    1466.7537      75.5685   -383.91598    75.848654 
   16800    239.94385   -119.70886   0.21710624   -119.49175    6.8984519    4.2295514    4.2295514    4.2295514    6.8984519    4743.3422   -6523.0053    1800.3585   -1593.4834    2270.3725    1486.7367    75.662888 
   16900    207.86189   -119.67927   0.18807781   -119.49119    265.74484    4.2312185    4.2312185    4.2312185    265.74484   -157.84848   -1911.4515    2866.5345   -362.28111   -1519.9754     911.2254    75.752392 
   17000    252.95253   -119.72044   0.22887677   -119.49156   -6671.0268    4.2341956    4.2341956    4.2341956   -6671.0268   -10046.768   -9253.4369   -712.87575    1585.8339    2118.9114   -76.505703    75.912403 
   17100    128.36898   -119.60879   0.11615095   -119.49264   -1862.3975    4.2297182    4.2297182    4.2297182   -1862.3975    7497.7267   -4036.9579   -9047.9612    830.39207   -713.90785    2871.8476    75.671843 
   17200    179.91496   -119.65541   0.16279084   -119.49262   -3011.8081     4.231682     4.231682     4.231682   -3011.8081   -3854.5965   -1695.4316   -3485.3962    506.69951     -814.496    752.72327    75.777291 
   17300    217.31511   -119.68837   0.19663128   -119.49174    778.60099    4.2328619    4.2328619    4.2328619    778.60099   -667.24247   -2374.6763    5377.7218   -499.10024   -315.01548    2315.8206    75.840696 
   17400    248.41674   -119.71621   0.22477269   -119.49144    2852.6343    4.2289127    4.2289127    4.2289127    2852.6343    3907.2399   -1172.1559    5822.8188    1953.1455   -2501.3605   -2180.8549    75.628618 
   17500    156.70816   -119.63421   0.14179283   -119.49242    4486.0532    4.2317234    4.2317234    4.2317234    4486.0532    4434.3423   -3232.6351    12256.452    1817.9573   -476.84053    1037.3979    75.779517 
   17600    125.74288   -119.60654    0.1137748   -119.49276    3534.9204    4.2316894    4.2316894    4.2316894    3534.9204    2402.6608   -10131.933    18334.033    2109.4687   -2915.8834   -361.87823    75.777689 
   17700    246.02771   -119.71485   0.22261104   -119.49223   -575.12765    4.2291201    4.2291201    4.2291201   -575.12765    4747.7064   -5591.5266   -881.56278   -1144.0366    356.37206    2090.0265    75.639746 
   17800    209.97658   -119.68149   0.18999122    -119.4915   -903.85141    4.2328804    4.2328804    4.2328804   -903.85141   -3.2229316   -5915.3306    3206.9993     441.8892   -1036.3461   -2895.0322    75.841687 
   17900    241.61899   -119.71056   0.21862194   -119.49194   -6993.2551    4.2322744    4.2322744    4.2322744   -6993.2551   -5767.2197   -9021.6142   -6190.9314    1416.9892    1117.1081   -746.78516    75.809119 
   18000    131.82194   -119.61168   0.11927526    -119.4924   -1519.4234    4.2299413    4.2299413    4.2299413   -1519.4234    9574.7778   -6031.3701   -8101.6779   -389.11415   -270.95179   -768.11191    75.683818 
   18100    232.56016   -119.70259   0.21042532   -119.49217   -4666.3404     4.233732     4.233732     4.233732   -4666.3404   -7584.5275   -4404.1385    -2010.355   -1038.2345     1760.734    491.34292    75.887475 
   18200    198.66296   -119.67198   0.17975442   -119.49222    2743.0818    4.2308396    4.2308396    4.2308396    2743.0818    1078.6605   -2328.2318    9478.8168   -2276.2094    -1254.734   -989.27599    75.732046 
   18300    273.36542   -119.73945   0.24734677   -119.49211    1839.4113    4.2291072    4.2291072    4.2291072    1839.4113    279.51874      2754.31    2484.4053    687.75901    473.17962   -671.40975    75.639054 
   18400    175.58632   -119.65128   0.15887419   -119.49241    2936.7552    4.2330833    4.2330833    4.2330833    2936.7552   -2460.3101   -5788.5971    17059.173    688.47823    -218.1808    597.55551    75.852594 
   18500    135.02572   -119.61436   0.12217411   -119.49219    2209.7098    4.2302033    4.2302033    4.2302033    2209.7098    1673.5993   -2285.0606    7240.5909    1032.3859   -2659.8343    2211.6134     75.69788 
   18600    224.28019   -119.69474   0.20293343   -119.49181    -2729.499    4.2304027    4.2304027    4.2304027    -2729.499    1611.4237   -4798.8993   -5001.0216   -1173.3615   -88.287344    2828.5982    75.708588 
   18700    228.31491   -119.69759   0.20658413   -119.49101   -2876.1855     4.234249     4.234249     4.234249   -2876.1855   -2979.0354   -3587.5617   -2061.9595    2098.0566   -2997.6469   -489.32686    75.915277 
   18800    235.25763   -119.70472   0.21286605   -119.49185   -4890.7116    4.2304292    4.2304292    4.2304292   -4890.7116   -611.56548   -7934.7935   -6125.7759    1251.9862   -184.62919    1065.7468    75.710008 
   18900     111.8795   -119.59382   0.10123093   -119.49259    768.40378     4.230502     4.230502     4.230502    768.40378    8536.7432   -1727.8373   -4503.6946    421.10428   -1950.8617   -794.96637    75.713919 
   19000    235.92594   -119.70556   0.21347075   -119.49209   -1782.0075     4.234237     4.234237     4.234237   -1782.0075    -5633.653   -7545.2961    7832.9265    -1601.955   -96.416469    926.53287    75.914632 
   19100    222.12959   -119.69201   0.20098752   -119.49102    4403.4398    4.2292179    4.2292179    4.2292179    4403.4398    3123.3728   -1934.6673    12021.614   -961.53744   -2163.1449   -1830.2029    75.644992 
   19200     238.6922   -119.70749   0.21597372   -119.49151    1535.0234    4.2307958    4.2307958    4.2307958    1535.0234   -1784.4031    1195.3145    5194.1589    677.05828    1911.1796   -1209.8887    75.729695 
   19300    176.81172   -119.65221   0.15998296   -119.49223    208.25833    4.2335482    4.2335482    4.2335482    208.25833   -5972.4954   -9394.5821    15991.852    702.11576   -1111.9949   -1844.5002     75.87759 
   19400    156.42254     -119.634    0.1415344   -119.49246    4.4466673    4.2289134    4.2289134    4.2289134    4.4466673    782.32979   -1236.4023    467.41248    717.46285   -1110.4191    1802.1425    75.628655 
   19500    199.79006   -119.67257   0.18077424    -119.4918   -3199.0467    4.2313358    4.2313358    4.2313358   -3199.0467    75.156068   -6130.5502    -3541.746   -909.02158    2042.0276   -930.90702    75.758694 
   19600    211.53666   -119.68261   0.19140282   -119.49121   -3379.7381    4.2336552    4.2336552    4.2336552   -3379.7381   -6102.0698   -263.05553   -3774.0891     4308.461   -2215.6617   -509.82213    75.883343 
   19700    218.83331   -119.68968   0.19800498   -119.49167   -1296.2383    4.2294902    4.2294902    4.2294902   -1296.2383    3233.2401   -6196.7881    -925.1669    2478.4563    2347.3953    226.91879    75.659604 
   19800    112.08139   -119.59423    0.1014136   -119.49282    3340.0524    4.2315028    4.2315028    4.2315028    3340.0524    7299.2722     4735.664    -2014.779    1933.6811   -2030.6267    1606.9008    75.767667 
   19900    202.28774   -119.67576    0.1830342   -119.49273    1084.6458     4.232794     4.232794     4.232794    1084.6458    -594.0114   -7760.8322    11608.781   -106.50122    1389.1246    2313.0187    75.837044 
   20000    227.92231   -119.69842   0.20622889   -119.49219    5582.4275    4.2286321    4.2286321    4.2286321    5582.4275     6402.104    2717.4943    7627.6841    1155.2637   -854.42014    87.040865    75.613564 
   20100    254.04621   -119.72201   0.22986635   -119.49215    -114.2071    4.2313747    4.2313747    4.2313747    -114.2071   -1229.6055   -5237.8639    6124.8481     899.3719    1109.9105   -359.54836    75.760781 
   20200    144.77111   -119.62347   0.13099194   -119.49247   -596.97243    4.2322827    4.2322827    4.2322827   -596.97243   -4179.8345   -5675.7178     8064.635    2550.0017   -3235.0825    1208.6923    75.809566 
   20300    212.62615   -119.68442   0.19238861   -119.49203   -5541.6345    4.2298311    4.2298311    4.2298311   -5541.6345    1164.5883   -9004.6139    -8784.878   -2292.6896   -98.295267    3742.5769    75.677902 
   20400    210.44013   -119.68198   0.19041066   -119.49157   -3813.9141    4.2324846    4.2324846    4.2324846   -3813.9141   -2335.6047   -5136.9233   -3969.2144    -570.4022   -731.89156   -675.36283    75.820417 
   20500    247.39669   -119.71511   0.22384973   -119.49126   -5349.4589     4.232896     4.232896     4.232896   -5349.4589     -4737.41   -3730.4156   -7580.5512      773.975   -147.41066    865.15657    75.842526 
   20600    187.15605   -119.66119   0.16934273   -119.49185     970.4873    4.2299158    4.2299158    4.2299158     970.4873    2303.4551    598.24849     9.758322   -289.50541    20.721943   -2959.7282    75.682446 
   20700    181.64211   -119.65678    0.1643536   -119.49243    3068.7656    4.2321806    4.2321806    4.2321806    3068.7656    3194.7331    4228.1378    1783.4258   -268.60685   -2414.5431    2297.8177    75.804079 
   20800    169.22061    -119.6453   0.15311437   -119.49218    4093.2916    4.2315635    4.2315635    4.2315635    4093.2916    869.21526   -1166.2092    12576.869   -1179.5852    1367.6171    1428.3996    75.770922 
   20900    218.40202   -119.68907   0.19761474   -119.49146    2968.5671    4.2294933    4.2294933    4.2294933    2968.5671     3122.688    5547.7854    235.22797    471.90178   -2993.5291  -0.86394157     75.65977 
   21000    225.30842   -119.69547    0.2038638   -119.49161    924.87469    4.2325037    4.2325037    4.2325037    924.87469   -2891.7617   -1303.7703     6970.156    2256.8713    552.86267   -592.51928     75.82144 
   21100    161.08025   -119.63777    0.1457488   -119.49202   -1936.3088    4.2314591    4.2314591    4.2314591   -1936.3088   -5341.4759   -628.13956    160.68902     1614.335   -4131.1072    837.20471    75.765319 
   21200    172.03991   -119.64758   0.15566532   -119.49191    -3894.166     4.230529     4.230529     4.230529    -3894.166    2145.4613    -4524.599   -9303.3604   -1168.1218   -1434.5139    3553.1539    75.715365 
   21300    213.27362   -119.68442   0.19297445   -119.49145   -3618.8072    4.2331497    4.2331497    4.2331497   -3618.8072   -6354.4533   -2270.9495   -2231.0187     1445.538   -720.91938   -1067.4022    75.856164 
   21400    257.63927   -119.72417   0.23311743   -119.49105   -3384.5797    4.2313262    4.2313262    4.2313262   -3384.5797   -2280.7216    -6457.059   -1415.9584   -74.362095    -955.0308   -594.41756    75.758176 
   21500    174.82038   -119.64948   0.15818115    -119.4913    802.65808    4.2308187    4.2308187    4.2308187    802.65808    1205.9816    654.74328    547.24934    570.60889   -1383.4123   -4289.3831    75.730922 
   21600    216.75875   -119.68809   0.19612787   -119.49197   -175.61069    4.2329604    4.2329604    4.2329604   -175.61069   -302.81255   -5165.9191    4941.8996   -1916.1045   -1329.5917    3231.8654    75.845988 
   21700    183.65217   -119.65785   0.16617235   -119.49168     5123.183    4.2301005    4.2301005    4.2301005     5123.183    3044.7453   -2467.3896    14792.193   -1172.2418    1079.0488   -1661.8733    75.692364 
   21800    255.04822   -119.72232   0.23077299   -119.49155   -1420.0148    4.2310487    4.2310487    4.2310487   -1420.0148    256.61083   -1829.4265   -2687.2289    1781.2746   -1757.8752    1658.4163    75.743273 
   21900    163.95873   -119.64045   0.14835331    -119.4921    1663.2114    4.2324194    4.2324194    4.2324194    1663.2114   -2204.8151   -93.698322    7288.1477    2270.4312    1755.1301   -4073.6701    75.816914 
   22000    216.66811   -119.68842   0.19604586   -119.49238   -2736.3611    4.2298868    4.2298868    4.2298868   -2736.3611   -4520.1776   -647.59165   -3041.3141    1729.9821   -4355.6655    4147.6926    75.680893 
   22100    124.17469   -119.60476   0.11235587    -119.4924   -907.34081    4.2313561    4.2313561    4.2313561   -907.34081   -194.57207    4218.1237    -6745.574    405.64729    690.67187     2130.912    75.759785 
   22200    213.90114   -119.68589   0.19354224   -119.49234   -3167.1937     4.232902     4.232902     4.232902   -3167.1937    -8102.916    2643.2966   -4041.9617    473.39576     44.20275    1237.3136    75.842849 
   22300    197.54956   -119.67097   0.17874699   -119.49222    1928.1845    4.2298374    4.2298374    4.2298374    1928.1845    -568.9473    3791.5508    2561.9501    2456.1544   -1374.5255   -1701.4519    75.678238 
   22400    203.53109   -119.67605   0.18415921   -119.49189    1419.0866    4.2314311    4.2314311    4.2314311    1419.0866   -2171.1812    4947.7962    1480.6448    848.43285   -1190.7093   -429.19603    75.763813 
   22500    177.91704   -119.65309   0.16098307   -119.49211    1779.2239    4.2322601    4.2322601    4.2322601    1779.2239    589.98772   -2645.4137    7393.0978   -1073.6613    -722.3604    2313.1105    75.808352 
   22600    180.93941   -119.65564   0.16371778   -119.49192    3660.2554    4.2297235    4.2297235    4.2297235    3660.2554     3270.465   -2528.0914    10238.393    195.00442    1696.1316    1005.8725    75.672126 
   22700    275.14675   -119.74057   0.24895856   -119.49161   -2191.1589    4.2316336    4.2316336    4.2316336   -2191.1589    307.38087   -4613.1022   -2267.7554   -537.94129   -51.207977   -415.62763    75.774689 
   22800    167.00199   -119.64298   0.15110691   -119.49187   -362.35774    4.2323519    4.2323519    4.2323519   -362.35774   -2121.6339    -2051.767    3086.3276    1871.2929    407.42144   -3406.5891    75.813284 
   22900    270.55799   -119.73663   0.24480655   -119.49183   -6204.7847    4.2306503    4.2306503    4.2306503   -6204.7847   -5715.9489   -4083.5491   -8814.8561    -107.2095   -2612.4295    3261.8827     75.72188 
   23000    141.25949   -119.62016   0.12781456   -119.49234   -1100.6156    4.2318797    4.2318797    4.2318797   -1100.6156    1095.1632   -1285.2549   -3111.7552   -161.80882    3718.6664   -1058.8266    75.787913 
   23100     281.3294   -119.74631   0.25455275   -119.49175   -7514.3614    4.2325717    4.2325717    4.2325717   -7514.3614   -10150.021   -7933.9826   -4459.0809    956.57185   -493.45703    2944.4889    75.825094 
   23200    138.29155   -119.61708    0.1251291   -119.49195    3371.4165    4.2304566    4.2304566    4.2304566    3371.4165    1408.8348    3674.1214    5031.2934    462.81522    1473.8933    -4009.646    75.711481 
   23300    271.75626   -119.73787   0.24589077   -119.49198   -2471.9976     4.231689     4.231689     4.231689   -2471.9976    -5769.287   -1413.5206   -233.18524    723.30981   -855.23456    1806.8516    75.777668 
   23400    139.67493   -119.61866   0.12638081   -119.49228    5544.4336    4.2317044    4.2317044    4.2317044    5544.4336    3927.1636    1451.7389    11254.398    860.89665    1616.6445    1596.9787    75.778492 
   23500    192.21138   -119.66601    0.1739169   -119.49209     2019.522    4.2307046    4.2307046    4.2307046     2019.522    1181.9278    780.39939    4096.2389    -678.2975    2040.9466    2218.8458    75.724797 
   23600    178.55088   -119.65352   0.16155659   -119.49196     3201.998    4.2312394    4.2312394    4.2312394     3201.998    2951.7554    6057.9798    596.25886     1153.256   -1359.6316   -704.49951    75.753516 
   23700    197.70895    -119.6708   0.17889121   -119.49191     487.0051     4.231673     4.231673     4.231673     487.0051   -2264.3597    2523.3748    1202.0002    1066.9759   -1686.5951    180.77729    75.776805 
   23800    210.14523   -119.68199   0.19014382   -119.49184   -2463.5043    4.2312432    4.2312432    4.2312432   -2463.5043   -4578.9638    4143.2954   -6954.8445   -2319.4299   -2287.6768    1533.4825    75.753719 
   23900    150.28873   -119.62824    0.1359844   -119.49226   -813.22129    4.2315579    4.2315579    4.2315579   -813.22129    116.83625   -1486.5377   -1069.9625   -196.87911    974.19707    2715.6187    75.770622 
   24000    255.13947   -119.72293   0.23085556   -119.49208   -5225.7087    4.2320067    4.2320067    4.2320067   -5225.7087   -7501.1092   -7994.9052    -181.1119   -2508.1782    -1867.233    645.96466    75.794735 
   24100    167.52727   -119.64323   0.15158219   -119.49164    1061.0312    4.2314556    4.2314556    4.2314556    1061.0312   -997.87116   -3389.0773    7570.0419   -319.26928   -669.29368   -4269.7162    75.765131 
   24200    253.38787     -119.721   0.22927067   -119.49173   -2423.2521    4.2313489    4.2313489    4.2313489   -2423.2521   -4289.4911   -4198.6267    1218.3613    519.19279   -2439.3569    2328.6975    75.759399 
   24300    168.49667    -119.6444   0.15245933   -119.49195    2652.0786    4.2311226    4.2311226    4.2311226    2652.0786     3915.704   -8744.2844    12784.816   -879.18102    3141.1215   -2716.2888    75.747243 
   24400    230.89484   -119.70091    0.2089185   -119.49199     -40.0854    4.2314029    4.2314029    4.2314029     -40.0854    2804.6934   -2953.3508    28.401196    1121.1765    1907.4509    1842.0233    75.762299 
   24500    165.37352   -119.64147   0.14963344   -119.49184    1592.2657    4.2306047    4.2306047    4.2306047    1592.2657    2894.9176   -349.54614    2231.4255     2402.521    -1024.602   -3587.9415    75.719434 
   24600    224.91076   -119.69518   0.20350398   -119.49167   -936.65813    4.2315912    4.2315912    4.2315912   -936.65813    -939.5609    2043.7275    -3914.141    1510.5724   -23.816865   -1405.6668    75.772415 
   24700    204.83956   -119.67706   0.18534314   -119.49172   -1263.3149    4.2320213    4.2320213    4.2320213   -1263.3149   -3363.0859    1737.7831   -2164.6419    1624.2276   -1174.2936   -470.68573    75.795522 
   24800    167.47853   -119.64374   0.15153809    -119.4922   -286.75308    4.2306539    4.2306539    4.2306539   -286.75308   -573.30209    872.54702   -1159.5042   -624.39252    1402.8941    1233.5573    75.722075 
   24900    197.64275   -119.67132   0.17883131   -119.49249   -1406.6579    4.2317893    4.2317893    4.2317893   -1406.6579   -3467.3407   -4447.9672    3695.3341   -2720.3312   -2078.0645   -2813.1921    75.783056 
   25000    191.50132   -119.66562   0.17327442   -119.49235    723.56535    4.2317959    4.2317959    4.2317959    723.56535   -3838.2397    287.53742    5721.3983    208.55927   -3561.2659   -1310.9537    75.783408 
   25100    237.88657    -119.7071   0.21524477   -119.49186   -370.81905    4.2300844    4.2300844    4.2300844   -370.81905   -5053.3211    2073.0827    1867.7812   -2116.2026   -4877.3707   -877.28635    75.691497 
   25200     156.9632   -119.63415    0.1420236   -119.49212    1169.4657    4.2319229    4.2319229    4.2319229    1169.4657    2646.9068   -6313.2455     7174.736   -1341.7332    1498.8249   -342.08622    75.790232 
   25300    255.02044   -119.72276   0.23074785   -119.49201   -3051.1094    4.2317605    4.2317605    4.2317605   -3051.1094   -1823.6029   -3663.4993    -3666.226   -1918.9314   -1945.3044    2649.6262    75.781506 
   25400    178.68117   -119.65318   0.16167448    -119.4915    1783.2272    4.2298322    4.2298322    4.2298322    1783.2272    3607.5689   -1683.9011    3426.0138    -1067.489   -1985.8361   -3491.6337    75.677959 
   25500    247.98154   -119.71599   0.22437891   -119.49161   -3711.1459    4.2325047    4.2325047    4.2325047   -3711.1459   -3355.4574   -2843.6545   -4934.3257   -670.79227   -1263.2833    2691.1549    75.821497 
   25600    164.92344   -119.64117    0.1492262   -119.49195    1650.9389    4.2315539    4.2315539    4.2315539    1650.9389   -1525.0291    -2044.602    8522.4479     638.2101    474.16626   -1970.3847     75.77041 
   25700     227.8539   -119.69819     0.206167   -119.49202   -813.43465    4.2304277    4.2304277    4.2304277   -813.43465   -30.252895   -3900.1898    1490.1387   -1244.1485    2704.1502    1915.7205    75.709927 
   25800    151.99452   -119.62932   0.13752784   -119.49179    1405.0207    4.2324747    4.2324747    4.2324747    1405.0207   -4272.0127   -4737.6591    13224.734   -111.16026   -30.996093   -2051.2668    75.819884 
   25900    202.62691   -119.67525   0.18334109    -119.4919   -1024.7761    4.2317438    4.2317438    4.2317438   -1024.7761   -5241.3499    2988.3554   -821.33367    722.47978   -2456.7584   -1024.2534    75.780612 
   26000    187.02602    -119.6612   0.16922508   -119.49198    184.92898    4.2302844    4.2302844    4.2302844    184.92898   -4608.8421   -432.23745    5595.8665     960.5752    -984.0037   -2556.6299    75.702233 
   26100    163.22504   -119.63963   0.14768945   -119.49194    891.32095    4.2320717    4.2320717    4.2320717    891.32095    2492.8791   -2289.5859    2470.6696    461.40122    3428.5327   -329.54169    75.798229 
   26200    207.03705   -119.67905   0.18733148   -119.49171   -1065.9345    4.2311209    4.2311209    4.2311209   -1065.9345   -1652.5941   -2851.9216    1306.7123   -1197.6121    -2028.854     -819.944     75.74715 
   26300    200.04783   -119.67239   0.18100748   -119.49139    2871.2268    4.2302737    4.2302737    4.2302737    2871.2268    3579.1161    3254.2389    1780.3254    77.899144   -1926.4869   -2178.8109    75.701658 
   26400    248.61998   -119.71628   0.22495658   -119.49133   -1152.1118    4.2323413    4.2323413    4.2323413   -1152.1118   -2466.0798   -5255.3435     4265.088   -1404.9402   -3084.8179    1874.2695    75.812715 
   26500    158.59437   -119.63515   0.14349952   -119.49165    2169.3817    4.2310563    4.2310563    4.2310563    2169.3817   -1633.5772    3424.9614    4716.7609   -1061.8477    822.97518    -2777.804     75.74368 
   26600    255.00331   -119.72219   0.23073235   -119.49146   -2166.3992    4.2308236    4.2308236    4.2308236   -2166.3992    42.419393   -5835.2723   -706.34458   -2219.8096   -863.73918    3740.7083    75.731188 
   26700    196.16828   -119.66889   0.17749719   -119.49139   -1126.6909    4.2327893    4.2327893    4.2327893   -1126.6909   -4133.3154   -4392.7807    5146.0232   -1564.4866   -770.53275   -3454.0408    75.836791 
   26800    236.29929   -119.70537   0.21380857   -119.49157   -6025.2142    4.2315593    4.2315593    4.2315593   -6025.2142   -9873.2199    2001.4047   -10203.827    682.01443   -5344.5698    1835.0017      75.7707 
   26900     155.2858   -119.63301   0.14050585    -119.4925   -1815.5292    4.2308801    4.2308801    4.2308801   -1815.5292   -3263.5262   -2135.1166   -47.944905   -270.26437    1655.1424   -1462.4761    75.734218 
   27000    219.55054   -119.69073   0.19865394   -119.49208   -3200.8996    4.2325025    4.2325025    4.2325025   -3200.8996   -1308.9082    -4530.565   -3763.2256   -388.21625    2553.5456   -116.20853     75.82138 
   27100    159.49054   -119.63624   0.14431039   -119.49193    3969.6489     4.230282     4.230282     4.230282    3969.6489    679.60997    8591.6098     2637.727    1008.3195    290.22665     684.0997    75.702103 
   27200     227.0247   -119.69718   0.20541672   -119.49177    3319.3002    4.2299021    4.2299021    4.2299021    3319.3002    786.46524     9008.541    162.89431    1945.5087   -1059.3959   -668.15807    75.681714 
   27300    165.34108   -119.64188   0.14960408   -119.49227    6795.9929    4.2317643    4.2317643    4.2317643    6795.9929   -80.808979    6453.3981     14015.39    2356.4874   -555.33772   -907.74361    75.781712 
   27400    183.58545   -119.65834   0.16611197   -119.49223    2236.1432    4.2303227    4.2303227    4.2303227    2236.1432   -3264.5396    9563.0957     409.8735    804.48186    2267.2282   -1196.6265    75.704292 
   27500    169.77872   -119.64559   0.15361935   -119.49197    626.05879    4.2307437    4.2307437    4.2307437    626.05879   -3270.6672    475.22812    4673.6154    -3262.424   -697.92152   -935.42938    75.726896 
   27600    234.53468   -119.70335   0.21221191   -119.49114   -4954.2089    4.2332835    4.2332835    4.2332835   -4954.2089   -6938.6767   -3291.6297   -4632.3203    678.81133   -2664.7629   -3913.7099    75.863359 
   27700    208.22198   -119.67975   0.18840362   -119.49135   -6104.6403    4.2314578    4.2314578    4.2314578   -6104.6403   -13174.322    3106.3659   -8245.9648    -1045.386   -6541.5081     1863.599    75.765247 
   27800    180.98401   -119.65578   0.16375813   -119.49202   -4601.5103    4.2315547    4.2315547    4.2315547   -4601.5103   -6636.7244   -2477.9868   -4689.8198   -1030.5955     1304.039   -4801.6138    75.770451 
   27900    229.10328   -119.69932   0.20729746   -119.49202   -2539.0054    4.2327326    4.2327326    4.2327326   -2539.0054   -3394.4437    -3702.851   -519.72153   -2549.5489   -929.77296    2345.0723    75.833743 
   28000    223.24248   -119.69318   0.20199449   -119.49118    1940.1621    4.2299514    4.2299514    4.2299514    1940.1621    -1708.744    9667.3007   -2138.0703   -3114.7677   -3372.0405   -2448.0778    75.684356 
   28100    240.21422   -119.70887   0.21735088   -119.49151    1530.2132    4.2307784    4.2307784    4.2307784    1530.2132   -2006.2065    904.81225     5692.034    -441.8679    -2573.197    1167.4641    75.728758 
   28200    171.80514   -119.64734    0.1554529   -119.49189    4590.9717    4.2321822    4.2321822    4.2321822    4590.9717    498.68395    4348.8072    8925.4241   -991.01744    636.52086   -528.13325    75.804165 
   28300    232.27284   -119.70174   0.21016534   -119.49158    721.99223    4.2295886    4.2295886    4.2295886    721.99223    -1307.677     5423.114   -1949.4603   -1400.5186    3679.8358   -908.06932    75.664887 
   28400    183.35722   -119.65748   0.16590547   -119.49157      184.729    4.2316441    4.2316441    4.2316441      184.729   -3119.5866    1539.6051    2134.1685   -2422.8729   -658.24139    -636.1831    75.775256 
   28500      213.963   -119.68504   0.19359822   -119.49144   -4605.1989    4.2334876    4.2334876    4.2334876   -4605.1989   -8694.9529    5040.0105   -10160.654    1014.6227   -2109.7743   -1790.0362    75.874333 
   28600    182.00874   -119.65673   0.16468533   -119.49204   -3454.8099    4.2302035    4.2302035    4.2302035   -3454.8099   -10952.779    7465.6841   -6877.3351     1444.813   -2521.3264   -736.57743    75.697891 
   28700     160.3255   -119.63771   0.14506588   -119.49265   -2761.7128    4.2321783    4.2321783    4.2321783   -2761.7128   -6576.7701     2758.555   -4466.9233    2152.5809    3424.3416   -3038.8962    75.803954 
   28800    198.15763   -119.67101   0.17929718   -119.49172   -1308.2766    4.2325615    4.2325615    4.2325615   -1308.2766   -8519.8692      7202.15   -2607.1105   -795.75271   -2281.3885   -1218.2902    75.824547 
   28900    166.52537   -119.64256   0.15067566   -119.49188    6242.2669    4.2288967    4.2288967    4.2288967    6242.2669   -302.82463    21036.637    -2007.012    1658.3144   -4316.7092   -2613.4869    75.627756 
   29000    237.52909   -119.70732   0.21492131    -119.4924    1392.2102    4.2316346    4.2316346    4.2316346    1392.2102   -6839.3617    4319.1024    6696.8898   -1088.6362   -2141.4397    1253.2396    75.774743 
   29100    129.97729   -119.61004   0.11760618   -119.49243     7019.833    4.2315258    4.2315258    4.2315258     7019.833    5179.1041    13327.406    2552.9894   -320.71181    945.97434   -2000.4491      75.7689 
   29200     248.8848   -119.71665    0.2251962   -119.49145   -340.60678    4.2294464    4.2294464    4.2294464   -340.60678    -2581.858    2766.3357    -1206.298   -2926.7016    1731.0792    2349.9546    75.657253 
   29300    173.70731   -119.64862   0.15717402   -119.49145    1026.7659    4.2321809    4.2321809    4.2321809    1026.7659    3407.4308     2250.224   -2577.3569   -2739.0919    -3598.297   -2280.1082    75.804094 
   29400    237.10644   -119.70601   0.21453889   -119.49147   -5907.5225    4.2330753    4.2330753    4.2330753   -5907.5225   -9802.8586    1405.6513   -9325.3601    1656.9115   -2838.5974    427.74257    75.852164 
   29500    176.49452   -119.65164   0.15969595   -119.49194   -2797.9828    4.2301426    4.2301426    4.2301426   -2797.9828   -6484.3867    3631.0403   -5540.6021   -1176.3754   -374.98284    1400.1453    75.694624 
   29600    214.96878   -119.68631   0.19450827    -119.4918   -3440.8002    4.2323002    4.2323002    4.2323002   -3440.8002   -7230.6539   -1300.1726   -1791.5739    1114.4956    2839.1062   -2217.9585    75.810508 
   29700    222.77197   -119.69321   0.20156876   -119.49164   -3345.1519     4.232149     4.232149     4.232149   -3345.1519   -8672.8704    4193.5499   -5556.1352   -744.88113    -3010.435    1975.8193    75.802383 
   29800    174.78565   -119.64954   0.15814973   -119.49139    2015.8879    4.2296087    4.2296087    4.2296087    2015.8879   -4100.9895    6526.2603    3622.3928    2654.5872    -2626.207   -2399.8832    75.665965 
   29900    230.12056   -119.70028   0.20821792   -119.49206    209.87477    4.2315655    4.2315655    4.2315655    209.87477   -5044.0754   -3521.1809    9194.8806    2397.2029    974.96786    991.81925    75.771032 
   30000    147.22465   -119.62572   0.13321196   -119.49251    5125.0511     4.231616     4.231616     4.231616    5125.0511    4672.2358    4306.4619    6396.4555    1132.0331    4777.3701   -2234.5332    75.773744 
   30100    249.30675   -119.71769   0.22557799   -119.49211    180.80534    4.2299696    4.2299696    4.2299696    180.80534    859.49118   -2704.8047    2387.7296   -1721.8426    1348.7605   -122.15026    75.685335 
   30200    159.14778   -119.63598   0.14400025   -119.49198    2537.5789    4.2317152    4.2317152    4.2317152    2537.5789    4142.5186    1602.9559    1867.2621    1234.4084   -2759.6229   -4768.8486    75.779073 
   30300    239.88396   -119.70872   0.21705205   -119.49167   -4317.0901    4.2323681    4.2323681    4.2323681   -4317.0901   -5633.8796   -605.09066      -6712.3   -372.88394   -1042.6021    578.89342    75.814153 
   30400    146.49316   -119.62443   0.13255009   -119.49188   -1363.9915     4.230443     4.230443     4.230443   -1363.9915   -5362.7725    5791.7305   -4520.9325    1282.9296      561.073   -3543.1834    75.710747 
   30500    241.71391   -119.71025   0.21870782   -119.49154   -4224.9177    4.2322217    4.2322217    4.2322217   -4224.9177   -7515.8998   -2484.6267   -2674.2266    458.12662     1035.157    458.76405    75.806289 
   30600    211.35947   -119.68288   0.19124249   -119.49164   -570.54845    4.2316673    4.2316673    4.2316673   -570.54845   -6295.7743    11225.343    -6641.214   -2047.1608   -5979.0462   -2774.3881    75.776498 
   30700    205.67759   -119.67783   0.18610141   -119.49173   -444.36067    4.2303725    4.2303725    4.2303725   -444.36067   -8343.9841      1268.56    5742.3421    3327.0044   -3746.7501   -617.01468    75.706965 
   30800    193.87407    -119.6672   0.17542133   -119.49178    1705.2579     4.231958     4.231958     4.231958    1705.2579   -3964.8605    3891.8576    5188.7768   -863.92963    1078.3626    185.28748    75.792119 
   30900      186.255   -119.66028   0.16852744   -119.49175    2381.3324    4.2311634    4.2311634    4.2311634    2381.3324     4045.899    1689.3512     1408.747    1100.2239    3840.1841   -2315.2182    75.749432 
   31000    257.55747   -119.72447   0.23304341   -119.49143   -1083.9995    4.2305248    4.2305248    4.2305248   -1083.9995   -240.44884   -1713.4683   -1298.0814    139.04315   -280.65116    1904.3418    75.715141 
   31100    162.26788   -119.63873   0.14682338   -119.49191    390.79346    4.2320474    4.2320474    4.2320474    390.79346    4934.6873   -2108.7396   -1653.5673    1426.1852   -1355.1788   -4071.8897    75.796921 
   31200     226.5863   -119.69743   0.20502005   -119.49241   -4599.9278    4.2317041    4.2317041    4.2317041   -4599.9278   -5074.1652   -4003.2953    -4722.323    2129.9581    1071.9689    1853.0987    75.778478 
   31300    125.73827   -119.60628   0.11377063   -119.49251    1459.1361    4.2307268    4.2307268    4.2307268    1459.1361   -1623.2442     1468.395    4532.2573    2976.7976    5856.6121   -2173.7634    75.725986 
   31400    247.34811    -119.7155   0.22380577   -119.49169   -3371.2194    4.2318095    4.2318095    4.2318095   -3371.2194   -7621.3938   -6154.0301    3661.7658    32.084772    2473.1749    704.89884    75.784141 
   31500    169.13664   -119.64446   0.15303839   -119.49142    4199.5475    4.2310618    4.2310618    4.2310618    4199.5475   -2213.1053    6777.4265    8034.3213    2515.4985   -3223.7718   -3057.8905    75.743978 
   31600    196.84191   -119.67005    0.1781067   -119.49194    1132.9819    4.2304424    4.2304424    4.2304424    1132.9819   -8179.8492   -3106.0471    14684.842    1555.0219   -707.07175    854.56235    75.710719 
   31700    150.38897   -119.62891    0.1360751   -119.49283    2679.8968    4.2311181    4.2311181    4.2311181    2679.8968   -2363.2094    3049.9274    7352.9725   -411.21239    2938.3322    -3500.596    75.747002 
   31800    185.54084   -119.66046   0.16788125   -119.49258    1919.4315    4.2316271    4.2316271    4.2316271    1919.4315    3496.2458    625.69806    1636.3507   -261.25764    2863.2726   -416.47499     75.77434 
   31900     250.6628   -119.71869   0.22680497   -119.49189   -2299.6087    4.2308195    4.2308195    4.2308195   -2299.6087   -1760.5113   -6088.2258    949.91098   -2446.7706   -2549.6723     -1524.02    75.730964 
   32000     175.6944    -119.6506   0.15897198   -119.49162    213.71689    4.2318986    4.2318986    4.2318986    213.71689    4621.5903   -1860.4849   -2119.9547     540.9691   -5203.1503   -5503.2567    75.788927 
   32100    229.97548   -119.69988   0.20808665   -119.49179   -4781.2629    4.2323998    4.2323998    4.2323998   -4781.2629   -7089.7419   -5627.7759   -1626.2707   -1190.7814    87.412754     3328.862    75.815856 
   32200    148.76047   -119.62661    0.1346016     -119.492    812.86155     4.230396     4.230396     4.230396    812.86155    834.89788   -2532.7695    4136.4563   -1869.5428    2679.9018   -4632.6896    75.708225 
   32300    266.99013     -119.733   0.24157828   -119.49142   -2796.0251    4.2313758    4.2313758    4.2313758   -2796.0251   -3734.6753   -2245.7355   -2407.6644    -402.4995    3.6085235    2306.4029    75.760844 
   32400    211.45104   -119.68267   0.19132535   -119.49135   -29.604932    4.2321479    4.2321479    4.2321479   -29.604932   -2777.7379   -290.24857    2979.1717    775.11529   -2325.3123   -2463.7748    75.802322 
   32500    215.08812   -119.68619   0.19461625   -119.49158    423.12695    4.2300412    4.2300412    4.2300412    423.12695   -3838.8416    2150.0948    2958.1276     1512.574    1333.8347     1912.722    75.689176 
   32600    176.77738   -119.65188   0.15995188   -119.49193   -1538.6822    4.2318356    4.2318356    4.2318356   -1538.6822   -2428.6473   -565.23598   -1622.1633    563.37631    5751.8577   -2368.0499    75.785543 
   32700    189.80178    -119.6633   0.17173664   -119.49156    446.66333    4.2324663    4.2324663    4.2324663    446.66333   -379.00657    8634.0081   -6915.0115    686.22978    5141.7126    834.35761     75.81943 
   32800    268.46175   -119.73434   0.24290983   -119.49143   -1974.2223    4.2303621    4.2303621    4.2303621   -1974.2223    552.89761   -6699.6269    224.06245    1374.6716    -1477.044   -4311.5637    75.706404 
   32900    168.09605   -119.64436   0.15209684   -119.49226     104.4082    4.2317552    4.2317552    4.2317552     104.4082    2253.0041    3051.4561   -4991.2356    2042.1579   -1529.8426   -731.28104    75.781225 
   33000    202.74575   -119.67572   0.18344862   -119.49228   -1863.6916    4.2323336    4.2323336    4.2323336   -1863.6916   -5682.8994   -4223.1271    4314.9516   -724.95513    2624.8745   -214.45604    75.812299 
   33100    144.86588   -119.62348   0.13107769    -119.4924    1951.8021    4.2299978    4.2299978    4.2299978    1951.8021   -625.71975    1755.4801    4725.6461    676.41624    2581.3585   -2270.5099    75.686848 
   33200    245.43905   -119.71358   0.22207841   -119.49151   -81.337168    4.2311911    4.2311911    4.2311911   -81.337168   -726.00611   -4222.0249    4704.0195   -1654.3488   -1962.4912     3508.244    75.750919 
   33300    197.02282   -119.66965   0.17827038   -119.49138    1514.1237    4.2315304    4.2315304    4.2315304    1514.1237    -5557.564    4310.1478    5789.7873       1495.9   -4364.8042   -3971.0837    75.769145 
   33400    186.95109   -119.66125   0.16915727   -119.49209    753.55006    4.2295549    4.2295549    4.2295549    753.55006   -3943.8225    1111.5117     5092.961     139.2281   -540.84767    4515.5918     75.66308 
   33500    158.73324   -119.63618   0.14362517   -119.49255    866.15722    4.2313923    4.2313923    4.2313923    866.15722   -1250.4738    6278.9307   -2429.9853   -1887.4986    4415.6726   -1753.1087    75.761728 
   33600     187.7168   -119.66188   0.16985011   -119.49203   -32.199612    4.2319929    4.2319929    4.2319929   -32.199612   -1532.2663    5875.2022   -4439.5347    337.42119     1732.865    1741.5374    75.793991 
   33700    267.59213   -119.73362   0.24212298    -119.4915   -669.68704    4.2307321    4.2307321    4.2307321   -669.68704    1078.5513   -2176.1576    -911.4548    336.72115   -2113.3569   -1162.3401    75.726272 
   33800    160.85653    -119.6377   0.14554637   -119.49215     1180.189    4.2323877    4.2323877    4.2323877     1180.189    6354.1984    1842.3764   -4656.0077    1084.2455    26.924157    1606.1758    75.815208 
   33900    199.31739   -119.67236   0.18034656   -119.49201   -2893.1786     4.232341     4.232341     4.232341   -2893.1786   -4945.9507   -4717.4269    983.84178    1584.1196    5599.1642   -1304.0664    75.812696 
   34000    162.76575   -119.63887   0.14727387   -119.49159     1607.474    4.2300063    4.2300063    4.2300063     1607.474    3982.0825    5206.3747   -4366.0352    1917.2691    5378.9646    2305.8001    75.687303 
   34100    291.30984   -119.75453   0.26358326   -119.49095   -5227.0291    4.2323884    4.2323884    4.2323884   -5227.0291   -3424.0081   -8789.4018   -3467.6774    1312.8875      490.068   -132.36296    75.815246 
   34200    191.22038   -119.66403   0.17302022   -119.49101    260.73961    4.2312417    4.2312417    4.2312417    260.73961   -4756.0914    6788.7691   -1250.4589     5208.466   -965.40047   -1357.7996    75.753641 
   34300    207.95014   -119.68021   0.18815765   -119.49205   -3179.1677    4.2300904    4.2300904    4.2300904   -3179.1677   -7954.7458   -2031.3056    448.54829   -1504.9262    3366.8124    3261.2551    75.691821 
   34400    168.53946   -119.64495   0.15249805   -119.49245    605.48874    4.2325057    4.2325057    4.2325057    605.48874    -2145.498    7976.9699   -4015.0056    2022.3093    4657.3108   -3194.1033    75.821549 
   34500    218.35841   -119.68899   0.19757527   -119.49141    486.33335    4.2314386    4.2314386    4.2314386    486.33335   -2204.5197    842.14297    2821.3768   -901.11863   -301.37946     4129.466    75.764215 
   34600     225.5134   -119.69527   0.20404926   -119.49122    1538.9963    4.2304765    4.2304765    4.2304765    1538.9963   -417.03053    2076.3524    2957.6668    601.84158   -3673.0934   -4163.2832    75.712546 
   34700    174.89117   -119.65026    0.1582452   -119.49202     1933.033    4.2330353    4.2330353    4.2330353     1933.033    5002.1674   -987.34026     1784.272   -408.24095   -401.69035    2118.6298    75.850017 
   34800    153.57468   -119.63159    0.1389576   -119.49263    25.698285    4.2314601    4.2314601    4.2314601    25.698285   -3967.2301   -1039.5964    5083.9214   -1792.1448    4210.1302   -883.34097    75.765372 
   34900    161.20104   -119.63807   0.14585809   -119.49221    1483.6056    4.2301932    4.2301932    4.2301932    1483.6056    7044.9901   -758.37151   -1835.8017   -967.90439    2567.8665    1553.1227     75.69734 
   35000    247.82818   -119.71563   0.22424015   -119.49139   -2307.8987    4.2326626    4.2326626    4.2326626   -2307.8987   -832.62284   -6265.9081    174.83485   -149.72375   -1919.3672   -552.87236     75.82998 
   35100    200.46065   -119.67282   0.18138101   -119.49144   -613.65007    4.2304103    4.2304103    4.2304103   -613.65007    -1137.239   -184.45425   -519.25696    1121.2224    137.42646    665.74746    75.708994 
   35200    168.63716   -119.64431   0.15258644   -119.49172    20.096107    4.2297275    4.2297275    4.2297275    20.096107   -1569.9195    951.66306    678.54477   -2328.9137    5667.0874     229.6127    75.672338 
[...]
   91200    262.34833    -119.7293   0.23737828   -119.49192     388.8197    4.2293646    4.2293646    4.2293646     388.8197    5603.7614   -3050.5593    -1386.743    815.19988    61.972806     106.3515    75.652864 
   91300    161.72544   -119.63861   0.14633258   -119.49228    2687.0275    4.2296154    4.2296154    4.2296154    2687.0275    8715.1043    1218.8944   -1872.9162   -385.87815    214.13188   -1663.0638    75.666324 
   91400    177.08617   -119.65236   0.16023129   -119.49213   -1061.4843    4.2341086    4.2341086    4.2341086   -1061.4843   -4467.3446   -4241.0692    5523.9611    672.46875   -2212.6191   -3504.3997    75.907723 
   91500    208.69282   -119.68075   0.18882965   -119.49192    1281.8079    4.2284082    4.2284082    4.2284082    1281.8079    2977.0912    6814.4484   -5946.1159    -474.9886   -3255.7914    194.49722    75.601555 
   91600    251.75509   -119.71924    0.2277933   -119.49144     972.8838    4.2297372    4.2297372    4.2297372     972.8838    1818.2809     882.6695    217.70101   -877.03383   -2974.8613    942.44307    75.672858 
   91700    179.41419   -119.65445   0.16233773   -119.49212   -1690.5052    4.2346344    4.2346344    4.2346344   -1690.5052    8323.5778   -4430.6078   -8964.4855   -1041.5918      576.075   -2370.3861     75.93601 
   91800    197.61904    -119.6714   0.17880986    -119.4926   -2372.1303    4.2298313    4.2298313    4.2298313   -2372.1303    6914.6255   -6217.0974   -7813.9192    -98.09671   -774.45939   -5703.4015    75.677913 
   91900    182.96071   -119.65818    0.1655467   -119.49263   -756.42703    4.2310197    4.2310197    4.2310197   -756.42703    12295.964    -4821.582   -9743.6627    944.43224     468.6664    -3399.521    75.741717 
   92000    273.65505   -119.73898   0.24760884   -119.49137   -7375.1452    4.2352195    4.2352195    4.2352195   -7375.1452    -4854.768   -11053.275   -6217.3929   -523.13828    -255.0935    1565.1599    75.967491 
   92100     194.5158   -119.66789   0.17600198   -119.49189   -419.68696    4.2295257    4.2295257    4.2295257   -419.68696    6075.6538   -1533.9366    -5800.778    2376.1786     1648.911   -2395.3798    75.661509 
   92200    227.90535   -119.69925   0.20621355   -119.49303   -3247.7516    4.2306008    4.2306008    4.2306008   -3247.7516   -1050.6601   -6363.5836   -2329.0112    576.58363    1416.0411   -3387.2643    75.719219 
   92300    139.54614   -119.61895   0.12626428   -119.49268    2217.8622    4.2337947    4.2337947    4.2337947    2217.8622    4549.7133   -2216.2407    4320.1138    4275.1737    823.02303   -1799.4415    75.890846 
   92400    258.78684    -119.7254   0.23415577   -119.49124    1017.0501    4.2283972    4.2283972    4.2283972    1017.0501    2934.5502    3307.1628   -3190.5627     2805.701   -1419.2294    2258.9888    75.600962 
   92500    223.32609   -119.69381   0.20207014   -119.49174    4431.2413    4.2310036    4.2310036    4.2310036    4431.2413    12164.716     3435.723   -2306.7148    974.45559    347.03348    193.19389    75.740854 
   92600    159.38166    -119.6366   0.14421187   -119.49239    2168.7681    4.2334504    4.2334504    4.2334504    2168.7681    10455.859    920.91365   -4870.4681    172.44907   -733.27065   -1980.8158    75.872329 
   92700    153.29772   -119.63137     0.138707   -119.49266   -116.02993    4.2287041    4.2287041    4.2287041   -116.02993    10587.828   -3494.6414   -7441.2767    1363.8423    460.48021   -5208.7087    75.617428 
   92800    179.51294   -119.65487   0.16242708   -119.49245   -5.0912139    4.2325801    4.2325801    4.2325801   -5.0912139    9273.2501   -932.26421   -8356.2595   -2613.4374    -1950.362    -1039.077    75.825548 
   92900    243.16012   -119.71212   0.22001639    -119.4921   -5098.0884    4.2341191    4.2341191    4.2341191   -5098.0884   -2665.7681   -3482.8777   -9145.6194    -1942.231   -1066.7449    1140.0384    75.908292 
   93000    139.59541   -119.61808   0.12630886   -119.49177    844.52264    4.2287978    4.2287978    4.2287978    844.52264    12954.704   -2105.0493   -8316.0864   -3783.0343   -1560.9375   -5660.6388    75.622452 
   93100    221.59824   -119.69284   0.20050674   -119.49233   -2512.7556    4.2334036    4.2334036    4.2334036   -2512.7556    670.27626   -430.09128   -7778.4516   -2212.8506   -5.8116493    -2788.486    75.869814 
   93200    158.29378   -119.63533   0.14322754    -119.4921    2644.2908    4.2325043    4.2325043    4.2325043    2644.2908    11307.707   -4334.4362    959.60205    682.17857     -1112.54   -736.32698    75.821472 
   93300    250.28422   -119.71744   0.22646242   -119.49097    1675.4204    4.2281459    4.2281459    4.2281459    1675.4204    2559.3081    1728.2636    738.68948    2045.0602   -2084.2011    1303.6068    75.587483 
   93400    208.05667    -119.6798   0.18825405   -119.49154    1838.4401    4.2327864    4.2327864    4.2327864    1838.4401     11883.77   -317.22873   -6051.2211    1665.2902    1576.6444   -1074.5278    75.836634 
   93500    215.97376   -119.68709   0.19541759   -119.49167   -508.94822    4.2323452    4.2323452    4.2323452   -508.94822   -1031.3111   -1369.4922    873.95858    3108.0619   -103.55641   -2488.4461    75.812924 
   93600    165.42282   -119.64117   0.14967804    -119.4915    -353.1554    4.2285237    4.2285237    4.2285237    -353.1554    5407.5557    -269.2632   -6197.7587    4179.1359     2625.948   -2737.2251    75.607749 
   93700    225.34057   -119.69547   0.20389288   -119.49158   -4355.8947    4.2340955    4.2340955    4.2340955   -4355.8947   -4676.9455   -3220.1679   -5170.5708    2917.7938   -219.47218    1620.5903    75.907021 
   93800    238.18079   -119.70714   0.21551098   -119.49163    -2635.761    4.2325516    4.2325516    4.2325516    -2635.761    1364.6796    201.91474   -9473.8772    1607.9717    1335.6157   -1167.3472    75.824014 
   93900    186.98689   -119.66125   0.16918967   -119.49206   -1379.3094    4.2289065    4.2289065    4.2289065   -1379.3094    3581.8756    -938.2389    -6781.565   -1278.4028    508.23296   -4596.1395    75.628282 
   94000    177.57118   -119.65317   0.16067014    -119.4925   -385.38434    4.2337326    4.2337326    4.2337326   -385.38434    5814.4001    1714.0301   -8684.5833    175.52524    1856.7475   -1857.8937    75.887507 
   94100    226.39728   -119.69699   0.20484901   -119.49214    328.83301    4.2315739    4.2315739    4.2315739    328.83301    -587.7238   -1153.3095    2727.5324    -1472.803   -307.10369    889.30928    75.771486 
   94200    211.91608    -119.6832   0.19174612   -119.49145    1899.1838    4.2286267    4.2286267    4.2286267    1899.1838    4958.8935    2076.7827   -1338.1248    668.65062    1054.3754    2015.2195    75.613275 
   94300    205.67426   -119.67772   0.18609839   -119.49162   -710.37272    4.2331323    4.2331323    4.2331323   -710.37272    3919.8459   -690.91848   -5360.0456   -4360.3798    1779.8996   -858.17663    75.855231 
   94400    189.98233   -119.66387       0.1719   -119.49197   -534.08535    4.2310016    4.2310016    4.2310016   -534.08535     2322.526   -5179.0971    1254.3151    223.59635   -820.85612    384.09869    75.740745 
   94500    199.27555   -119.67227    0.1803087   -119.49196    733.61757    4.2287645    4.2287645    4.2287645    733.61757    5854.1271    1093.8931   -4747.1675    81.952622    3226.3624    980.21758    75.620667 
   94600    182.58296   -119.65716    0.1652049   -119.49196   -1368.6609     4.233847     4.233847     4.233847   -1368.6609    7662.9787    -8085.107   -3683.8544    816.18126   -2847.0862    1969.4154    75.893655 
   94700    213.05603   -119.68506   0.19277758   -119.49228    598.80077    4.2314009    4.2314009    4.2314009    598.80077    9639.2726   -1324.5374   -6518.3329   -634.73395    1900.6383   -585.95819     75.76219 
   94800    192.05016   -119.66629   0.17377102   -119.49252    1397.3346    4.2301785    4.2301785    4.2301785    1397.3346    12672.669   -546.86896   -7933.7958    1159.5511   -1456.6913   -3708.3097     75.69655 
   94900    147.79918   -119.62612    0.1337318   -119.49239    22.360766    4.2337977    4.2337977    4.2337977    22.360766    10997.475   -4922.7218    -6007.671    1597.1581    964.18102   -2572.3808    75.891006 
   95000    211.98308   -119.68355   0.19180674   -119.49175   -283.76701    4.2311703    4.2311703    4.2311703   -283.76701    218.78732    -5780.402    4710.3136     4255.693   -1428.6276    702.11639    75.749803 
   95100    177.39782   -119.65223   0.16051328   -119.49171    2262.3891    4.2296865    4.2296865    4.2296865    2262.3891    10866.509    475.10606   -4554.4479    2827.8434    2287.1139   -2966.5021     75.67014 
   95200    206.25472   -119.67836   0.18662361   -119.49174   -1490.8363    4.2330016    4.2330016    4.2330016   -1490.8363     5073.221   -6106.5785   -3439.1514   -1355.6749   -824.58287   -2873.8679    75.848202 
   95300    144.72109   -119.62284   0.13094669    -119.4919    2541.1534    4.2305646    4.2305646    4.2305646    2541.1534    7497.9267    -826.2896    951.82323    2313.5217    1362.4279   -956.82921    75.717277 
   95400    255.48456    -119.7227    0.2311678   -119.49153   -1553.3082    4.2302212    4.2302212    4.2302212   -1553.3082    3506.9534   -1865.4141   -6301.4638   -604.87113    1275.5651    -675.8146    75.698842 
   95500    166.39263   -119.64263   0.15055555   -119.49208    1787.6601     4.232846     4.232846     4.232846    1787.6601    9307.3167   -625.04815   -3319.2883     414.8912   -2193.1363    1255.9049    75.839841 
   95600    232.65045   -119.70197   0.21050702   -119.49147   -3068.9359    4.2311817    4.2311817    4.2311817   -3068.9359   -3642.5117    -1513.241   -4051.0549   -4170.4184    2172.1774   -2368.3284    75.750416 
   95700    205.79953   -119.67773   0.18621174   -119.49152    573.17593    4.2306572    4.2306572    4.2306572    573.17593    5366.9483    4622.6457   -8270.0662   -69.604427   -2757.7656   -2513.8473    75.722249 
   95800    248.00318   -119.71595   0.22439849   -119.49155   -4402.3532    4.2335657    4.2335657    4.2335657   -4402.3532   -8721.4944   -1325.5952   -3159.9701    114.32991    865.68033     112.3761     75.87853 
   95900    194.63971   -119.66765    0.1761141   -119.49154   -3080.4909    4.2316813    4.2316813    4.2316813   -3080.4909   -4444.1995   -6931.6408    2134.3674    3600.9477   -1505.2011    814.68673    75.777252 
   96000    227.23643   -119.69728    0.2056083   -119.49167   -2037.9876    4.2310345    4.2310345    4.2310345   -2037.9876    946.62002   -230.65065    -6829.932    1770.9539    1460.0982   -2678.3783     75.74251 
   96100    210.39063   -119.68216   0.19036587   -119.49179     -1687.65    4.2329175    4.2329175    4.2329175     -1687.65    4246.0937   -6215.0584   -3093.9853    376.15182   -2306.5814   -1280.8166    75.843685 
   96200      188.685   -119.66216   0.17072615   -119.49144    1007.1137    4.2302871    4.2302871    4.2302871    1007.1137     2029.018   -460.06926    1452.3923    2850.3695    1245.2879   -573.60895    75.702381 
   96300    208.58406   -119.68033   0.18873124    -119.4916    1428.7459    4.2302251    4.2302251    4.2302251    1428.7459    10105.738   -1306.8996   -4512.6004      2725.05   -2253.4662    780.07667     75.69905 
   96400    199.24743   -119.67257   0.18028326   -119.49229     738.7761    4.2318688    4.2318688    4.2318688     738.7761    3635.8153    2799.5005   -4218.9875    407.24485   -715.53593   -362.12127    75.787325 
   96500    174.16719   -119.65003   0.15759013   -119.49244    802.44048    4.2305764    4.2305764    4.2305764    802.44048    4726.2106    1742.4679    -4061.357   -3529.6957    90.720401   -3276.5959    75.717913 
   96600    165.98956   -119.64253   0.15019084   -119.49234    371.35782    4.2308788    4.2308788    4.2308788    371.35782    4486.6125    6625.2926   -9997.8316    560.73715   -3913.3573   -1112.6751     75.73415 
   96700    221.24444   -119.69243   0.20018662   -119.49225   -643.32993    4.2326188    4.2326188    4.2326188   -643.32993   -670.47577     1032.927   -2292.4411   -802.00206    1428.3049   -1351.4681    75.827626 
   96800    170.15272   -119.64604   0.15395776   -119.49209   -96.639078    4.2316229    4.2316229    4.2316229   -96.639078    3780.3937   -3595.7041   -474.60676    5430.5448    -1070.912   -113.54506    75.774116 
   96900    169.22121   -119.64525   0.15311491   -119.49213    610.10999    4.2307052    4.2307052    4.2307052    610.10999    12386.639   -4681.2279    -5875.081   -1175.4272    1551.7304    -2558.129    75.724827 
   97000    191.33718    -119.6655    0.1731259   -119.49238    1846.4916    4.2318824    4.2318824    4.2318824    1846.4916    9514.0367    -2833.938   -1140.6238    1939.6662   -981.98847   -1672.5727    75.788055 
   97100    214.24908   -119.68587   0.19385707   -119.49201    986.70001    4.2310049    4.2310049    4.2310049    986.70001    2738.8197   -2343.3254    2564.6057   -66.379924    1621.1173    1530.6694    75.740922 
   97200    201.74784   -119.67413   0.18254569   -119.49159    782.10092    4.2302471    4.2302471    4.2302471    782.10092    6562.8034     409.5272   -4626.0279    4933.2214   -2821.9037    1745.8653    75.700232 
   97300    197.76083   -119.67071   0.17893815   -119.49177   -1338.4673    4.2321176    4.2321176    4.2321176   -1338.4673   -7591.1063    2333.1584    1242.5459   -2060.5999    2084.8008    375.11247    75.800696 
   97400    224.83101   -119.69517   0.20343183   -119.49174   -3062.6374    4.2317725    4.2317725    4.2317725   -3062.6374   -5280.4636    4463.7311   -8371.1798    -41.68956   -3033.7755    1225.3383    75.782151 
   97500    194.95119    -119.6679   0.17639594   -119.49151   -1972.6433    4.2309852    4.2309852    4.2309852   -1972.6433   -7825.4971    7007.3936   -5099.8262   -2231.8623   -2445.6643    1141.1037    75.739862 
   97600    256.66139   -119.72373   0.23223262    -119.4915   -4106.6012    4.2326537    4.2326537    4.2326537   -4106.6012   -6463.2815   -3243.1578   -2613.3644    1054.0545     59.37017    1507.8611    75.829504 
   97700    205.90965   -119.67832   0.18631137     -119.492   -101.47954    4.2317863    4.2317863    4.2317863   -101.47954   -2362.0955    187.31717    1870.3397     1005.445   -2218.6699    1391.5308    75.782895 
   97800    191.06217   -119.66495   0.17287707   -119.49207   -1512.5548    4.2310892    4.2310892    4.2310892   -1512.5548    9413.0272   -6935.5466   -7015.1451   -2375.4038    867.04276   -3417.0291    75.745448 
   97900    179.26223   -119.65417   0.16220023   -119.49197    1210.3938    4.2323355    4.2323355    4.2323355    1210.3938   -2026.5804   -1370.6807    7028.4427   -1152.5734   -2726.9842   -941.23256    75.812404 
   98000    250.42333   -119.71818   0.22658829   -119.49159    193.26867    4.2308971    4.2308971    4.2308971    193.26867      3965.55   -1325.1394   -2060.6046   -1638.7144   -456.59478   -933.01552    75.735134 
   98100    190.07776   -119.66411   0.17198636   -119.49212    1151.1825     4.230124     4.230124     4.230124    1151.1825    418.32688    4273.7648    -1238.544    2644.5404   -2319.2394   -2736.3325    75.693623 
   98200    156.84388   -119.63481   0.14191564   -119.49289    622.31974    4.2314102    4.2314102    4.2314102    622.31974   -1091.2084    3008.9662   -50.798489    -2009.982    1689.3673   -2269.4048    75.762691 
   98300    185.14276   -119.66031   0.16752106   -119.49279   -162.35789    4.2305708    4.2305708    4.2305708   -162.35789   -372.31857    8031.0518   -8145.8069    1541.6555   -4552.1365    -2643.684    75.717613 
   98400    202.53711   -119.67535   0.18325984   -119.49209    493.59238    4.2307721    4.2307721    4.2307721    493.59238    1595.3884    5264.6515   -5379.2628    -599.9003    311.77298   -961.49733    75.728421 
   98500    195.70723   -119.66905   0.17708001   -119.49197   -1451.1568    4.2327118    4.2327118    4.2327118   -1451.1568   -867.37514   -5460.6945    1974.5993    5171.3488   -1523.6187    657.37736    75.832628 
   98600    172.50266   -119.64844   0.15608403   -119.49235     1049.838    4.2314602    4.2314602    4.2314602     1049.838    5270.1521   -2574.8425    454.20451    879.07918    2039.2606   -2305.2356    75.765378 
   98700    193.34027   -119.66737   0.17493834   -119.49243    147.12743    4.2313538    4.2313538    4.2313538    147.12743    8180.3173   -5962.7412   -1776.1938    592.37758   -367.74623   -1342.6018    75.759661 
   98800    178.28918   -119.65324   0.16131979   -119.49192    684.22078    4.2320415    4.2320415    4.2320415    684.22078   -6483.1008   -2872.2849    11408.048   -3387.1984   -1454.0785    1159.3393    75.796606 
   98900    259.36281   -119.72598   0.23467692   -119.49131   -548.32752    4.2307935    4.2307935    4.2307935   -548.32752    1127.3715    473.17682   -3245.5309    84.770896   -1216.0211   -29.309487    75.729568 
   99000     204.6853   -119.67692   0.18520356   -119.49172   -512.62025    4.2309053    4.2309053    4.2309053   -512.62025   -9736.5681    5983.9483     2214.759   -2135.9101   -1468.3569    401.36191    75.735574 
   99100    207.78575   -119.67969   0.18800891   -119.49168   -2729.6022     4.232027     4.232027     4.232027   -2729.6022   -5973.9777    2318.6178   -4533.4467   -2051.7142   -184.43508   -1668.4613    75.795828 
   99200    185.41166   -119.65971   0.16776436   -119.49194   -1306.9243    4.2308889    4.2308889    4.2308889   -1306.9243   -8459.6753    11153.122   -6614.2199   -2665.3429   -3939.6787   -1364.1079    75.734694 
   99300    263.46585   -119.72998   0.23838944   -119.49159   -3168.6756    4.2314289    4.2314289    4.2314289   -3168.6756   -1581.6474   -662.66819   -7261.7113   -434.73836   -737.57561   -6.0609015    75.763692 
   99400    192.11115   -119.66557   0.17382621   -119.49175   -351.09425    4.2320712    4.2320712    4.2320712   -351.09425   -3501.2043    -774.1482    3222.0697     3553.578   -1520.9719   -2682.4609      75.7982 
   99500    176.18674   -119.65176   0.15941746   -119.49234    -668.3776    4.2311775    4.2311775    4.2311775    -668.3776    11504.948   -7172.2609   -6337.8201    -64.34454    2167.0697   -2749.1916     75.75019 
   99600    181.94554   -119.65723   0.16462815    -119.4926    1130.5517    4.2317065    4.2317065    4.2317065    1130.5517    4400.7659   -2345.0664    1335.9557    1675.7838    -2044.608   -2918.8351    75.778605 
   99700    190.53319   -119.66463   0.17239843   -119.49223    1229.9417    4.2319871    4.2319871    4.2319871    1229.9417    901.08625   -1612.1964    4400.9353   -1465.9042    520.55776   -674.01816    75.793683 
   99800    196.31019   -119.66942   0.17762559    -119.4918    1781.0021    4.2308232    4.2308232    4.2308232    1781.0021    1441.4346    7442.2882   -3540.7164    5211.1199   -2278.5718    350.92809    75.731165 
   99900    180.62496   -119.65539   0.16343326   -119.49195    2530.9742    4.2308338    4.2308338    4.2308338    2530.9742   -4077.6133    7282.1343    4388.4017   -196.19615    1274.6068   -325.33195    75.731736 
  100000    188.02657   -119.66239   0.17013039   -119.49226   -968.09579    4.2315474    4.2315474    4.2315474   -968.09579   -4902.7291    7717.4635   -5719.0218    3418.4369   -975.31169   -240.03937     75.77006 
Loop time of 222.624 on 1 procs for 100000 steps with 8 atoms

Pair  time (%) = 74.1915 (33.3259)
Kspce time (%) = 58.2878 (26.1822)
Neigh time (%) = 0 (0)
Comm  time (%) = 9.88983 (4.44239)
Outpt time (%) = 0.348747 (0.156653)
Other time (%) = 79.9063 (35.8929)

Nlocal:    8 ave 8 max 8 min
Histogram: 1 0 0 0 0 0 0 0 0 0
Nghost:    2189 ave 2189 max 2189 min
Histogram: 1 0 0 0 0 0 0 0 0 0
Neighs:    2472 ave 2472 max 2472 min
Histogram: 1 0 0 0 0 0 0 0 0 0

Total # of neighbors = 2472
Ave neighs/atom = 309
Neighbor list builds = 0
Dangerous builds = 0
seeds:1261364
