# ['Ni']

10 atoms
1 atom types

    0.0000     3.5906 xlo xhi
    0.0000     2.5703 ylo yhi
    0.0000    25.7033 zlo zhi

    0.0000     0.0000     0.0000 xy xz yz

Atoms

1 1     0.0000     0.0000     0.0000
2 1     1.7953     1.2852     1.2852
3 1     0.0000     0.0000     2.5703
4 1     1.7953     1.2852     3.8555
5 1     0.0000     0.0000     5.1407
6 1     1.7953     1.2852     6.4258
7 1     0.0000     0.0000     7.7110
8 1     1.7953     1.2852     8.9962
9 1     0.0000     0.0000    10.2813
10 1     1.7953     1.2852    11.5665
