LAMMPS (11 Aug 2017)
# ---- initialize simulations
clear
units metal
dimension 3
boundary p p p
atom_style atomic
atom_modify map array
# ---- create atoms
read_data /ufrc/phillpot/eragasa/pareto_optimization_3.5NN/rank_50/Ni_dia.lmps_min_all/lammps.structure
  triclinic box = (0 0 0) to (4.8791 4.8791 4.8791) with tilt (0 0 0)
  1 by 1 by 1 MPI processor grid
  reading atoms ...
  8 atoms
# ---- define interatomic potential
include potential.mod
mass 1 58.6934

group Ni type 1
8 atoms in group Ni

pair_style eam/alloy
pair_coeff * * /ufrc/phillpot/eragasa/pareto_optimization_3.5NN/rank_50/Ni_dia.lmps_min_all/Ni.eam.alloy Ni

neighbor 1.0 bin
neigh_modify every 1 delay 0 check yes
# ---- define settings
compute eng all pe/atom
compute eatoms all reduce sum c_eng
# ---- run minimization
reset_timestep 0
fix 1 all box/relax aniso 0.0 vmax 0.001
thermo 10
thermo_style custom step pe xhi xlo yhi ylo zhi xy xz yz press pxx pyy pzz pxy pxz pyz c_eatoms
min_style cg
minimize 1e-25 1e-25 5000 10000
Neighbor list info ...
  update every 1 steps, delay 0 steps, check yes
  max neighbors/atom: 2000, page size: 100000
  master list distance cutoff = 5.64464
  ghost atom cutoff = 5.64464
  binsize = 2.82232, bins = 2 2 2
  1 neighbor lists, perpetual/occasional/extra = 1 0 0
  (1) pair eam/alloy, perpetual
      attributes: half, newton on
      pair build: half/bin/newton/tri
      stencil: half/bin/3d/newton/tri
      bin: standard
Per MPI rank memory allocation (min/avg/max) = 4.21 | 4.21 | 4.21 Mbytes
Step PotEng Xhi Xlo Yhi Ylo Zhi Xy Xz Yz Press Pxx Pyy Pzz Pxy Pxz Pyz c_eatoms 
       0   -10.684479       4.8791            0       4.8791            0       4.8791            0            0            0    189190.34    189190.34    189190.34    189190.34   -23.758777   -23.758777   -23.758777   -10.684479 
      10   -11.062695    4.9034955   -0.0243955    4.9034955   -0.0243955    4.9034955            0            0            0    156003.88    156003.88    156003.88    156003.88   -20.880172   -20.880172   -20.880172   -11.062695 
      20   -11.378856     4.927891    -0.048791     4.927891    -0.048791     4.927891            0            0            0    126948.86    126948.86    126948.86    126948.86   -18.301547   -18.301547   -18.301547   -11.378856 
      30   -11.639168    4.9522865   -0.0731865    4.9522865   -0.0731865    4.9522865            0            0            0    101554.37    101554.37    101554.37    101554.37   -15.990012   -15.990012   -15.990012   -11.639168 
      40   -11.849288     4.976682    -0.097582     4.976682    -0.097582     4.976682            0            0            0    79403.015    79403.015    79403.015    79403.015   -13.915147   -13.915147   -13.915147   -11.849288 
      50    -12.01437    5.0010775   -0.1219775    5.0010775   -0.1219775    5.0010775            0            0            0    60124.753    60124.753    60124.753    60124.753   -12.048057   -12.048057   -12.048057    -12.01437 
      60   -12.139113     5.025473    -0.146373     5.025473    -0.146373     5.025473            0            0            0    43391.399    43391.399    43391.399    43391.399   -10.359617   -10.359617   -10.359617   -12.139113 
      70     -12.2278    5.0498685   -0.1707685    5.0498685   -0.1707685    5.0498685            0            0            0    28911.834    28911.834    28911.834    28911.834   -8.8163235   -8.8163235   -8.8163235     -12.2278 
      80   -12.284335     5.074264    -0.195164     5.074264    -0.195164     5.074264            0            0            0    16427.759    16427.759    16427.759    16427.759   -7.3664807   -7.3664807   -7.3664807   -12.284335 
      90   -12.312279    5.0986595   -0.2195595    5.0986595   -0.2195595    5.0986595            0            0            0    5709.9463    5709.9463    5709.9463    5709.9463   -5.8566624   -5.8566624   -5.8566624   -12.312279 
     100   -12.316684    5.1134091  -0.23430915    5.1134091  -0.23430915    5.1134091            0            0            0 0.00022685428 0.00022685421 0.00022685424 0.0002268544 -0.079421725 -0.079421725 -0.079421725   -12.316684 
     110   -12.316684    5.1134091  -0.23430915    5.1134091  -0.23430915    5.1134091            0            0            0 -0.00022202275 -0.00022370549 -0.00022298048 -0.00021938229 0.0005750593 0.0005750579 0.00057505984   -12.316684 
     120   -12.355807    5.0938595  -0.21475948    5.0940298   -0.2149298    5.0948751            0            0            0    4975.0199    4950.7747    4961.2162    5013.0688    1906.2247    1905.9342    1905.8823   -12.355807 
     130   -12.449913    5.0928436  -0.21374358    5.0941213  -0.21502128    5.1004691            0            0            0   -795.64033   -955.42808   -886.87404   -544.61887    1740.0149    1751.1782    1753.4551   -12.449913 
     140   -12.515003    5.0684481  -0.18934808    5.0757498   -0.1966498    5.1123018            0            0            0   -304.70049   -1217.1499   -831.48523    1134.5336    1438.1499    1521.9343    1540.0456   -12.515003 
     150   -12.553091    5.0448723  -0.16577228    5.0602306   -0.1811306    5.1362752            0            0            0   -364.02701   -2209.1472   -1417.3478    2534.4139    1404.4619    1554.4632    1601.4963   -12.553091 
     160   -12.580773    5.0235895  -0.14448947     5.046822  -0.16772204    5.1606707            0            0            0   -402.62664   -3158.3054   -1984.8876    3935.3131    1389.4896    1603.2573    1685.2628   -12.580773 
     170   -12.605288    5.0032921  -0.12419208    5.0342391  -0.15513911    5.1850662            0            0            0   -432.72241   -4088.9329   -2554.9176    5345.6833    1370.5604    1647.7242    1769.9641   -12.605288 
     180   -12.628992    4.9834762  -0.10437623    5.0220201  -0.14292012    5.2094617            0            0            0   -457.20815   -5013.4634   -3136.3953    6778.2343    1345.8173    1684.4841    1852.0336   -12.628992 
     190   -12.652955    4.9639224  -0.08482245    5.0099619  -0.13086194    5.2338572            0            0            0   -477.11939   -5937.8138   -3733.4657    8239.9214    1315.6245    1712.3478    1930.1654   -12.652955 
     200   -12.677772    4.9445138 -0.065413773    4.9979558  -0.11885576    5.2582527            0            0            0   -492.80371   -6865.4511   -4348.4523    9735.4923    1280.6255    1730.6253    2003.5892   -12.677772 
     210   -12.703828    4.9251797 -0.046079704    4.9859361  -0.10683614    5.2826482            0            0            0   -506.57506   -7799.0721   -4983.2282    11262.575     1240.846    1740.6164    2073.5843   -12.703828 
     220   -12.731403    4.9058433 -0.026743328    4.9738417 -0.094741721    5.3070437            0            0            0   -522.85453   -8738.2084   -5635.9496    12805.594    1193.8501    1750.1222    2148.2411   -12.731403 
     230   -12.760713    4.8864354 -0.0073354095    4.9616229 -0.082522895    5.3314392            0            0            0   -561.28274   -9685.3064    -6307.867    14309.325    1133.3948    1758.8509    2226.1071   -12.760713 
     240   -12.791965    4.8668216  0.012278399    4.9492084 -0.070108383    5.3558347            0            0            0   -599.50189   -10648.142   -6981.6872    15831.323    1052.8121    1746.5181    2295.9617   -12.791965 
     250   -12.825249    4.8470462  0.032053783      4.93665 -0.057550023    5.3802302            0            0            0   -612.12717   -11610.904   -7661.2183    17435.741    966.59255    1720.3023    2357.9745   -12.825249 
     260   -12.860637    4.8271544  0.051945591    4.9239773 -0.044877339    5.4046257            0            0            0   -609.87313   -12581.788   -8355.8498    19108.019    875.62557    1679.1262    2410.8897   -12.860637 
     270   -12.898208    4.8071625  0.071937483    4.9111979 -0.032097912    5.4290212            0            0            0   -596.01102   -13562.983   -9068.3162    20843.266    780.60075    1622.1196    2453.6973   -12.898208 
     280   -12.938038    4.7870775  0.092022455    4.8983133 -0.019213277    5.4534167            0            0            0   -571.07771   -14554.334   -9798.7491     22639.85    682.01827    1548.4786    2485.4395   -12.938038 
     290    -12.98019    4.7669036   0.11219637     4.885324 -0.0062240396    5.4778122            0            0            0    -534.4411   -15554.518   -10545.988    24497.182    580.22199    1457.4215    2505.1405    -12.98019 
     300     -13.0249    4.7465061   0.13259391    4.8722349 0.0068650786    5.5022077            0            0            0   -595.48076   -16916.411    -11292.27    26422.238    476.50847    1343.5554    2520.2626     -13.0249 
     310    -13.07273    4.7254905   0.15360953    4.8591026  0.019997372    5.5266032            0            0            0   -664.77584   -18427.962   -11998.092    28431.727     371.5151    1210.9517     2522.117    -13.07273 
     320   -13.123762    4.7038852   0.17521479    4.8459877  0.033112337    5.5509987            0            0            0   -690.13023   -19959.428   -12665.931    30554.968    263.59744    1051.0439    2507.5624   -13.123762 
     330   -13.178018    4.6817692   0.19733075    4.8329642  0.046135801    5.5753942            0            0            0    -666.7904    -21518.19   -13295.007    32812.826     152.0959    862.88686    2481.0388   -13.178018 
     340   -13.235531    4.6591956   0.21990441    4.8200857  0.059014323    5.5997897            0            0            0   -604.35409   -23109.907   -13888.841    35185.686    36.471011    644.78206    2441.0937   -13.235531 
     350   -13.296344    4.6361941   0.24290588     4.807389  0.071710959    5.6241852            0            0            0   -506.56717   -24736.097   -14445.205    37661.601    -83.79467     395.1742    2386.4083   -13.296344 
     360     -13.3605    4.6127809   0.26631906    4.7949032  0.084196845    5.6485807            0            0            0   -379.99136   -26403.975   -14967.707    40231.708   -218.29535     109.5682    2312.3954     -13.3605 
     370   -13.428083    4.5889526   0.29014745    4.7826413   0.09645869    5.6729762            0            0            0   -224.70057    -28116.23   -15453.652    42895.781   -376.25287   -216.24178    2214.6382   -13.428083 
     380   -13.499118    4.5647185   0.31438149    4.7706336   0.10846636    5.6973695            0            0            0   -26.166849   -29853.446   -15873.971    45648.917   -541.51753    -577.8299    2097.7921   -13.499118 
     390    -13.57288     4.540323   0.33877699    4.7590239   0.12007613    5.7215283            0            0            0    196.72867   -31594.369   -16270.322    48454.876   -712.86988   -972.23564    1961.7671    -13.57288 
     400   -13.648951    4.5159275   0.36317249    4.7477846   0.13131541    5.7453196            0            0            0    406.89414   -33309.304   -16789.363     51319.35   -889.70887    -1396.383    1804.7433   -13.648951 
     410   -13.727312     4.491532   0.38756799    4.7368808   0.14221923    5.7687899            0            0            0    684.33627   -34991.285   -17188.718    54233.012   -1072.6557   -1851.0203    1623.2066   -13.727312 
     420   -13.807821    4.4671365   0.41196349    4.7263452    0.1527548    5.7919505            0            0            0    982.45713   -36685.284   -17511.379    57144.035   -1210.5601   -2334.1634    1405.0721   -13.807821 
     430   -13.890337     4.442741   0.43635899    4.7162047   0.16289525    5.8147979            0            0            0    1347.1326   -38349.437   -17698.746    60089.581   -1337.1725   -2838.9539     1157.841   -13.890337 
     440    -13.97471    4.4183455   0.46075449    4.7065027   0.17259726      5.83736            0            0            0     1786.624   -39965.318   -17723.772    63048.962   -1469.0368   -3368.9162    885.29282    -13.97471 
     450   -14.060774      4.39395   0.48514999    4.6972807    0.1818193    5.8596538            0            0            0    2287.9413   -41539.816   -17593.683    65997.323   -1591.7466   -3927.6618    595.10798   -14.060774 
     460   -14.148347    4.3695545   0.50954549    4.6885774   0.19052261    5.8816866            0            0            0    2859.9728   -43060.867   -17277.376    68918.161   -1715.9068   -4508.3608    280.96213   -14.148347 
     470   -14.237234     4.345159   0.53394099    4.6804401   0.19865986    5.9034651            0            0            0    3503.4274   -44523.462   -16755.478    71789.222    -1844.812   -5106.4142   -59.176119   -14.237234 
     480   -14.327233    4.3207635   0.55833649    4.6729176    0.2061824    5.9249904            0            0            0    4216.0535    -45925.48   -16014.098    74587.738   -1977.9059   -5718.0479   -424.88977   -14.327233 
     490   -14.418145     4.296368   0.58273199    4.6660592   0.21304082    5.9462583            0            0            0    4995.2269    -47265.46   -15040.278    77291.419   -2114.4106   -6338.8721    -815.3487   -14.418145 
     500    -14.50978    4.2719725   0.60712749    4.6599133   0.21918671    5.9672594            0            0            0    5829.8674   -48551.255    -13835.22    79876.077   -2264.0252   -6958.3073   -1222.4804    -14.50978 
     510   -14.601971     4.247577   0.63152299    4.6545204   0.22457962     5.987973            0            0            0    6695.9398   -49807.123   -12422.008     82316.95   -2456.3781   -7568.9792   -1640.5331   -14.601971 
     520   -14.694579    4.2231815   0.65591849    4.6499142   0.22918577    6.0083726            0            0            0    7607.9336   -51014.118   -10772.748    84610.666   -2674.0826   -8164.4435   -2066.8836   -14.694579 
     530   -14.787492     4.198786   0.68031399    4.6461382   0.23296176    6.0284469            0            0            0    8581.3987   -52151.066   -8853.5079     86748.77   -2888.3873   -8747.2872   -2510.3517   -14.787492 
     540   -14.880633    4.1743905   0.70470949    4.6432367   0.23586333    6.0481798            0            0            0    9591.0692     -53261.6   -6669.3369    88704.145   -3082.0728   -9289.5432   -2975.6303   -14.880633 
     550   -14.973967     4.149995   0.72910499    4.6412484   0.23785163    6.0675419            0            0            0    10627.973   -54358.513   -4226.6099    90469.042   -3252.3035   -9806.4928   -3448.1886   -14.973967 
     560   -15.067515    4.1255995   0.75350049    4.6402034   0.23889658    6.0864926            0            0            0    11681.465   -55462.332   -1532.9152    92039.642   -3414.3307   -10279.093   -3915.5796   -15.067515 
     570   -15.161339     4.101204   0.77789599    4.6401241   0.23897592    6.1050113            0            0            0    12753.955   -56550.116     1404.187    93407.795   -3553.2771   -10722.702   -4376.4952   -15.161339 
     580   -15.255546    4.0768085   0.80229149     4.641023   0.23807701    6.1230698            0            0            0    13841.506    -57619.59    4569.1436    94574.964   -3680.1155    -11114.94   -4830.7905   -15.255546 
     590   -15.350308     4.052413   0.82668699     4.642897   0.23620302    6.1406219            0            0            0    14847.966   -58888.544    7922.5635    95509.878   -3817.4174    -11505.92   -5318.8759   -15.350308 
     600   -15.445841    4.0280175   0.85108249    4.6457241   0.23337585    6.1576009            0            0            0    15841.604   -60202.639    11464.615    96262.837   -3947.9816    -11862.93   -5790.3467   -15.445841 
     610   -15.542349     4.003622   0.87547799    4.6494873   0.22961267    6.1740178            0            0            0    16875.605   -61422.514    15186.659    96862.669   -4056.0322   -12172.023   -6241.2578   -15.542349 
     620   -15.640005    3.9792265   0.89987349    4.6541649   0.22493506    6.1898977            0            0            0    17968.761   -62466.848    19055.717    97317.414   -4128.9577   -12419.625   -6670.8629   -15.640005 
     630   -15.738926     3.954831   0.92426899    4.6597414   0.21935861    6.2052947            0            0            0    19151.207   -63216.742    23039.278    97631.085   -4168.3483   -12588.239   -7080.9436   -15.738926 
     640   -15.839119    3.9304355   0.94866449    4.6662113   0.21288873    6.2202877            0            0            0    20438.618   -63523.456    27075.691    97763.618   -4181.6943   -12690.223   -7456.1172   -15.839119 
     650   -15.940473      3.90604   0.97305999    4.6735795   0.20552051    6.2349693            0            0            0    21823.634     -63294.1    31088.243    97676.758   -4148.8559   -12721.013     -7796.17   -15.940473 
     660   -16.042795    3.8816445   0.99745549    4.6818506   0.19724944    6.2494277            0            0            0     23246.09   -62555.626    34960.344    97333.553   -4095.0561   -12661.461   -8092.7501   -16.042795 
     670   -16.145751     3.857249     1.021851     4.691048   0.18805195    6.2637716            0            0            0     24795.52   -60923.105    38634.606     96675.06   -4017.9768   -12515.857   -8345.2667   -16.145751 
     680   -16.248771    3.8328535    1.0462465    4.7012753   0.17782468    6.2781965            0            0            0    26473.419   -58098.017    41960.659    95557.616   -3906.6702   -12279.118   -8547.5453   -16.248771 
     690   -16.351109     3.808458     1.070642    4.7127123   0.16638765    6.2929703            0            0            0    28220.607   -53804.291    44702.444    93763.669    -3756.076   -11937.854   -8687.9311   -16.351109 
     700   -16.451905    3.7840625    1.0950375    4.7256665   0.15343349    6.3084893            0            0            0    29881.231   -47787.369    46479.077    90951.984   -3592.2284   -11475.599   -8753.0913   -16.451905 
     710   -16.550331     3.759667     1.119433    4.7406221    0.1384779    6.3253565            0            0            0    31091.674   -39993.086    46660.892    86607.217    -3406.504   -10855.254   -8730.2403   -16.550331 
     720   -16.645973    3.7352715    1.1438285     4.758472   0.12062797    6.3446693            0            0            0    31349.017   -30116.962    44381.301    79782.712   -3099.7191   -10048.635    -8571.416   -16.645973 
     730   -16.736743    3.7117415    1.1673585    4.7803635  0.098736459    6.3681581            0            0            0    29253.872   -18602.186    37509.487    68854.317   -2687.2185   -8976.5471   -8226.0631   -16.736743 
     740   -16.805705    3.6945931    1.1845069    4.8018044  0.077295635    6.3925536            0            0            0    24230.981   -9761.3994        27146    55308.341    -2225.354   -7790.4441   -7860.3642   -16.805705 
     750   -16.856763    3.6833224    1.1957776     4.820043  0.059056978    6.4169491            0            0            0    17443.653   -4686.2288    15763.993    41253.194   -1735.0322   -6582.0401   -7611.8725   -16.856763 
     760   -16.897498    3.6759227    1.2031773    4.8325398  0.046560205    6.4413446            0            0            0     10665.37   -2093.8366    5633.4791    28456.466   -1214.8365   -5370.5104   -7655.0021   -16.897498 
     770   -16.936042    3.6712357    1.2078643    4.8358036  0.043296437    6.4657401            0            0            0    5339.6075   -770.27768   -1485.3907    18274.491   -638.98345   -4130.2592   -8144.4431   -16.936042 
     780   -16.981171     3.668853     1.210247    4.8264981  0.052601915    6.4901356            0            0            0    2292.9146    -192.3707    -4552.523    11623.637    35.052987   -2831.5079   -9191.1742   -16.981171 
     790    -17.03709    3.6680212    1.2110788    4.8064592  0.072640789    6.5145311            0            0            0    1199.7781   -47.952402   -4547.7107    8194.9973    789.86898   -1544.8963   -10486.516    -17.03709 
     800   -17.100339    3.6676401    1.2114599    4.7823231  0.096776939     6.538657            0            0            0    876.87941   -24.709457    -3869.806    6525.1537    1485.7605   -481.82202   -11478.021   -17.100339 
     810   -17.165445    3.6673532    1.2117468    4.7579276   0.12117244    6.5620295            0            0            0    736.92437   -12.843412   -3363.1112    5586.7277    1965.4894    224.47951   -11791.129   -17.165445 
     820   -17.229636     3.667355     1.211745    4.7335321   0.14556794    6.5846809            0            0            0    674.47455    7.5875276   -2886.0229     4901.859    2233.4638    624.26999   -11346.812   -17.229636 
     830   -17.296756    3.6675538    1.2115462    4.7091366   0.16996344    6.6078232            0            0            0    531.17319    4.0567421   -2139.9735    3729.4363    2317.5662    821.73961   -9934.6842   -17.296756 
     840   -17.356589     3.669179     1.209921    4.6894851   0.18961495     6.626489            0            0            0   -786.41133   -1935.4363   -2240.9007     1817.103    2267.3345    874.23981   -7793.1132   -17.356589 
     850   -17.393882     3.669179     1.209921    4.6782034   0.20089656    6.6359885            0            0            0   -704.49465   -1510.5412   -1619.9918    1017.0491    2170.4438    834.22253   -6100.4152   -17.393882 
     860   -17.426282     3.669179     1.209921    4.6693577   0.20974232    6.6423124            0            0            0   -536.54198   -999.29689   -1048.1183    437.78925    2078.7506     759.9459   -4402.7682   -17.426282 
     870   -17.462475    3.6693128    1.2097872    4.6606186    0.2184814    6.6465694            0            0            0   -248.84823   -351.16536   -439.52325    44.143907    2033.9036    615.62384   -2390.0466   -17.462475 
     880   -17.501955    3.6703702    1.2087298    4.6530444   0.22605558    6.6471475            0            0            0   -478.19968   -392.20583   -640.96306   -401.43015    2428.4009    301.68356   -640.06854   -17.501955 
     890   -17.518413    3.6697258    1.2093742    4.6481499   0.23095006    6.6439979            0            0            0    1744.2689    2570.5725    1767.7002    894.53385    3229.6915    139.00266   -414.96831   -17.518413 
     900   -17.523586    3.6718576    1.2072424    4.6502727   0.22882734    6.6431518            0            0            0   -824.04562   -760.61057   -995.94957   -715.57673    3607.1523      119.721   -386.00514   -17.523586 
     910   -17.528669    3.6709082    1.2081918    4.6464482   0.23265184    6.6400223            0            0            0    1852.0739    2247.4826    2170.5729    1138.1663    4088.8553    106.64895   -361.24346   -17.528669 
     920   -17.537965    3.6723248    1.2067752    4.6487379   0.23036214    6.6370248            0            0            0   -41.986355    385.07185   -219.81783   -291.21309    4933.8891    94.644791   -313.04018   -17.537965 
     930   -17.548924    3.6749193    1.2041807    4.6458348   0.23326518    6.6313868            0            0            0   -184.15285   -1080.4734    393.05215    134.96268    6112.0138    94.678388   -256.18479   -17.548924 
     940   -17.554151    3.6721376    1.2069624    4.6487828   0.23031717    6.6301218            0            0            0    616.35576    2434.2033   -257.62434    -327.5117    6679.7315    95.981227   -224.84025   -17.554151 
     950   -17.558939    3.6756315    1.2034685    4.6457813   0.23331866     6.627211            0            0            0   -350.64215   -828.31788   -76.762184   -146.84639    7329.3609    96.662127   -201.05163   -17.558939 
     960    -17.56366    3.6741498    1.2049502    4.6473179   0.23178214    6.6257545            0            0            0    155.85196    1336.8384   -477.11501   -392.16753    7961.7613    96.102691   -173.65347    -17.56366 
     970   -17.568655    3.6757891    1.2033109    4.6434979   0.23560213    6.6225169            0            0            0    945.06962    1063.0985    1171.1654    600.94496    8815.2068    94.014294   -146.62518   -17.568655 
     980   -17.573719     3.675896     1.203204    4.6449707   0.23412927    6.6209911            0            0            0    311.95547    1248.0847   -172.02103   -140.19722    9720.0948    88.088137   -114.90638   -17.573719 
     990   -17.576996    3.6778366    1.2012634    4.6414933   0.23760665    6.6187909            0            0            0    625.55888    348.89152    992.67228    535.11284    10514.049    81.710418   -94.141312   -17.576996 
    1000   -17.578761    3.6778985    1.2012015    4.6449779    0.2341221    6.6192791            0            0            0    -1052.278   -525.34853    -1659.136   -972.34957    10897.995    75.971233   -80.404933   -17.578761 
    1010   -17.580385    3.6779077    1.2011923    4.6399221   0.23917788    6.6173404            0            0            0    1374.8059    1487.4445    1680.4329     956.5404    11493.042    70.029355   -68.394724   -17.580385 
    1020   -17.584135    3.6809053    1.1981947    4.6374723   0.24162771    6.6162032            0            0            0    288.52438   -519.25701    861.26457    523.56558    13352.608    39.444674   -26.819251   -17.584135 
    1030   -17.584753    3.6812192    1.1978808    4.6366914   0.24240861    6.6164732            0            0            0    352.64323   -211.22281     817.2086    451.94389    13895.714    12.959375   -7.7420939   -17.584753 
    1040   -17.588621    3.6793942    1.1997058    4.6410175   0.23808248    6.6144923            0            0            0    100.97953    1218.5507   -874.13259   -41.479477    13665.304   -15.468823    23.030929   -17.588621 
    1050   -17.589723    3.6826932    1.1964068    4.6365869   0.24251308    6.6135448            0            0            0     -367.301    -1712.693    366.61422    244.17573    13787.559   -15.899259    16.696028   -17.589723 
    1060    -17.59091    3.6790482    1.2000518    4.6397137   0.23938626    6.6141741            0            0            0    804.91181    2167.5811    103.61906    143.53525    13606.061   -15.304792    12.956698    -17.59091 
    1070   -17.593296    3.6824118    1.1966882    4.6387841   0.24031588    6.6128337            0            0            0   -1133.9208   -1711.9981   -1016.8826   -672.88167    13474.635   -13.525691    9.1450519   -17.593296 
    1080   -17.595563    3.6817017    1.1973983    4.6377459   0.24135407    6.6114026            0            0            0   -3.9911746   -181.97385    152.31625    17.684078    13354.512    -11.78169    7.7854991   -17.595563 
    1090   -17.598913    3.6829827    1.1961173     4.638233   0.24086702    6.6098037            0            0            0    -1002.544   -1631.2339   -790.19697     -586.201     13114.91   -9.7737687    6.3682456   -17.598913 
    1100   -17.601001    3.6807242    1.1983758    4.6389684   0.24013162     6.608854            0            0            0    433.24287    1338.4254   -20.836892   -17.859891    12954.139   -8.8541244    5.7173006   -17.601001 
    1110   -17.603277    3.6839811    1.1951189    4.6365441   0.24255586    6.6069902            0            0            0   -689.37678   -1852.0873   -9.8484183   -206.19459    12856.188   -7.9871954    5.2002162   -17.603277 
    1120   -17.608524    3.6826204    1.1964796     4.637969   0.24113102    6.6046186            0            0            0   -79.881595    57.110831   -121.88093   -174.87468    12450.297   -6.4269918    4.1546197   -17.608524 
    1130   -17.619446    3.6820152    1.1970848    4.6352597   0.24384025    6.5979965            0            0            0    2315.2223     3148.875    2447.1434    1349.6483    11655.804   -4.2218866    2.7332027   -17.619446 
    1140    -17.62446     3.685268     1.193832    4.6381651    0.2409349    6.5962781            0            0            0   -1215.2782   -1464.2331   -1254.9038   -926.69772    11197.406   -3.5213083    2.2897267    -17.62446 
    1150   -17.628357      3.68419      1.19491    4.6355161   0.24358394    6.5934713            0            0            0    1082.2572    1337.3716    1296.6361    612.76395    10916.934   -3.0791634    2.0055388   -17.628357 
    1160   -17.634751    3.6857086    1.1933914    4.6382026   0.24089737    6.5908735            0            0            0   -956.83935   -695.25679   -1277.6612   -897.60003    10294.227   -2.5313997    1.6053884   -17.634751 
    1170   -17.639497    3.6852799    1.1938201    4.6337364   0.24536363    6.5870615            0            0            0    1762.4431    1944.2526    2221.1092    1121.9677    9941.8159   -2.1391272     1.364864   -17.639497 
    1180   -17.645029    3.6865137    1.1925863    4.6369469    0.2421531     6.585061            0            0            0   -403.70196   -62.848751   -633.46148   -514.79566    9375.2242   -1.7858563    1.1635962   -17.645029 
    1190   -17.656345    3.6895595    1.1895405    4.6344998   0.24460022    6.5785421            0            0            0   -954.85373   -1699.6992   -528.06901   -636.79296    8333.0537   -1.1097008   0.73161745   -17.656345 
    1200    -17.66099    3.6870315    1.1920685    4.6348637   0.24423633    6.5761287            0            0            0    957.54063    1957.3277    580.23938    335.05482     7852.738  -0.89263267   0.58491727    -17.66099 
    1210   -17.669778    3.6891874    1.1899126    4.6290109   0.25008912    6.5700472            0            0            0    2600.8227     2479.463    3484.0994    1838.9057    6879.8522  -0.53968484    0.3610917   -17.669778 
    1220   -17.676255    3.6905997    1.1885003    4.6301014   0.24899861    6.5672245            0            0            0    1313.4041    1277.5734    1783.4867    879.15217    6009.8343  -0.34278368   0.23118922   -17.676255 
    1230   -17.679654    3.6917143    1.1873857     4.633332   0.24576796    6.5663771            0            0            0   -885.12485   -661.61846   -1210.9917   -782.76435    5467.7887  -0.25490689   0.17217043   -17.679654 
    1240   -17.683442    3.6899335    1.1891665    4.6293359   0.24976411    6.5632995            0            0            0    2543.6608    3630.6352    2429.5153    1570.8318    4851.4039  -0.16756637   0.11405593   -17.683442 
    1250   -17.686573    3.6942432    1.1848568    4.6301072   0.24899283    6.5622623            0            0            0   -904.12506   -1420.9082    -671.0754   -620.39158    4290.0647  -0.11310157  0.078523714   -17.686573 
    1260   -17.689291    3.6923924    1.1867076    4.6297404   0.24935959    6.5607535            0            0            0    769.31963    1532.8532    402.04758    373.05806    3732.9321  -0.07160016  0.049798996   -17.689291 
    1270   -17.692922    3.6932602    1.1858398    4.6277107    0.2513893    6.5585977            0            0            0    1244.7253    2030.5937    960.16264    743.41943    2830.9684 -0.028462119  0.020319849   -17.692922 
    1280   -17.696448    3.6982053    1.1808947    4.6225629   0.25653711    6.5563007            0            0            0    93.125239    -1058.168    1125.4182    212.12551    1588.9792 -0.0038536302 0.0029860272   -17.696448 
    1290   -17.697786    3.6976919    1.1814081    4.6234638   0.25563618    6.5559891            0            0            0    75.935045   -88.957365    235.50161    81.260893    839.30659 -0.00022030675 0.00018965396   -17.697786 
    1300   -17.698359    3.6988618    1.1802382    4.6217324   0.25736764    6.5560032            0            0            0   -87.616631    19.106635   -181.01953     -100.937    2.2987264 1.1384291e-05 -7.7847164e-06   -17.698359 
    1310   -17.698363    3.6991132    1.1799868    4.6211366   0.25796341    6.5558553            0            0            0    13.044765    17.893264    20.947353   0.29367956   -7.1662505 6.7792704e-07 -2.8665506e-07   -17.698363 
    1320   -17.698363     3.699115     1.179985    4.6211788   0.25792119    6.5558294            0            0            0  -0.20630052   0.37442362   0.42432485     -1.41765   0.22463368 4.3764442e-08 4.6339244e-08   -17.698363 
    1330   -17.698363    3.6991152    1.1799848    4.6211808   0.25791923    6.5558244            0            0            0 0.00065667505 0.00091414518 0.0016058412 -0.00054996128 -0.004896761 -1.8367312e-09 3.0417251e-09   -17.698363 
    1340   -17.698363    3.6991151    1.1799849    4.6211808   0.25791917    6.5558244            0            0            0 6.9704955e-05 0.00014186148 9.7022375e-05 -2.9768991e-05 -4.301093e-05 7.2486381e-12 -4.9327597e-11   -17.698363 
    1350   -17.698363    3.6991151    1.1799849    4.6211808   0.25791917    6.5558244            0            0            0 -6.0938768e-08 2.305567e-07 2.4947294e-07 -6.6284594e-07 7.8867984e-07 -1.9657324e-11 1.4128701e-12   -17.698363 
    1351   -17.698363    3.6991151    1.1799849    4.6211808   0.25791917    6.5558244            0            0            0 1.5859594e-07 -1.5587029e-09 -1.7105717e-07 6.484037e-07 7.3765385e-07 -1.3022977e-11 -1.3268694e-11   -17.698363 
Loop time of 0.0347319 on 1 procs for 1351 steps with 8 atoms

98.7% CPU use with 1 MPI tasks x no OpenMP threads

Minimization stats:
  Stopping criterion = energy tolerance
  Energy initial, next-to-last, final = 
        -10.6844789319     -17.6983629881     -17.6983629881
  Force two-norm initial, final = 23.7557 3.37111e-11
  Force max component initial, final = 13.7154 2.17038e-11
  Final line search alpha, max atom move = 1 2.17038e-11
  Iterations, force evaluations = 1351 1572

MPI task timing breakdown:
Section |  min time  |  avg time  |  max time  |%varavg| %total
---------------------------------------------------------------
Pair    | 0.020886   | 0.020886   | 0.020886   |   0.0 | 60.14
Neigh   | 0.00029922 | 0.00029922 | 0.00029922 |   0.0 |  0.86
Comm    | 0.0028412  | 0.0028412  | 0.0028412  |   0.0 |  8.18
Output  | 0.0022824  | 0.0022824  | 0.0022824  |   0.0 |  6.57
Modify  | 0          | 0          | 0          |   0.0 |  0.00
Other   |            | 0.008423   |            |       | 24.25

Nlocal:    8 ave 8 max 8 min
Histogram: 1 0 0 0 0 0 0 0 0 0
Nghost:    360 ave 360 max 360 min
Histogram: 1 0 0 0 0 0 0 0 0 0
Neighs:    252 ave 252 max 252 min
Histogram: 1 0 0 0 0 0 0 0 0 0

Total # of neighbors = 252
Ave neighs/atom = 31.5
Neighbor list builds = 12
Dangerous builds = 0
# ---- define output variables ----
variable natoms equal "count(all)"
variable tot_energy equal "c_eatoms"
variable a11 equal "xhi-xlo"
variable a22 equal "yhi-ylo"
variable a33 equal "zhi-zlo"
variable tilt_xy equal "xy"
variable tilt_xz equal "xz"
variable tilt_yz equal "yz"
variable tot_press equal "press"
variable press_xx equal "pxx"
variable press_yy equal "pyy"
variable press_zz equal "pzz"
variable press_xy equal "pxy"
variable press_xz equal "pxz"
variable press_yz equal "pyz"

# ---- output ----
print "pypospack:output_section:begin"
pypospack:output_section:begin
print "tot_energy = ${tot_energy}"
tot_energy = -17.6983629880851
print "num_atoms = ${natoms}"
num_atoms = 8
print "a11 = ${a11}"
a11 = 2.51913029390932
print "a22 = ${a22}"
a22 = 4.36326165992861
print "a33 = ${a33}"
a33 = 8.23254871038392
print "a12 = ${tilt_xy}"
a12 = 0
print "a13 = ${tilt_xz}"
a13 = 0
print "a23 = ${tilt_yz}"
a23 = 0
print "tot_press = ${tot_press}"
tot_press = 1.58595942999761e-07
print "pxx = ${press_xx}"
pxx = -1.5587029125525e-09
print "pyy = ${press_yy}"
pyy = -1.71057170984843e-07
print "pzz = ${press_zz}"
pzz = 6.4840370289668e-07
print "pxy = ${press_xy}"
pxy = 7.37653849772847e-07
print "pxz = ${press_xz}"
pxz = -1.30229769630776e-11
print "pyz = ${press_yz}"
pyz = -1.32686935095507e-11
print "pypospack:output_section:done"
pypospack:output_section:done
print "pypospack:lammps_sim:done"
pypospack:lammps_sim:done
Total wall time: 0:00:00
