LAMMPS (11 Aug 2017)
Reading data file ...
  triclinic box = (0 0 0) to (3.2345 2.3154 23.1541) with tilt (0 0 0)
  1 by 1 by 1 MPI processor grid
  reading atoms ...
  10 atoms
10 atoms in group Ni
Neighbor list info ...
  update every 1 steps, delay 0 steps, check yes
  max neighbors/atom: 2000, page size: 100000
  master list distance cutoff = 5.64464
  ghost atom cutoff = 5.64464
  binsize = 2.82232, bins = 2 1 9
  1 neighbor lists, perpetual/occasional/extra = 1 0 0
  (1) pair eam/alloy, perpetual
      attributes: half, newton on
      pair build: half/bin/newton/tri
      stencil: half/bin/3d/newton/tri
      bin: standard
Setting up cg style minimization ...
  Unit style    : metal
  Current step  : 0
Per MPI rank memory allocation (min/avg/max) = 4.214 | 4.214 | 4.214 Mbytes
Step PotEng Lx Ly Lz Xy Xz Yz Press Pxx Pyy Pzz Pxy Pxz Pyz c_eatoms 
       0   -55.340555       3.2345       2.3154      23.1541            0            0            0   -64652.111   -66404.585   -71431.251   -56120.497 2.6285932e-12   -1.9716949 -8.3666197e-12   -55.340555 
       1   -55.437136       3.2345       2.3154      23.1541            0            0            0     -47894.1   -49480.381   -58123.794   -36078.126 -5.1289622e-13  -0.56400086 -9.16802e-12   -55.437136 
       2   -55.456649       3.2345       2.3154      23.1541            0            0            0   -40636.184   -42190.825    -53099.58   -26618.148 -4.6801781e-12   -3.4007179 -5.6739145e-12   -55.456649 
       3    -55.47921       3.2345       2.3154      23.1541            0            0            0   -26452.248   -29495.679   -44322.197   -5538.8683 -8.9756839e-13    9.2002181 -7.1484911e-12    -55.47921 
       4   -55.483039       3.2345       2.3154      23.1541            0            0            0   -24863.741   -28117.549   -43486.881   -2986.7931 1.6028007e-12   -2.9582778 -7.1484911e-12   -55.483039 
       5    -55.48316       3.2345       2.3154      23.1541            0            0            0   -24249.661   -27586.464   -43104.964   -2057.5541 -4.4237299e-12    4.7225191 -4.2955059e-12    -55.48316 
       6   -55.483286       3.2345       2.3154      23.1541            0            0            0    -23350.87   -26833.113     -42611.7   -607.79787 -4.487842e-13   -16.741139 1.2181285e-12   -55.483286 
       7   -55.483311       3.2345       2.3154      23.1541            0            0            0   -23006.702   -26505.448   -42380.367   -134.29062 2.5644811e-13    4.3760278 -8.6871798e-12   -55.483311 
       8   -55.483314       3.2345       2.3154      23.1541            0            0            0   -22923.002   -26410.972   -42311.852   -46.183742 -5.1289622e-12   -1.8097669 -3.6223296e-12   -55.483314 
       9   -55.483314       3.2345       2.3154      23.1541            0            0            0   -22915.157   -26402.393   -42306.066   -37.011756 -6.4112028e-13  -0.30305392 -1.3687918e-11   -55.483314 
      10   -55.483314       3.2345       2.3154      23.1541            0            0            0   -22907.934   -26396.795   -42302.288   -24.717936 -1.7951368e-12  -0.19042067 -5.4174664e-12   -55.483314 
      11   -55.483314       3.2345       2.3154      23.1541            0            0            0   -22895.709   -26386.161   -42295.108   -5.8564255 -5.1289622e-13  -0.25542511 -5.6098025e-12   -55.483314 
      12   -55.483314       3.2345       2.3154      23.1541            0            0            0   -22893.046   -26383.602   -42293.341   -2.1941134 1.8592488e-12  0.073612449 -4.7122341e-12   -55.483314 
      13   -55.483314       3.2345       2.3154      23.1541            0            0            0   -22891.706   -26382.219   -42292.351  -0.54900061 -4.616066e-12 -0.020307939 -1.1219605e-11   -55.483314 
      14   -55.483314       3.2345       2.3154      23.1541            0            0            0   -22891.692   -26382.209   -42292.348  -0.51866118 -1.7951368e-12 -0.058267024 -7.5972753e-12   -55.483314 
      15   -55.483314       3.2345       2.3154      23.1541            0            0            0   -22891.622   -26382.155   -42292.315  -0.39630421 -3.7826097e-12 -0.085209227 -1.4425206e-12   -55.483314 
      16   -55.483314       3.2345       2.3154      23.1541            0            0            0   -22891.474   -26382.024   -42292.223  -0.17486705 -1.9233608e-12  -0.10379277 -8.1101716e-12   -55.483314 
      17   -55.483314       3.2345       2.3154      23.1541            0            0            0   -22891.401   -26381.955   -42292.176 -0.071997949 2.372145e-12 -0.081962779 -5.8021385e-12   -55.483314 
      18   -55.483314       3.2345       2.3154      23.1541            0            0            0   -22891.355   -26381.912   -42292.147 -0.0046961048 6.4112028e-14 -0.064524028 -9.5526922e-12   -55.483314 
      19   -55.483314       3.2345       2.3154      23.1541            0            0            0   -22891.346   -26381.906   -42292.143  0.011352784 -1.9233608e-13 -0.060004313 -1.0289981e-11   -55.483314 
      20   -55.483314       3.2345       2.3154      23.1541            0            0            0   -22891.344   -26381.906   -42292.143  0.017573427 -2.5644811e-13 -0.050671058 -5.0007382e-12   -55.483314 
      21   -55.483314       3.2345       2.3154      23.1541            0            0            0   -22891.343   -26381.906   -42292.143  0.019691965 1.5450999e-11 -0.016808043 3.5582176e-12   -55.483314 
      22   -55.483314       3.2345       2.3154      23.1541            0            0            0   -22891.346   -26381.907   -42292.143  0.013181262 -1.5386887e-12 -0.0036397637 -1.3399414e-11   -55.483314 
      23   -55.483314       3.2345       2.3154      23.1541            0            0            0   -22891.347   -26381.908   -42292.144  0.010800123 -1.0963157e-11 -0.00095317171 -8.9756839e-12   -55.483314 
      24   -55.483314       3.2345       2.3154      23.1541            0            0            0   -22891.349   -26381.911   -42292.146 0.0078010511 8.3345637e-13 -0.00047222446 -1.423287e-11   -55.483314 
      25   -55.483314       3.2345       2.3154      23.1541            0            0            0   -22891.353   -26381.914   -42292.148 0.0027223744 -9.039796e-12 -0.00031788026 -1.8945104e-11   -55.483314 
      26   -55.483314       3.2345       2.3154      23.1541            0            0            0   -22891.354   -26381.915   -42292.148 0.00010945705 -5.8983066e-12 7.8435139e-06 -9.16802e-12   -55.483314 
      27   -55.483314       3.2345       2.3154      23.1541            0            0            0   -22891.354   -26381.915   -42292.148 0.00020842522 1.0642597e-11 3.8025304e-06 -3.8146657e-12   -55.483314 
      28   -55.483314       3.2345       2.3154      23.1541            0            0            0   -22891.354   -26381.915   -42292.148 0.00018973261 -1.263007e-11 2.6589464e-06 -6.731763e-12   -55.483314 
      29   -55.483314       3.2345       2.3154      23.1541            0            0            0   -22891.354   -26381.915   -42292.148 0.0001102062 1.1283717e-11 2.6204043e-06 -2.243921e-12   -55.483314 
      30   -55.483314       3.2345       2.3154      23.1541            0            0            0   -22891.354   -26381.915   -42292.148 0.00010232195 -6.0265306e-12 -3.7833226e-07 4.519898e-12   -55.483314 
      31   -55.483314       3.2345       2.3154      23.1541            0            0            0   -22891.354   -26381.915   -42292.148 5.6420059e-05 -2.4747243e-11 -2.6217732e-08 -9.16802e-12   -55.483314 
      32   -55.483314       3.2345       2.3154      23.1541            0            0            0   -22891.354   -26381.915   -42292.148 4.9504385e-07 1.7630808e-11 -7.0982693e-07 1.0386149e-11   -55.483314 
      33   -55.483314       3.2345       2.3154      23.1541            0            0            0   -22891.354   -26381.915   -42292.148 1.752987e-07 -2.4170235e-11 -4.060066e-07 1.6989687e-12   -55.483314 
      34   -55.483314       3.2345       2.3154      23.1541            0            0            0   -22891.354   -26381.915   -42292.148 5.0767494e-08 1.6669127e-11 -2.9518207e-07 2.7375836e-11   -55.483314 
      35   -55.483314       3.2345       2.3154      23.1541            0            0            0   -22891.354   -26381.915   -42292.148 6.8448437e-08 2.4170235e-11 -6.3552138e-08 -1.6220343e-11   -55.483314 
      36   -55.483314       3.2345       2.3154      23.1541            0            0            0   -22891.354   -26381.915   -42292.148 2.0085016e-09 -2.6606492e-11 -3.8561862e-08 -4.487842e-13   -55.483314 
      37   -55.483314       3.2345       2.3154      23.1541            0            0            0   -22891.354   -26381.915   -42292.148 -5.740591e-10 -2.2503322e-11 -3.8960671e-08 -5.3854104e-12   -55.483314 
      38   -55.483314       3.2345       2.3154      23.1541            0            0            0   -22891.354   -26381.915   -42292.148 -5.740591e-10 -2.2503322e-11 -3.8960671e-08 -5.3854104e-12   -55.483314 
Loop time of 0.0604091 on 1 procs for 38 steps with 10 atoms

4.2% CPU use with 1 MPI tasks x no OpenMP threads

Minimization stats:
  Stopping criterion = linesearch alpha is zero
  Energy initial, next-to-last, final = 
        -55.3405553063     -55.4833141431     -55.4833141431
  Force two-norm initial, final = 1.42739 4.4179e-13
  Force max component initial, final = 0.938952 2.18048e-13
  Final line search alpha, max atom move = 0.5 1.09024e-13
  Iterations, force evaluations = 38 76

MPI task timing breakdown:
Section |  min time  |  avg time  |  max time  |%varavg| %total
---------------------------------------------------------------
Pair    | 0.0017138  | 0.0017138  | 0.0017138  |   0.0 |  2.84
Neigh   | 0          | 0          | 0          |   0.0 |  0.00
Comm    | 0.0001595  | 0.0001595  | 0.0001595  |   0.0 |  0.26
Output  | 0.058446   | 0.058446   | 0.058446   |   0.0 | 96.75
Modify  | 0          | 0          | 0          |   0.0 |  0.00
Other   |            | 8.941e-05  |            |       |  0.15

Nlocal:    10 ave 10 max 10 min
Histogram: 1 0 0 0 0 0 0 0 0 0
Nghost:    357 ave 357 max 357 min
Histogram: 1 0 0 0 0 0 0 0 0 0
Neighs:    320 ave 320 max 320 min
Histogram: 1 0 0 0 0 0 0 0 0 0

Total # of neighbors = 320
Ave neighs/atom = 32
Neighbor list builds = 0
Dangerous builds = 0
pypospack:output_section:begin
tot_energy = -55.4833141430817
num_atoms = 10
a11 = 3.2345
a22 = 2.3154
a33 = 23.1541
a12 = 0
a13 = 0
a23 = 0
tot_press = -22891.3543982618
pxx = -26381.9147704329
pyy = -42292.148424352
pzz = -5.74059099695812e-10
pxy = -2.25033218665658e-11
pxz = -3.89606711182791e-08
pyz = -5.38541036122942e-12
pypospack:output_section:done
pypospack:lammps_sim:done
Total wall time: 0:00:00
