LAMMPS (11 Aug 2017)
# ---- initialize simulations
clear
units metal
dimension 3
boundary p p p
atom_style atomic
atom_modify map array
# ---- create atoms
read_data /ufrc/phillpot/eragasa/pareto_optimization_3.5NN/rank_26/Ni_dia.lmps_min_all/lammps.structure
  triclinic box = (0 0 0) to (4.8791 4.8791 4.8791) with tilt (0 0 0)
  1 by 1 by 1 MPI processor grid
  reading atoms ...
  8 atoms
# ---- define interatomic potential
include potential.mod
mass 1 58.6934

group Ni type 1
8 atoms in group Ni

pair_style eam/alloy
pair_coeff * * /ufrc/phillpot/eragasa/pareto_optimization_3.5NN/rank_26/Ni_dia.lmps_min_all/Ni.eam.alloy Ni

neighbor 1.0 bin
neigh_modify every 1 delay 0 check yes
# ---- define settings
compute eng all pe/atom
compute eatoms all reduce sum c_eng
# ---- run minimization
reset_timestep 0
fix 1 all box/relax aniso 0.0 vmax 0.001
thermo 10
thermo_style custom step pe xhi xlo yhi ylo zhi xy xz yz press pxx pyy pzz pxy pxz pyz c_eatoms
min_style cg
minimize 1e-25 1e-25 5000 10000
Neighbor list info ...
  update every 1 steps, delay 0 steps, check yes
  max neighbors/atom: 2000, page size: 100000
  master list distance cutoff = 5.64464
  ghost atom cutoff = 5.64464
  binsize = 2.82232, bins = 2 2 2
  1 neighbor lists, perpetual/occasional/extra = 1 0 0
  (1) pair eam/alloy, perpetual
      attributes: half, newton on
      pair build: half/bin/newton/tri
      stencil: half/bin/3d/newton/tri
      bin: standard
Per MPI rank memory allocation (min/avg/max) = 4.21 | 4.21 | 4.21 Mbytes
Step PotEng Xhi Xlo Yhi Ylo Zhi Xy Xz Yz Press Pxx Pyy Pzz Pxy Pxz Pyz c_eatoms 
       0   -8.7316333       4.8791            0       4.8791            0       4.8791            0            0            0    321603.33    321603.33    321603.33    321603.33    -30.92776    -30.92776    -30.92776   -8.7316333 
      10   -9.3813691    4.9034955   -0.0243955    4.9034955   -0.0243955    4.9034955            0            0            0    271201.96    271201.96    271201.96    271201.96   -27.042721   -27.042721   -27.042721   -9.3813691 
      20   -9.9381412     4.927891    -0.048791     4.927891    -0.048791     4.927891            0            0            0    226880.14    226880.14    226880.14    226880.14   -23.580039   -23.580039   -23.580039   -9.9381412 
      30   -10.410967    4.9522865   -0.0731865    4.9522865   -0.0731865    4.9522865            0            0            0    187948.35    187948.35    187948.35    187948.35   -20.495253   -20.495253   -20.495253   -10.410967 
      40   -10.808059     4.976682    -0.097582     4.976682    -0.097582     4.976682            0            0            0    153795.12    153795.12    153795.12    153795.12   -17.748317   -17.748317   -17.748317   -10.808059 
      50   -11.136896    5.0010775   -0.1219775    5.0010775   -0.1219775    5.0010775            0            0            0    123878.01    123878.01    123878.01    123878.01   -15.303096   -15.303096   -15.303096   -11.136896 
      60   -11.404287     5.025473    -0.146373     5.025473    -0.146373     5.025473            0            0            0    97715.682    97715.682    97715.682    97715.682   -13.126805   -13.126805   -13.126805   -11.404287 
      70   -11.616436    5.0498685   -0.1707685    5.0498685   -0.1707685    5.0498685            0            0            0    74880.927    74880.927    74880.927    74880.927   -11.189347   -11.189347   -11.189347   -11.616436 
      80   -11.778988     5.074264    -0.195164     5.074264    -0.195164     5.074264            0            0            0    54994.491    54994.491    54994.491    54994.491   -9.4623643   -9.4623643   -9.4623643   -11.778988 
      90   -11.897085    5.0986595   -0.2195595    5.0986595   -0.2195595    5.0986595            0            0            0    37719.625    37719.625    37719.625    37719.625   -7.9173624   -7.9173624   -7.9173624   -11.897085 
     100   -11.975406     5.123055    -0.243955     5.123055    -0.243955     5.123055            0            0            0    22757.273    22757.273    22757.273    22757.273   -6.5202995   -6.5202995   -6.5202995   -11.975406 
     110   -12.018213    5.1474505   -0.2683505    5.1474505   -0.2683505    5.1474505            0            0            0    9841.8236    9841.8236    9841.8236    9841.8236   -5.2052129   -5.2052129   -5.2052129   -12.018213 
     120   -12.029594    5.1688778  -0.28977777    5.1688778  -0.28977777    5.1688778            0            0            0   -1.0875174   -1.0875174   -1.0875174   -1.0875174    1.4033756    1.4033756    1.4033756   -12.029594 
     130   -12.029594    5.1688752  -0.28977523    5.1688752  -0.28977523    5.1688752            0            0            0 -2.1508693e-05 -2.1507812e-05 -2.1511183e-05 -2.1507084e-05 2.3779996e-05 2.3780173e-05 2.377979e-05   -12.029594 
     132   -12.029594    5.1688752  -0.28977523    5.1688752  -0.28977523    5.1688752            0            0            0 3.685869e-05 3.6859834e-05 3.6855471e-05 3.6860764e-05  2.55041e-05 2.5504189e-05 2.5503875e-05   -12.029594 
Loop time of 0.00286198 on 1 procs for 132 steps with 8 atoms

92.2% CPU use with 1 MPI tasks x no OpenMP threads

Minimization stats:
  Stopping criterion = linesearch alpha is zero
  Energy initial, next-to-last, final = 
        -8.73163334172     -12.0295937354     -12.0295937354
  Force two-norm initial, final = 40.3822 7.40873e-09
  Force max component initial, final = 23.3147 3.34475e-09
  Final line search alpha, max atom move = 0.5 1.67238e-09
  Iterations, force evaluations = 132 146

MPI task timing breakdown:
Section |  min time  |  avg time  |  max time  |%varavg| %total
---------------------------------------------------------------
Pair    | 0.0016599  | 0.0016599  | 0.0016599  |   0.0 | 58.00
Neigh   | 2.5988e-05 | 2.5988e-05 | 2.5988e-05 |   0.0 |  0.91
Comm    | 0.00023031 | 0.00023031 | 0.00023031 |   0.0 |  8.05
Output  | 0.00015354 | 0.00015354 | 0.00015354 |   0.0 |  5.36
Modify  | 0          | 0          | 0          |   0.0 |  0.00
Other   |            | 0.0007923  |            |       | 27.68

Nlocal:    8 ave 8 max 8 min
Histogram: 1 0 0 0 0 0 0 0 0 0
Nghost:    272 ave 272 max 272 min
Histogram: 1 0 0 0 0 0 0 0 0 0
Neighs:    184 ave 184 max 184 min
Histogram: 1 0 0 0 0 0 0 0 0 0

Total # of neighbors = 184
Ave neighs/atom = 23
Neighbor list builds = 1
Dangerous builds = 0
# ---- define output variables ----
variable natoms equal "count(all)"
variable tot_energy equal "c_eatoms"
variable a11 equal "xhi-xlo"
variable a22 equal "yhi-ylo"
variable a33 equal "zhi-zlo"
variable tilt_xy equal "xy"
variable tilt_xz equal "xz"
variable tilt_yz equal "yz"
variable tot_press equal "press"
variable press_xx equal "pxx"
variable press_yy equal "pyy"
variable press_zz equal "pzz"
variable press_xy equal "pxy"
variable press_xz equal "pxz"
variable press_yz equal "pyz"

# ---- output ----
print "pypospack:output_section:begin"
pypospack:output_section:begin
print "tot_energy = ${tot_energy}"
tot_energy = -12.0295937353864
print "num_atoms = ${natoms}"
num_atoms = 8
print "a11 = ${a11}"
a11 = 5.45865046405041
print "a22 = ${a22}"
a22 = 5.45865046405008
print "a33 = ${a33}"
a33 = 5.45865046405048
print "a12 = ${tilt_xy}"
a12 = 0
print "a13 = ${tilt_xz}"
a13 = 0
print "a23 = ${tilt_yz}"
a23 = 0
print "tot_press = ${tot_press}"
tot_press = 3.6858689641356e-05
print "pxx = ${press_xx}"
pxx = 3.68598337199983e-05
print "pyy = ${press_yy}"
pyy = 3.68554713126696e-05
print "pzz = ${press_zz}"
pzz = 3.68607638914001e-05
print "pxy = ${press_xy}"
pxy = 2.55041002777925e-05
print "pxz = ${press_xz}"
pxz = 2.55041885189079e-05
print "pyz = ${press_yz}"
pyz = 2.55038749502424e-05
print "pypospack:output_section:done"
pypospack:output_section:done
print "pypospack:lammps_sim:done"
pypospack:lammps_sim:done
Total wall time: 0:00:00
