# ['Ni']

107 atoms
1 atom types

    0.0000     9.8900 xlo xhi
    0.0000     9.8900 ylo yhi
    0.0000     9.8900 zlo zhi

    0.0000    -0.0000    -0.0000 xy xz yz

Atoms

1 1     1.6483     1.6483     0.0000
2 1     1.6483     0.0000     1.6483
3 1     0.0000     1.6483     1.6483
4 1     0.0000     0.0000     3.2967
5 1     1.6483     1.6483     3.2967
6 1     1.6483     0.0000     4.9450
7 1     0.0000     1.6483     4.9450
8 1     0.0000     0.0000     6.5933
9 1     1.6483     1.6483     6.5933
10 1     1.6483     0.0000     8.2417
11 1     0.0000     1.6483     8.2417
12 1     0.0000     3.2967     0.0000
13 1     1.6483     4.9450     0.0000
14 1     1.6483     3.2967     1.6483
15 1     0.0000     4.9450     1.6483
16 1     0.0000     3.2967     3.2967
17 1     1.6483     4.9450     3.2967
18 1     1.6483     3.2967     4.9450
19 1     0.0000     4.9450     4.9450
20 1     0.0000     3.2967     6.5933
21 1     1.6483     4.9450     6.5933
22 1     1.6483     3.2967     8.2417
23 1     0.0000     4.9450     8.2417
24 1     0.0000     6.5933     0.0000
25 1     1.6483     8.2417     0.0000
26 1     1.6483     6.5933     1.6483
27 1     0.0000     8.2417     1.6483
28 1     0.0000     6.5933     3.2967
29 1     1.6483     8.2417     3.2967
30 1     1.6483     6.5933     4.9450
31 1     0.0000     8.2417     4.9450
32 1     0.0000     6.5933     6.5933
33 1     1.6483     8.2417     6.5933
34 1     1.6483     6.5933     8.2417
35 1     0.0000     8.2417     8.2417
36 1     3.2967     0.0000     0.0000
37 1     4.9450     1.6483     0.0000
38 1     4.9450     0.0000     1.6483
39 1     3.2967     1.6483     1.6483
40 1     3.2967     0.0000     3.2967
41 1     4.9450     1.6483     3.2967
42 1     4.9450     0.0000     4.9450
43 1     3.2967     1.6483     4.9450
44 1     3.2967     0.0000     6.5933
45 1     4.9450     1.6483     6.5933
46 1     4.9450     0.0000     8.2417
47 1     3.2967     1.6483     8.2417
48 1     3.2967     3.2967     0.0000
49 1     4.9450     4.9450     0.0000
50 1     4.9450     3.2967     1.6483
51 1     3.2967     4.9450     1.6483
52 1     3.2967     3.2967     3.2967
53 1     4.9450     4.9450     3.2967
54 1     4.9450     3.2967     4.9450
55 1     3.2967     4.9450     4.9450
56 1     3.2967     3.2967     6.5933
57 1     4.9450     4.9450     6.5933
58 1     4.9450     3.2967     8.2417
59 1     3.2967     4.9450     8.2417
60 1     3.2967     6.5933     0.0000
61 1     4.9450     8.2417     0.0000
62 1     4.9450     6.5933     1.6483
63 1     3.2967     8.2417     1.6483
64 1     3.2967     6.5933     3.2967
65 1     4.9450     8.2417     3.2967
66 1     4.9450     6.5933     4.9450
67 1     3.2967     8.2417     4.9450
68 1     3.2967     6.5933     6.5933
69 1     4.9450     8.2417     6.5933
70 1     4.9450     6.5933     8.2417
71 1     3.2967     8.2417     8.2417
72 1     6.5933     0.0000     0.0000
73 1     8.2417     1.6483     0.0000
74 1     8.2417     0.0000     1.6483
75 1     6.5933     1.6483     1.6483
76 1     6.5933     0.0000     3.2967
77 1     8.2417     1.6483     3.2967
78 1     8.2417     0.0000     4.9450
79 1     6.5933     1.6483     4.9450
80 1     6.5933     0.0000     6.5933
81 1     8.2417     1.6483     6.5933
82 1     8.2417     0.0000     8.2417
83 1     6.5933     1.6483     8.2417
84 1     6.5933     3.2967     0.0000
85 1     8.2417     4.9450     0.0000
86 1     8.2417     3.2967     1.6483
87 1     6.5933     4.9450     1.6483
88 1     6.5933     3.2967     3.2967
89 1     8.2417     4.9450     3.2967
90 1     8.2417     3.2967     4.9450
91 1     6.5933     4.9450     4.9450
92 1     6.5933     3.2967     6.5933
93 1     8.2417     4.9450     6.5933
94 1     8.2417     3.2967     8.2417
95 1     6.5933     4.9450     8.2417
96 1     6.5933     6.5933     0.0000
97 1     8.2417     8.2417     0.0000
98 1     8.2417     6.5933     1.6483
99 1     6.5933     8.2417     1.6483
100 1     6.5933     6.5933     3.2967
101 1     8.2417     8.2417     3.2967
102 1     8.2417     6.5933     4.9450
103 1     6.5933     8.2417     4.9450
104 1     6.5933     6.5933     6.5933
105 1     8.2417     8.2417     6.5933
106 1     8.2417     6.5933     8.2417
107 1     6.5933     8.2417     8.2417
