# ['Ni']

107 atoms
1 atom types

    0.0000    30.1831 xlo xhi
    0.0000    30.1831 ylo yhi
    0.0000    30.1831 zlo zhi

    0.0000    -0.0000    -0.0000 xy xz yz

Atoms

1 1     5.0305     5.0305     0.0000
2 1     5.0305     0.0000     5.0305
3 1     0.0000     5.0305     5.0305
4 1     0.0000     0.0000    10.0610
5 1     5.0305     5.0305    10.0610
6 1     5.0305     0.0000    15.0915
7 1     0.0000     5.0305    15.0915
8 1     0.0000     0.0000    20.1221
9 1     5.0305     5.0305    20.1221
10 1     5.0305     0.0000    25.1525
11 1     0.0000     5.0305    25.1525
12 1     0.0000    10.0610     0.0000
13 1     5.0305    15.0915     0.0000
14 1     5.0305    10.0610     5.0305
15 1     0.0000    15.0915     5.0305
16 1     0.0000    10.0610    10.0610
17 1     5.0305    15.0915    10.0610
18 1     5.0305    10.0610    15.0915
19 1     0.0000    15.0915    15.0915
20 1     0.0000    10.0610    20.1221
21 1     5.0305    15.0915    20.1221
22 1     5.0305    10.0610    25.1525
23 1     0.0000    15.0915    25.1525
24 1     0.0000    20.1221     0.0000
25 1     5.0305    25.1525     0.0000
26 1     5.0305    20.1221     5.0305
27 1     0.0000    25.1525     5.0305
28 1     0.0000    20.1221    10.0610
29 1     5.0305    25.1525    10.0610
30 1     5.0305    20.1221    15.0915
31 1     0.0000    25.1525    15.0915
32 1     0.0000    20.1221    20.1221
33 1     5.0305    25.1525    20.1221
34 1     5.0305    20.1221    25.1525
35 1     0.0000    25.1525    25.1525
36 1    10.0610     0.0000     0.0000
37 1    15.0915     5.0305     0.0000
38 1    15.0915     0.0000     5.0305
39 1    10.0610     5.0305     5.0305
40 1    10.0610     0.0000    10.0610
41 1    15.0915     5.0305    10.0610
42 1    15.0915     0.0000    15.0915
43 1    10.0610     5.0305    15.0915
44 1    10.0610     0.0000    20.1221
45 1    15.0915     5.0305    20.1221
46 1    15.0915     0.0000    25.1525
47 1    10.0610     5.0305    25.1525
48 1    10.0610    10.0610     0.0000
49 1    15.0915    15.0915     0.0000
50 1    15.0915    10.0610     5.0305
51 1    10.0610    15.0915     5.0305
52 1    10.0610    10.0610    10.0610
53 1    15.0915    15.0915    10.0610
54 1    15.0915    10.0610    15.0915
55 1    10.0610    15.0915    15.0915
56 1    10.0610    10.0610    20.1221
57 1    15.0915    15.0915    20.1221
58 1    15.0915    10.0610    25.1525
59 1    10.0610    15.0915    25.1525
60 1    10.0610    20.1221     0.0000
61 1    15.0915    25.1525     0.0000
62 1    15.0915    20.1221     5.0305
63 1    10.0610    25.1525     5.0305
64 1    10.0610    20.1221    10.0610
65 1    15.0915    25.1525    10.0610
66 1    15.0915    20.1221    15.0915
67 1    10.0610    25.1525    15.0915
68 1    10.0610    20.1221    20.1221
69 1    15.0915    25.1525    20.1221
70 1    15.0915    20.1221    25.1525
71 1    10.0610    25.1525    25.1525
72 1    20.1221     0.0000     0.0000
73 1    25.1525     5.0305     0.0000
74 1    25.1525     0.0000     5.0305
75 1    20.1221     5.0305     5.0305
76 1    20.1221     0.0000    10.0610
77 1    25.1525     5.0305    10.0610
78 1    25.1525     0.0000    15.0915
79 1    20.1221     5.0305    15.0915
80 1    20.1221     0.0000    20.1221
81 1    25.1525     5.0305    20.1221
82 1    25.1525     0.0000    25.1525
83 1    20.1221     5.0305    25.1525
84 1    20.1221    10.0610     0.0000
85 1    25.1525    15.0915     0.0000
86 1    25.1525    10.0610     5.0305
87 1    20.1221    15.0915     5.0305
88 1    20.1221    10.0610    10.0610
89 1    25.1525    15.0915    10.0610
90 1    25.1525    10.0610    15.0915
91 1    20.1221    15.0915    15.0915
92 1    20.1221    10.0610    20.1221
93 1    25.1525    15.0915    20.1221
94 1    25.1525    10.0610    25.1525
95 1    20.1221    15.0915    25.1525
96 1    20.1221    20.1221     0.0000
97 1    25.1525    25.1525     0.0000
98 1    25.1525    20.1221     5.0305
99 1    20.1221    25.1525     5.0305
100 1    20.1221    20.1221    10.0610
101 1    25.1525    25.1525    10.0610
102 1    25.1525    20.1221    15.0915
103 1    20.1221    25.1525    15.0915
104 1    20.1221    20.1221    20.1221
105 1    25.1525    25.1525    20.1221
106 1    25.1525    20.1221    25.1525
107 1    20.1221    25.1525    25.1525
