LAMMPS (11 Aug 2017)
# ---- initialize simulations
clear
units metal
dimension 3
boundary p p p
atom_style atomic
atom_modify map array
# ---- create atoms
read_data /ufrc/phillpot/eragasa/pareto_optimization_3.5NN/rank_42/Ni_fcc_111_s.lmps_min_pos/lammps.structure
  triclinic box = (0 0 0) to (2.4796 4.2949 36.4374) with tilt (0 0 -0.0004)
  1 by 1 by 1 MPI processor grid
  reading atoms ...
  18 atoms
# ---- define interatomic potential
include potential.mod
mass 1 58.6934

group Ni type 1
18 atoms in group Ni

pair_style eam/alloy
pair_coeff * * /ufrc/phillpot/eragasa/pareto_optimization_3.5NN/rank_42/Ni_fcc_111_s.lmps_min_pos/Ni.eam.alloy Ni

neighbor 1.0 bin
neigh_modify every 1 delay 0 check yes
# ---- define settings
compute eng all pe/atom
compute eatoms all reduce sum c_eng

# ---- run minimization
reset_timestep 0
thermo 1
thermo_style custom step pe lx ly lz xy xz yz press pxx pyy pzz pxy pxz pyz c_eatoms
min_style cg
minimize 1e-20 1e-20 1000 100000
Neighbor list info ...
  update every 1 steps, delay 0 steps, check yes
  max neighbors/atom: 2000, page size: 100000
  master list distance cutoff = 5.64464
  ghost atom cutoff = 5.64464
  binsize = 2.82232, bins = 1 2 13
  1 neighbor lists, perpetual/occasional/extra = 1 0 0
  (1) pair eam/alloy, perpetual
      attributes: half, newton on
      pair build: half/bin/newton/tri
      stencil: half/bin/3d/newton/tri
      bin: standard
Per MPI rank memory allocation (min/avg/max) = 4.216 | 4.216 | 4.216 Mbytes
Step PotEng Lx Ly Lz Xy Xz Yz Press Pxx Pyy Pzz Pxy Pxz Pyz c_eatoms 
       0   -45.869379       2.4796       4.2949      36.4374            0            0      -0.0004   -3616.9324   -4080.1277   -4095.5264   -2675.1433 -8.8813755e-13 3.6098494e-12    3.1290777   -45.869379 
       1   -45.871922       2.4796       4.2949      36.4374            0            0      -0.0004      -3114.8   -3775.0813   -3790.4374   -1778.8812 -1.6330271e-12 3.6098494e-12    3.1058087   -45.871922 
       2   -45.872483       2.4796       4.2949      36.4374            0            0      -0.0004   -2707.2348   -3526.7391   -3541.9708   -1052.9944 -1.6616767e-12 2.4638655e-12    3.0094296   -45.872483 
       3     -45.8726       2.4796       4.2949      36.4374            0            0      -0.0004   -2588.0007   -3455.0633   -3470.1083   -838.83052 -6.3029117e-13 2.9795582e-12    2.8520111     -45.8726 
       4   -45.872621       2.4796       4.2949      36.4374            0            0      -0.0004   -2476.6862   -3388.1569    -3402.918   -638.98366 -1.5470783e-12 3.495251e-12    2.6096341   -45.872621 
       5   -45.872665       2.4796       4.2949      36.4374            0            0      -0.0004   -2192.8363   -3217.4758   -3231.5113   -129.52174 -5.7299197e-13 4.0109438e-12    1.9904193   -45.872665 
       6    -45.87269       2.4796       4.2949      36.4374            0            0      -0.0004   -2110.9736   -3169.4138   -3183.0487    19.541615 4.5839358e-13 1.7762751e-12    1.6456832    -45.87269 
       7   -45.872692       2.4796       4.2949      36.4374            0            0      -0.0004   -2102.5649   -3164.4058   -3178.0454    34.756377 -1.4324799e-12 2.5784639e-12    1.6504327   -45.872692 
       8   -45.872693       2.4796       4.2949      36.4374            0            0      -0.0004    -2106.028   -3166.5073   -3180.1754    28.598691 -3.9536446e-12 2.5784639e-12    1.6752621   -45.872693 
       9   -45.872693       2.4796       4.2949      36.4374            0            0      -0.0004   -2109.2249   -3168.4371   -3182.1349    22.897366 -3.2660542e-12 4.0109438e-12    1.7011453   -45.872693 
      10   -45.872693       2.4796       4.2949      36.4374            0            0      -0.0004   -2112.6732    -3170.482   -3184.2305    16.692951 -1.2605823e-12 4.2401406e-12    1.7456607   -45.872693 
      11   -45.872693       2.4796       4.2949      36.4374            0            0      -0.0004   -2118.8586   -3174.1745   -3187.9572    5.5557697 -1.4897791e-12 3.495251e-12    1.7762597   -45.872693 
      12   -45.872693       2.4796       4.2949      36.4374            0            0      -0.0004   -2122.6139   -3176.4521   -3190.1966   -1.1929997 -1.4324799e-13 2.6357631e-12    1.7436029   -45.872693 
      13   -45.872693       2.4796       4.2949      36.4374            0            0      -0.0004   -2122.2845   -3176.2953   -3189.9393  -0.61898283 -9.1678715e-13 1.7189759e-12    1.6563427   -45.872693 
      14   -45.872693       2.4796       4.2949      36.4374            0            0      -0.0004    -2122.271   -3176.3465   -3189.8716  -0.59504631 -2.3492671e-12 2.6357631e-12    1.5530302   -45.872693 
      15   -45.872693       2.4796       4.2949      36.4374            0            0      -0.0004   -2122.2852    -3176.416   -3189.8199  -0.61986864 -2.7217119e-12 4.8704317e-12    1.4478496   -45.872693 
      16   -45.872693       2.4796       4.2949      36.4374            0            0      -0.0004   -2122.2413   -3176.4615    -3189.721  -0.54135535 -5.4434237e-13 3.0941566e-12    1.3225358   -45.872693 
      17   -45.872693       2.4796       4.2949      36.4374            0            0      -0.0004    -2122.268   -3176.5365   -3189.6807  -0.58694566 -2.5211647e-12 4.4120382e-12    1.2226297   -45.872693 
      18   -45.872693       2.4796       4.2949      36.4374            0            0      -0.0004   -2122.1615    -3176.636   -3189.4571    -0.391555 -2.3779167e-12 1.8908735e-12   0.94306396   -45.872693 
      19   -45.872693       2.4796       4.2949      36.4374            0            0      -0.0004     -2121.64   -3176.5533   -3188.9098   0.54311317 -9.8268123e-12 4.2401406e-12   0.54125048   -45.872693 
      20   -45.872693       2.4796       4.2949      36.4374            0            0      -0.0004    -2121.421   -3176.5226   -3188.6766    0.9361256 -1.7762751e-11 2.6930623e-12    0.3662146   -45.872693 
      21   -45.872693       2.4796       4.2949      36.4374            0            0      -0.0004   -2121.3668   -3176.5271   -3188.6067    1.0335165 -1.8049247e-12 -1.0313855e-12   0.30207025   -45.872693 
      22   -45.872693       2.4796       4.2949      36.4374            0            0      -0.0004   -2121.4218   -3176.6026   -3188.5951   0.93239856 1.4324799e-12 1.4324799e-12   0.22720993   -45.872693 
      23   -45.872693       2.4796       4.2949      36.4374            0            0      -0.0004   -2121.6161   -3176.7526   -3188.6803   0.58458122 -9.7408635e-12 2.8649599e-12   0.17124542   -45.872693 
      24   -45.872693       2.4796       4.2949      36.4374            0            0      -0.0004   -2121.7966   -3176.8956   -3188.7553   0.26116714 -3.8390462e-12 1.6043775e-12   0.11245007   -45.872693 
      25   -45.872693       2.4796       4.2949      36.4374            0            0      -0.0004   -2121.8619    -3176.962   -3188.7664   0.14266227 1.9481727e-12 -7.7353916e-12  0.064518042   -45.872693 
      26   -45.872693       2.4796       4.2949      36.4374            0            0      -0.0004   -2121.8872   -3176.9872   -3188.7718  0.097202479 2.8649599e-14 -4.4120382e-12  0.047343252   -45.872693 
      27   -45.872693       2.4796       4.2949      36.4374            0            0      -0.0004   -2121.8898   -3176.9952   -3188.7664  0.092343259 1.8822786e-11 -2.7503615e-12  0.035730687   -45.872693 
      28   -45.872693       2.4796       4.2949      36.4374            0            0      -0.0004   -2121.9082   -3177.0189   -3188.7644  0.058722718 1.2204729e-11 -3.5525502e-12  0.013442543   -45.872693 
      29   -45.872693       2.4796       4.2949      36.4374            0            0      -0.0004   -2121.9437   -3177.0476   -3188.7788 -0.0048095704 -4.8704317e-12 7.276998e-12 0.0011447078   -45.872693 
      30   -45.872693       2.4796       4.2949      36.4374            0            0      -0.0004    -2121.947   -3177.0501   -3188.7803  -0.01067276 6.847254e-12 6.0164157e-12 0.00015790454   -45.872693 
      31   -45.872693       2.4796       4.2949      36.4374            0            0      -0.0004   -2121.9486   -3177.0512   -3188.7811  -0.01349466 -4.211491e-12 -1.1173343e-11 -0.00012392536   -45.872693 
      32   -45.872693       2.4796       4.2949      36.4374            0            0      -0.0004   -2121.9491   -3177.0515   -3188.7813 -0.014297348 1.5327535e-11 6.7040061e-12 -0.00012767718   -45.872693 
      33   -45.872693       2.4796       4.2949      36.4374            0            0      -0.0004   -2121.9464   -3177.0499   -3188.7798 -0.0095257851 2.0054719e-13 8.7094779e-12 -8.1617092e-05   -45.872693 
      34   -45.872693       2.4796       4.2949      36.4374            0            0      -0.0004   -2121.9429   -3177.0477   -3188.7777 -0.0031554363 -6.7040061e-12 -2.922259e-12 -1.319237e-05   -45.872693 
      35   -45.872693       2.4796       4.2949      36.4374            0            0      -0.0004   -2121.9411   -3177.0467   -3188.7767 -6.5934868e-05 9.1678715e-13 -3.0368574e-12 1.6635903e-05   -45.872693 
      36   -45.872693       2.4796       4.2949      36.4374            0            0      -0.0004   -2121.9409   -3177.0465   -3188.7765 0.00039171438 -9.0819227e-12 -4.9277309e-12 1.8448058e-05   -45.872693 
      37   -45.872693       2.4796       4.2949      36.4374            0            0      -0.0004   -2121.9409   -3177.0465   -3188.7765 0.00042082843 7.5921436e-12 3.8963454e-12 1.8423056e-05   -45.872693 
      38   -45.872693       2.4796       4.2949      36.4374            0            0      -0.0004   -2121.9409   -3177.0465   -3188.7765 0.00038985571 4.4406878e-12 1.6043775e-12 1.7691636e-05   -45.872693 
      39   -45.872693       2.4796       4.2949      36.4374            0            0      -0.0004   -2121.9409   -3177.0466   -3188.7765 0.00031151246 -2.7790111e-12 -1.7189759e-13 1.516304e-05   -45.872693 
      40   -45.872693       2.4796       4.2949      36.4374            0            0      -0.0004    -2121.941   -3177.0466   -3188.7766 0.0001789623 2.2060191e-12 1.7762751e-12 1.2417066e-05   -45.872693 
      41   -45.872693       2.4796       4.2949      36.4374            0            0      -0.0004   -2121.9411   -3177.0467   -3188.7766 4.9723355e-05 4.0968926e-12 5.4434237e-12 9.5213171e-06   -45.872693 
      42   -45.872693       2.4796       4.2949      36.4374            0            0      -0.0004   -2121.9411   -3177.0467   -3188.7766 -1.0978279e-06 1.1488489e-11 3.0941566e-12 8.4044886e-06   -45.872693 
      43   -45.872693       2.4796       4.2949      36.4374            0            0      -0.0004   -2121.9411   -3177.0467   -3188.7766 -6.9096185e-06 -2.6071135e-12 -5.7299197e-13 8.7936325e-06   -45.872693 
      44   -45.872693       2.4796       4.2949      36.4374            0            0      -0.0004   -2121.9411   -3177.0467   -3188.7766 -8.4795101e-06 -1.1832284e-11 -5.7299197e-12 9.4751763e-06   -45.872693 
      45   -45.872693       2.4796       4.2949      36.4374            0            0      -0.0004   -2121.9411   -3177.0467   -3188.7766 -7.4359258e-06 -5.8445181e-12 -7.563494e-12 1.0039451e-05   -45.872693 
      46   -45.872693       2.4796       4.2949      36.4374            0            0      -0.0004   -2121.9411   -3177.0467   -3188.7766 -6.8915009e-06 -2.8649599e-13 7.3915964e-12 1.0335461e-05   -45.872693 
      47   -45.872693       2.4796       4.2949      36.4374            0            0      -0.0004   -2121.9411   -3177.0467   -3188.7766 -7.656216e-06 -3.8676958e-12 6.9332028e-12 1.0329971e-05   -45.872693 
      48   -45.872693       2.4796       4.2949      36.4374            0            0      -0.0004   -2121.9411   -3177.0467   -3188.7766 -5.9744342e-06 3.7244478e-13 1.8908735e-12 9.873257e-06   -45.872693 
      49   -45.872693       2.4796       4.2949      36.4374            0            0      -0.0004   -2121.9411   -3177.0467   -3188.7766 -5.8237804e-07 -6.8759036e-12 -5.3288253e-12 8.5949717e-06   -45.872693 
      50   -45.872693       2.4796       4.2949      36.4374            0            0      -0.0004   -2121.9411   -3177.0467   -3188.7766 6.9245539e-06 -2.0054719e-12 -6.9332028e-12 5.8366642e-06   -45.872693 
      51   -45.872693       2.4796       4.2949      36.4374            0            0      -0.0004   -2121.9411   -3177.0467   -3188.7766 9.5272182e-06 -1.1459839e-12 -5.0996285e-12 4.8436837e-06   -45.872693 
Loop time of 0.037241 on 1 procs for 51 steps with 18 atoms

8.5% CPU use with 1 MPI tasks x no OpenMP threads

Minimization stats:
  Stopping criterion = energy tolerance
  Energy initial, next-to-last, final = 
        -45.8693789635     -45.8726926127     -45.8726926127
  Force two-norm initial, final = 0.225986 1.51683e-10
  Force max component initial, final = 0.080807 6.00471e-11
  Final line search alpha, max atom move = 1 6.00471e-11
  Iterations, force evaluations = 51 102

MPI task timing breakdown:
Section |  min time  |  avg time  |  max time  |%varavg| %total
---------------------------------------------------------------
Pair    | 0.0030966  | 0.0030966  | 0.0030966  |   0.0 |  8.31
Neigh   | 0          | 0          | 0          |   0.0 |  0.00
Comm    | 0.00023317 | 0.00023317 | 0.00023317 |   0.0 |  0.63
Output  | 0.033778   | 0.033778   | 0.033778   |   0.0 | 90.70
Modify  | 0          | 0          | 0          |   0.0 |  0.00
Other   |            | 0.0001333  |            |       |  0.36

Nlocal:    18 ave 18 max 18 min
Histogram: 1 0 0 0 0 0 0 0 0 0
Nghost:    442 ave 442 max 442 min
Histogram: 1 0 0 0 0 0 0 0 0 0
Neighs:    618 ave 618 max 618 min
Histogram: 1 0 0 0 0 0 0 0 0 0

Total # of neighbors = 618
Ave neighs/atom = 34.3333
Neighbor list builds = 0
Dangerous builds = 0

# ---- define output variables ----
variable natoms equal "count(all)"
variable tot_energy equal "c_eatoms"
variable a11 equal "xhi-xlo"
variable a22 equal "yhi-ylo"
variable a33 equal "zhi-zlo"
variable tilt_xy equal "xy"
variable tilt_xz equal "xz"
variable tilt_yz equal "yz"
variable tot_press equal "press"
variable press_xx equal "pxx"
variable press_yy equal "pyy"
variable press_zz equal "pzz"
variable press_xy equal "pxy"
variable press_xz equal "pxz"
variable press_yz equal "pyz"

# ---- output ----
print "pypospack:output_section:begin"
pypospack:output_section:begin
print "tot_energy = ${tot_energy}"
tot_energy = -45.8726926126549
print "num_atoms = ${natoms}"
num_atoms = 18
print "a11 = ${a11}"
a11 = 2.4796
print "a22 = ${a22}"
a22 = 4.2949
print "a33 = ${a33}"
a33 = 36.4374
print "a12 = ${tilt_xy}"
a12 = 0
print "a13 = ${tilt_xz}"
a13 = 0
print "a23 = ${tilt_yz}"
a23 = -0.0004
print "tot_press = ${tot_press}"
tot_press = -2121.94109876986
print "pxx = ${press_xx}"
pxx = -3177.04666598433
print "pyy = ${press_yy}"
pyy = -3188.77663985248
print "pzz = ${press_zz}"
pzz = 9.52721816637267e-06
print "pxy = ${press_xy}"
pxy = -1.14598394047071e-12
print "pxz = ${press_xz}"
pxz = -5.09962853509467e-12
print "pyz = ${press_yz}"
pyz = 4.84368370829078e-06
print "pypospack:output_section:done"
pypospack:output_section:done
print "pypospack:lammps_sim:done"
pypospack:lammps_sim:done
Total wall time: 0:00:00
