LAMMPS (11 Aug 2017)
Reading data file ...
  triclinic box = (0 0 0) to (2.8005 2.8005 2.8005) with tilt (0 0 0)
  1 by 1 by 1 MPI processor grid
  reading atoms ...
  2 atoms
2 atoms in group Ni
Neighbor list info ...
  update every 1 steps, delay 0 steps, check yes
  max neighbors/atom: 2000, page size: 100000
  master list distance cutoff = 5.64464
  ghost atom cutoff = 5.64464
  binsize = 2.82232, bins = 1 1 1
  1 neighbor lists, perpetual/occasional/extra = 1 0 0
  (1) pair eam/alloy, perpetual
      attributes: half, newton on
      pair build: half/bin/newton/tri
      stencil: half/bin/3d/newton/tri
      bin: standard
Setting up cg style minimization ...
  Unit style    : metal
  Current step  : 0
WARNING: Energy due to 3 extra global DOFs will be included in minimizer energies
Per MPI rank memory allocation (min/avg/max) = 4.24 | 4.24 | 4.24 Mbytes
Step PotEng Xhi Xlo Yhi Ylo Zhi Xy Xz Yz Press Pxx Pyy Pzz Pxy Pxz Pyz c_eatoms 
       0   -12.476974       2.8005            0       2.8005            0       2.8005            0            0            0   -224669.49   -224669.49   -224669.49   -224669.49  0.033778014  0.033778014  0.033778014   -12.476974 
      10   -12.561723    2.7864975    0.0140025    2.7864975    0.0140025    2.7864975            0            0            0   -190431.79   -190431.79   -190431.79   -190431.79 0.0036304267 0.0036304267 0.0036304267   -12.561723 
      20   -12.629704     2.772495     0.028005     2.772495     0.028005     2.772495            0            0            0   -148845.87   -148845.87   -148845.87   -148845.87 0.0035554394 0.0035554392 0.0035554392   -12.629704 
      30    -12.67844    2.7584925    0.0420075    2.7584925    0.0420075    2.7584925            0            0            0   -98794.553   -98794.553   -98794.553   -98794.553 0.0032428408 0.0032428408 0.0032428408    -12.67844 
      40   -12.705214      2.74449      0.05601      2.74449      0.05601      2.74449            0            0            0   -39108.981   -39108.981   -39108.981   -39108.981 0.0024021123 0.0024021122 0.0024021123   -12.705214 
      50   -12.709564    2.7362962  0.064203763    2.7362962  0.064203763    2.7362962            0            0            0 0.0010468993 0.0010468992 0.0010468993 0.0010468993 -7.6042549e-11 -1.1246139e-10 -1.3052514e-10   -12.709564 
      53   -12.709564    2.7362962  0.064203763    2.7362962  0.064203763    2.7362962            0            0            0 8.1694753e-10 8.8133605e-10 7.6071684e-10 8.0878971e-10 1.1231572e-10 -7.1672287e-11 1.899607e-10   -12.709564 
Loop time of 0.000899076 on 1 procs for 53 steps with 2 atoms

100.0% CPU use with 1 MPI tasks x no OpenMP threads

Minimization stats:
  Stopping criterion = energy tolerance
  Energy initial, next-to-last, final = 
        -12.4769741719     -12.7095637254     -12.7095637254
  Force two-norm initial, final = 5.33459 1.93065e-14
  Force max component initial, final = 3.07993 1.09994e-14
  Final line search alpha, max atom move = 1 1.09994e-14
  Iterations, force evaluations = 53 61

MPI task timing breakdown:
Section |  min time  |  avg time  |  max time  |%varavg| %total
---------------------------------------------------------------
Pair    | 0.0004003  | 0.0004003  | 0.0004003  |   0.0 | 44.52
Neigh   | 0          | 0          | 0          |   0.0 |  0.00
Comm    | 0.0001092  | 0.0001092  | 0.0001092  |   0.0 | 12.15
Output  | 5.1737e-05 | 5.1737e-05 | 5.1737e-05 |   0.0 |  5.75
Modify  | 0          | 0          | 0          |   0.0 |  0.00
Other   |            | 0.0003378  |            |       | 37.58

Nlocal:    2 ave 2 max 2 min
Histogram: 1 0 0 0 0 0 0 0 0 0
Nghost:    339 ave 339 max 339 min
Histogram: 1 0 0 0 0 0 0 0 0 0
Neighs:    64 ave 64 max 64 min
Histogram: 1 0 0 0 0 0 0 0 0 0

Total # of neighbors = 64
Ave neighs/atom = 32
Neighbor list builds = 0
Dangerous builds = 0
pypospack:output_section:begin
tot_energy = -12.7095637253928
num_atoms = 2
a11 = 2.67209247409818
a22 = 2.67209247409818
a33 = 2.67209247409818
a12 = 0
a13 = 0
a23 = 0
tot_press = 8.16947534870892e-10
pxx = 8.81336053132828e-10
pyy = 7.60716837927211e-10
pzz = 8.08789713552638e-10
pxy = 1.12315718506679e-10
pxz = -7.16722872960911e-11
pyz = 1.89960696410778e-10
pypospack:output_section:done
pypospack:lammps_sim:done
Total wall time: 0:00:00
