   2   2   0   0
  0.2158484E+02  0.3508000E-09  0.3508000E-09  0.3508000E-09  0.5000000E-15
  1.000000000000000E-004
  CAR 
 automatically generated by pyflamestk   
     29.83178667     -0.72104459  301      9.24893807      1.00000000
     -0.721  0.0000E+00  0.0000E+00  0.0000E+00  0.0000E+00
     -0.619  0.0000E+00  0.0000E+00  0.0000E+00  0.0000E+00
     -0.517  0.0000E+00  0.0000E+00  0.0000E+00  0.0000E+00
     -0.416 -0.4912E-32  0.0000E+00 -0.5003E-33  0.0000E+00
     -0.314 -0.1990E-28 -0.4275E-29 -0.2028E-29 -0.4353E-30
     -0.212 -0.4782E-25 -0.1134E-25 -0.4873E-26 -0.1155E-26
     -0.110 -0.6808E-22 -0.1783E-22 -0.6939E-23 -0.1817E-23
     -0.008 -0.5738E-19 -0.1661E-19 -0.5851E-20 -0.1693E-20
      0.094 -0.2860E-16 -0.9148E-17 -0.2919E-17 -0.9333E-18
      0.196 -0.8138E-14 -0.2880E-14 -0.8317E-15 -0.2942E-15
      0.297 -0.1402E-11 -0.5490E-12 -0.1436E-12 -0.5620E-13
      0.399 -0.1416E-09 -0.6139E-10 -0.1457E-10 -0.6308E-11
      0.501 -0.8340E-08 -0.4008E-08 -0.8639E-09 -0.4145E-09
      0.603 -0.2839E-06 -0.1516E-06 -0.2977E-07 -0.1585E-07
      0.705 -0.5496E-05 -0.3272E-05 -0.5895E-06 -0.3491E-06
      0.807 -0.5864E-04 -0.3924E-04 -0.6561E-05 -0.4346E-05
      0.908 -0.3189E-03 -0.2453E-03 -0.3904E-04 -0.2932E-04
      1.010 -0.6483E-03 -0.6393E-03 -0.1051E-03 -0.9443E-04
      1.112  0.1085E-02  0.4242E-03  0.5388E-05 -0.5123E-04
      1.214  0.7325E-02  0.5900E-02  0.7514E-03  0.5496E-03
      1.316  0.1266E-01  0.1221E-01  0.2041E-02  0.1793E-02
      1.418  0.9344E-02  0.1058E-01  0.2992E-02  0.2870E-02
      1.519  0.2387E-02  0.3510E-02  0.3236E-02  0.3228E-02
      1.621 -0.5324E-03 -0.3237E-03  0.3181E-02  0.3195E-02
      1.723 -0.4406E-03 -0.5255E-03  0.3136E-02  0.3141E-02
      1.825 -0.1007E-03 -0.1417E-03  0.3126E-02  0.3127E-02
      1.927 -0.1124E-04 -0.1790E-04  0.3125E-02  0.3125E-02
      2.029 -0.6816E-06 -0.1214E-05  0.3125E-02  0.3125E-02
      2.131 -0.2335E-07 -0.4628E-07  0.3125E-02  0.3125E-02
      2.232 -0.4609E-09 -0.1013E-08  0.3125E-02  0.3125E-02
      2.334 -0.5293E-11 -0.1289E-10  0.3125E-02  0.3125E-02
      2.436 -0.1310E-12 -0.3147E-12  0.3125E-02  0.3125E-02
      2.538 -0.1434E-10 -0.3024E-10  0.3125E-02  0.3125E-02
      2.640 -0.1264E-08 -0.2446E-08  0.3125E-02  0.3125E-02
      2.742 -0.6478E-07 -0.1150E-06  0.3125E-02  0.3125E-02
      2.843 -0.1913E-05 -0.3108E-05  0.3125E-02  0.3125E-02
      2.945 -0.3195E-04 -0.4728E-04  0.3122E-02  0.3120E-02
      3.047 -0.2902E-03 -0.3874E-03  0.3092E-02  0.3080E-02
      3.149 -0.1293E-02 -0.1507E-02  0.2960E-02  0.2927E-02
      3.251 -0.1645E-02 -0.1184E-02  0.2793E-02  0.2806E-02
      3.353  0.6816E-02  0.9540E-02  0.3487E-02  0.3778E-02
      3.455  0.2758E-01  0.3076E-01  0.6296E-02  0.6911E-02
      3.556  0.3807E-01  0.3711E-01  0.1017E-01  0.1069E-01
      3.658  0.2246E-01  0.1888E-01  0.1246E-01  0.1261E-01
      3.760  0.3513E-02  0.1768E-02  0.1282E-01  0.1279E-01
      3.862 -0.1937E-02 -0.1942E-02  0.1262E-01  0.1260E-01
      3.964 -0.9836E-03 -0.7992E-03  0.1252E-01  0.1251E-01
      4.066 -0.1840E-03 -0.2025E-03  0.1250E-01  0.1249E-01
      4.167 -0.2326E-04 -0.5278E-03  0.1250E-01  0.1244E-01
      4.269 -0.7874E-04 -0.1718E-02  0.1249E-01  0.1226E-01
      4.371 -0.5535E-03 -0.3912E-03  0.1244E-01  0.1222E-01
      4.473 -0.1764E-02  0.1281E-01  0.1226E-01  0.1353E-01
      4.575 -0.1348E-03  0.3368E-01  0.1224E-01  0.1696E-01
      4.677  0.1369E-01  0.3520E-01  0.1364E-01  0.2055E-01
      4.778  0.3434E-01  0.1452E-01  0.1713E-01  0.2202E-01
      4.880  0.3472E-01 -0.1555E-02  0.2067E-01  0.2187E-01
      4.982  0.1421E-01 -0.1572E-02  0.2212E-01  0.2171E-01
      5.084 -0.3393E-03  0.1390E-01  0.2208E-01  0.2312E-01
      5.186 -0.3329E-02  0.3355E-01  0.2174E-01  0.2654E-01
      5.288 -0.2292E-02  0.3767E-01  0.2151E-01  0.3037E-01
      5.390  0.7103E-02  0.3797E-01  0.2223E-01  0.3424E-01
      5.491  0.2783E-01  0.5023E-01  0.2507E-01  0.3936E-01
      5.593  0.4774E-01  0.5300E-01  0.2993E-01  0.4475E-01
      5.695  0.6276E-01  0.3347E-01  0.3632E-01  0.4816E-01
      5.797  0.6391E-01  0.1256E-01  0.4283E-01  0.4944E-01
      5.899  0.3620E-01  0.1749E-01  0.4652E-01  0.5122E-01
      6.001  0.7577E-02  0.5627E-01  0.4729E-01  0.5695E-01
      6.102  0.7144E-02  0.9793E-01  0.4801E-01  0.6693E-01
      6.204  0.1968E-01  0.1057E+00  0.5002E-01  0.7769E-01
      6.306  0.2872E-01  0.8527E-01  0.5294E-01  0.8637E-01
      6.408  0.4506E-01  0.5177E-01  0.5753E-01  0.9164E-01
      6.510  0.6255E-01  0.2717E-01  0.6390E-01  0.9441E-01
      6.612  0.7047E-01  0.4604E-01  0.7108E-01  0.9910E-01
      6.713  0.8328E-01  0.8074E-01  0.7956E-01  0.1073E+00
      6.815  0.8213E-01  0.7224E-01  0.8793E-01  0.1147E+00
      6.917  0.4705E-01  0.4383E-01  0.9272E-01  0.1191E+00
      7.019  0.1917E-01  0.5973E-01  0.9467E-01  0.1252E+00
      7.121  0.3394E-01  0.9611E-01  0.9813E-01  0.1350E+00
      7.223  0.7023E-01  0.8400E-01  0.1053E+00  0.1436E+00
      7.325  0.9839E-01  0.3759E-01  0.1153E+00  0.1474E+00
      7.426  0.1075E+00  0.1120E-01  0.1262E+00  0.1485E+00
      7.528  0.9746E-01  0.5805E-02  0.1362E+00  0.1491E+00
      7.630  0.7126E-01  0.2883E-02  0.1434E+00  0.1494E+00
      7.732  0.3344E-01  0.1702E-01  0.1468E+00  0.1512E+00
      7.834  0.4587E-02  0.5608E-01  0.1473E+00  0.1569E+00
      7.936 -0.1025E-02  0.7916E-01  0.1472E+00  0.1649E+00
      8.037  0.6025E-02  0.6844E-01  0.1478E+00  0.1719E+00
      8.139  0.1277E-01  0.7367E-01  0.1491E+00  0.1794E+00
      8.241  0.2356E-01  0.1052E+00  0.1515E+00  0.1901E+00
      8.343  0.4253E-01  0.1162E+00  0.1558E+00  0.2020E+00
      8.445  0.5873E-01  0.1067E+00  0.1618E+00  0.2128E+00
      8.547  0.6822E-01  0.9983E-01  0.1688E+00  0.2230E+00
      8.648  0.8044E-01  0.9924E-01  0.1770E+00  0.2331E+00
      8.750  0.1062E+00  0.1115E+00  0.1878E+00  0.2444E+00
      8.852  0.1328E+00  0.1064E+00  0.2013E+00  0.2553E+00
      8.954  0.1336E+00  0.6228E-01  0.2149E+00  0.2616E+00
      9.056  0.1015E+00  0.1559E-01  0.2253E+00  0.2632E+00
      9.158  0.6625E-01 -0.3826E-02  0.2320E+00  0.2628E+00
      9.260  0.6295E-01 -0.5103E-02  0.2384E+00  0.2623E+00
      9.361  0.8081E-01  0.1750E-02  0.2466E+00  0.2625E+00
      9.463  0.8618E-01  0.2063E-01  0.2554E+00  0.2646E+00
      9.565  0.5822E-01  0.3770E-01  0.2613E+00  0.2684E+00
      9.667  0.1696E-01  0.2914E-01  0.2631E+00  0.2714E+00
      9.769 -0.3959E-02  0.8064E-02  0.2627E+00  0.2722E+00
      9.871 -0.3321E-02 -0.1457E-02  0.2623E+00  0.2721E+00
      9.972  0.1236E-01 -0.1395E-02  0.2636E+00  0.2719E+00
     10.074  0.3387E-01 -0.3337E-03  0.2670E+00  0.2719E+00
     10.176  0.3504E-01 -0.3856E-04  0.2706E+00  0.2719E+00
     10.278  0.1476E-01 -0.2413E-05  0.2721E+00  0.2719E+00
     10.380  0.2018E-03 -0.8523E-07  0.2721E+00  0.2719E+00
     10.482 -0.1815E-02 -0.1733E-08  0.2719E+00  0.2719E+00
     10.584 -0.5999E-03 -0.1293E-09  0.2719E+00  0.2719E+00
     10.685 -0.8735E-04 -0.7570E-08  0.2719E+00  0.2719E+00
     10.787 -0.6712E-05 -0.3054E-06  0.2719E+00  0.2719E+00
     10.889 -0.2889E-06 -0.7049E-05  0.2719E+00  0.2719E+00
     10.991 -0.5657E-07 -0.9079E-04  0.2719E+00  0.2719E+00
     11.093 -0.1523E-05 -0.6162E-03  0.2719E+00  0.2718E+00
     11.195 -0.2654E-04 -0.1831E-02  0.2719E+00  0.2716E+00
     11.296 -0.2526E-03  0.3234E-03  0.2718E+00  0.2716E+00
     11.398 -0.1194E-02  0.1513E-01  0.2717E+00  0.2732E+00
     11.500 -0.1781E-02  0.3524E-01  0.2715E+00  0.2768E+00
     11.602  0.5688E-02  0.3339E-01  0.2721E+00  0.2802E+00
     11.704  0.2601E-01  0.1143E-01  0.2748E+00  0.2813E+00
     11.806  0.3809E-01 -0.2333E-02  0.2787E+00  0.2811E+00
     11.907  0.2318E-01  0.5012E-02  0.2810E+00  0.2816E+00
     12.009  0.2227E-02  0.3050E-01  0.2812E+00  0.2847E+00
     12.111 -0.1150E-03  0.4873E-01  0.2812E+00  0.2897E+00
     12.213  0.1989E-01  0.3487E-01  0.2833E+00  0.2932E+00
     12.315  0.4379E-01  0.9032E-02  0.2877E+00  0.2942E+00
     12.417  0.4192E-01 -0.1869E-02  0.2920E+00  0.2940E+00
     12.519  0.1855E-01 -0.1659E-02  0.2939E+00  0.2938E+00
     12.620  0.1678E-02 -0.3961E-03  0.2940E+00  0.2938E+00
     12.722 -0.1837E-02 -0.4632E-04  0.2939E+00  0.2938E+00
     12.824 -0.8406E-03 -0.2952E-05  0.2938E+00  0.2938E+00
     12.926 -0.1658E-03 -0.1066E-06  0.2938E+00  0.2938E+00
     13.028 -0.1769E-04 -0.2221E-08  0.2938E+00  0.2938E+00
     13.130 -0.1076E-05 -0.2696E-10  0.2938E+00  0.2938E+00
     13.231 -0.3795E-07 -0.1918E-12  0.2938E+00  0.2938E+00
     13.333 -0.7825E-09 -0.7972E-15  0.2938E+00  0.2938E+00
     13.435 -0.9468E-11  0.0000E+00  0.2938E+00  0.2938E+00
     13.537 -0.6740E-13  0.0000E+00  0.2938E+00  0.2938E+00
     13.639 -0.2862E-15  0.0000E+00  0.2938E+00  0.2938E+00
     13.741  0.0000E+00  0.0000E+00  0.2938E+00  0.2938E+00
     13.842  0.0000E+00  0.0000E+00  0.2938E+00  0.2938E+00
     13.944  0.0000E+00  0.0000E+00  0.2938E+00  0.2938E+00
     14.046  0.0000E+00 -0.2404E-30  0.2938E+00  0.2938E+00
     14.148  0.0000E+00 -0.7996E-27  0.2938E+00  0.2938E+00
     14.250 -0.4176E-30 -0.1577E-23  0.2938E+00  0.2938E+00
     14.352 -0.1342E-26 -0.1842E-20  0.2938E+00  0.2938E+00
     14.454 -0.2557E-23 -0.1273E-17  0.2938E+00  0.2938E+00
     14.555 -0.2885E-20 -0.5034E-15  0.2938E+00  0.2937E+00
     14.657 -0.1926E-17 -0.1210E-12  0.2938E+00  0.2937E+00
     14.759 -0.7365E-15 -0.1705E-10  0.2937E+00  0.2937E+00
     14.861 -0.1706E-12 -0.1406E-08  0.2937E+00  0.2937E+00
     14.963 -0.2321E-10 -0.6743E-07  0.2937E+00  0.2937E+00
     15.065 -0.1847E-08 -0.1860E-05  0.2937E+00  0.2937E+00
     15.166 -0.8541E-07 -0.2894E-04  0.2937E+00  0.2937E+00
     15.268 -0.2269E-05 -0.2439E-03  0.2937E+00  0.2937E+00
     15.370 -0.3392E-04 -0.9997E-03  0.2937E+00  0.2936E+00
     15.472 -0.2726E-03 -0.1127E-02  0.2937E+00  0.2935E+00
     15.574 -0.1036E-02  0.4730E-02  0.2936E+00  0.2940E+00
     15.676 -0.7800E-03  0.1827E-01  0.2935E+00  0.2958E+00
     15.777  0.6223E-02  0.3066E-01  0.2942E+00  0.2990E+00
     15.879  0.1918E-01  0.3921E-01  0.2961E+00  0.3030E+00
     15.981  0.2413E-01  0.3966E-01  0.2986E+00  0.3070E+00
     16.083  0.2482E-01  0.2273E-01  0.3011E+00  0.3093E+00
     16.185  0.3457E-01  0.3854E-02  0.3046E+00  0.3097E+00
     16.287  0.3410E-01 -0.1985E-02  0.3081E+00  0.3095E+00
     16.389  0.1480E-01 -0.1082E-02  0.3096E+00  0.3094E+00
     16.490  0.3009E-03 -0.2120E-03  0.3096E+00  0.3094E+00
     16.592 -0.1846E-02 -0.2101E-04  0.3094E+00  0.3094E+00
     16.694 -0.6245E-03 -0.1146E-05  0.3094E+00  0.3094E+00
     16.796 -0.9249E-04 -0.1541E-06  0.3094E+00  0.3094E+00
     16.898 -0.7383E-05 -0.2995E-05  0.3094E+00  0.3094E+00
     17.000 -0.4299E-05 -0.4234E-04  0.3094E+00  0.3094E+00
     17.101 -0.5314E-04 -0.3195E-03  0.3094E+00  0.3093E+00
     17.203 -0.3752E-03 -0.1110E-02  0.3093E+00  0.3092E+00
     17.305 -0.1183E-02 -0.4250E-03  0.3092E+00  0.3092E+00
     17.407 -0.4606E-04  0.7925E-02  0.3092E+00  0.3100E+00
     17.509  0.9272E-02  0.2186E-01  0.3102E+00  0.3122E+00
     17.611  0.2297E-01  0.2344E-01  0.3125E+00  0.3146E+00
     17.712  0.2287E-01  0.1028E-01  0.3148E+00  0.3156E+00
     17.814  0.8780E-02  0.3188E-02  0.3157E+00  0.3160E+00
     17.916 -0.1089E-03  0.8520E-02  0.3157E+00  0.3168E+00
     18.018  0.3224E-02  0.1208E-01  0.3160E+00  0.3181E+00
     18.120  0.1093E-01  0.6582E-02  0.3171E+00  0.3187E+00
     18.222  0.1141E-01  0.2303E-03  0.3183E+00  0.3188E+00
     18.324  0.4290E-02 -0.5387E-03  0.3187E+00  0.3187E+00
     18.425  0.1881E-03  0.4765E-02  0.3188E+00  0.3192E+00
     18.527  0.4491E-02  0.1171E-01  0.3192E+00  0.3204E+00
     18.629  0.1159E-01  0.1117E-01  0.3204E+00  0.3215E+00
     18.731  0.1116E-01  0.3850E-02  0.3215E+00  0.3219E+00
     18.833  0.4118E-02 -0.1695E-02  0.3220E+00  0.3217E+00
     18.935 -0.8560E-03 -0.1585E-02  0.3219E+00  0.3216E+00
     19.036 -0.2477E-02  0.1017E-01  0.3216E+00  0.3226E+00
     19.138  0.9285E-03  0.3154E-01  0.3217E+00  0.3258E+00
     19.240  0.1724E-01  0.3672E-01  0.3235E+00  0.3296E+00
     19.342  0.3642E-01  0.1792E-01  0.3272E+00  0.3314E+00
     19.444  0.3209E-01  0.1360E-02  0.3304E+00  0.3315E+00
     19.546  0.1091E-01 -0.1923E-02  0.3316E+00  0.3313E+00
     19.648 -0.8838E-03 -0.7463E-03  0.3315E+00  0.3313E+00
     19.749 -0.1602E-02 -0.1202E-03  0.3313E+00  0.3313E+00
     19.851 -0.4396E-03 -0.1010E-04  0.3313E+00  0.3313E+00
     19.953 -0.5630E-04 -0.1081E-05  0.3313E+00  0.3312E+00
     20.055 -0.4140E-05 -0.1278E-04  0.3312E+00  0.3312E+00
     20.157 -0.6762E-05 -0.1494E-03  0.3312E+00  0.3312E+00
     20.259 -0.8903E-04 -0.9259E-03  0.3312E+00  0.3311E+00
     20.360 -0.6472E-03 -0.2516E-02  0.3312E+00  0.3309E+00
     20.462 -0.2221E-02  0.7652E-03  0.3309E+00  0.3310E+00
     20.564 -0.1145E-02  0.2105E-01  0.3308E+00  0.3331E+00
     20.666  0.1470E-01  0.5051E-01  0.3323E+00  0.3382E+00
     20.768  0.4504E-01  0.5429E-01  0.3369E+00  0.3438E+00
     20.870  0.5718E-01  0.2693E-01  0.3427E+00  0.3465E+00
     20.971  0.3394E-01  0.7095E-02  0.3462E+00  0.3472E+00
     21.073  0.9258E-02  0.1833E-01  0.3471E+00  0.3491E+00
     21.175  0.1520E-01  0.3636E-01  0.3487E+00  0.3528E+00
     21.277  0.3475E-01  0.2891E-01  0.3522E+00  0.3558E+00
     21.379  0.3167E-01  0.8076E-02  0.3555E+00  0.3566E+00
     21.481  0.1084E-01 -0.1452E-02  0.3566E+00  0.3564E+00
     21.583 -0.8901E-03 -0.1399E-02  0.3565E+00  0.3563E+00
     21.684 -0.1601E-02 -0.3352E-03  0.3563E+00  0.3563E+00
     21.786 -0.4392E-03 -0.3880E-04  0.3563E+00  0.3563E+00
     21.888 -0.5621E-04 -0.2432E-05  0.3563E+00  0.3563E+00
     21.990 -0.3855E-05 -0.8600E-07  0.3563E+00  0.3563E+00
     22.092 -0.1486E-06 -0.1753E-08  0.3563E+00  0.3563E+00
     22.194 -0.3293E-08 -0.3385E-09  0.3563E+00  0.3562E+00
     22.295 -0.6426E-09 -0.1941E-07  0.3562E+00  0.3562E+00
     22.397 -0.3385E-07 -0.6853E-06  0.3562E+00  0.3562E+00
     22.499 -0.1102E-05 -0.1379E-04  0.3562E+00  0.3562E+00
     22.601 -0.2038E-04 -0.1533E-03  0.3562E+00  0.3562E+00
     22.703 -0.2068E-03 -0.8759E-03  0.3562E+00  0.3561E+00
     22.805 -0.1059E-02 -0.1955E-02  0.3561E+00  0.3559E+00
     22.906 -0.1900E-02  0.2496E-02  0.3559E+00  0.3562E+00
     23.008  0.4259E-02  0.2047E-01  0.3564E+00  0.3583E+00
     23.110  0.2377E-01  0.3763E-01  0.3588E+00  0.3621E+00
     23.212  0.3823E-01  0.2939E-01  0.3627E+00  0.3651E+00
     23.314  0.2634E-01  0.8281E-02  0.3654E+00  0.3660E+00
     23.416  0.5906E-02 -0.1420E-02  0.3660E+00  0.3658E+00
     23.518 -0.1757E-02 -0.1412E-02  0.3658E+00  0.3657E+00
     23.619 -0.1213E-02 -0.3414E-03  0.3657E+00  0.3656E+00
     23.721 -0.2597E-03 -0.3978E-04  0.3656E+00  0.3656E+00
     23.823 -0.2754E-04 -0.2508E-05  0.3656E+00  0.3656E+00
     23.925 -0.1594E-05 -0.8921E-07  0.3656E+00  0.3656E+00
     24.027 -0.5223E-07 -0.1825E-08  0.3656E+00  0.3656E+00
     24.129 -0.9867E-09 -0.2173E-10  0.3656E+00  0.3656E+00
     24.230 -0.1086E-10 -0.4954E-12  0.3656E+00  0.3656E+00
     24.332 -0.1292E-11 -0.4539E-10  0.3656E+00  0.3656E+00
     24.434 -0.1411E-09 -0.3502E-08  0.3656E+00  0.3656E+00
     24.536 -0.9513E-08 -0.1569E-06  0.3656E+00  0.3656E+00
     24.638 -0.3717E-06 -0.4037E-05  0.3656E+00  0.3656E+00
     24.740 -0.8304E-05 -0.5832E-04  0.3656E+00  0.3656E+00
     24.841 -0.1033E-03 -0.4509E-03  0.3656E+00  0.3656E+00
     24.943 -0.6733E-03 -0.1620E-02  0.3655E+00  0.3654E+00
     25.045 -0.1879E-02 -0.8147E-03  0.3654E+00  0.3653E+00
     25.147  0.7648E-03  0.1120E-01  0.3654E+00  0.3665E+00
     25.249  0.1638E-01  0.3235E-01  0.3671E+00  0.3698E+00
     25.351  0.3598E-01  0.3626E-01  0.3708E+00  0.3735E+00
     25.453  0.3278E-01  0.1692E-01  0.3741E+00  0.3752E+00
     25.554  0.1167E-01  0.8246E-03  0.3753E+00  0.3753E+00
     25.656 -0.8742E-03 -0.2750E-02  0.3752E+00  0.3750E+00
     25.758 -0.2628E-02 -0.2652E-02  0.3749E+00  0.3747E+00
     25.860 -0.2409E-02  0.2177E-02  0.3747E+00  0.3749E+00
     25.962  0.3386E-02  0.2002E-01  0.3750E+00  0.3770E+00
     26.064  0.2234E-01  0.3750E-01  0.3773E+00  0.3808E+00
     26.165  0.3805E-01  0.2978E-01  0.3812E+00  0.3838E+00
     26.267  0.2769E-01  0.8616E-02  0.3840E+00  0.3847E+00
     26.369  0.6834E-02 -0.1444E-02  0.3847E+00  0.3846E+00
     26.471 -0.2127E-02 -0.2025E-02  0.3845E+00  0.3843E+00
     26.573 -0.2984E-02 -0.2155E-02  0.3842E+00  0.3841E+00
     26.675 -0.8418E-03  0.5813E-04  0.3841E+00  0.3841E+00
     26.777  0.1221E-01  0.1445E-01  0.3853E+00  0.3856E+00
     26.878  0.3323E-01  0.3485E-01  0.3887E+00  0.3892E+00
     26.980  0.3566E-01  0.3420E-01  0.3924E+00  0.3926E+00
     27.082  0.1578E-01  0.1351E-01  0.3940E+00  0.3940E+00
     27.184  0.5461E-03 -0.1957E-03  0.3940E+00  0.3940E+00
     27.286 -0.1880E-02 -0.1816E-02  0.3938E+00  0.3938E+00
     27.388 -0.8469E-03 -0.9590E-03  0.3937E+00  0.3937E+00
     27.489 -0.9784E-03 -0.1300E-02  0.3936E+00  0.3936E+00
     27.591 -0.1072E-02  0.2301E-03  0.3935E+00  0.3936E+00
     27.693  0.4774E-02  0.1015E-01  0.3940E+00  0.3946E+00
     27.795  0.1869E-01  0.2355E-01  0.3959E+00  0.3970E+00
     27.897  0.2532E-01  0.2243E-01  0.3985E+00  0.3993E+00
     27.999  0.1465E-01  0.8510E-02  0.4000E+00  0.4002E+00
     28.100  0.2169E-02 -0.2701E-03  0.4002E+00  0.4002E+00
     28.202 -0.1297E-02 -0.1143E-02  0.4001E+00  0.4000E+00
     28.304 -0.6379E-03 -0.3429E-03  0.4000E+00  0.4000E+00
     28.406 -0.1173E-03 -0.4676E-04  0.4000E+00  0.4000E+00
     28.508 -0.1099E-04 -0.3392E-05  0.4000E+00  0.4000E+00
     28.610 -0.5677E-06 -0.1379E-06  0.4000E+00  0.4000E+00
     28.712 -0.1668E-07 -0.3212E-08  0.4000E+00  0.4000E+00
     28.813 -0.2832E-09 -0.4343E-10  0.4000E+00  0.4000E+00
     28.915 -0.2804E-11 -0.3434E-12  0.4000E+00  0.4000E+00
     29.017 -0.1628E-13 -0.1594E-14  0.4000E+00  0.4000E+00
     29.119 -0.5451E-16  0.0000E+00  0.4000E+00  0.4000E+00
     29.221  0.0000E+00  0.0000E+00  0.4000E+00  0.4000E+00
     29.323  0.0000E+00  0.0000E+00  0.4000E+00  0.4000E+00
     29.424  0.0000E+00  0.0000E+00  0.4000E+00  0.4000E+00
     29.526  0.0000E+00  0.0000E+00  0.4000E+00  0.4000E+00
     29.628  0.0000E+00  0.0000E+00  0.4000E+00  0.4000E+00
     29.730  0.0000E+00  0.0000E+00  0.4000E+00  0.4000E+00
     29.832  0.0000E+00  0.0000E+00  0.4000E+00  0.4000E+00
