# ['Ni']

18 atoms
1 atom types

    0.0000     2.1918 xlo xhi
    0.0000     3.7963 ylo yhi
    0.0000    32.2069 zlo zhi

    0.0000     0.0000    -0.0003 xy xz yz

Atoms

1 1     0.0000     0.0000     0.0000
2 1     1.0959     0.6327     1.7893
3 1     0.0000     1.2654     3.5785
4 1     1.0959     1.8981     0.0000
5 1     0.0000     2.5308     1.7893
6 1     1.0959     3.1635     3.5785
7 1     0.0000     0.0000     5.3678
8 1     1.0959     0.6327     7.1571
9 1     0.0000     1.2654     8.9464
10 1     1.0959     1.8981     5.3678
11 1     0.0000     2.5308     7.1571
12 1     1.0959     3.1635     8.9464
13 1     0.0000     0.0000    10.7356
14 1     1.0959     0.6327    12.5249
15 1     0.0000     1.2654    14.3142
16 1     1.0959     1.8981    10.7356
17 1     0.0000     2.5308    12.5249
18 1     1.0959     3.1635    14.3142
