# ['Ni']

107 atoms
1 atom types

    0.0000    10.0627 xlo xhi
    0.0000    10.0627 ylo yhi
    0.0000    10.0627 zlo zhi

    0.0000    -0.0000    -0.0000 xy xz yz

Atoms

1 1     1.6771     1.6771     0.0000
2 1     1.6771     0.0000     1.6771
3 1     0.0000     1.6771     1.6771
4 1     0.0000     0.0000     3.3542
5 1     1.6771     1.6771     3.3542
6 1     1.6771     0.0000     5.0314
7 1     0.0000     1.6771     5.0314
8 1     0.0000     0.0000     6.7085
9 1     1.6771     1.6771     6.7085
10 1     1.6771     0.0000     8.3856
11 1     0.0000     1.6771     8.3856
12 1     0.0000     3.3542     0.0000
13 1     1.6771     5.0314     0.0000
14 1     1.6771     3.3542     1.6771
15 1     0.0000     5.0314     1.6771
16 1     0.0000     3.3542     3.3542
17 1     1.6771     5.0314     3.3542
18 1     1.6771     3.3542     5.0314
19 1     0.0000     5.0314     5.0314
20 1     0.0000     3.3542     6.7085
21 1     1.6771     5.0314     6.7085
22 1     1.6771     3.3542     8.3856
23 1     0.0000     5.0314     8.3856
24 1     0.0000     6.7085     0.0000
25 1     1.6771     8.3856     0.0000
26 1     1.6771     6.7085     1.6771
27 1     0.0000     8.3856     1.6771
28 1     0.0000     6.7085     3.3542
29 1     1.6771     8.3856     3.3542
30 1     1.6771     6.7085     5.0314
31 1     0.0000     8.3856     5.0314
32 1     0.0000     6.7085     6.7085
33 1     1.6771     8.3856     6.7085
34 1     1.6771     6.7085     8.3856
35 1     0.0000     8.3856     8.3856
36 1     3.3542     0.0000     0.0000
37 1     5.0314     1.6771     0.0000
38 1     5.0314     0.0000     1.6771
39 1     3.3542     1.6771     1.6771
40 1     3.3542     0.0000     3.3542
41 1     5.0314     1.6771     3.3542
42 1     5.0314     0.0000     5.0314
43 1     3.3542     1.6771     5.0314
44 1     3.3542     0.0000     6.7085
45 1     5.0314     1.6771     6.7085
46 1     5.0314     0.0000     8.3856
47 1     3.3542     1.6771     8.3856
48 1     3.3542     3.3542     0.0000
49 1     5.0314     5.0314     0.0000
50 1     5.0314     3.3542     1.6771
51 1     3.3542     5.0314     1.6771
52 1     3.3542     3.3542     3.3542
53 1     5.0314     5.0314     3.3542
54 1     5.0314     3.3542     5.0314
55 1     3.3542     5.0314     5.0314
56 1     3.3542     3.3542     6.7085
57 1     5.0314     5.0314     6.7085
58 1     5.0314     3.3542     8.3856
59 1     3.3542     5.0314     8.3856
60 1     3.3542     6.7085     0.0000
61 1     5.0314     8.3856     0.0000
62 1     5.0314     6.7085     1.6771
63 1     3.3542     8.3856     1.6771
64 1     3.3542     6.7085     3.3542
65 1     5.0314     8.3856     3.3542
66 1     5.0314     6.7085     5.0314
67 1     3.3542     8.3856     5.0314
68 1     3.3542     6.7085     6.7085
69 1     5.0314     8.3856     6.7085
70 1     5.0314     6.7085     8.3856
71 1     3.3542     8.3856     8.3856
72 1     6.7085     0.0000     0.0000
73 1     8.3856     1.6771     0.0000
74 1     8.3856     0.0000     1.6771
75 1     6.7085     1.6771     1.6771
76 1     6.7085     0.0000     3.3542
77 1     8.3856     1.6771     3.3542
78 1     8.3856     0.0000     5.0314
79 1     6.7085     1.6771     5.0314
80 1     6.7085     0.0000     6.7085
81 1     8.3856     1.6771     6.7085
82 1     8.3856     0.0000     8.3856
83 1     6.7085     1.6771     8.3856
84 1     6.7085     3.3542     0.0000
85 1     8.3856     5.0314     0.0000
86 1     8.3856     3.3542     1.6771
87 1     6.7085     5.0314     1.6771
88 1     6.7085     3.3542     3.3542
89 1     8.3856     5.0314     3.3542
90 1     8.3856     3.3542     5.0314
91 1     6.7085     5.0314     5.0314
92 1     6.7085     3.3542     6.7085
93 1     8.3856     5.0314     6.7085
94 1     8.3856     3.3542     8.3856
95 1     6.7085     5.0314     8.3856
96 1     6.7085     6.7085     0.0000
97 1     8.3856     8.3856     0.0000
98 1     8.3856     6.7085     1.6771
99 1     6.7085     8.3856     1.6771
100 1     6.7085     6.7085     3.3542
101 1     8.3856     8.3856     3.3542
102 1     8.3856     6.7085     5.0314
103 1     6.7085     8.3856     5.0314
104 1     6.7085     6.7085     6.7085
105 1     8.3856     8.3856     6.7085
106 1     8.3856     6.7085     8.3856
107 1     6.7085     8.3856     8.3856
