LAMMPS (11 Aug 2017)
# ---- initialize simulations
clear
units metal
dimension 3
boundary p p p
atom_style atomic
atom_modify map array
# ---- create atoms
read_data /ufrc/phillpot/eragasa/pareto_optimization_3.5NN/rank_40/Ni_fcc_vac.lmps_min_pos/lammps.structure
  triclinic box = (0 0 0) to (10.0627 10.0627 10.0627) with tilt (0 -0 -0)
  1 by 1 by 1 MPI processor grid
  reading atoms ...
  107 atoms
# ---- define interatomic potential
include potential.mod
mass 1 58.6934

group Ni type 1
107 atoms in group Ni

pair_style eam/alloy
pair_coeff * * /ufrc/phillpot/eragasa/pareto_optimization_3.5NN/rank_40/Ni_fcc_vac.lmps_min_pos/Ni.eam.alloy Ni

neighbor 1.0 bin
neigh_modify every 1 delay 0 check yes
# ---- define settings
compute eng all pe/atom
compute eatoms all reduce sum c_eng

# ---- run minimization
reset_timestep 0
thermo 1
thermo_style custom step pe lx ly lz xy xz yz press pxx pyy pzz pxy pxz pyz c_eatoms
min_style cg
minimize 1e-20 1e-20 1000 100000
Neighbor list info ...
  update every 1 steps, delay 0 steps, check yes
  max neighbors/atom: 2000, page size: 100000
  master list distance cutoff = 5.64464
  ghost atom cutoff = 5.64464
  binsize = 2.82232, bins = 4 4 4
  1 neighbor lists, perpetual/occasional/extra = 1 0 0
  (1) pair eam/alloy, perpetual
      attributes: half, newton on
      pair build: half/bin/newton/tri
      stencil: half/bin/3d/newton/tri
      bin: standard
Per MPI rank memory allocation (min/avg/max) = 4.229 | 4.229 | 4.229 Mbytes
Step PotEng Lx Ly Lz Xy Xz Yz Press Pxx Pyy Pzz Pxy Pxz Pyz c_eatoms 
       0   -468.84942      10.0627      10.0627      10.0627            0           -0           -0   -3710.0668   -3710.0668   -3710.0668   -3710.0668 1.7850938e-08 1.7846464e-08 1.7847032e-08   -468.84942 
       1   -468.87478      10.0627      10.0627      10.0627            0           -0           -0   -4549.2722   -4549.2722   -4549.2722   -4549.2722 -6.6130354e-06 -6.6130306e-06 -6.6130353e-06   -468.87478 
       2   -468.88021      10.0627      10.0627      10.0627            0           -0           -0   -4701.4892   -4701.4892   -4701.4892   -4701.4892 -5.5589005e-05 -5.5589027e-05 -5.5589013e-05   -468.88021 
       3   -468.88143      10.0627      10.0627      10.0627            0           -0           -0   -4847.0678   -4847.0678   -4847.0678   -4847.0678 -1.6368018e-05 -1.6367992e-05 -1.6367995e-05   -468.88143 
       4   -468.88151      10.0627      10.0627      10.0627            0           -0           -0   -4844.3258   -4844.3258   -4844.3258   -4844.3258 -2.1218273e-05 -2.1218304e-05 -2.1218299e-05   -468.88151 
       5   -468.88152      10.0627      10.0627      10.0627            0           -0           -0    -4843.432    -4843.432    -4843.432    -4843.432 -5.5390016e-06 -5.539052e-06 -5.5390105e-06   -468.88152 
       6   -468.88153      10.0627      10.0627      10.0627            0           -0           -0   -4844.5989   -4844.5989   -4844.5989   -4844.5989 -4.8938102e-06 -4.8937971e-06 -4.8938046e-06   -468.88153 
       7   -468.88153      10.0627      10.0627      10.0627            0           -0           -0   -4847.1476   -4847.1476   -4847.1476   -4847.1476 -3.4240932e-06 -3.4240845e-06 -3.424088e-06   -468.88153 
       8   -468.88153      10.0627      10.0627      10.0627            0           -0           -0   -4847.5256   -4847.5256   -4847.5256   -4847.5256 -1.7212842e-06 -1.7212982e-06 -1.7212667e-06   -468.88153 
       9   -468.88153      10.0627      10.0627      10.0627            0           -0           -0   -4847.4386   -4847.4386   -4847.4386   -4847.4386 -9.7198293e-07 -9.7195762e-07 -9.7196255e-07   -468.88153 
      10   -468.88153      10.0627      10.0627      10.0627            0           -0           -0   -4847.4308   -4847.4308   -4847.4308   -4847.4308 -8.8518034e-07 -8.8520474e-07 -8.8517707e-07   -468.88153 
      11   -468.88153      10.0627      10.0627      10.0627            0           -0           -0   -4847.4425   -4847.4425   -4847.4425   -4847.4425 -4.5083857e-07 -4.5085153e-07 -4.5081308e-07   -468.88153 
      12   -468.88153      10.0627      10.0627      10.0627            0           -0           -0   -4847.4435   -4847.4435   -4847.4435   -4847.4435 -3.8412797e-07 -3.8410399e-07 -3.8408535e-07   -468.88153 
      13   -468.88153      10.0627      10.0627      10.0627            0           -0           -0   -4847.4445   -4847.4445   -4847.4445   -4847.4445 -2.25974e-07 -2.259716e-07 -2.2597206e-07   -468.88153 
      14   -468.88153      10.0627      10.0627      10.0627            0           -0           -0   -4847.4446   -4847.4446   -4847.4446   -4847.4446 -1.5192482e-07 -1.5193527e-07 -1.5188979e-07   -468.88153 
      15   -468.88153      10.0627      10.0627      10.0627            0           -0           -0   -4847.4447   -4847.4447   -4847.4447   -4847.4447 -9.3936343e-08 -9.3945835e-08 -9.3973854e-08   -468.88153 
      16   -468.88153      10.0627      10.0627      10.0627            0           -0           -0   -4847.4447   -4847.4447   -4847.4447   -4847.4447 -1.7004433e-08 -1.7001924e-08 -1.7063308e-08   -468.88153 
      17   -468.88153      10.0627      10.0627      10.0627            0           -0           -0   -4847.4446   -4847.4446   -4847.4446   -4847.4446 1.8278969e-08 1.8290447e-08 1.829839e-08   -468.88153 
      18   -468.88153      10.0627      10.0627      10.0627            0           -0           -0   -4847.4446   -4847.4446   -4847.4446   -4847.4446 1.1841678e-08 1.1827014e-08 1.1804319e-08   -468.88153 
      19   -468.88153      10.0627      10.0627      10.0627            0           -0           -0   -4847.4446   -4847.4446   -4847.4446   -4847.4446 1.240856e-08 1.2417572e-08 1.2399635e-08   -468.88153 
      20   -468.88153      10.0627      10.0627      10.0627            0           -0           -0   -4847.4446   -4847.4446   -4847.4446   -4847.4446 4.8966628e-09 4.8819987e-09 4.8735319e-09   -468.88153 
      21   -468.88153      10.0627      10.0627      10.0627            0           -0           -0   -4847.4446   -4847.4446   -4847.4446   -4847.4446 3.2336152e-09 3.2107898e-09 3.2299928e-09   -468.88153 
      22   -468.88153      10.0627      10.0627      10.0627            0           -0           -0   -4847.4446   -4847.4446   -4847.4446   -4847.4446 1.9255836e-09 1.9075589e-09 1.9143236e-09   -468.88153 
      23   -468.88153      10.0627      10.0627      10.0627            0           -0           -0   -4847.4446   -4847.4446   -4847.4446   -4847.4446 1.0633022e-09 1.0635422e-09 1.0617965e-09   -468.88153 
      24   -468.88153      10.0627      10.0627      10.0627            0           -0           -0   -4847.4446   -4847.4446   -4847.4446   -4847.4446 7.6290572e-10 7.1500726e-10 7.626875e-10   -468.88153 
      25   -468.88153      10.0627      10.0627      10.0627            0           -0           -0   -4847.4446   -4847.4446   -4847.4446   -4847.4446 4.203499e-10 3.9710987e-10 4.0300171e-10   -468.88153 
      26   -468.88153      10.0627      10.0627      10.0627            0           -0           -0   -4847.4446   -4847.4446   -4847.4446   -4847.4446 1.302969e-10 1.2475421e-10 1.0753695e-10   -468.88153 
      27   -468.88153      10.0627      10.0627      10.0627            0           -0           -0   -4847.4446   -4847.4446   -4847.4446   -4847.4446 1.3754168e-10 1.5801036e-10 1.0921722e-10   -468.88153 
      28   -468.88153      10.0627      10.0627      10.0627            0           -0           -0   -4847.4446   -4847.4446   -4847.4446   -4847.4446 7.9954422e-11 1.076897e-10 8.6151763e-11   -468.88153 
      29   -468.88153      10.0627      10.0627      10.0627            0           -0           -0   -4847.4446   -4847.4446   -4847.4446   -4847.4446 1.1194492e-10 1.0557301e-10 8.8028422e-11   -468.88153 
      30   -468.88153      10.0627      10.0627      10.0627            0           -0           -0   -4847.4446   -4847.4446   -4847.4446   -4847.4446 3.6791254e-11 2.9895622e-11 4.1613833e-11   -468.88153 
      31   -468.88153      10.0627      10.0627      10.0627            0           -0           -0   -4847.4446   -4847.4446   -4847.4446   -4847.4446 2.8979114e-11 2.0534146e-11 2.8084427e-11   -468.88153 
      32   -468.88153      10.0627      10.0627      10.0627            0           -0           -0   -4847.4446   -4847.4446   -4847.4446   -4847.4446 1.5406065e-11 2.4833006e-11 4.5039827e-11   -468.88153 
      33   -468.88153      10.0627      10.0627      10.0627            0           -0           -0   -4847.4446   -4847.4446   -4847.4446   -4847.4446 1.5187849e-11 4.5170757e-12 2.4854827e-11   -468.88153 
      34   -468.88153      10.0627      10.0627      10.0627            0           -0           -0   -4847.4446   -4847.4446   -4847.4446   -4847.4446 -1.3311189e-12 6.3282703e-12 -6.0664109e-12   -468.88153 
      35   -468.88153      10.0627      10.0627      10.0627            0           -0           -0   -4847.4446   -4847.4446   -4847.4446   -4847.4446 -7.2011352e-13 3.6747611e-11 1.7042687e-11   -468.88153 
      36   -468.88153      10.0627      10.0627      10.0627            0           -0           -0   -4847.4446   -4847.4446   -4847.4446   -4847.4446 2.0599611e-11 4.7331098e-11 5.7827298e-12   -468.88153 
      37   -468.88153      10.0627      10.0627      10.0627            0           -0           -0   -4847.4446   -4847.4446   -4847.4446   -4847.4446 1.2896578e-11 7.0265622e-12 1.7173616e-11   -468.88153 
      38   -468.88153      10.0627      10.0627      10.0627            0           -0           -0   -4847.4446   -4847.4446   -4847.4446   -4847.4446 2.3021811e-11 5.9791244e-12 6.0882325e-12   -468.88153 
      39   -468.88153      10.0627      10.0627      10.0627            0           -0           -0   -4847.4446   -4847.4446   -4847.4446   -4847.4446 2.1974373e-11 -2.0512324e-12 2.5749514e-12   -468.88153 
Loop time of 0.0637841 on 1 procs for 39 steps with 107 atoms

27.9% CPU use with 1 MPI tasks x no OpenMP threads

Minimization stats:
  Stopping criterion = energy tolerance
  Energy initial, next-to-last, final = 
        -468.849416835     -468.881525771     -468.881525771
  Force two-norm initial, final = 0.70573 5.53914e-14
  Force max component initial, final = 0.138007 1.05194e-14
  Final line search alpha, max atom move = 1 1.05194e-14
  Iterations, force evaluations = 39 78

MPI task timing breakdown:
Section |  min time  |  avg time  |  max time  |%varavg| %total
---------------------------------------------------------------
Pair    | 0.016445   | 0.016445   | 0.016445   |   0.0 | 25.78
Neigh   | 0          | 0          | 0          |   0.0 |  0.00
Comm    | 0.00038147 | 0.00038147 | 0.00038147 |   0.0 |  0.60
Output  | 0.046653   | 0.046653   | 0.046653   |   0.0 | 73.14
Modify  | 0          | 0          | 0          |   0.0 |  0.00
Other   |            | 0.0003042  |            |       |  0.48

Nlocal:    107 ave 107 max 107 min
Histogram: 1 0 0 0 0 0 0 0 0 0
Nghost:    983 ave 983 max 983 min
Histogram: 1 0 0 0 0 0 0 0 0 0
Neighs:    4134 ave 4134 max 4134 min
Histogram: 1 0 0 0 0 0 0 0 0 0

Total # of neighbors = 4134
Ave neighs/atom = 38.6355
Neighbor list builds = 0
Dangerous builds = 0

# ---- define output variables ----
variable natoms equal "count(all)"
variable tot_energy equal "c_eatoms"
variable a11 equal "xhi-xlo"
variable a22 equal "yhi-ylo"
variable a33 equal "zhi-zlo"
variable tilt_xy equal "xy"
variable tilt_xz equal "xz"
variable tilt_yz equal "yz"
variable tot_press equal "press"
variable press_xx equal "pxx"
variable press_yy equal "pyy"
variable press_zz equal "pzz"
variable press_xy equal "pxy"
variable press_xz equal "pxz"
variable press_yz equal "pyz"

# ---- output ----
print "pypospack:output_section:begin"
pypospack:output_section:begin
print "tot_energy = ${tot_energy}"
tot_energy = -468.881525770981
print "num_atoms = ${natoms}"
num_atoms = 107
print "a11 = ${a11}"
a11 = 10.0627
print "a22 = ${a22}"
a22 = 10.0627
print "a33 = ${a33}"
a33 = 10.0627
print "a12 = ${tilt_xy}"
a12 = 0
print "a13 = ${tilt_xz}"
a13 = -0
print "a23 = ${tilt_yz}"
a23 = -0
print "tot_press = ${tot_press}"
tot_press = -4847.4446351306
print "pxx = ${press_xx}"
pxx = -4847.4446351306
print "pyy = ${press_yy}"
pyy = -4847.44463513062
print "pzz = ${press_zz}"
pzz = -4847.44463513059
print "pxy = ${press_xy}"
pxy = 2.19743731516603e-11
print "pxz = ${press_xz}"
pxz = -2.05123244911229e-12
print "pyz = ${press_yz}"
pyz = 2.57495137228989e-12
print "pypospack:output_section:done"
pypospack:output_section:done
print "pypospack:lammps_sim:done"
pypospack:lammps_sim:done
Total wall time: 0:00:00
