   2   2   0   0
  0.9639684E+01  0.3009788E-09  0.3009788E-09  0.3009788E-09  0.5000000E-15
  1.000000000000000E-004
  CAR 
 automatically generated by pyflamestk   
     45.18605817    -16.52036134  301      3.66278004      1.00000000
    -16.520  0.0000E+00  0.0000E+00
    -16.315  0.0000E+00  0.0000E+00
    -16.109  0.0000E+00  0.0000E+00
    -15.903  0.0000E+00  0.0000E+00
    -15.698  0.0000E+00  0.0000E+00
    -15.492  0.0000E+00  0.0000E+00
    -15.286  0.0000E+00  0.0000E+00
    -15.081  0.0000E+00  0.0000E+00
    -14.875  0.0000E+00  0.0000E+00
    -14.669  0.0000E+00  0.0000E+00
    -14.463  0.0000E+00  0.0000E+00
    -14.258  0.0000E+00  0.0000E+00
    -14.052  0.0000E+00  0.0000E+00
    -13.846  0.4059E-05  0.8349E-06
    -13.641  0.6233E-01  0.1282E-01
    -13.435  0.2577E+00  0.6583E-01
    -13.229  0.4186E+00  0.1519E+00
    -13.024  0.6513E+00  0.2859E+00
    -12.818  0.8801E+00  0.4669E+00
    -12.612  0.1422E+01  0.7593E+00
    -12.407  0.2999E+01  0.1376E+01
    -12.201  0.3022E+01  0.1998E+01
    -11.995  0.1061E-01  0.2000E+01
    -11.790  0.0000E+00  0.2000E+01
    -11.584  0.0000E+00  0.2000E+01
    -11.378  0.0000E+00  0.2000E+01
    -11.172  0.0000E+00  0.2000E+01
    -10.967  0.0000E+00  0.2000E+01
    -10.761  0.0000E+00  0.2000E+01
    -10.555  0.0000E+00  0.2000E+01
    -10.350  0.0000E+00  0.2000E+01
    -10.144  0.0000E+00  0.2000E+01
     -9.938  0.0000E+00  0.2000E+01
     -9.733  0.0000E+00  0.2000E+01
     -9.527  0.0000E+00  0.2000E+01
     -9.321  0.0000E+00  0.2000E+01
     -9.116  0.0000E+00  0.2000E+01
     -8.910  0.0000E+00  0.2000E+01
     -8.704  0.0000E+00  0.2000E+01
     -8.499  0.0000E+00  0.2000E+01
     -8.293  0.0000E+00  0.2000E+01
     -8.087  0.0000E+00  0.2000E+01
     -7.881  0.0000E+00  0.2000E+01
     -7.676  0.0000E+00  0.2000E+01
     -7.470  0.0000E+00  0.2000E+01
     -7.264  0.0000E+00  0.2000E+01
     -7.059  0.0000E+00  0.2000E+01
     -6.853  0.0000E+00  0.2000E+01
     -6.647  0.0000E+00  0.2000E+01
     -6.442  0.0000E+00  0.2000E+01
     -6.236  0.0000E+00  0.2000E+01
     -6.030  0.0000E+00  0.2000E+01
     -5.825  0.0000E+00  0.2000E+01
     -5.619  0.0000E+00  0.2000E+01
     -5.413  0.0000E+00  0.2000E+01
     -5.208  0.0000E+00  0.2000E+01
     -5.002  0.0000E+00  0.2000E+01
     -4.796  0.0000E+00  0.2000E+01
     -4.590  0.0000E+00  0.2000E+01
     -4.385  0.0000E+00  0.2000E+01
     -4.179  0.0000E+00  0.2000E+01
     -3.973  0.0000E+00  0.2000E+01
     -3.768  0.0000E+00  0.2000E+01
     -3.562  0.0000E+00  0.2000E+01
     -3.356  0.0000E+00  0.2000E+01
     -3.151  0.0000E+00  0.2000E+01
     -2.945  0.0000E+00  0.2000E+01
     -2.739  0.0000E+00  0.2000E+01
     -2.534  0.0000E+00  0.2000E+01
     -2.328  0.0000E+00  0.2000E+01
     -2.122  0.0000E+00  0.2000E+01
     -1.917  0.0000E+00  0.2000E+01
     -1.711  0.0000E+00  0.2000E+01
     -1.505  0.0000E+00  0.2000E+01
     -1.299  0.4744E-12  0.2000E+01
     -1.094  0.1773E-01  0.2004E+01
     -0.888  0.2334E+00  0.2052E+01
     -0.682  0.5615E+00  0.2167E+01
     -0.477  0.7229E+00  0.2316E+01
     -0.271  0.1800E+01  0.2686E+01
     -0.065  0.2407E+01  0.3181E+01
      0.140  0.1589E+01  0.3508E+01
      0.346  0.6146E+00  0.3634E+01
      0.552  0.5732E+00  0.3752E+01
      0.757  0.6169E+00  0.3879E+01
      0.963  0.9557E+00  0.4076E+01
      1.169  0.7283E+00  0.4226E+01
      1.375  0.1131E+01  0.4458E+01
      1.580  0.9217E+00  0.4648E+01
      1.786  0.1181E+01  0.4891E+01
      1.992  0.1759E+01  0.5253E+01
      2.197  0.2206E+01  0.5706E+01
      2.403  0.2961E+01  0.6315E+01
      2.609  0.2656E+01  0.6862E+01
      2.814  0.2675E+01  0.7412E+01
      3.020  0.1610E+01  0.7743E+01
      3.226  0.9668E+00  0.7942E+01
      3.431  0.2808E+00  0.8000E+01
      3.637  0.1576E-03  0.8000E+01
      3.843  0.0000E+00  0.8000E+01
      4.048  0.0000E+00  0.8000E+01
      4.254  0.0000E+00  0.8000E+01
      4.460  0.0000E+00  0.8000E+01
      4.666  0.0000E+00  0.8000E+01
      4.871  0.0000E+00  0.8000E+01
      5.077  0.0000E+00  0.8000E+01
      5.283  0.0000E+00  0.8000E+01
      5.488  0.0000E+00  0.8000E+01
      5.694  0.0000E+00  0.8000E+01
      5.900  0.0000E+00  0.8000E+01
      6.105  0.0000E+00  0.8000E+01
      6.311  0.0000E+00  0.8000E+01
      6.517  0.0000E+00  0.8000E+01
      6.722  0.0000E+00  0.8000E+01
      6.928  0.0000E+00  0.8000E+01
      7.134  0.0000E+00  0.8000E+01
      7.339  0.0000E+00  0.8000E+01
      7.545  0.0000E+00  0.8000E+01
      7.751  0.0000E+00  0.8000E+01
      7.957  0.1516E-03  0.8000E+01
      8.162  0.3780E-01  0.8008E+01
      8.368  0.2947E-04  0.8008E+01
      8.574  0.1375E-02  0.8008E+01
      8.779  0.1126E+00  0.8031E+01
      8.985  0.3133E-04  0.8031E+01
      9.191  0.1118E+00  0.8054E+01
      9.396  0.3400E-02  0.8055E+01
      9.602  0.1100E+00  0.8078E+01
      9.808  0.4133E-01  0.8086E+01
     10.013  0.2279E+00  0.8133E+01
     10.219  0.1132E+00  0.8156E+01
     10.425  0.3759E-02  0.8157E+01
     10.630  0.2793E+00  0.8214E+01
     10.836  0.1567E+00  0.8247E+01
     11.042  0.3716E+00  0.8323E+01
     11.248  0.5164E+00  0.8429E+01
     11.453  0.2330E+00  0.8477E+01
     11.659  0.4919E+00  0.8578E+01
     11.865  0.5765E+00  0.8697E+01
     12.070  0.3759E+00  0.8774E+01
     12.276  0.6094E+00  0.8900E+01
     12.482  0.2737E+00  0.8956E+01
     12.687  0.7990E+00  0.9120E+01
     12.893  0.7031E+00  0.9265E+01
     13.099  0.1276E+01  0.9527E+01
     13.304  0.4535E+00  0.9621E+01
     13.510  0.1239E+01  0.9876E+01
     13.716  0.9018E+00  0.1006E+02
     13.921  0.1750E+00  0.1010E+02
     14.127  0.7439E+00  0.1025E+02
     14.333  0.9059E+00  0.1044E+02
     14.539  0.3191E+00  0.1050E+02
     14.744  0.1064E+01  0.1072E+02
     14.950  0.9908E+00  0.1092E+02
     15.156  0.2109E+01  0.1136E+02
     15.361  0.1584E+01  0.1168E+02
     15.567  0.1327E+01  0.1196E+02
     15.773  0.7830E+00  0.1212E+02
     15.978  0.1454E+01  0.1242E+02
     16.184  0.7938E+00  0.1258E+02
     16.390  0.4267E+00  0.1267E+02
     16.595  0.5397E+00  0.1278E+02
     16.801  0.9304E+00  0.1297E+02
     17.007  0.2972E+00  0.1303E+02
     17.212  0.2209E+00  0.1308E+02
     17.418  0.3884E+00  0.1316E+02
     17.624  0.3948E+00  0.1324E+02
     17.830  0.7715E+00  0.1340E+02
     18.035  0.1287E+00  0.1342E+02
     18.241  0.2915E+00  0.1348E+02
     18.447  0.4183E+00  0.1357E+02
     18.652  0.4363E-02  0.1357E+02
     18.858  0.7127E+00  0.1372E+02
     19.064  0.4540E+00  0.1381E+02
     19.269  0.3475E+00  0.1388E+02
     19.475  0.1229E+01  0.1413E+02
     19.681  0.1039E+01  0.1435E+02
     19.886  0.1090E+01  0.1457E+02
     20.092  0.2010E+01  0.1499E+02
     20.298  0.1616E+01  0.1532E+02
     20.503  0.1335E+01  0.1559E+02
     20.709  0.6327E+00  0.1572E+02
     20.915  0.1065E+01  0.1594E+02
     21.121  0.3521E+00  0.1601E+02
     21.326  0.6927E+00  0.1616E+02
     21.532  0.7174E+00  0.1630E+02
     21.738  0.1022E+01  0.1652E+02
     21.943  0.4863E+00  0.1662E+02
     22.149  0.9832E+00  0.1682E+02
     22.355  0.7139E+00  0.1696E+02
     22.560  0.5056E+00  0.1707E+02
     22.766  0.5151E+00  0.1717E+02
     22.972  0.4892E+00  0.1727E+02
     23.177  0.6764E+00  0.1741E+02
     23.383  0.8177E+00  0.1758E+02
     23.589  0.8416E+00  0.1776E+02
     23.794  0.3811E+00  0.1783E+02
     24.000  0.5968E+00  0.1796E+02
     24.206  0.5613E+00  0.1807E+02
     24.412  0.9610E+00  0.1827E+02
     24.617  0.4602E+00  0.1836E+02
     24.823  0.1019E+01  0.1857E+02
     25.029  0.4445E+00  0.1867E+02
     25.234  0.1398E+01  0.1895E+02
     25.440  0.8411E+00  0.1913E+02
     25.646  0.1029E+01  0.1934E+02
     25.851  0.5624E+00  0.1945E+02
     26.057  0.6435E+00  0.1959E+02
     26.263  0.4051E+00  0.1967E+02
     26.468  0.5113E+00  0.1977E+02
     26.674  0.7108E+00  0.1992E+02
     26.880  0.3432E+00  0.1999E+02
     27.086  0.3462E+00  0.2006E+02
     27.291  0.4606E+00  0.2016E+02
     27.497  0.1124E+01  0.2039E+02
     27.703  0.5541E+00  0.2050E+02
     27.908  0.7686E+00  0.2066E+02
     28.114  0.1355E+00  0.2069E+02
     28.320  0.1989E+00  0.2073E+02
     28.525  0.4300E+00  0.2082E+02
     28.731  0.7828E+00  0.2098E+02
     28.937  0.1092E+01  0.2120E+02
     29.142  0.3900E+00  0.2128E+02
     29.348  0.6101E+00  0.2141E+02
     29.554  0.8538E+00  0.2158E+02
     29.759  0.6429E+00  0.2172E+02
     29.965  0.7189E+00  0.2186E+02
     30.171  0.1397E+01  0.2215E+02
     30.377  0.1056E+01  0.2237E+02
     30.582  0.7393E+00  0.2252E+02
     30.788  0.1078E+01  0.2274E+02
     30.994  0.1072E+01  0.2296E+02
     31.199  0.1489E+01  0.2327E+02
     31.405  0.1287E+01  0.2353E+02
     31.611  0.1006E+01  0.2374E+02
     31.816  0.2266E+01  0.2421E+02
     32.022  0.2215E+01  0.2466E+02
     32.228  0.1609E+01  0.2499E+02
     32.433  0.1940E+01  0.2539E+02
     32.639  0.1163E+01  0.2563E+02
     32.845  0.1231E+01  0.2588E+02
     33.050  0.1099E+01  0.2611E+02
     33.256  0.4699E+00  0.2621E+02
     33.462  0.8286E+00  0.2638E+02
     33.668  0.4357E+00  0.2647E+02
     33.873  0.8804E+00  0.2665E+02
     34.079  0.3206E+00  0.2671E+02
     34.285  0.5312E+00  0.2682E+02
     34.490  0.5932E+00  0.2695E+02
     34.696  0.8099E+00  0.2711E+02
     34.902  0.4307E+00  0.2720E+02
     35.107  0.7037E+00  0.2735E+02
     35.313  0.6217E+00  0.2747E+02
     35.519  0.4391E+00  0.2756E+02
     35.724  0.8968E+00  0.2775E+02
     35.930  0.7654E+00  0.2791E+02
     36.136  0.1274E+01  0.2817E+02
     36.341  0.1193E+01  0.2841E+02
     36.547  0.8087E+00  0.2858E+02
     36.753  0.5321E+00  0.2869E+02
     36.959  0.7874E+00  0.2885E+02
     37.164  0.4783E+00  0.2895E+02
     37.370  0.1028E+01  0.2916E+02
     37.576  0.9461E+00  0.2936E+02
     37.781  0.1098E+01  0.2958E+02
     37.987  0.7155E+00  0.2973E+02
     38.193  0.6488E+00  0.2986E+02
     38.398  0.7233E+00  0.3001E+02
     38.604  0.5499E+00  0.3012E+02
     38.810  0.4098E+00  0.3021E+02
     39.015  0.3944E+00  0.3029E+02
     39.221  0.1002E+01  0.3050E+02
     39.427  0.1030E+01  0.3071E+02
     39.632  0.6223E+00  0.3084E+02
     39.838  0.9385E+00  0.3103E+02
     40.044  0.5204E+00  0.3114E+02
     40.250  0.3724E+00  0.3121E+02
     40.455  0.2586E+00  0.3126E+02
     40.661  0.2690E+00  0.3132E+02
     40.867  0.6382E+00  0.3145E+02
     41.072  0.1165E+01  0.3169E+02
     41.278  0.2194E+00  0.3174E+02
     41.484  0.7333E+00  0.3189E+02
     41.689  0.2069E+00  0.3193E+02
     41.895  0.1619E-01  0.3193E+02
     42.101  0.2117E+00  0.3198E+02
     42.306  0.1961E-02  0.3198E+02
     42.512  0.1120E+00  0.3200E+02
     42.718  0.1218E-04  0.3200E+02
     42.923  0.0000E+00  0.3200E+02
     43.129  0.0000E+00  0.3200E+02
     43.335  0.0000E+00  0.3200E+02
     43.541  0.0000E+00  0.3200E+02
     43.746  0.0000E+00  0.3200E+02
     43.952  0.0000E+00  0.3200E+02
     44.158  0.0000E+00  0.3200E+02
     44.363  0.0000E+00  0.3200E+02
     44.569  0.0000E+00  0.3200E+02
     44.775  0.0000E+00  0.3200E+02
     44.980  0.0000E+00  0.3200E+02
     45.186  0.0000E+00  0.3200E+02
