    2    2    1    1
  0.9639684E+01  0.3009788E-09  0.3009788E-09  0.3009788E-09  0.5000000E-15
  1.000000000000000E-004
  CAR 
 automatically generated by pyflamestk   
      8     60     16
 
  0.6250000E-01  0.6250000E-01  0.6250000E-01  0.3906250E-02
    1      -13.715524   1.000000
    2        3.080454   1.000000
    3        3.330032   1.000000
    4        3.330032   1.000000
    5        8.050313   0.000000
    6       18.375344   0.000000
    7       19.071986   0.000000
    8       19.071989   0.000000
    9       23.593266   0.000000
   10       24.164962   0.000000
   11       24.164962   0.000000
   12       26.980196   0.000000
   13       27.547248   0.000000
   14       27.547249   0.000000
   15       40.061093   0.000000
   16       40.925454   0.000000
 
  0.1875000E+00  0.6250000E-01  0.6250000E-01  0.1171875E-01
    1      -13.515690   1.000000
    2        2.047723   1.000000
    3        3.098224   1.000000
    4        3.246454   1.000000
    5        9.117246   0.000000
    6       16.773969   0.000000
    7       19.356035   0.000000
    8       19.559217   0.000000
    9       22.620818   0.000000
   10       23.812371   0.000000
   11       25.540280   0.000000
   12       27.940013   0.000000
   13       28.681182   0.000000
   14       29.695867   0.000000
   15       38.248857   0.000000
   16       40.325185   0.000000
 
  0.3125000E+00  0.6250000E-01  0.6250000E-01  0.1171875E-01
    1      -13.097876   1.000000
    2        0.487495   1.000000
    3        2.815437   1.000000
    4        3.024902   1.000000
    5       10.510533   0.000000
    6       15.508930   0.000000
    7       19.379189   0.000000
    8       19.955664   0.000000
    9       22.486631   0.000000
   10       23.914734   0.000000
   11       25.264061   0.000000
   12       31.075411   0.000000
   13       31.863759   0.000000
   14       31.878826   0.000000
   15       36.510052   0.000000
   16       38.681742   0.000000
 
  0.4375000E+00  0.6250000E-01  0.6250000E-01  0.1171875E-01
    1      -12.678247   1.000000
    2       -0.714467   1.000000
    3        2.619875   1.000000
    4        2.804728   1.000000
    5       11.160832   0.000000
    6       15.420301   0.000000
    7       19.001805   0.000000
    8       19.582212   0.000000
    9       24.248372   0.000000
   10       24.547576   0.000000
   11       25.000165   0.000000
   12       32.045376   0.000000
   13       33.049513   0.000000
   14       33.731808   0.000000
   15       35.304240   0.000000
   16       37.722139   0.000000
 
 -0.4375000E+00  0.6250000E-01  0.6250000E-01  0.1171875E-01
    1      -12.542385   1.000000
    2       -1.057869   1.000000
    3        2.600769   1.000000
    4        2.706517   1.000000
    5       11.239119   0.000000
    6       15.562547   0.000000
    7       18.863264   0.000000
    8       19.443379   0.000000
    9       24.336817   0.000000
   10       25.036928   0.000000
   11       25.581857   0.000000
   12       31.745314   0.000000
   13       33.276614   0.000000
   14       33.579458   0.000000
   15       35.505894   0.000000
   16       36.079103   0.000000
 
 -0.3125000E+00  0.6250000E-01  0.6250000E-01  0.1171875E-01
    1      -12.800162   1.000000
    2       -0.391292   1.000000
    3        2.764828   1.000000
    4        2.778762   1.000000
    5       11.035408   0.000000
    6       15.338461   0.000000
    7       19.170189   0.000000
    8       19.645664   0.000000
    9       23.411408   0.000000
   10       24.790228   0.000000
   11       24.872588   0.000000
   12       32.193447   0.000000
   13       32.673955   0.000000
   14       33.210593   0.000000
   15       36.150674   0.000000
   16       38.341711   0.000000
 
 -0.1875000E+00  0.6250000E-01  0.6250000E-01  0.1171875E-01
    1      -13.250717   1.000000
    2        1.000678   1.000000
    3        2.985775   1.000000
    4        3.028150   1.000000
    5       10.098244   0.000000
    6       15.767347   0.000000
    7       19.635624   0.000000
    8       19.738803   0.000000
    9       22.096976   0.000000
   10       23.981513   0.000000
   11       25.488443   0.000000
   12       30.288662   0.000000
   13       30.555153   0.000000
   14       31.151652   0.000000
   15       36.999475   0.000000
   16       39.182288   0.000000
 
 -0.6250000E-01  0.6250000E-01  0.6250000E-01  0.1171875E-01
    1      -13.613336   1.000000
    2        2.541236   1.000000
    3        3.217354   1.000000
    4        3.240094   1.000000
    5        8.653312   0.000000
    6       17.356760   0.000000
    7       19.295056   0.000000
    8       19.297835   0.000000
    9       22.749245   0.000000
   10       24.449623   0.000000
   11       25.018641   0.000000
   12       27.373033   0.000000
   13       27.895672   0.000000
   14       28.830976   0.000000
   15       39.142689   0.000000
   16       40.554227   0.000000
 
  0.1875000E+00  0.1875000E+00  0.6250000E-01  0.1171875E-01
    1      -13.422457   1.000000
    2        1.803021   1.000000
    3        3.016862   1.000000
    4        3.026841   1.000000
    5        9.589089   0.000000
    6       16.120666   0.000000
    7       19.633560   0.000000
    8       19.691463   0.000000
    9       21.101386   0.000000
   10       25.001350   0.000000
   11       26.902284   0.000000
   12       28.519537   0.000000
   13       28.608315   0.000000
   14       30.024182   0.000000
   15       38.191639   0.000000
   16       39.818717   0.000000
 
  0.3125000E+00  0.1875000E+00  0.6250000E-01  0.2343750E-01
    1      -13.094084   1.000000
    2        0.784558   1.000000
    3        2.584141   1.000000
    4        2.859215   1.000000
    5       10.858857   0.000000
    6       15.044411   0.000000
    7       18.816748   0.000000
    8       20.316320   0.000000
    9       20.903571   0.000000
   10       25.241692   0.000000
   11       27.788866   0.000000
   12       30.014998   0.000000
   13       31.263060   0.000000
   14       32.049787   0.000000
   15       36.443186   0.000000
   16       38.798446   0.000000
 
  0.4375000E+00  0.1875000E+00  0.6250000E-01  0.2343750E-01
    1      -12.691931   1.000000
    2       -0.248748   1.000000
    3        2.173597   1.000000
    4        2.632246   1.000000
    5       11.890275   0.000000
    6       14.904397   0.000000
    7       17.711063   0.000000
    8       20.095141   0.000000
    9       22.331943   0.000000
   10       25.733321   0.000000
   11       27.435701   0.000000
   12       31.684312   0.000000
   13       32.743564   0.000000
   14       34.129902   0.000000
   15       35.100998   0.000000
   16       39.379864   0.000000
 
 -0.4375000E+00  0.1875000E+00  0.6250000E-01  0.2343750E-01
    1      -12.465512   1.000000
    2       -0.755117   1.000000
    3        1.913254   1.000000
    4        2.553730   1.000000
    5       12.171627   0.000000
    6       15.363551   0.000000
    7       17.249149   0.000000
    8       19.862122   0.000000
    9       23.547863   0.000000
   10       25.448814   0.000000
   11       27.369017   0.000000
   12       32.197607   0.000000
   13       32.659445   0.000000
   14       33.419218   0.000000
   15       36.776513   0.000000
   16       37.689226   0.000000
 
 -0.3125000E+00  0.1875000E+00  0.6250000E-01  0.2343750E-01
    1      -12.584956   1.000000
    2       -0.476884   1.000000
    3        1.924717   1.000000
    4        2.677637   1.000000
    5       12.084184   0.000000
    6       15.174432   0.000000
    7       17.477100   0.000000
    8       19.995721   0.000000
    9       23.449596   0.000000
   10       24.744893   0.000000
   11       27.211359   0.000000
   12       32.350277   0.000000
   13       32.519768   0.000000
   14       34.416742   0.000000
   15       34.925383   0.000000
   16       40.044621   0.000000
 
 -0.1875000E+00  0.1875000E+00  0.6250000E-01  0.2343750E-01
    1      -12.957428   1.000000
    2        0.408321   1.000000
    3        2.273937   1.000000
    4        2.917644   1.000000
    5       11.277298   0.000000
    6       15.079480   0.000000
    7       18.367108   0.000000
    8       20.536269   0.000000
    9       21.494165   0.000000
   10       24.650711   0.000000
   11       27.426475   0.000000
   12       30.463727   0.000000
   13       32.048669   0.000000
   14       33.680095   0.000000
   15       35.225389   0.000000
   16       39.136527   0.000000
 
 -0.6250000E-01  0.1875000E+00  0.6250000E-01  0.2343750E-01
    1      -13.333919   1.000000
    2        1.407919   1.000000
    3        2.870992   1.000000
    4        3.107248   1.000000
    5        9.905907   0.000000
    6       15.920775   0.000000
    7       19.362985   0.000000
    8       19.968218   0.000000
    9       21.503453   0.000000
   10       24.288057   0.000000
   11       26.468216   0.000000
   12       28.977082   0.000000
   13       29.960237   0.000000
   14       30.754895   0.000000
   15       37.200142   0.000000
   16       39.713320   0.000000
 
  0.3125000E+00  0.3125000E+00  0.6250000E-01  0.1171875E-01
    1      -12.889918   1.000000
    2        0.418764   1.000000
    3        2.473230   1.000000
    4        2.524673   1.000000
    5       11.655972   0.000000
    6       14.040509   0.000000
    7       17.778873   0.000000
    8       20.703772   0.000000
    9       20.844974   0.000000
   10       26.743259   0.000000
   11       30.193271   0.000000
   12       30.525106   0.000000
   13       31.084279   0.000000
   14       33.408400   0.000000
   15       37.471775   0.000000
   16       37.769462   0.000000
 
  0.4375000E+00  0.3125000E+00  0.6250000E-01  0.2343750E-01
    1      -12.588704   1.000000
    2       -0.098767   1.000000
    3        1.992638   1.000000
    4        2.313933   1.000000
    5       12.698356   0.000000
    6       13.685674   0.000000
    7       16.654037   0.000000
    8       20.753469   0.000000
    9       21.587330   0.000000
   10       27.437216   0.000000
   11       30.074240   0.000000
   12       31.207058   0.000000
   13       32.336029   0.000000
   14       35.858095   0.000000
   15       36.114941   0.000000
   16       39.228597   0.000000
 
 -0.4375000E+00  0.3125000E+00  0.6250000E-01  0.2343750E-01
    1      -12.367246   1.000000
    2       -0.244834   1.000000
    3        1.220127   1.000000
    4        2.257969   1.000000
    5       13.206360   0.000000
    6       14.677705   0.000000
    7       15.939571   0.000000
    8       20.313540   0.000000
    9       22.091291   0.000000
   10       27.190659   0.000000
   11       30.348267   0.000000
   12       30.822755   0.000000
   13       31.913252   0.000000
   14       35.582457   0.000000
   15       37.884527   0.000000
   16       41.006572   0.000000
 
 -0.3125000E+00  0.3125000E+00  0.6250000E-01  0.2343750E-01
    1      -12.373949   1.000000
    2       -0.048630   1.000000
    3        0.793690   1.000000
    4        2.409936   1.000000
    5       13.425275   0.000000
    6       15.124477   0.000000
    7       15.858301   0.000000
    8       20.183862   0.000000
    9       22.850520   0.000000
   10       25.133383   0.000000
   11       30.038424   0.000000
   12       31.192216   0.000000
   13       31.972199   0.000000
   14       36.011755   0.000000
   15       37.307990   0.000000
   16       41.293864   0.000000
 
 -0.1875000E+00  0.3125000E+00  0.6250000E-01  0.2343750E-01
    1      -12.602354   1.000000
    2       -0.115213   1.000000
    3        1.520426   1.000000
    4        2.672660   1.000000
    5       12.554982   0.000000
    6       14.897994   0.000000
    7       17.009002   0.000000
    8       20.308702   0.000000
    9       23.004522   0.000000
   10       24.343219   0.000000
   11       28.606966   0.000000
   12       31.640550   0.000000
   13       32.261458   0.000000
   14       34.272990   0.000000
   15       36.391408   0.000000
   16       40.991485   0.000000
 
 -0.6250000E-01  0.3125000E+00  0.6250000E-01  0.2343750E-01
    1      -12.900699   1.000000
    2        0.041885   1.000000
    3        2.543118   1.000000
    4        2.868970   1.000000
    5       11.132550   0.000000
    6       15.200977   0.000000
    7       18.748697   0.000000
    8       19.978012   0.000000
    9       22.410448   0.000000
   10       24.747284   0.000000
   11       25.983038   0.000000
   12       31.878768   0.000000
   13       32.225814   0.000000
   14       32.991200   0.000000
   15       36.145162   0.000000
   16       38.098476   0.000000
 
  0.4375000E+00  0.4375000E+00  0.6250000E-01  0.1171875E-01
    1      -12.424975   1.000000
    2       -0.389688   1.000000
    3        2.040714   1.000000
    4        2.154185   1.000000
    5       12.799612   0.000000
    6       13.001149   0.000000
    7       16.196586   0.000000
    8       21.550350   0.000000
    9       21.567549   0.000000
   10       28.803083   0.000000
   11       28.913537   0.000000
   12       33.058216   0.000000
   13       33.062441   0.000000
   14       37.526083   0.000000
   15       37.674696   0.000000
   16       39.736490   0.000000
 
 -0.4375000E+00  0.4375000E+00  0.6250000E-01  0.2343750E-01
    1      -12.301391   1.000000
    2       -0.406315   1.000000
    3        1.629292   1.000000
    4        2.018491   1.000000
    5       12.946796   0.000000
    6       13.580399   0.000000
    7       15.936863   0.000000
    8       20.889017   0.000000
    9       22.075760   0.000000
   10       28.718588   0.000000
   11       29.897061   0.000000
   12       30.886829   0.000000
   13       33.413376   0.000000
   14       38.482310   0.000000
   15       38.816677   0.000000
   16       40.806046   0.000000
 
 -0.3125000E+00  0.4375000E+00  0.6250000E-01  0.2343750E-01
    1      -12.294860   1.000000
    2       -0.040964   1.000000
    3        0.812820   1.000000
    4        2.176160   1.000000
    5       13.423708   0.000000
    6       14.785604   0.000000
    7       15.581791   0.000000
    8       20.218734   0.000000
    9       22.092595   0.000000
   10       27.581770   0.000000
   11       29.931880   0.000000
   12       31.167408   0.000000
   13       31.876386   0.000000
   14       37.335858   0.000000
   15       39.554922   0.000000
   16       40.248795   0.000000
 
 -0.1875000E+00  0.4375000E+00  0.6250000E-01  0.2343750E-01
    1      -12.403508   1.000000
    2       -0.460291   1.000000
    3        1.348879   1.000000
    4        2.458985   1.000000
    5       12.869368   0.000000
    6       15.250181   0.000000
    7       16.396375   0.000000
    8       20.082976   0.000000
    9       23.048368   0.000000
   10       25.377291   0.000000
   11       28.872982   0.000000
   12       31.660107   0.000000
   13       32.228077   0.000000
   14       34.662546   0.000000
   15       37.408198   0.000000
   16       39.046481   0.000000
 
 -0.6250000E-01  0.4375000E+00  0.6250000E-01  0.2343750E-01
    1      -12.560123   1.000000
    2       -0.845508   1.000000
    3        2.354849   1.000000
    4        2.686403   1.000000
    5       11.559418   0.000000
    6       15.426762   0.000000
    7       18.225000   0.000000
    8       19.650451   0.000000
    9       24.123162   0.000000
   10       25.098705   0.000000
   11       25.887846   0.000000
   12       32.301550   0.000000
   13       32.840457   0.000000
   14       33.785061   0.000000
   15       35.039770   0.000000
   16       37.745244   0.000000
 
 -0.4375000E+00 -0.4375000E+00  0.6250000E-01  0.1171875E-01
    1      -12.314456   1.000000
    2       -0.544748   1.000000
    3        1.942473   1.000000
    4        2.073077   1.000000
    5       12.576025   0.000000
    6       13.105887   0.000000
    7       16.087558   0.000000
    8       21.721031   0.000000
    9       21.756594   0.000000
   10       28.296025   0.000000
   11       29.746364   0.000000
   12       32.849768   0.000000
   13       33.381766   0.000000
   14       37.989658   0.000000
   15       39.282451   0.000000
   16       39.804615   0.000000
 
 -0.3125000E+00 -0.4375000E+00  0.6250000E-01  0.2343750E-01
    1      -12.402188   1.000000
    2       -0.314065   1.000000
    3        1.761719   1.000000
    4        2.120183   1.000000
    5       13.071170   0.000000
    6       13.473344   0.000000
    7       16.073240   0.000000
    8       20.871370   0.000000
    9       21.899680   0.000000
   10       28.426843   0.000000
   11       29.502209   0.000000
   12       31.701623   0.000000
   13       33.007172   0.000000
   14       36.856192   0.000000
   15       37.269178   0.000000
   16       40.728571   0.000000
 
 -0.1875000E+00 -0.4375000E+00  0.6250000E-01  0.2343750E-01
    1      -12.505109   1.000000
    2       -0.342362   1.000000
    3        1.713575   1.000000
    4        2.415082   1.000000
    5       12.650824   0.000000
    6       14.698478   0.000000
    7       16.689419   0.000000
    8       20.268498   0.000000
    9       22.194994   0.000000
   10       26.567933   0.000000
   11       29.207761   0.000000
   12       31.067715   0.000000
   13       32.613209   0.000000
   14       34.645066   0.000000
   15       35.833691   0.000000
   16       40.994123   0.000000
 
 -0.3125000E+00 -0.3125000E+00  0.6250000E-01  0.1171875E-01
    1      -12.627872   1.000000
    2       -0.070652   1.000000
    3        2.225158   1.000000
    4        2.310518   1.000000
    5       12.487208   0.000000
    6       13.322443   0.000000
    7       16.730995   0.000000
    8       21.179745   0.000000
    9       21.262851   0.000000
   10       27.821478   0.000000
   11       29.624671   0.000000
   12       31.964971   0.000000
   13       32.467660   0.000000
   14       36.153147   0.000000
   15       37.114319   0.000000
   16       37.899391   0.000000
 
 -0.1875000E+00 -0.3125000E+00  0.6250000E-01  0.2343750E-01
    1      -12.832119   1.000000
    2        0.268444   1.000000
    3        2.279063   1.000000
    4        2.575071   1.000000
    5       11.842053   0.000000
    6       14.274299   0.000000
    7       17.674068   0.000000
    8       20.538951   0.000000
    9       21.195386   0.000000
   10       26.332651   0.000000
   11       29.451196   0.000000
   12       30.745342   0.000000
   13       31.442179   0.000000
   14       34.305354   0.000000
   15       36.141212   0.000000
   16       38.166053   0.000000
 
 -0.1875000E+00 -0.1875000E+00  0.6250000E-01  0.1171875E-01
    1      -13.169061   1.000000
    2        1.059942   1.000000
    3        2.754097   1.000000
    4        2.771984   1.000000
    5       10.638169   0.000000
    6       14.984697   0.000000
    7       19.131939   0.000000
    8       20.185880   0.000000
    9       20.434681   0.000000
   10       25.782911   0.000000
   11       28.618012   0.000000
   12       29.693192   0.000000
   13       30.496992   0.000000
   14       30.796100   0.000000
   15       37.581770   0.000000
   16       38.814156   0.000000
 
  0.1875000E+00  0.1875000E+00  0.1875000E+00  0.3906250E-02
    1      -13.422840   1.000000
    2        1.586699   1.000000
    3        3.152109   1.000000
    4        3.152109   1.000000
    5        9.461479   0.000000
    6       16.371056   0.000000
    7       19.604061   0.000000
    8       19.604063   0.000000
    9       23.111157   0.000000
   10       23.111158   0.000000
   11       25.160639   0.000000
   12       28.728610   0.000000
   13       29.975915   0.000000
   14       29.975916   0.000000
   15       37.725308   0.000000
   16       40.451830   0.000000
 
  0.3125000E+00  0.1875000E+00  0.1875000E+00  0.1171875E-01
    1      -13.170386   1.000000
    2        0.887896   1.000000
    3        2.604297   1.000000
    4        3.084759   1.000000
    5       10.494052   0.000000
    6       15.548186   0.000000
    7       18.985489   0.000000
    8       20.427871   0.000000
    9       21.527146   0.000000
   10       24.028432   0.000000
   11       26.615761   0.000000
   12       29.616848   0.000000
   13       31.644486   0.000000
   14       31.766101   0.000000
   15       35.992644   0.000000
   16       39.520700   0.000000
 
  0.4375000E+00  0.1875000E+00  0.1875000E+00  0.1171875E-01
    1      -12.783387   1.000000
    2        0.078299   1.000000
    3        1.898170   1.000000
    4        2.861566   1.000000
    5       11.855549   0.000000
    6       15.026649   0.000000
    7       17.769054   0.000000
    8       20.509011   0.000000
    9       22.278163   0.000000
   10       24.354609   0.000000
   11       27.650415   0.000000
   12       31.139511   0.000000
   13       32.523454   0.000000
   14       33.943176   0.000000
   15       35.661084   0.000000
   16       39.747266   0.000000
 
 -0.4375000E+00  0.1875000E+00  0.1875000E+00  0.1171875E-01
    1      -12.483177   1.000000
    2       -0.556023   1.000000
    3        1.632706   1.000000
    4        2.625266   1.000000
    5       12.411262   0.000000
    6       15.293296   0.000000
    7       16.979682   0.000000
    8       20.094766   0.000000
    9       23.606791   0.000000
   10       24.759204   0.000000
   11       27.560155   0.000000
   12       32.318004   0.000000
   13       32.456056   0.000000
   14       34.436687   0.000000
   15       35.733187   0.000000
   16       39.445531   0.000000
 
 -0.3125000E+00  0.1875000E+00  0.1875000E+00  0.1171875E-01
    1      -12.482003   1.000000
    2       -0.595534   1.000000
    3        1.830763   1.000000
    4        2.508321   1.000000
    5       12.331233   0.000000
    6       15.127095   0.000000
    7       16.994830   0.000000
    8       20.132690   0.000000
    9       22.560951   0.000000
   10       26.567403   0.000000
   11       27.801719   0.000000
   12       31.582051   0.000000
   13       32.768952   0.000000
   14       33.754725   0.000000
   15       36.236295   0.000000
   16       39.235312   0.000000
 
 -0.1875000E+00  0.1875000E+00  0.1875000E+00  0.1171875E-01
    1      -12.781303   1.000000
    2        0.046535   1.000000
    3        2.304443   1.000000
    4        2.567138   1.000000
    5       11.825983   0.000000
    6       14.549778   0.000000
    7       17.720654   0.000000
    8       20.334939   0.000000
    9       21.574523   0.000000
   10       26.265063   0.000000
   11       28.207966   0.000000
   12       31.118899   0.000000
   13       32.574100   0.000000
   14       33.775596   0.000000
   15       36.012171   0.000000
   16       37.929964   0.000000
 
  0.3125000E+00  0.3125000E+00  0.1875000E+00  0.1171875E-01
    1      -13.025207   1.000000
    2        0.459036   1.000000
    3        2.719235   1.000000
    4        2.778593   1.000000
    5       10.928393   0.000000
    6       15.123503   0.000000
    7       18.894485   0.000000
    8       19.987907   0.000000
    9       21.623857   0.000000
   10       25.082384   0.000000
   11       26.587348   0.000000
   12       31.453693   0.000000
   13       31.482203   0.000000
   14       32.248252   0.000000
   15       36.836596   0.000000
   16       37.549744   0.000000
 
  0.4375000E+00  0.3125000E+00  0.1875000E+00  0.2343750E-01
    1      -12.729002   1.000000
    2        0.054361   1.000000
    3        1.932439   1.000000
    4        2.644260   1.000000
    5       12.164786   0.000000
    6       14.609894   0.000000
    7       17.434040   0.000000
    8       20.343346   0.000000
    9       21.923503   0.000000
   10       25.483227   0.000000
   11       28.857215   0.000000
   12       31.235636   0.000000
   13       31.787671   0.000000
   14       34.713503   0.000000
   15       35.682289   0.000000
   16       39.306968   0.000000
 
 -0.4375000E+00  0.3125000E+00  0.1875000E+00  0.2343750E-01
    1      -12.443661   1.000000
    2       -0.131193   1.000000
    3        1.186897   1.000000
    4        2.372274   1.000000
    5       13.327963   0.000000
    6       14.751250   0.000000
    7       16.232375   0.000000
    8       19.917343   0.000000
    9       23.466865   0.000000
   10       24.635417   0.000000
   11       30.238010   0.000000
   12       31.294416   0.000000
   13       31.926690   0.000000
   14       35.507464   0.000000
   15       36.591419   0.000000
   16       41.484950   0.000000
 
 -0.3125000E+00  0.3125000E+00  0.1875000E+00  0.2343750E-01
    1      -12.352624   1.000000
    2       -0.226977   1.000000
    3        1.102183   1.000000
    4        2.218836   1.000000
    5       13.441401   0.000000
    6       15.045870   0.000000
    7       15.904436   0.000000
    8       19.693430   0.000000
    9       23.246809   0.000000
   10       25.424229   0.000000
   11       30.685098   0.000000
   12       30.774779   0.000000
   13       32.149078   0.000000
   14       35.242875   0.000000
   15       38.356674   0.000000
   16       39.838165   0.000000
 
 -0.1875000E+00  0.3125000E+00  0.1875000E+00  0.2343750E-01
    1      -12.521313   1.000000
    2       -0.134453   1.000000
    3        1.618426   1.000000
    4        2.327722   1.000000
    5       13.038622   0.000000
    6       14.230029   0.000000
    7       16.495669   0.000000
    8       20.189300   0.000000
    9       22.327588   0.000000
   10       26.262522   0.000000
   11       30.606453   0.000000
   12       30.882223   0.000000
   13       31.919563   0.000000
   14       35.533513   0.000000
   15       36.098896   0.000000
   16       40.985376   0.000000
 
  0.4375000E+00  0.4375000E+00  0.1875000E+00  0.1171875E-01
    1      -12.557347   1.000000
    2       -0.197087   1.000000
    3        1.860357   1.000000
    4        2.382356   1.000000
    5       12.614506   0.000000
    6       14.152987   0.000000
    7       16.674509   0.000000
    8       20.728253   0.000000
    9       21.535168   0.000000
   10       27.413673   0.000000
   11       29.951181   0.000000
   12       30.414211   0.000000
   13       32.914703   0.000000
   14       34.910114   0.000000
   15       35.796990   0.000000
   16       40.112497   0.000000
 
 -0.4375000E+00  0.4375000E+00  0.1875000E+00  0.2343750E-01
    1      -12.365583   1.000000
    2       -0.173275   1.000000
    3        1.358847   1.000000
    4        2.043424   1.000000
    5       13.595087   0.000000
    6       14.127424   0.000000
    7       15.844669   0.000000
    8       19.956272   0.000000
    9       22.628332   0.000000
   10       27.010951   0.000000
   11       30.123772   0.000000
   12       31.237231   0.000000
   13       32.827918   0.000000
   14       36.310880   0.000000
   15       37.379234   0.000000
   16       41.336835   0.000000
 
 -0.3125000E+00  0.4375000E+00  0.1875000E+00  0.2343750E-01
    1      -12.269575   1.000000
    2        0.227319   1.000000
    3        0.724466   1.000000
    4        1.765649   1.000000
    5       14.350356   0.000000
    6       14.920063   0.000000
    7       15.227094   0.000000
    8       18.797103   0.000000
    9       23.972765   0.000000
   10       25.673735   0.000000
   11       29.395434   0.000000
   12       31.640001   0.000000
   13       33.907646   0.000000
   14       36.981000   0.000000
   15       39.659051   0.000000
   16       40.699454   0.000000
 
 -0.1875000E+00  0.4375000E+00  0.1875000E+00  0.2343750E-01
    1      -12.328909   1.000000
    2        0.014896   1.000000
    3        0.920585   1.000000
    4        2.026025   1.000000
    5       14.052235   0.000000
    6       14.680108   0.000000
    7       15.611937   0.000000
    8       19.317728   0.000000
    9       23.783684   0.000000
   10       25.158768   0.000000
   11       30.225897   0.000000
   12       31.641367   0.000000
   13       32.509658   0.000000
   14       36.265208   0.000000
   15       37.786436   0.000000
   16       41.946951   0.000000
 
 -0.4375000E+00 -0.4375000E+00  0.1875000E+00  0.1171875E-01
    1      -12.296972   1.000000
    2       -0.276889   1.000000
    3        1.215752   1.000000
    4        2.175609   1.000000
    5       13.042131   0.000000
    6       14.125245   0.000000
    7       15.819394   0.000000
    8       21.256191   0.000000
    9       21.301768   0.000000
   10       29.367106   0.000000
   11       29.407949   0.000000
   12       30.815501   0.000000
   13       32.068648   0.000000
   14       38.075073   0.000000
   15       39.406568   0.000000
   16       41.109743   0.000000
 
 -0.3125000E+00 -0.4375000E+00  0.1875000E+00  0.2343750E-01
    1      -12.282799   1.000000
    2       -0.139565   1.000000
    3        1.193361   1.000000
    4        1.875417   1.000000
    5       13.604292   0.000000
    6       14.328445   0.000000
    7       15.625508   0.000000
    8       19.723230   0.000000
    9       22.796166   0.000000
   10       27.757195   0.000000
   11       29.289007   0.000000
   12       31.067935   0.000000
   13       33.668544   0.000000
   14       37.587842   0.000000
   15       39.233233   0.000000
   16       41.438400   0.000000
 
 -0.3125000E+00 -0.3125000E+00  0.1875000E+00  0.1171875E-01
    1      -12.387776   1.000000
    2       -0.282371   1.000000
    3        1.464699   1.000000
    4        2.246889   1.000000
    5       13.009804   0.000000
    6       14.066219   0.000000
    7       16.020067   0.000000
    8       21.084549   0.000000
    9       21.400757   0.000000
   10       28.473471   0.000000
   11       29.689617   0.000000
   12       31.462864   0.000000
   13       31.888328   0.000000
   14       36.185621   0.000000
   15       37.501248   0.000000
   16       42.381221   0.000000
 
  0.3125000E+00  0.3125000E+00  0.3125000E+00  0.3906250E-02
    1      -12.966329   1.000000
    2        0.001683   1.000000
    3        2.916105   1.000000
    4        2.916105   1.000000
    5       10.658956   0.000000