    2    2    1    1
  0.9563318E+01  0.3001819E-09  0.3001820E-09  0.3001819E-09  0.5000000E-15
  1.000000000000000E-004
  CAR 
 automatically generated by pyflamestk   
      8     10     16
 
  0.1250000E+00  0.1250000E+00  0.1250000E+00  0.3125000E-01
    1      -13.589694   1.000000
    2        2.467221   1.000000
    3        3.313436   1.000000
    4        3.313437   1.000000
    5        8.826034   0.000000
    6       17.413127   0.000000
    7       19.427942   0.000000
    8       19.427945   0.000000
    9       23.678360   0.000000
   10       23.678364   0.000000
   11       25.021131   0.000000
   12       27.456177   0.000000
   13       28.886509   0.000000
   14       28.886513   0.000000
   15       39.156168   0.000000
   16       41.060312   0.000000
 
  0.3750000E+00  0.1250000E+00  0.1250000E+00  0.9375000E-01
    1      -12.931957   1.000000
    2        0.297775   1.000000
    3        2.454774   1.000000
    4        3.018273   1.000000
    5       11.247761   0.000000
    6       15.354563   0.000000
    7       18.763431   0.000000
    8       20.429990   0.000000
    9       22.250958   0.000000
   10       24.482945   0.000000
   11       26.602267   0.000000
   12       31.262976   0.000000
   13       32.539453   0.000000
   14       33.411713   0.000000
   15       35.780748   0.000000
   16       39.077632   0.000000
 
 -0.3750000E+00  0.1250000E+00  0.1250000E+00  0.9375000E-01
    1      -12.491966   1.000000
    2       -0.834207   1.000000
    3        2.305200   1.000000
    4        2.679507   1.000000
    5       11.835035   0.000000
    6       15.573006   0.000000
    7       18.052396   0.000000
    8       19.868461   0.000000
    9       23.858899   0.000000
   10       26.110343   0.000000
   11       26.205383   0.000000
   12       32.485815   0.000000
   13       33.088450   0.000000
   14       33.430157   0.000000
   15       36.012638   0.000000
   16       37.722147   0.000000
 
 -0.1250000E+00  0.1250000E+00  0.1250000E+00  0.9375000E-01
    1      -13.223448   1.000000
    2        1.186615   1.000000
    3        2.943189   1.000000
    4        2.947060   1.000000
    5       10.419022   0.000000
    6       15.593324   0.000000
    7       19.556725   0.000000
    8       20.037308   0.000000
    9       21.213483   0.000000
   10       25.057860   0.000000
   11       27.059841   0.000000
   12       30.156392   0.000000
   13       30.442867   0.000000
   14       31.195982   0.000000
   15       37.418745   0.000000
   16       39.182019   0.000000
 
  0.3750000E+00  0.3750000E+00  0.1250000E+00  0.9375000E-01
    1      -12.694524   1.000000
    2        0.111614   1.000000
    3        2.255766   1.000000
    4        2.488788   1.000000
    5       12.352610   0.000000
    6       13.997222   0.000000
    7       17.308002   0.000000
    8       20.938571   0.000000
    9       21.396070   0.000000
   10       27.239349   0.000000
   11       30.345957   0.000000
   12       30.613938   0.000000
   13       32.528226   0.000000
   14       35.022164   0.000000
   15       36.673331   0.000000
   16       38.089890   0.000000
 
 -0.3750000E+00  0.3750000E+00  0.1250000E+00  0.1875000E+00
    1      -12.279392   1.000000
    2       -0.004871   1.000000
    3        0.994467   1.000000
    4        2.076817   1.000000
    5       13.869573   0.000000
    6       14.911485   0.000000
    7       15.701137   0.000000
    8       19.710350   0.000000
    9       23.158358   0.000000
   10       26.610426   0.000000
   11       30.171854   0.000000
   12       31.599466   0.000000
   13       32.865269   0.000000
   14       36.539728   0.000000
   15       39.109614   0.000000
   16       41.329472   0.000000
 
 -0.1250000E+00  0.3750000E+00  0.1250000E+00  0.1875000E+00
    1      -12.537657   1.000000
    2       -0.209850   1.000000
    3        1.736199   1.000000
    4        2.576513   1.000000
    5       12.710969   0.000000
    6       14.909729   0.000000
    7       17.079539   0.000000
    8       20.275402   0.000000
    9       22.843992   0.000000
   10       25.518301   0.000000
   11       29.054256   0.000000
   12       31.846551   0.000000
   13       32.428507   0.000000
   14       35.091097   0.000000
   15       35.736005   0.000000
   16       41.236883   0.000000
 
 -0.3750000E+00 -0.3750000E+00  0.1250000E+00  0.9375000E-01
    1      -12.316029   1.000000
    2       -0.370425   1.000000
    3        1.736914   1.000000
    4        2.196795   1.000000
    5       12.942512   0.000000
    6       13.624105   0.000000
    7       16.155907   0.000000
    8       21.649601   0.000000
    9       21.663409   0.000000
   10       29.121667   0.000000
   11       29.559722   0.000000
   12       32.141906   0.000000
   13       32.858083   0.000000
   14       38.006093   0.000000
   15       38.386204   0.000000
   16       41.316754   0.000000
 
  0.3750000E+00  0.3750000E+00  0.3750000E+00  0.3125000E-01
    1      -12.730697   1.000000
    2       -0.564756   1.000000
    3        2.873949   1.000000
    4        2.873949   1.000000
    5       11.043971   0.000000
    6       15.575605   0.000000
    7       19.663448   0.000000
    8       19.663450   0.000000
    9       24.255221   0.000000
   10       24.594476   0.000000
   11       24.594480   0.000000
   12       32.107860   0.000000
   13       33.430666   0.000000
   14       33.430668   0.000000
   15       37.042074   0.000000
   16       37.042080   0.000000
 
 -0.3750000E+00  0.3750000E+00  0.3750000E+00  0.9375000E-01
    1      -12.363525   1.000000
    2       -0.247802   1.000000
    3        1.100110   1.000000
    4        2.548495   1.000000
    5       13.190053   0.000000
    6       15.372844   0.000000
    7       16.271728   0.000000
    8       20.587419   0.000000
    9       22.666716   0.000000
   10       25.694402   0.000000
   11       29.275094   0.000000
   12       31.817666   0.000000
   13       32.242590   0.000000
   14       35.578753   0.000000
   15       37.460390   0.000000
   16       40.335653   0.000000
