# ['Ni']

28 atoms
1 atom types

    0.0000     2.4844 xlo xhi
    0.0000     4.3031 ylo yhi
    0.0000    28.3988 zlo zhi

    0.0000     0.0000     0.0000 xy xz yz

Atoms

1 1     0.0000     0.0000     0.0000
2 1     1.2422     2.1515     0.0000
3 1     1.2422     0.7172     2.0285
4 1     0.0000     2.8687     2.0285
5 1     0.0000     1.4344     4.0570
6 1     1.2422     3.5859     4.0570
7 1     0.0000     0.0000     6.0855
8 1     1.2422     2.1515     6.0855
9 1     1.2422     0.7172     8.1139
10 1     0.0000     2.8687     8.1139
11 1     0.0000     1.4344    10.1424
12 1     1.2422     3.5859    10.1424
13 1     0.0000     0.0000    12.1709
14 1     1.2422     2.1515    12.1709
15 1     0.0000     1.4344    14.1994
16 1     1.2422     3.5859    14.1994
17 1     0.0000     0.0000    16.2279
18 1     1.2422     2.1515    16.2279
19 1     1.2422     0.7172    18.2564
20 1     0.0000     2.8687    18.2564
21 1     0.0000     1.4344    20.2849
22 1     1.2422     3.5859    20.2849
23 1     0.0000     0.0000    22.3134
24 1     1.2422     2.1515    22.3134
25 1     1.2422     0.7172    24.3419
26 1     0.0000     2.8687    24.3419
27 1     0.0000     1.4344    26.3703
28 1     1.2422     3.5859    26.3703
