# ['Ni']

20 atoms
1 atom types

    0.0000     3.3796 xlo xhi
    0.0000     3.3796 ylo yhi
    0.0000    33.7962 zlo zhi

    0.0000    -0.0000     0.0000 xy xz yz

Atoms

1 1     0.0000     0.0000     0.0000
2 1     1.6898     1.6898     0.0000
3 1     1.6898     0.0000     1.6898
4 1     0.0000     1.6898     1.6898
5 1     0.0000     0.0000     3.3796
6 1     1.6898     1.6898     3.3796
7 1     1.6898     0.0000     5.0694
8 1     0.0000     1.6898     5.0694
9 1     0.0000     0.0000     6.7592
10 1     1.6898     1.6898     6.7592
11 1     1.6898     0.0000     8.4491
12 1     0.0000     1.6898     8.4491
13 1     0.0000     0.0000    10.1389
14 1     1.6898     1.6898    10.1389
15 1     1.6898     0.0000    11.8287
16 1     0.0000     1.6898    11.8287
17 1     0.0000     0.0000    13.5185
18 1     1.6898     1.6898    13.5185
19 1     1.6898     0.0000    15.2083
20 1     0.0000     1.6898    15.2083
