# ['Ni']

107 atoms
1 atom types

    0.0000    10.5260 xlo xhi
    0.0000    10.5260 ylo yhi
    0.0000    10.5260 zlo zhi

    0.0000    -0.0000    -0.0000 xy xz yz

Atoms

1 1     1.7543     1.7543     0.0000
2 1     1.7543     0.0000     1.7543
3 1     0.0000     1.7543     1.7543
4 1     0.0000     0.0000     3.5087
5 1     1.7543     1.7543     3.5087
6 1     1.7543     0.0000     5.2630
7 1     0.0000     1.7543     5.2630
8 1     0.0000     0.0000     7.0173
9 1     1.7543     1.7543     7.0173
10 1     1.7543     0.0000     8.7717
11 1     0.0000     1.7543     8.7717
12 1     0.0000     3.5087     0.0000
13 1     1.7543     5.2630     0.0000
14 1     1.7543     3.5087     1.7543
15 1     0.0000     5.2630     1.7543
16 1     0.0000     3.5087     3.5087
17 1     1.7543     5.2630     3.5087
18 1     1.7543     3.5087     5.2630
19 1     0.0000     5.2630     5.2630
20 1     0.0000     3.5087     7.0173
21 1     1.7543     5.2630     7.0173
22 1     1.7543     3.5087     8.7717
23 1     0.0000     5.2630     8.7717
24 1     0.0000     7.0173     0.0000
25 1     1.7543     8.7717     0.0000
26 1     1.7543     7.0173     1.7543
27 1     0.0000     8.7717     1.7543
28 1     0.0000     7.0173     3.5087
29 1     1.7543     8.7717     3.5087
30 1     1.7543     7.0173     5.2630
31 1     0.0000     8.7717     5.2630
32 1     0.0000     7.0173     7.0173
33 1     1.7543     8.7717     7.0173
34 1     1.7543     7.0173     8.7717
35 1     0.0000     8.7717     8.7717
36 1     3.5087     0.0000     0.0000
37 1     5.2630     1.7543     0.0000
38 1     5.2630     0.0000     1.7543
39 1     3.5087     1.7543     1.7543
40 1     3.5087     0.0000     3.5087
41 1     5.2630     1.7543     3.5087
42 1     5.2630     0.0000     5.2630
43 1     3.5087     1.7543     5.2630
44 1     3.5087     0.0000     7.0173
45 1     5.2630     1.7543     7.0173
46 1     5.2630     0.0000     8.7717
47 1     3.5087     1.7543     8.7717
48 1     3.5087     3.5087     0.0000
49 1     5.2630     5.2630     0.0000
50 1     5.2630     3.5087     1.7543
51 1     3.5087     5.2630     1.7543
52 1     3.5087     3.5087     3.5087
53 1     5.2630     5.2630     3.5087
54 1     5.2630     3.5087     5.2630
55 1     3.5087     5.2630     5.2630
56 1     3.5087     3.5087     7.0173
57 1     5.2630     5.2630     7.0173
58 1     5.2630     3.5087     8.7717
59 1     3.5087     5.2630     8.7717
60 1     3.5087     7.0173     0.0000
61 1     5.2630     8.7717     0.0000
62 1     5.2630     7.0173     1.7543
63 1     3.5087     8.7717     1.7543
64 1     3.5087     7.0173     3.5087
65 1     5.2630     8.7717     3.5087
66 1     5.2630     7.0173     5.2630
67 1     3.5087     8.7717     5.2630
68 1     3.5087     7.0173     7.0173
69 1     5.2630     8.7717     7.0173
70 1     5.2630     7.0173     8.7717
71 1     3.5087     8.7717     8.7717
72 1     7.0173     0.0000     0.0000
73 1     8.7717     1.7543     0.0000
74 1     8.7717     0.0000     1.7543
75 1     7.0173     1.7543     1.7543
76 1     7.0173     0.0000     3.5087
77 1     8.7717     1.7543     3.5087
78 1     8.7717     0.0000     5.2630
79 1     7.0173     1.7543     5.2630
80 1     7.0173     0.0000     7.0173
81 1     8.7717     1.7543     7.0173
82 1     8.7717     0.0000     8.7717
83 1     7.0173     1.7543     8.7717
84 1     7.0173     3.5087     0.0000
85 1     8.7717     5.2630     0.0000
86 1     8.7717     3.5087     1.7543
87 1     7.0173     5.2630     1.7543
88 1     7.0173     3.5087     3.5087
89 1     8.7717     5.2630     3.5087
90 1     8.7717     3.5087     5.2630
91 1     7.0173     5.2630     5.2630
92 1     7.0173     3.5087     7.0173
93 1     8.7717     5.2630     7.0173
94 1     8.7717     3.5087     8.7717
95 1     7.0173     5.2630     8.7717
96 1     7.0173     7.0173     0.0000
97 1     8.7717     8.7717     0.0000
98 1     8.7717     7.0173     1.7543
99 1     7.0173     8.7717     1.7543
100 1     7.0173     7.0173     3.5087
101 1     8.7717     8.7717     3.5087
102 1     8.7717     7.0173     5.2630
103 1     7.0173     8.7717     5.2630
104 1     7.0173     7.0173     7.0173
105 1     8.7717     8.7717     7.0173
106 1     8.7717     7.0173     8.7717
107 1     7.0173     8.7717     8.7717
