# ['Ni']

28 atoms
1 atom types

    0.0000     2.3311 xlo xhi
    0.0000     4.0376 ylo yhi
    0.0000    26.6466 zlo zhi

    0.0000     0.0000     0.0000 xy xz yz

Atoms

1 1     0.0000     0.0000     0.0000
2 1     1.1655     2.0188     0.0000
3 1     1.1655     0.6729     1.9033
4 1     0.0000     2.6917     1.9033
5 1     0.0000     1.3459     3.8067
6 1     1.1655     3.3646     3.8067
7 1     0.0000     0.0000     5.7100
8 1     1.1655     2.0188     5.7100
9 1     1.1655     0.6729     7.6133
10 1     0.0000     2.6917     7.6133
11 1     0.0000     1.3459     9.5167
12 1     1.1655     3.3646     9.5167
13 1     0.0000     0.0000    11.4200
14 1     1.1655     2.0188    11.4200
15 1     0.0000     1.3459    13.3233
16 1     1.1655     3.3646    13.3233
17 1     0.0000     0.0000    15.2267
18 1     1.1655     2.0188    15.2267
19 1     1.1655     0.6729    17.1300
20 1     0.0000     2.6917    17.1300
21 1     0.0000     1.3459    19.0333
22 1     1.1655     3.3646    19.0333
23 1     0.0000     0.0000    20.9366
24 1     1.1655     2.0188    20.9366
25 1     1.1655     0.6729    22.8400
26 1     0.0000     2.6917    22.8400
27 1     0.0000     1.3459    24.7433
28 1     1.1655     3.3646    24.7433
