    2    2    1    1
  0.9563318E+01  0.3001819E-09  0.3001820E-09  0.3001819E-09  0.5000000E-15
  1.000000000000000E-004
  CAR 
 automatically generated by pyflamestk   
      8     10     16
 
  0.1250000E+00  0.1250000E+00  0.1250000E+00  0.3125000E-01
    1      -13.572916   1.000000
    2        2.468630   1.000000
    3        3.315238   1.000000
    4        3.315239   1.000000
    5        8.833770   0.000000
    6       17.412322   0.000000
    7       19.428854   0.000000
    8       19.428857   0.000000
    9       23.679206   0.000000
   10       23.679210   0.000000
   11       25.017742   0.000000
   12       27.455135   0.000000
   13       28.886208   0.000000
   14       28.886211   0.000000
   15       39.150665   0.000000
   16       41.053002   0.000000
 
  0.3750000E+00  0.1250000E+00  0.1250000E+00  0.9375000E-01
    1      -12.913883   1.000000
    2        0.296179   1.000000
    3        2.453526   1.000000
    4        3.016903   1.000000
    5       11.250030   0.000000
    6       15.350611   0.000000
    7       18.762725   0.000000
    8       20.430461   0.000000
    9       22.251053   0.000000
   10       24.481870   0.000000
   11       26.600343   0.000000
   12       31.261415   0.000000
   13       32.535261   0.000000
   14       33.410401   0.000000
   15       35.780885   0.000000
   16       39.074276   0.000000
 
 -0.3750000E+00  0.1250000E+00  0.1250000E+00  0.9375000E-01
    1      -12.472812   1.000000
    2       -0.837698   1.000000
    3        2.302394   1.000000
    4        2.677230   1.000000
    5       11.837247   0.000000
    6       15.561549   0.000000
    7       18.052108   0.000000
    8       19.868312   0.000000
    9       23.858380   0.000000
   10       26.108096   0.000000
   11       26.204142   0.000000
   12       32.487839   0.000000
   13       33.084011   0.000000
   14       33.429382   0.000000
   15       36.010863   0.000000
   16       37.721704   0.000000
 
 -0.1250000E+00  0.1250000E+00  0.1250000E+00  0.9375000E-01
    1      -13.205994   1.000000
    2        1.185211   1.000000
    3        2.944513   1.000000
    4        2.948389   1.000000
    5       10.422453   0.000000
    6       15.591444   0.000000
    7       19.556807   0.000000
    8       20.037448   0.000000
    9       21.212836   0.000000
   10       25.058691   0.000000
   11       27.057980   0.000000
   12       30.155979   0.000000
   13       30.440761   0.000000
   14       31.194019   0.000000
   15       37.416015   0.000000
   16       39.178141   0.000000
 
  0.3750000E+00  0.3750000E+00  0.1250000E+00  0.9375000E-01
    1      -12.675877   1.000000
    2        0.109754   1.000000
    3        2.253061   1.000000
    4        2.486224   1.000000
    5       12.353057   0.000000
    6       13.995018   0.000000
    7       17.306469   0.000000
    8       20.936335   0.000000
    9       21.393356   0.000000
   10       27.239347   0.000000
   11       30.345206   0.000000
   12       30.614023   0.000000
   13       32.527443   0.000000
   14       35.019227   0.000000
   15       36.672267   0.000000
   16       38.088448   0.000000
 
 -0.3750000E+00  0.3750000E+00  0.1250000E+00  0.1875000E+00
    1      -12.259666   1.000000
    2       -0.008563   1.000000
    3        0.991933   1.000000
    4        2.074513   1.000000
    5       13.867190   0.000000
    6       14.905853   0.000000
    7       15.697761   0.000000
    8       19.711188   0.000000
    9       23.156764   0.000000
   10       26.609961   0.000000
   11       30.173294   0.000000
   12       31.595721   0.000000
   13       32.863777   0.000000
   14       36.537963   0.000000
   15       39.109398   0.000000
   16       41.328801   0.000000
 
 -0.1250000E+00  0.3750000E+00  0.1250000E+00  0.1875000E+00
    1      -12.518619   1.000000
    2       -0.211882   1.000000
    3        1.734856   1.000000
    4        2.575569   1.000000
    5       12.711051   0.000000
    6       14.904901   0.000000
    7       17.078843   0.000000
    8       20.274239   0.000000
    9       22.843668   0.000000
   10       25.518149   0.000000
   11       29.053047   0.000000
   12       31.844823   0.000000
   13       32.426530   0.000000
   14       35.091204   0.000000
   15       35.734176   0.000000
   16       41.235718   0.000000
 
 -0.3750000E+00 -0.3750000E+00  0.1250000E+00  0.9375000E-01
    1      -12.296392   1.000000
    2       -0.373177   1.000000
    3        1.734624   1.000000
    4        2.191583   1.000000
    5       12.941526   0.000000
    6       13.624109   0.000000
    7       16.148448   0.000000
    8       21.647314   0.000000
    9       21.658274   0.000000
   10       29.126992   0.000000
   11       29.558683   0.000000
   12       32.141514   0.000000
   13       32.856111   0.000000
   14       38.004936   0.000000
   15       38.386611   0.000000
   16       41.317591   0.000000
 
  0.3750000E+00  0.3750000E+00  0.3750000E+00  0.3125000E-01
    1      -12.712144   1.000000
    2       -0.567157   1.000000
    3        2.872561   1.000000
    4        2.872562   1.000000
    5       11.047432   0.000000
    6       15.566897   0.000000
    7       19.663913   0.000000
    8       19.663915   0.000000
    9       24.253326   0.000000
   10       24.593234   0.000000
   11       24.593237   0.000000
   12       32.107907   0.000000
   13       33.427820   0.000000
   14       33.427823   0.000000
   15       37.041692   0.000000
   16       37.041698   0.000000
 
 -0.3750000E+00  0.3750000E+00  0.3750000E+00  0.9375000E-01
    1      -12.344034   1.000000
    2       -0.250745   1.000000
    3        1.097936   1.000000
    4        2.545140   1.000000
    5       13.190019   0.000000
    6       15.364044   0.000000
    7       16.270094   0.000000
    8       20.586044   0.000000
    9       22.669829   0.000000
   10       25.694347   0.000000
   11       29.273255   0.000000
   12       31.815089   0.000000
   13       32.237881   0.000000
   14       35.576615   0.000000
   15       37.461281   0.000000
   16       40.335078   0.000000
