# ['Ni']

107 atoms
1 atom types

    0.0000    10.5519 xlo xhi
    0.0000    10.5519 ylo yhi
    0.0000    10.5519 zlo zhi

    0.0000    -0.0000    -0.0000 xy xz yz

Atoms

1 1     1.7587     1.7587     0.0000
2 1     1.7587     0.0000     1.7587
3 1     0.0000     1.7587     1.7587
4 1     0.0000     0.0000     3.5173
5 1     1.7587     1.7587     3.5173
6 1     1.7587     0.0000     5.2759
7 1     0.0000     1.7587     5.2759
8 1     0.0000     0.0000     7.0346
9 1     1.7587     1.7587     7.0346
10 1     1.7587     0.0000     8.7932
11 1     0.0000     1.7587     8.7932
12 1     0.0000     3.5173     0.0000
13 1     1.7587     5.2759     0.0000
14 1     1.7587     3.5173     1.7587
15 1     0.0000     5.2759     1.7587
16 1     0.0000     3.5173     3.5173
17 1     1.7587     5.2759     3.5173
18 1     1.7587     3.5173     5.2759
19 1     0.0000     5.2759     5.2759
20 1     0.0000     3.5173     7.0346
21 1     1.7587     5.2759     7.0346
22 1     1.7587     3.5173     8.7932
23 1     0.0000     5.2759     8.7932
24 1     0.0000     7.0346     0.0000
25 1     1.7587     8.7932     0.0000
26 1     1.7587     7.0346     1.7587
27 1     0.0000     8.7932     1.7587
28 1     0.0000     7.0346     3.5173
29 1     1.7587     8.7932     3.5173
30 1     1.7587     7.0346     5.2759
31 1     0.0000     8.7932     5.2759
32 1     0.0000     7.0346     7.0346
33 1     1.7587     8.7932     7.0346
34 1     1.7587     7.0346     8.7932
35 1     0.0000     8.7932     8.7932
36 1     3.5173     0.0000     0.0000
37 1     5.2759     1.7587     0.0000
38 1     5.2759     0.0000     1.7587
39 1     3.5173     1.7587     1.7587
40 1     3.5173     0.0000     3.5173
41 1     5.2759     1.7587     3.5173
42 1     5.2759     0.0000     5.2759
43 1     3.5173     1.7587     5.2759
44 1     3.5173     0.0000     7.0346
45 1     5.2759     1.7587     7.0346
46 1     5.2759     0.0000     8.7932
47 1     3.5173     1.7587     8.7932
48 1     3.5173     3.5173     0.0000
49 1     5.2759     5.2759     0.0000
50 1     5.2759     3.5173     1.7587
51 1     3.5173     5.2759     1.7587
52 1     3.5173     3.5173     3.5173
53 1     5.2759     5.2759     3.5173
54 1     5.2759     3.5173     5.2759
55 1     3.5173     5.2759     5.2759
56 1     3.5173     3.5173     7.0346
57 1     5.2759     5.2759     7.0346
58 1     5.2759     3.5173     8.7932
59 1     3.5173     5.2759     8.7932
60 1     3.5173     7.0346     0.0000
61 1     5.2759     8.7932     0.0000
62 1     5.2759     7.0346     1.7587
63 1     3.5173     8.7932     1.7587
64 1     3.5173     7.0346     3.5173
65 1     5.2759     8.7932     3.5173
66 1     5.2759     7.0346     5.2759
67 1     3.5173     8.7932     5.2759
68 1     3.5173     7.0346     7.0346
69 1     5.2759     8.7932     7.0346
70 1     5.2759     7.0346     8.7932
71 1     3.5173     8.7932     8.7932
72 1     7.0346     0.0000     0.0000
73 1     8.7932     1.7587     0.0000
74 1     8.7932     0.0000     1.7587
75 1     7.0346     1.7587     1.7587
76 1     7.0346     0.0000     3.5173
77 1     8.7932     1.7587     3.5173
78 1     8.7932     0.0000     5.2759
79 1     7.0346     1.7587     5.2759
80 1     7.0346     0.0000     7.0346
81 1     8.7932     1.7587     7.0346
82 1     8.7932     0.0000     8.7932
83 1     7.0346     1.7587     8.7932
84 1     7.0346     3.5173     0.0000
85 1     8.7932     5.2759     0.0000
86 1     8.7932     3.5173     1.7587
87 1     7.0346     5.2759     1.7587
88 1     7.0346     3.5173     3.5173
89 1     8.7932     5.2759     3.5173
90 1     8.7932     3.5173     5.2759
91 1     7.0346     5.2759     5.2759
92 1     7.0346     3.5173     7.0346
93 1     8.7932     5.2759     7.0346
94 1     8.7932     3.5173     8.7932
95 1     7.0346     5.2759     8.7932
96 1     7.0346     7.0346     0.0000
97 1     8.7932     8.7932     0.0000
98 1     8.7932     7.0346     1.7587
99 1     7.0346     8.7932     1.7587
100 1     7.0346     7.0346     3.5173
101 1     8.7932     8.7932     3.5173
102 1     8.7932     7.0346     5.2759
103 1     7.0346     8.7932     5.2759
104 1     7.0346     7.0346     7.0346
105 1     8.7932     8.7932     7.0346
106 1     8.7932     7.0346     8.7932
107 1     7.0346     8.7932     8.7932
