# ['Ni']

18 atoms
1 atom types

    0.0000     2.3572 xlo xhi
    0.0000     4.0828 ylo yhi
    0.0000    34.6376 zlo zhi

    0.0000     0.0000    -0.0004 xy xz yz

Atoms

1 1     0.0000     0.0000     0.0000
2 1     1.1786     0.6805     1.9243
3 1     0.0000     1.3609     3.8486
4 1     1.1786     2.0414     0.0000
5 1     0.0000     2.7218     1.9243
6 1     1.1786     3.4023     3.8486
7 1     0.0000     0.0000     5.7729
8 1     1.1786     0.6805     7.6972
9 1     0.0000     1.3609     9.6216
10 1     1.1786     2.0414     5.7729
11 1     0.0000     2.7218     7.6972
12 1     1.1786     3.4023     9.6216
13 1     0.0000     0.0000    11.5459
14 1     1.1786     0.6805    13.4702
15 1     0.0000     1.3609    15.3945
16 1     1.1786     2.0414    11.5459
17 1     0.0000     2.7218    13.4702
18 1     1.1786     3.4023    15.3945
