# ['Ni']

107 atoms
1 atom types

    0.0000    10.5590 xlo xhi
    0.0000    10.5590 ylo yhi
    0.0000    10.5590 zlo zhi

    0.0000    -0.0000    -0.0000 xy xz yz

Atoms

1 1     1.7598     1.7598     0.0000
2 1     1.7598     0.0000     1.7598
3 1     0.0000     1.7598     1.7598
4 1     0.0000     0.0000     3.5197
5 1     1.7598     1.7598     3.5197
6 1     1.7598     0.0000     5.2795
7 1     0.0000     1.7598     5.2795
8 1     0.0000     0.0000     7.0393
9 1     1.7598     1.7598     7.0393
10 1     1.7598     0.0000     8.7991
11 1     0.0000     1.7598     8.7991
12 1     0.0000     3.5197     0.0000
13 1     1.7598     5.2795     0.0000
14 1     1.7598     3.5197     1.7598
15 1     0.0000     5.2795     1.7598
16 1     0.0000     3.5197     3.5197
17 1     1.7598     5.2795     3.5197
18 1     1.7598     3.5197     5.2795
19 1     0.0000     5.2795     5.2795
20 1     0.0000     3.5197     7.0393
21 1     1.7598     5.2795     7.0393
22 1     1.7598     3.5197     8.7991
23 1     0.0000     5.2795     8.7991
24 1     0.0000     7.0393     0.0000
25 1     1.7598     8.7991     0.0000
26 1     1.7598     7.0393     1.7598
27 1     0.0000     8.7991     1.7598
28 1     0.0000     7.0393     3.5197
29 1     1.7598     8.7991     3.5197
30 1     1.7598     7.0393     5.2795
31 1     0.0000     8.7991     5.2795
32 1     0.0000     7.0393     7.0393
33 1     1.7598     8.7991     7.0393
34 1     1.7598     7.0393     8.7991
35 1     0.0000     8.7991     8.7991
36 1     3.5197     0.0000     0.0000
37 1     5.2795     1.7598     0.0000
38 1     5.2795     0.0000     1.7598
39 1     3.5197     1.7598     1.7598
40 1     3.5197     0.0000     3.5197
41 1     5.2795     1.7598     3.5197
42 1     5.2795     0.0000     5.2795
43 1     3.5197     1.7598     5.2795
44 1     3.5197     0.0000     7.0393
45 1     5.2795     1.7598     7.0393
46 1     5.2795     0.0000     8.7991
47 1     3.5197     1.7598     8.7991
48 1     3.5197     3.5197     0.0000
49 1     5.2795     5.2795     0.0000
50 1     5.2795     3.5197     1.7598
51 1     3.5197     5.2795     1.7598
52 1     3.5197     3.5197     3.5197
53 1     5.2795     5.2795     3.5197
54 1     5.2795     3.5197     5.2795
55 1     3.5197     5.2795     5.2795
56 1     3.5197     3.5197     7.0393
57 1     5.2795     5.2795     7.0393
58 1     5.2795     3.5197     8.7991
59 1     3.5197     5.2795     8.7991
60 1     3.5197     7.0393     0.0000
61 1     5.2795     8.7991     0.0000
62 1     5.2795     7.0393     1.7598
63 1     3.5197     8.7991     1.7598
64 1     3.5197     7.0393     3.5197
65 1     5.2795     8.7991     3.5197
66 1     5.2795     7.0393     5.2795
67 1     3.5197     8.7991     5.2795
68 1     3.5197     7.0393     7.0393
69 1     5.2795     8.7991     7.0393
70 1     5.2795     7.0393     8.7991
71 1     3.5197     8.7991     8.7991
72 1     7.0393     0.0000     0.0000
73 1     8.7991     1.7598     0.0000
74 1     8.7991     0.0000     1.7598
75 1     7.0393     1.7598     1.7598
76 1     7.0393     0.0000     3.5197
77 1     8.7991     1.7598     3.5197
78 1     8.7991     0.0000     5.2795
79 1     7.0393     1.7598     5.2795
80 1     7.0393     0.0000     7.0393
81 1     8.7991     1.7598     7.0393
82 1     8.7991     0.0000     8.7991
83 1     7.0393     1.7598     8.7991
84 1     7.0393     3.5197     0.0000
85 1     8.7991     5.2795     0.0000
86 1     8.7991     3.5197     1.7598
87 1     7.0393     5.2795     1.7598
88 1     7.0393     3.5197     3.5197
89 1     8.7991     5.2795     3.5197
90 1     8.7991     3.5197     5.2795
91 1     7.0393     5.2795     5.2795
92 1     7.0393     3.5197     7.0393
93 1     8.7991     5.2795     7.0393
94 1     8.7991     3.5197     8.7991
95 1     7.0393     5.2795     8.7991
96 1     7.0393     7.0393     0.0000
97 1     8.7991     8.7991     0.0000
98 1     8.7991     7.0393     1.7598
99 1     7.0393     8.7991     1.7598
100 1     7.0393     7.0393     3.5197
101 1     8.7991     8.7991     3.5197
102 1     8.7991     7.0393     5.2795
103 1     7.0393     8.7991     5.2795
104 1     7.0393     7.0393     7.0393
105 1     8.7991     8.7991     7.0393
106 1     8.7991     7.0393     8.7991
107 1     7.0393     8.7991     8.7991
