# ['Ni']

18 atoms
1 atom types

    0.0000     2.2961 xlo xhi
    0.0000     3.9771 ylo yhi
    0.0000    33.7408 zlo zhi

    0.0000     0.0000    -0.0004 xy xz yz

Atoms

1 1     0.0000     0.0000     0.0000
2 1     1.1481     0.6628     1.8745
3 1     0.0000     1.3257     3.7490
4 1     1.1481     1.9885     0.0000
5 1     0.0000     2.6514     1.8745
6 1     1.1481     3.3142     3.7490
7 1     0.0000     0.0000     5.6235
8 1     1.1481     0.6628     7.4979
9 1     0.0000     1.3257     9.3724
10 1     1.1481     1.9885     5.6235
11 1     0.0000     2.6514     7.4979
12 1     1.1481     3.3142     9.3724
13 1     0.0000     0.0000    11.2469
14 1     1.1481     0.6628    13.1214
15 1     0.0000     1.3257    14.9959
16 1     1.1481     1.9885    11.2469
17 1     0.0000     2.6514    13.1214
18 1     1.1481     3.3142    14.9959
