LAMMPS (10 Feb 2015)
# ---- initialize simulations
clear
units metal
dimension 3
boundary p p p
atom_style charge
atom_modify map array
# ---- create atoms
read_data /Users/eugeneragasa/pyflamestk_git/pypospack/tests/tests_integration/workflow/WorkflowLammpsThermalExpansion/param_5378/MgO_NaCl_unit.npt.T900/lammps.structure
  triclinic box = (0 0 0) to (4.2565 4.2565 4.2565) with tilt (0 0 0)
  1 by 1 by 1 MPI processor grid
  reading atoms ...
  8 atoms
# ---- define interatomic potential
include potential.mod
mass 1 24.305
mass 2 15.999

group Mg type 1
4 atoms in group Mg
group O type 2
4 atoms in group O

set group Mg charge 1.67557694923
  4 settings made for charge
set group O charge -1.67557694923
  4 settings made for charge

variable R_cut equal 10.0

pair_style buck/coul/long ${R_cut}
pair_style buck/coul/long 10
pair_coeff 1 1 0.0 0.5 0.0 ${R_cut}
pair_coeff 1 1 0.0 0.5 0.0 10
pair_coeff 1 2 1405.50211521 0.282257384366 0.0 ${R_cut}
pair_coeff 1 2 1405.50211521 0.282257384366 0.0 10
pair_coeff 2 2 19860.1058829 0.143671361936 6.84969713079 ${R_cut}
pair_coeff 2 2 19860.1058829 0.143671361936 6.84969713079 10

kspace_style pppm 1.0e-5

neighbor 1.0 bin
neigh_modify every 1 delay 0 check yes
# ---- define settings
compute eng all pe/atom
compute eatoms all reduce sum c_eng
# ---- run minimization
reset_timestep 0
fix 1 all box/relax iso 0.0 vmax 0.001
thermo 10
thermo_style custom step pe lx ly lz xy xz yz press pxx pyy pzz pxy pxz pyz c_eatoms
min_style cg
minimize 1e-25 1e-25 5000 10000
PPPM initialization ...
  G vector (1/distance) = 0.352969
  grid = 8 8 8
  stencil order = 5
  estimated absolute RMS force accuracy = 4.01483e-05
  estimated relative force accuracy = 2.78815e-06
  using double precision FFTs
  3d grid and FFT values/proc = 3375 512
Neighbor list info ...
  1 neighbor list requests
  update every 1 steps, delay 0 steps, check yes
  master list distance cutoff = 11
Memory usage per processor = 4.06549 Mbytes
Step PotEng Lx Ly Lz Xy Xz Yz Press Pxx Pyy Pzz Pxy Pxz Pyz eatoms 
       0   -115.02334       4.2565       4.2565       4.2565            0            0            0    14836.064    14836.064    14836.064    14836.064 5.7083842e-11 -5.8546636e-11 3.613515e-11   -115.02334 
       4   -115.02629     4.268627     4.268627     4.268627            0            0            0   -3.7663252   -3.7663252   -3.7663252   -3.7663252 5.5364648e-11 -5.1262271e-11 1.3911233e-11   -115.02629 
Loop time of 0.00760984 on 1 procs for 4 steps with 8 atoms

Minimization stats:
  Stopping criterion = linesearch alpha is zero
  Energy initial, next-to-last, final = 
        -115.023341276       -115.0262927       -115.0262927
  Force two-norm initial, final = 2.14234 0.00179672
  Force max component initial, final = 2.14234 0.000546963
  Final line search alpha, max atom move = 0.00390625 2.13657e-06
  Iterations, force evaluations = 4 21

Pair  time (%) = 0.00208306 (27.3733)
Kspce time (%) = 0.00128436 (16.8776)
Neigh time (%) = 0 (0)
Comm  time (%) = 0.000231504 (3.04217)
Outpt time (%) = 0 (0)
Other time (%) = 0.00401092 (52.7069)

Nlocal:    8 ave 8 max 8 min
Histogram: 1 0 0 0 0 0 0 0 0 0
Nghost:    2189 ave 2189 max 2189 min
Histogram: 1 0 0 0 0 0 0 0 0 0
Neighs:    2344 ave 2344 max 2344 min
Histogram: 1 0 0 0 0 0 0 0 0 0

Total # of neighbors = 2344
Ave neighs/atom = 293
Neighbor list builds = 0
Dangerous builds = 0
unfix 1
# ---- define output variables ----
variable natoms equal "count(all)"
variable tot_energy equal "c_eatoms"
variable length_x equal "lx"
variable length_y equal "ly"
variable length_z equal "lz"
variable tilt_xy equal "xy"
variable tilt_xz equal "xz"
variable tilt_yz equal "yz"
variable tot_press equal "press"
variable press_xx equal "pxx"
variable press_yy equal "pyy"
variable press_zz equal "pzz"
variable press_xy equal "pxy"
variable press_xz equal "pxz"
variable press_yz equal "pyz"

# ---- output ----
print "pypospack:output_section:begin"
pypospack:output_section:begin
print "tot_energy = ${tot_energy}"
tot_energy = -115.026292700229
print "num_atoms = ${natoms}"
num_atoms = 8
print "xx = ${length_x}"
xx = 4.26862697136346
print "yy = ${length_y}"
yy = 4.26862697136346
print "zz = ${length_z}"
zz = 4.26862697136346
print "xy = ${tilt_xy}"
xy = 0
print "xz = ${tilt_xz}"
xz = 0
print "yz = ${tilt_yz}"
yz = 0
print "tot_press = ${tot_press}"
tot_press = -3.7663252179344
print "pxx = ${press_xx}"
pxx = -3.76632521787482
print "pyy = ${press_yy}"
pyy = -3.76632521789834
print "pzz = ${press_zz}"
pzz = -3.76632521803003
print "pxy = ${press_xy}"
pxy = 5.53646482695888e-11
print "pxz = ${press_xz}"
pxz = -5.12622707696674e-11
print "pyz = ${press_yz}"
pyz = 1.39112332535826e-11
print "pypospack:output_section:done"
pypospack:output_section:done
print "pypospack:lammps_sim:done"
pypospack:lammps_sim:done
#------------------------------------------------------------------------------
# RUN THERMOSTAT
# running using an NPT Nose-Hoover style thermostat
#------------------------------------------------------------------------------
variable tempdamp equal 0.1
variable pressdamp equal 1.0
# set initial velocities
velocity all create 900 2937064 mom yes dist gaussian loop all
# fix for Nose-Hoover style thermostat
fix 20 all npt temp 900 900 0.1 aniso 0.0 0.0 1.0 drag 1.0 couple xyz
variable boxx equal lx
variable boxy equal ly
variable boxz equal lz
variable boxp equal press
variable boxt equal temp
# calculate averages every 10000 steps
reset_timestep 0
fix 21 all ave/time 10 10 100 v_boxx v_boxy v_boxz v_boxp v_boxt file lattice.out
thermo_style custom step temp pe ke etotal press lx ly lz press pxx pyy pzz pxy pxz pyz vol
thermo_modify flush yes
thermo 100
run 100000
PPPM initialization ...
  G vector (1/distance) = 0.352845
  grid = 8 8 8
  stencil order = 5
  estimated absolute RMS force accuracy = 4.03767e-05
  estimated relative force accuracy = 2.80401e-06
  using double precision FFTs
  3d grid and FFT values/proc = 3375 512
Memory usage per processor = 3.06549 Mbytes
Step Temp PotEng KinEng TotEng Press Lx Ly Lz Press Pxx Pyy Pzz Pxy Pxz Pyz Volume 
       0          900    -115.0263   0.81433891   -114.21196    11178.807     4.268627     4.268627     4.268627    11178.807     5398.308    10829.783     17308.33   -3316.8386    6129.7818   -6329.6844    77.779404 
     100    493.77353     -114.548   0.44677666   -114.10122     8688.638    4.2890949    4.2890949    4.2890949     8688.638    758.82349    16890.781    8416.3094    4251.1168   -286.11933    8034.0089    78.903627 
     200    587.70459   -114.41021   0.53176746   -113.87844   -14044.138    4.3058111    4.3058111    4.3058111   -14044.138   -17074.234   -26029.146    970.96404   -2343.4518   -10168.792    15986.066    79.829776 
     300    1046.7802   -114.63049   0.94714872   -113.68334    14718.377    4.2848977    4.2848977    4.2848977    14718.377   -5647.5875    16734.253    33068.465   -920.63466   -4960.3371   -9980.6995    78.672215 
     400     938.3816   -114.39285   0.84906739   -113.54378    20357.283    4.2898925    4.2898925    4.2898925    20357.283     18297.89    29065.261    13708.697   -3442.7928    -187.8635    4015.9863    78.947655 
     500    860.93503   -114.22254   0.77899211   -113.44355   -42826.071     4.318608     4.318608     4.318608   -42826.071   -26212.906   -40723.165   -61542.141   -3829.5827   -3544.5717    28140.622    80.543661 
     600    859.92325   -114.16269   0.77807663   -113.38461    9930.3896    4.2933799    4.2933799    4.2933799    9930.3896   -1709.5286    38358.017   -6857.3193    1100.1086    510.08325    1518.7472    79.140347 
     700     1049.078   -114.31935   0.94922782   -113.37012     20170.79    4.2902136    4.2902136    4.2902136     20170.79    8262.1983    16990.556    35259.617   -696.43653    3024.9042    1258.5071    78.965383 
     800    794.83547   -114.09981   0.71918384   -113.38062   -18095.935    4.3104394    4.3104394    4.3104394   -18095.935   -17530.541   -25031.735   -11725.528   -2455.1408   -912.49916    12261.357     80.08748 
     900    467.03388   -113.80461   0.42258207   -113.38203    7191.3188    4.2998191    4.2998191    4.2998191    7191.3188   -20412.948     30148.74    11838.164   -7511.2937   -6888.4544    17725.322    79.496964 
    1000    1077.0041   -114.35609   0.97449591    -113.3816   -6875.2498    4.2943476    4.2943476    4.2943476   -6875.2498   -7143.9477     3289.704   -16771.506     -644.095    4438.8054   -15507.635    79.193872 
    1100     908.0692   -114.21348    0.8216401   -113.39184   -18511.011    4.3068829    4.3068829    4.3068829   -18511.011    -14506.74   -6805.6381   -34220.656   -1166.0915    2575.8555    7697.5902    79.889408 
    1200    517.97389   -113.86373   0.46867366   -113.39505   -9612.6647    4.3048896    4.3048896    4.3048896   -9612.6647   -19477.659    18739.021   -28099.357    -4483.697   -8513.2418    18525.073    79.778532 
    1300    789.15223   -114.10465   0.71404152    -113.3906   -4090.4457    4.2913643    4.2913643    4.2913643   -4090.4457   -11372.343   -3702.2147    2803.2204    4668.6234   -2332.7895   -1448.9772    79.028937 
    1400    807.97739   -114.12837   0.73107492    -113.3973   -6886.2195    4.3014067    4.3014067    4.3014067   -6886.2195   -14922.874   -6864.9251    1129.1404   -2013.2436    6139.2217   -9680.9775    79.585057 
    1500    637.19645   -113.97043   0.57654874   -113.39388    687.24444    4.3096084    4.3096084    4.3096084    687.24444   -16214.879    28705.787   -10429.174   -5107.9129    3720.0913    14563.144    80.041168 
    1600    983.35778   -114.27751   0.88976278   -113.38775   -13005.126    4.2966476    4.2966476    4.2966476   -13005.126   -17595.987   -4263.9432   -17155.447    -1297.553    1749.3487    2159.2261    79.321188 
    1700    947.23087   -114.24412    0.8570744   -113.38705    9799.9927     4.288703     4.288703     4.288703    9799.9927   -4317.2324    32768.259    948.95189    6437.5045    2611.5778   -11202.007    78.881998 
    1800    982.19648   -114.27986   0.88871202   -113.39115    -6444.969    4.3127786    4.3127786    4.3127786    -6444.969    -29063.14    25597.739   -15869.506   -2626.7605   -443.56746    7229.6605    80.217937 
    1900    1139.7482   -114.42147    1.0312681    -113.3902   -10075.306    4.3019519    4.3019519    4.3019519   -10075.306   -17345.211   -12759.512   -121.19616     4885.067   -8435.3833    9387.4931    79.615323 
    2000    848.08692    -114.1529   0.76736687   -113.38554    34553.794    4.2749219    4.2749219    4.2749219    34553.794    7991.7263    59172.398    36497.258   -5648.5315    1962.7746   -5200.2919    78.124017 
    2100    906.13202   -114.22073   0.81988729   -113.40084   -19107.961    4.3120634    4.3120634    4.3120634   -19107.961   -30302.333   -4193.3284   -22828.222   -3293.3331    9043.7277   -24807.493    80.178035 
    2200    1352.6855   -114.61547    1.2239383   -113.39153   -14776.749    4.3008785    4.3008785    4.3008785   -14776.749   -23394.465   -21518.673    582.89232   -1124.2897   -2406.2513     8047.904    79.555742 
    2300    900.09053   -114.20506   0.81442083   -113.39064    14295.763    4.2872703    4.2872703    4.2872703    14295.763   -6024.9931    52923.821   -4011.5404    1324.5552    -5599.487    1988.4655     78.80297 
    2400    865.12779   -114.17742   0.78278581   -113.39463   -15574.311    4.3042669    4.3042669    4.3042669   -15574.311   -16238.394   -4031.4846   -26453.054   -1141.8163    3519.1917   -9900.0946    79.743922 
    2500    1061.3598   -114.35102   0.96034067   -113.39068   -2784.1416    4.3029371    4.3029371    4.3029371   -2784.1416   -16400.758   -15015.213    23063.545    3394.7107    1949.6109   -15713.198    79.670034 
    2600    966.27239   -114.26327   0.87430356   -113.38897    12549.936    4.2939771    4.2939771    4.2939771    12549.936   -11950.993    29173.287    20427.515   -8259.5528    -965.1202     7569.061    79.173375 
    2700    764.18326   -114.08475   0.69144907    -113.3933   -2825.1553    4.2977487    4.2977487    4.2977487   -2825.1553   -11027.578    1474.0723    1078.0398   -746.20859    3232.3784   -8225.4257    79.382188 
    2800    767.66098   -114.08411   0.69459578   -113.38951   -31756.569    4.3153054    4.3153054    4.3153054   -31756.569   -26539.836   -32354.621   -36375.252   -984.35551    3540.2872   -14934.915    80.359015 
    2900    881.79586   -114.17961   0.79786742   -113.38174     12341.38    4.2929412    4.2929412    4.2929412     12341.38   -13019.638    35315.577      14728.2   -12634.587   -1163.7638    9971.6553    79.116091 
    3000    913.03155    -114.2094   0.82613013   -113.38327    10892.931    4.2880126    4.2880126    4.2880126    10892.931   -2049.5158   -864.82338    35593.131   -548.82663    1942.1359   -7917.1905    78.843913 
    3100    237.71833   -113.60769   0.21509254    -113.3926   -26988.355    4.3203041    4.3203041    4.3203041   -26988.355   -40930.256   -1089.0089   -38945.801   -7562.4064    12847.526   -13502.571    80.638594 
    3200     866.9529   -114.16467   0.78443721   -113.38024   -7469.2542     4.292103     4.292103     4.292103   -7469.2542   -23522.626   -1988.0061    3102.8699   -4821.9514   -3163.3031    -13705.96     79.06976 
    3300    873.79066   -114.17127   0.79062415   -113.38064    29920.035    4.2882986    4.2882986    4.2882986    29920.035   -1120.3395    70072.918    20807.526   -3127.5592   -2565.5242    6216.4184    78.859687 
    3400     898.6076   -114.19569   0.81307904   -113.38261   -29937.451    4.3171152    4.3171152    4.3171152   -29937.451   -25940.037   -30922.485   -32949.832    5194.8629    9501.2189   -6687.0026    80.460163 
    3500    660.44656   -113.98022   0.59758593   -113.38263    15840.185     4.291253     4.291253     4.291253    15840.185   -13626.851    21082.389    40065.016   -3631.4609   -5577.7574   -7162.0624     79.02279 
    3600    1180.2093   -114.45391    1.0678782   -113.38604    5399.3179     4.293753     4.293753     4.293753    5399.3179    -17645.31    27059.343    6783.9213   -8011.8324   -1376.2211    168.98604    79.160984 
    3700    1009.0583   -114.29791   0.91301717   -113.38489    13234.766    4.3058119    4.3058119    4.3058119    13234.766   -15644.932    23846.067    31503.164    3078.4085    4779.4208   -14624.783    79.829822 
    3800    1036.1593   -114.32465   0.93753874   -113.38712   -6151.3956    4.3020115    4.3020115    4.3020115   -6151.3956   -19699.044    15207.532   -13962.675    1063.5365    -6032.288   -10045.414    79.618631 
    3900    897.73093   -114.20165   0.81228581   -113.38936   -12315.755    4.2996897    4.2996897    4.2996897   -12315.755   -20928.138   -545.91277   -15473.213   -3498.9435   -7251.7861    2121.3322    79.489789 
    4000    1404.0126     -114.653    1.2703801   -113.38262    3892.1591    4.2888169    4.2888169    4.2888169    3892.1591   -5555.5569    13275.085    3956.9494   -2303.8891   -866.43786    7095.7556    78.888286 
    4100    887.18845     -114.194   0.80274676   -113.39125    236.57969    4.3107446    4.3107446    4.3107446    236.57969   -17545.443    44534.743   -26279.561    7282.8562    9581.4249   -10557.886    80.104493 
    4200    833.72326   -114.14398   0.75437032   -113.38961   -13185.438    4.3015475    4.3015475    4.3015475   -13185.438   -6067.7373    6938.4771   -40427.053   -4370.1176   -7860.9886   -11007.507    79.592873 
    4300    722.46961   -114.03351   0.65370568    -113.3798    33789.774    4.2811404    4.2811404    4.2811404    33789.774    26083.873    49228.726    26056.723    -12757.17   -9193.7542     10522.81     78.46544 
    4400    999.73968    -114.2937   0.90458547   -113.38911   -15840.047    4.3099891    4.3099891    4.3099891   -15840.047     73.51585    -8046.879   -39546.778    2940.3709    8557.1405    -2416.688    80.062384 
    4500    712.74073   -114.03413   0.64490279   -113.38923    3344.0758    4.2991381    4.2991381    4.2991381    3344.0758    11589.552    9417.2235   -10974.548    6807.2339   -7874.7985   -5986.3374    79.459198 
    4600    550.04528   -113.88584   0.49769253   -113.38815    4740.3304    4.2985834    4.2985834    4.2985834    4740.3304   -6480.4311    27207.077   -6505.6546    1400.2147   -8856.6882   -1164.2835    79.428449 
    4700    880.02253   -114.17944   0.79626288   -113.38318   -6505.7669    4.3004748    4.3004748    4.3004748   -6505.7669    13056.396   -8069.8359   -24503.861   -4232.7379    5077.2977    16711.297    79.533337 
    4800     786.8405   -114.09528   0.71194982   -113.38333    21328.632    4.2865087    4.2865087    4.2865087    21328.632    786.75509    61073.441    2125.6992    6529.6496   -143.84561   -13257.953    78.760984 
    4900    810.14195   -114.12532   0.73303346   -113.39229     -32300.7     4.310786     4.310786     4.310786     -32300.7   -38674.118   -15521.474   -42706.509   -2676.9949   -13108.456   -5557.8057    80.106801 
    5000     994.9877   -114.28514   0.90028578   -113.38485    901.62978    4.2946602    4.2946602    4.2946602    901.62978    514.22726    18972.108   -16781.446   -9102.3859   -4152.5663     2784.332    79.211169 
    5100    950.90675   -114.24262   0.86040041   -113.38222    27980.304    4.2874013    4.2874013    4.2874013    27980.304    21015.998    56413.347     6511.566    2625.3323    4445.2559    1335.8323    78.810198 
    5200    1007.6954   -114.29403     0.911784   -113.38225   -35492.252    4.3150983    4.3150983    4.3150983   -35492.252   -33929.554   -28705.149   -43842.052    2029.9946   -9234.2226   -10691.474    80.347445 
    5300    903.42182   -114.19694   0.81743505    -113.3795     7199.065    4.2900159    4.2900159    4.2900159     7199.065    14590.336    24455.981   -17449.122    4815.8921   -2149.5033    -3354.401    78.954465 
    5400    1090.8357   -114.36988   0.98701104   -113.38287    16590.758    4.2847075    4.2847075    4.2847075    16590.758    33276.837    15723.702    771.73616   -5984.1511    3231.7207    19120.673    78.661738 
    5500      1014.73   -114.30811   0.91814903   -113.38996   -24409.011     4.310138     4.310138     4.310138   -24409.011   -611.71873   -25837.338   -46777.975    6478.0583   -5600.2749   -14053.085    80.070683 
    5600    609.71379   -113.94171   0.55168185   -113.39003     3614.434    4.3033978    4.3033978    4.3033978     3614.434    2477.3658    43553.671   -35187.735    61.440242   -9318.8273   -9265.5093    79.695627 
    5700     1185.034   -114.45616    1.0722437   -113.38391    13053.724    4.2863765    4.2863765    4.2863765    13053.724    23101.526     18365.44   -2305.7922    -11629.63   -1267.4257    2687.7815    78.753694 
    5800    807.06447    -114.1218   0.73024889   -113.39155    12268.967    4.2967249    4.2967249    4.2967249    12268.967    32542.359    39042.552   -34778.008    3754.4718    7038.3683    3089.0848    79.325467 
    5900    534.98403    -113.8763    0.4840648   -113.39224   -29011.145     4.311148     4.311148     4.311148   -29011.145    -23140.73   -2213.0742   -61679.631    5858.6573    -18481.97   -18863.126    80.126986 
    6000    903.34668   -114.20173   0.81736706   -113.38436    7653.9274    4.2856106    4.2856106    4.2856106    7653.9274    3156.2512    25423.534   -5618.0029    12547.066   -1455.0574   -1038.4433    78.711487 
    6100     1082.235   -114.36608   0.97922896   -113.38685    3169.7757    4.2941735    4.2941735    4.2941735    3169.7757    13487.162    20720.295   -24698.131   -8999.3784    4465.2558    5164.3299    79.184243 
    6200    436.90201   -113.78986   0.39531812   -113.39454   -19579.512    4.3094688    4.3094688    4.3094688   -19579.512   -32315.128    22176.537   -48599.944   -2260.9992   -14070.584   -12083.598     80.03339 
    6300    840.42719   -114.15145   0.76043618   -113.39101    903.64058    4.2853877    4.2853877    4.2853877    903.64058    11883.598    12960.974    -22133.65    3592.6412   -7011.0521   -16749.645    78.699206 
    6400     1203.887   -114.48171    1.0893022   -113.39241    10897.516    4.2957172    4.2957172    4.2957172    10897.516    2188.6851    37936.654   -7432.7907    3771.5909   -437.70317     7303.248    79.269667 
    6500    827.45947   -114.14031   0.74870272   -113.39161   -6734.9891    4.3101787    4.3101787    4.3101787   -6734.9891   -4464.6449    3985.8817   -19726.204   -2075.3628   -4468.0799   -975.46113    80.072952 
    6600    888.26458   -114.18991   0.80372046   -113.38619   -596.72348    4.2889428    4.2889428    4.2889428   -596.72348       1325.3    18749.507   -21864.977    5216.9085   -14303.353   -15721.375    78.895232 
    6700    1006.1799   -114.29906   0.91041268   -113.38865    12615.568     4.298236     4.298236     4.298236    12615.568     7969.852    27868.328    2008.5248    12458.089    5699.8338     3648.647    79.409193 
    6800    1318.6664   -114.57662    1.1931571   -113.38346    165.26331    4.3010899    4.3010899    4.3010899    165.26331    -13100.43    17173.103   -3576.8829    1468.1483   -6132.5238   -5587.5715    79.567469 
    6900     913.1621   -114.21362   0.82624826   -113.38737   -9106.1597    4.2968043    4.2968043    4.2968043   -9106.1597   -1813.9982    5358.9242   -30863.405     -340.599   -20051.964   -5787.0308    79.329868 
    7000    808.08861   -114.12216   0.73117556   -113.39098    -10866.11    4.2976386    4.2976386    4.2976386    -10866.11   -15205.639   -20776.547    3383.8552    14787.357    2299.3164   -17037.345    79.376083 
    7100    1354.9695   -114.61208    1.2260049   -113.38608    -2050.475    4.2964411    4.2964411    4.2964411    -2050.475   -12873.205    16117.855   -9396.0754    3376.8753    4273.9756     4401.499    79.309752 
    7200    842.83207   -114.15079   0.76261217   -113.38818   -15282.711    4.3101372    4.3101372    4.3101372   -15282.711   -11034.395    9378.4856   -44192.223    667.63494    -6231.708   -12106.075    80.070636 
    7300    747.76757   -114.06344   0.67659581   -113.38685    7048.0459    4.2860998    4.2860998    4.2860998    7048.0459    16379.368   -3682.8991     8447.669    15577.597   -10929.364   -2054.2305    78.738447 
    7400    819.53427   -114.14021   0.74153183   -113.39868     11358.23    4.2946989    4.2946989    4.2946989     11358.23    38306.652   -2451.9246   -1780.0356    12030.556   -4404.6153   -747.16977    79.213311 
    7500    978.08917   -114.27078   0.88499563   -113.38578   -21146.594    4.3153902    4.3153902    4.3153902   -21146.594   -9713.5179    -8200.779   -45525.484   -2821.1189   -8334.0329   -65.072559    80.363753 
    7600     769.2383   -114.07517   0.69602298   -113.37915    17688.624    4.2843267    4.2843267    4.2843267    17688.624    17892.313    26803.009    8370.5514   -1414.2579   -1971.8296    -8749.986    78.640767 
    7700    789.95615   -114.10504   0.71476892   -113.39027   -11700.808    4.3021084    4.3021084    4.3021084   -11700.808    6366.5832   -25334.053   -16134.955    15879.805    4833.9056    4324.0092    79.624009 
    7800    958.42068   -114.25025   0.86719918   -113.38305   -20354.566    4.3072982    4.3072982    4.3072982   -20354.566    -7384.971   -26192.835   -27485.891    3522.6689    2152.7925    11576.393    79.912517 
    7900    821.93907   -114.11735   0.74370774   -113.37365    33504.996    4.2778418    4.2778418    4.2778418    33504.996    57446.471    36712.495    6356.0216    2025.8899   -9546.4115   -10514.003    78.284208 
    8000    677.95081   -114.00285   0.61342414   -113.38942   -28595.712    4.3141496    4.3141496    4.3141496   -28595.712   -17380.581   -38885.126   -29521.428    27765.153   -6929.2272    3444.7279    80.294466 
    8100    902.76348   -114.19746   0.81683936   -113.38062   -7464.0609    4.3005166    4.3005166    4.3005166   -7464.0609   -6973.3075   -18211.008    2792.1325    8447.6172    2489.9276    4203.6858     79.53566 
    8200    1017.6942   -114.29073    0.9208311   -113.36989    29416.501    4.2760663    4.2760663    4.2760663    29416.501    38922.221    29967.482    19359.802   -13555.926   -1873.2385    1029.0162    78.186775 
    8300    582.57947   -113.91495   0.52713015   -113.38782   -24619.296    4.3155087    4.3155087    4.3155087   -24619.296   -21589.269   -41353.444   -10915.175    19333.153   -3183.9731    3066.8947    80.370374 
    8400    866.00934   -114.16154   0.78358345   -113.37795    1205.0559    4.3005319    4.3005319    4.3005319    1205.0559    9491.5395   -14196.577    8320.2057    13644.435    4358.1819    -2538.712    79.536508 
    8500    1136.6237    -114.3964     1.028441   -113.36796    23278.458    4.2870164    4.2870164    4.2870164    23278.458    21717.305    23800.864    24317.205     -9044.57   -2961.8612    6782.2284    78.788975 
    8600    844.01939   -114.14317   0.76368649   -113.37948    -21168.68    4.3045241    4.3045241    4.3045241    -21168.68   -37833.137   -24608.235   -1064.6683    13515.954   -13253.803   -2998.8246    79.758216 
    8700    826.25692   -114.12976   0.74761463   -113.38215    1719.2303      4.29672      4.29672      4.29672    1719.2303    22500.861   -20917.216    3574.0465    28578.586   -8459.5229     2192.161    79.325196 
    8800    1211.7471   -114.48103    1.0964142   -113.38462    8290.3969    4.2986445    4.2986445    4.2986445    8290.3969    10452.062   -8553.9381    22973.067   -2047.8453    4463.7575     5640.452    79.431836 
    8900    1073.2866   -114.35768   0.97113229   -113.38655    27501.727    4.2862629    4.2862629    4.2862629    27501.727    66207.694    4237.4321    12060.054    647.29166    3984.6861   -3626.3805    78.747436 
    9000    658.65886   -113.99485   0.59596838   -113.39888     -14655.4    4.3023409    4.3023409    4.3023409     -14655.4   -38396.331   -27601.272    22031.403    23070.464    430.02494    5364.2133     79.63692 
    9100    953.73938   -114.25153   0.86296343   -113.38857   -14975.815    4.3028542    4.3028542    4.3028542   -14975.815   -12807.547   -20255.399   -11864.499    5262.8608   -1329.5359    3423.2357    79.665427 
    9200    1222.8478   -114.48794    1.1064584   -113.38148    25980.078    4.2839873    4.2839873    4.2839873    25980.078    53575.349    12704.037    11660.849   -5491.7863   -5831.4813   -420.56603    78.622077 
    9300    970.72875   -114.27082   0.87833577   -113.39249   -5592.8735    4.3002658    4.3002658    4.3002658   -5592.8735   -9916.7691   -20572.858    13711.007    29325.306     3759.979    3044.3168    79.521745 
    9400     882.4032   -114.18826   0.79841696   -113.38985   -599.44679    4.2998068    4.2998068    4.2998068   -599.44679    42677.691   -18775.356   -25700.675    5389.4883    1880.7329    4273.0973    79.496281 
    9500    1107.6245   -114.38645    1.0022019   -113.38425    3589.2815    4.2944461    4.2944461    4.2944461    3589.2815    9767.9527    -169.7029    1169.5945   -5300.2189    1298.1845    3597.6448    79.199325 
    9600    1000.5018   -114.28959   0.90527504   -113.38431    9173.3359    4.2920053    4.2920053    4.2920053    9173.3359    31009.443   -7078.5411    3589.1061    8130.1307    310.66231   -2842.5811    79.064356 
    9700    892.65699   -114.19533   0.80769481   -113.38763   -26167.513    4.3050848    4.3050848    4.3050848   -26167.513   -29479.034   -30200.593   -18822.912    15745.962   -10752.832    3464.9161    79.789389 
    9800    636.19492   -113.96512   0.57564253   -113.38947   -9277.8643    4.2917776    4.2917776    4.2917776   -9277.8643   -8580.3593    3270.3242   -22523.558   -3292.6486    -2902.843    13947.107    79.051775 
    9900    919.91075   -114.22128   0.83235458   -113.38892    4862.0184    4.2857498    4.2857498    4.2857498    4862.0184    20208.319    2390.9821   -8013.2456   -6106.8837    6811.6078   -3595.6535    78.719159 
   10000    715.19844   -114.03254   0.64712658   -113.38541   -29109.384    4.3140233    4.3140233    4.3140233   -29109.384   -29823.043   -44354.004   -13151.104    15823.439   -2345.5294     3259.704    80.287413 
   10100    803.27003   -114.10945   0.72681561   -113.38263   -1298.9152    4.2807281    4.2807281    4.2807281   -1298.9152     2553.099    7642.1274   -14091.972    2391.8118    -9547.761    13553.218    78.442774 
   10200    542.97552   -113.88859   0.49129566   -113.39729     12550.33    4.2879296    4.2879296    4.2879296     12550.33    28723.172    7564.6048    1363.2143   -9627.4851    3305.3748   -1400.6586    78.839331 
   10300    872.50279   -114.17558   0.78945886   -113.38612   -28942.365    4.3122068    4.3122068    4.3122068   -28942.365   -36643.703   -35851.281    -14332.11   -10132.141    12692.818    4337.8226    80.186038 
   10400    930.31007   -114.21812    0.8417641   -113.37635    22684.906    4.2796601    4.2796601    4.2796601    22684.906    32997.068     260.4804    34797.169    8499.3048   -15961.799    1437.2255    78.384077 
   10500    724.13733   -114.04549   0.65521467   -113.39027   -26717.826     4.303002     4.303002     4.303002   -26717.826   -27905.365   -24769.825   -27478.287   -8966.8419   -6888.1463    5951.4531     79.67364 
   10600    835.94623   -114.14444   0.75638172   -113.38806   -6893.3552    4.2953562    4.2953562    4.2953562   -6893.3552   -30173.195   -2507.6337    12000.763   -7918.7917     6484.054    1613.1438    79.249687 
   10700    1124.6911   -114.40328    1.0176441   -113.38564    15201.454    4.2865068    4.2865068    4.2865068    15201.454    41989.823   -8223.3215     11837.86   -9305.8816    4050.5339    5193.1712     78.76088 
   10800    936.44087   -114.23723   0.84731138   -113.38992   -16429.995    4.3052152    4.3052152    4.3052152   -16429.995   -8244.7472   -17970.195   -23075.043     1921.118   -27254.962    9263.6262     79.79664 
   10900    858.86577   -114.16324    0.7771198   -113.38612    20529.023    4.2830741    4.2830741    4.2830741    20529.023    42320.067    4224.7352    15042.266   -14459.799    4445.0708   -4832.8993    78.571811 
   11000    1138.1735   -114.42113    1.0298433   -113.39129   -9800.1984    4.3041485    4.3041485    4.3041485   -9800.1984   -12019.632   -7375.4392   -10005.524   -9467.7048    14553.247    1609.5952    79.737337 
   11100    1098.1493   -114.38139   0.99362859   -113.38776    1243.9969    4.2956297    4.2956297    4.2956297    1243.9969    20697.337   -1958.5079   -15006.838    14482.462   -3819.9631    4267.8605    79.264825 
   11200    916.51501   -114.21532   0.82928204   -113.38604    17626.396    4.2803241    4.2803241    4.2803241    17626.396    3882.6034     11333.85    37662.735    -8963.405   -19928.773    6613.2101    78.420565 
   11300    968.58861   -114.26368   0.87639933   -113.38728   -23803.366    4.3120665    4.3120665    4.3120665   -23803.366   -36263.633   -25356.185   -9790.2806   -10173.426     6982.323    -4923.434    80.178208 
   11400    1121.3392   -114.39582    1.0146113   -113.38121    19808.348    4.2863012    4.2863012    4.2863012    19808.348     30046.98    7108.4216    22269.644    5316.9035     10851.85    9866.1722    78.749545 
   11500    785.07062   -114.09806   0.71034839   -113.38771     8956.268    4.2906685    4.2906685    4.2906685     8956.268    4393.8389   -10834.808    33309.773    4703.4721   -11575.231    4582.3777    78.990503 
   11600    1062.1301   -114.34414   0.96103764    -113.3831   -21828.781    4.3058897    4.3058897    4.3058897   -21828.781   -33832.561   -14098.381   -17555.402   -9878.0063   -9743.6865    188.25983    79.834147 
   11700    961.03657   -114.25065   0.86956608   -113.38109    24259.829    4.2878212    4.2878212    4.2878212    24259.829    51361.603   -5419.9252     26837.81   -3450.4428    8975.4466   -743.99467    78.833355 
   11800    662.84612   -113.99283    0.5997571   -113.39307   -21587.967    4.2975193    4.2975193    4.2975193   -21587.967   -16710.889   -36909.945   -11143.067    16105.187    -761.3595     9435.163    79.369473 
   11900    687.09102   -114.01435   0.62169439   -113.39265    4419.9763    4.2867853    4.2867853    4.2867853    4419.9763    15955.991   -6327.9789    3631.9166   -1405.1307   -15642.058    2508.2646    78.776229 
   12000    918.00093   -114.22355   0.83062654   -113.39292   -5467.2657    4.3014585    4.3014585    4.3014585   -5467.2657   -7067.3347   -14794.338    5459.8755   -1460.1225   -5112.2748   -6083.8414    79.587931 
   12100    715.18296   -114.04379   0.64711257   -113.39668   -20822.918    4.2972822    4.2972822    4.2972822   -20822.918   -15416.911   -38930.945   -8120.8966    18956.708    10206.647    14591.665    79.356339 
   12200    437.79214   -113.78854   0.39612353   -113.39241    25641.882    4.2775254    4.2775254    4.2775254    25641.882     30422.03   -4572.2641     51075.88    9574.0164   -3771.3086    5850.1544     78.26684 
   12300    949.16773   -114.24778   0.85882691   -113.38895    -18494.84    4.3093629    4.3093629    4.3093629    -18494.84   -2386.4147       -25146   -27952.105   -7481.9435   -10281.246   -627.16074     80.02749 
   12400    812.49061   -114.12462   0.73515858   -113.38946    11795.694    4.2878392    4.2878392    4.2878392    11795.694    35102.881   -8438.4609    8722.6611     8866.722   -1948.4767    5112.7241    78.834345 
   12500    638.65435   -113.96908   0.57786788   -113.39121    8409.3122     4.281729     4.281729     4.281729    8409.3122    3586.1086   -10446.371    32088.199    15062.169   -488.05471    6400.4413    78.497807 
   12600    649.49715   -113.97598   0.58767867    -113.3883   -20109.705    4.3080992    4.3080992    4.3080992   -20109.705   -405.09348    -26344.44   -33579.581    831.48512   -6826.4301   -6136.1797    79.957111 
   12700    944.68211   -114.23775   0.85476823   -113.38298      -1196.7     4.286565     4.286565     4.286565      -1196.7   -1752.6932    5764.4217   -7601.8285   -1192.6382    3216.5479   -2563.0241    78.764089 
   12800    545.14489   -113.88622   0.49325855   -113.39296    -1557.098    4.2909532    4.2909532    4.2909532    -1557.098    17235.896   -18799.321   -3107.8684    17374.557    3960.1251    8594.9156    79.006231 
   12900     942.1483   -114.24265   0.85247558   -113.39018   -15975.786    4.2979443    4.2979443    4.2979443   -15975.786   -21231.943   -14977.758   -11717.657    11028.552   -7062.0258   -1523.6184    79.393022 
   13000     820.0929   -114.13119   0.74203729   -113.38915    13687.523    4.2899996    4.2899996    4.2899996    13687.523    32513.993     8627.807   -79.231332   -6731.8507   -8293.8278   -1664.6181    78.953566 
   13100    823.29058   -114.13776   0.74493062   -113.39283   -22766.538    4.2982556    4.2982556    4.2982556   -22766.538   -36873.197   -18630.895   -12795.522    7592.2365    6726.7443    8685.5829    79.410276 
   13200    760.11317   -114.08268   0.68776637   -113.39491    9527.5434    4.2863838    4.2863838    4.2863838    9527.5434    28857.133       -12831    12556.497    10431.273    5748.2823    6255.9109    78.754097 
   13300    1232.0678   -114.50811    1.1148008   -113.39331    9925.5933    4.2907651    4.2907651    4.2907651    9925.5933    9754.8181    2349.4818     17672.48   -175.16351   -6542.5441   -9786.5985    78.995842 
   13400    871.78582   -114.18414   0.78881013   -113.39533   -16011.041    4.3037223    4.3037223    4.3037223   -16011.041   -13761.076   -17690.547   -16581.501   -6442.1383    11777.802    215.45709    79.713653 
   13500     690.3893   -114.02199   0.62467875   -113.39731    253.75818     4.282991     4.282991     4.282991    253.75818   -2023.9898   -18843.958    21629.223    20009.215    2959.4392    4579.4808     78.56724 
   13600    1213.1385    -114.4956    1.0976732   -113.39793    7917.2124    4.2914968    4.2914968    4.2914968    7917.2124    -559.7929    11801.361    12510.069    5922.2687   -8929.5587   -1608.9446    79.036261 
   13700    1343.4932   -114.60719    1.2156209   -113.39157   -2283.8582    4.3043267    4.3043267    4.3043267   -2283.8582     17098.85   -13891.581   -10058.843   -4527.6396    2943.9999    5090.3957    79.747242 
   13800    779.75417   -114.10348   0.70553796   -113.39794    9928.9815      4.28509      4.28509      4.28509    9928.9815   -1282.2625    1812.2165     29256.99    9371.7505    10919.892    1232.6847    78.682805 
   13900    782.26458    -114.1093   0.70780943   -113.40149    7372.0672    4.2914001    4.2914001    4.2914001    7372.0672    28936.108   -13556.307    6736.4007    6214.2371    5385.1047    5208.5226    79.030915 
   14000    1556.6755   -114.79676    1.4085127   -113.38825   -7799.6301    4.2993806    4.2993806    4.2993806   -7799.6301   -11817.568    521.90391   -12103.227    2278.7967   -13496.344    -2949.842    79.472649 
   14100    987.61082   -114.28632   0.89361102   -113.39271    12575.137    4.2888236    4.2888236    4.2888236    12575.137     31789.38   -5210.9083    11146.939   -1327.0922    5277.0417   -4742.2989    78.888656 
   14200    903.42745   -114.21419   0.81744014   -113.39675   -18586.617    4.2948075    4.2948075    4.2948075   -18586.617   -24522.567   -27872.961   -3364.3216     11643.44    7836.7999    7648.2538     79.21932 
   14300    1041.5444   -114.33518   0.94241128   -113.39277    3853.5183    4.2923188    4.2923188    4.2923188    3853.5183    15865.239    8848.7007   -13153.385    2127.8011   -17141.571   -520.44238    79.081683 
   14400    1302.0022    -114.5665     1.178079   -113.38842    1999.0689    4.2906951    4.2906951    4.2906951    1999.0689    13616.305    1360.0504   -8979.1492    4285.0287   -10299.867    3407.6111    78.991971 
   14500     934.3454   -114.23781   0.84541536   -113.39239    -11445.61     4.300263     4.300263     4.300263    -11445.61   -2898.8762   -21068.943   -10369.012    15305.062    10019.835    6467.3497    79.521587 
   14600    862.84872    -114.1735   0.78072365   -113.39278    12337.446    4.2848081    4.2848081    4.2848081    12337.446    32612.407    9525.3014   -5125.3705    1432.9638   -3154.5465   -3192.3364    78.667279 
   14700    991.01491   -114.29229   0.89669112   -113.39559    360.42441    4.2934426    4.2934426    4.2934426    360.42441    173.16626    11890.734   -10982.627   -2171.3365   -20433.031    316.16666    79.143818 
   14800    1009.7129   -114.30329   0.91360949   -113.38968   -8353.2605    4.3005757    4.3005757    4.3005757   -8353.2605    11068.648   -19634.233   -16494.197    19.344243    2245.3542   -816.65939    79.538939 
   14900    949.46257   -114.24421   0.85909369   -113.38512    15697.015    4.2835134    4.2835134    4.2835134    15697.015    9774.4332    18606.172     18710.44    7346.9715   -1110.4387    4332.4996    78.595991 
   15000    738.72308   -114.06132   0.66841216   -113.39291   -4789.0093    4.2931208    4.2931208    4.2931208   -4789.0093   -3756.2257    2250.3397   -12861.142    4141.1454   -18034.413   -3190.1346    79.126023 
   15100    809.72585   -114.12387   0.73265697   -113.39121   -10920.612    4.2982976    4.2982976    4.2982976   -10920.612   -19.457346   -1847.8501   -30894.529    1925.2957   -6883.6709    4609.8776    79.412605 
   15200    863.15289   -114.16982   0.78099887   -113.38882     4084.729    4.2890331    4.2890331    4.2890331     4084.729    28888.639   -18454.311    1819.8592     8369.618    9925.7985    10292.121    78.900218 
   15300    977.39546   -114.27383   0.88436796   -113.38946   -1988.7752    4.2866568    4.2866568    4.2866568   -1988.7752   -26356.354    17818.502    2571.5268     2139.724   -16943.464   -2491.7716    78.769148 
   15400     618.0302   -113.95391   0.55920672   -113.39471   -10506.613    4.2987426    4.2987426    4.2987426   -10506.613    21755.983   -16771.651   -36504.172    892.78616   -10880.245     3426.752    79.437275 
   15500    772.03673    -114.0923   0.69855506   -113.39374   -12406.787    4.2915268    4.2915268    4.2915268   -12406.787    -6734.691   -23472.336   -7013.3341    2225.0624    8617.3366    174.43568    79.037918 
   15600    752.07314      -114.07   0.68049159   -113.38951    27902.389    4.2827282    4.2827282    4.2827282    27902.389    47240.684    6042.9524    30423.532      2889.45    5780.2202   -2563.1032    78.552774 
   15700    964.45318   -114.26323    0.8726575   -113.39057    -14105.75    4.2989289    4.2989289    4.2989289    -14105.75   -38805.831   -4629.0594    1117.6408    2314.8913   -17396.295   -1243.7415    79.447599 
   15800    470.91052   -113.81947   0.42608973   -113.39338    697.25207    4.2913623    4.2913623    4.2913623    697.25207    13993.696   -19866.805     7964.865   -9715.1894   -6314.0649   -2477.9043    79.028829 
   15900    766.58454   -114.08569    0.6936218   -113.39207   -10387.665    4.2892828    4.2892828    4.2892828   -10387.665    5949.0079   -31916.942   -5195.0601    8894.5947    10847.167    4204.3302    78.913996 
   16000     780.4016   -114.09638   0.70612376   -113.39026    8935.1003    4.2938875    4.2938875    4.2938875    8935.1003   -2432.9501    17207.381    12030.871    1678.1265   -1151.9601    4492.3449     79.16842 
   16100    962.41923   -114.26255   0.87081715   -113.39173   -8571.2541    4.2922746    4.2922746    4.2922746   -8571.2541    6571.0245     -26587.2   -5697.5868    3682.1349   -13097.696    -4913.997    79.079244 
   16200    402.91241   -113.76351   0.36456361   -113.39895   -11454.637    4.2950532    4.2950532    4.2950532   -11454.637    16799.314   -23523.341   -27639.884   -5755.6963    10326.767    3789.4993    79.232919 
   16300    1020.5748   -114.31639   0.92343753   -113.39296     1594.818    4.2855129    4.2855129    4.2855129     1594.818   -1997.3816   -1751.8095    8533.6452    5509.1301    16584.981   -1721.6098    78.706106 
   16400    996.72782    -114.2923   0.90186028   -113.39044     10755.16    4.2973666    4.2973666    4.2973666     10755.16    23609.515    1908.7318    6747.2324   -5369.6449   -417.05516    4580.0967    79.361017 
   16500    842.40533   -114.15401   0.76222605   -113.39179   -10551.042    4.2955166    4.2955166    4.2955166   -10551.042    -3516.627   -23300.787   -4835.7133   -7028.8763   -10709.306    6136.1124    79.258563 
   16600    585.59878   -113.92127   0.52986208   -113.39141    14771.102     4.281009     4.281009     4.281009    14771.102    40313.662    -6969.143    10968.787    590.47134     6149.641   -7631.0665    78.458216 
   16700    1074.4684   -114.36503   0.97220161   -113.39283   -17037.254    4.2988781    4.2988781    4.2988781   -17037.254   -31361.948   -2251.8272   -17497.987     2234.954    18083.614    4031.6098    79.444785 
   16800    1085.3619   -114.36978   0.98205825   -113.38773    8568.0542    4.2909698    4.2909698    4.2909698    8568.0542    14940.126   -180.09209    10944.128   -2144.0985   -296.81135    1133.1789    79.007145 
   16900    845.35862   -114.15656   0.76489824   -113.39166    164.31858    4.2876634    4.2876634    4.2876634    164.31858    7941.3538   -2747.4208   -4700.9772   -4976.7038    2773.7191   -7227.6833    78.824649 
   17000    743.39027   -114.06906   0.67263514   -113.39643   -15520.228    4.2970091    4.2970091    4.2970091   -15520.228   -981.47912   -7519.2279   -38059.977    4109.8687    15947.034   -1952.9271    79.341211 
   17100    1115.8788   -114.40097    1.0096706    -113.3913    9785.5417    4.2893014    4.2893014    4.2893014    9785.5417    1891.1407    18949.712     8515.772    -4284.758   -6586.6605    1495.5998    78.915026 
   17200    1142.5552   -114.42358     1.033808   -113.38977   -2387.9641    4.2965884    4.2965884    4.2965884   -2387.9641    21866.621   -22392.033   -6638.4801   -5670.3646    5547.7919    3229.0074    79.317911 
   17300    866.64982   -114.17721   0.78416297   -113.39305   -4592.3022    4.2889287    4.2889287    4.2889287   -4592.3022   -8432.6059     8301.004   -13645.305    217.25711    16836.724   -7421.1177    78.894453 
   17400    773.06671   -114.09702     0.699487   -113.39754    10095.229     4.289428     4.289428     4.289428    10095.229    29584.445    16323.317   -15622.073    3265.3831   -3826.7512    3348.3501    78.922009 
   17500    1381.3532     -114.637    1.2498774   -113.38712   -14701.335     4.303104     4.303104     4.303104   -14701.335   -17475.048   -20408.691   -6220.2661   -5426.4971   -14771.632    3968.5062    79.679306 
   17600    1146.1449    -114.4247     1.037056   -113.38764    20225.157    4.2820164    4.2820164    4.2820164    20225.157    40056.055      5577.22    15042.195     111.4943     11239.05   -6059.0588    78.513615 
   17700    733.36722   -114.06463   0.66356607   -113.40107    4060.1226    4.2898184    4.2898184    4.2898184    4060.1226   -16584.701    21783.476    6981.5925   -1542.7388    13754.396    -949.1926    78.943562 
   17800     919.6355   -114.22672   0.83210553   -113.39461   -20705.159    4.3057992    4.3057992    4.3057992   -20705.159   -21437.306   -21346.001   -19332.172     5351.084   -15975.835   -6308.7962    79.829113 
   17900    1258.6779   -114.52297    1.1388782   -113.38409    25153.697    4.2774557    4.2774557    4.2774557    25153.697    13574.674    25932.294    35954.124   -895.63742   -1916.7067    4283.3621    78.263011 
   18000    954.87517   -114.26274   0.86399112   -113.39875    1391.1499    4.2909066    4.2909066    4.2909066    1391.1499     4070.354    6408.3338   -6305.2381    6020.5823    20545.137    2194.9001    79.003657 
   18100    527.57054    -113.8757   0.47735692   -113.39834   -31714.162    4.3051839    4.3051839    4.3051839   -31714.162   -51129.216    2755.0534   -46768.322   -1226.2443   -12073.408   -4707.4548    79.794899 
   18200    870.21078   -114.17863     0.787385   -113.39125     8701.229    4.2809541    4.2809541    4.2809541     8701.229    11705.772    4602.4947    9795.4201   -246.53864    -17534.92    5838.5792    78.455198 
   18300    1129.8467   -114.41394    1.0223091   -113.39163    7756.9845    4.2913892    4.2913892    4.2913892    7756.9845    19669.011   -6459.8387    10061.781   -4762.9758    5442.0804     -6181.29    79.030313 
   18400    621.02868   -113.95783    0.5619198   -113.39591   -4845.3727    4.2997691    4.2997691    4.2997691   -4845.3727   -11038.355    7743.3213   -11241.085   -3135.9354   -1804.5614    2504.0233     79.49419 
   18500    463.10692   -113.81358   0.41902887   -113.39455   -10776.974    4.2881882    4.2881882    4.2881882   -10776.974   -27998.002   -4256.3911   -76.528662    9417.0677   -16230.214     2704.966    78.853599 
   18600    668.47774   -113.99889    0.6048527   -113.39403    3945.5274    4.2896311    4.2896311    4.2896311    3945.5274    29205.119   -6043.3561    -11325.18   -4880.5253   -964.45072    426.63643    78.933221 
   18700    1174.1286   -114.45243    1.0623762   -113.39006   -4105.8494    4.2938233    4.2938233    4.2938233   -4105.8494    -8720.501   -8523.3604    4926.3131    4686.6088   -2092.5302    1921.6392    79.164869 
   18800    538.91278   -113.88461    0.4876196   -113.39699    724.61764    4.2968012    4.2968012    4.2968012    724.61764    3979.4804    8391.5058   -10197.133   -2167.6695   -13621.021    4493.2624    79.329696 
   18900    617.02582   -113.95411   0.55829793   -113.39582   -20698.871    4.2910186    4.2910186    4.2910186   -20698.871   -10621.681   -15314.131   -36160.801    7298.6315   -2972.5971    7824.7788    79.009842 
   19000    817.01068   -114.13298   0.73924843   -113.39373    12412.514     4.287464     4.287464     4.287464    12412.514     44084.15   -21542.161    14695.552   -8778.2676    5861.4823   -8689.2261    78.813655 
   19100    1291.4244   -114.55534     1.168508   -113.38683    -4932.953    4.2983991    4.2983991    4.2983991    -4932.953   -15437.676    -4301.854    4940.6713   -1905.3532    2366.9403   -246.83427    79.418229 
   19200    737.79108   -114.06088   0.66756888   -113.39331    6664.9186     4.291324     4.291324     4.291324    6664.9186    37046.736   -15414.918    -1637.062    8514.9852   -9849.6372    8157.8102    79.026714 
   19300    713.92168     -114.044   0.64597134   -113.39802   -5032.6305     4.289992     4.289992     4.289992   -5032.6305    14447.337   -31230.832    1685.6041   -1688.9283    3318.2151   -8667.4244    78.953147 
   19400    1148.5842   -114.43281    1.0392631   -113.39354    2073.7051    4.2950692    4.2950692    4.2950692    2073.7051     29113.41   -23451.022    558.72748    4948.5324    2739.6274   -7839.9537    79.233805 
   19500    1371.2818   -114.62951    1.2407646   -113.38875    6656.2111    4.2905064    4.2905064    4.2905064    6656.2111    20346.579   -21169.318    20791.372   -8582.8116    2357.7046    594.21225    78.981552 
   19600    769.94821   -114.09376   0.69666532   -113.39709   -2771.8191    4.2944999    4.2944999    4.2944999   -2771.8191    31750.223   -37894.268   -2171.4123    11775.348   -1732.5532   -6068.4706    79.202299 
   19700    929.70599   -114.23877   0.84121752   -113.39755   -11483.848    4.2909245    4.2909245    4.2909245   -11483.848    17676.204   -27764.233   -24363.515    1037.3741    4265.6699   -5940.9044    79.004643 
   19800    1162.4086    -114.4497    1.0517718   -113.39793    6496.7646    4.2933273    4.2933273    4.2933273    6496.7646    24391.785   -14545.537    9644.0454    8036.9997    6459.1066    4257.5883    79.137441 
   19900    1255.6523   -114.53141    1.1361405   -113.39527   -7296.3538     4.296792     4.296792     4.296792   -7296.3538    10217.538    -29822.34   -2284.2592    9843.4382    1089.1408   -9743.9759    79.329183 
   20000    830.13133    -114.1472   0.75112028   -113.39608    9060.5682     4.285689     4.285689     4.285689    9060.5682    44372.125   -13234.799    -3955.622   -7986.8183    7296.6318    -10319.66    78.715809 
   20100    785.27717   -114.10905   0.71053528   -113.39852   -4493.6142    4.2962036    4.2962036    4.2962036   -4493.6142   -8009.4319    4328.1409   -9799.5516    5386.1347     9354.971    1890.3217    79.296601 
   20200     1187.125   -114.46395    1.0741356   -113.38981   -7175.9791    4.2983141    4.2983141    4.2983141   -7175.9791    3503.4322    -12849.04   -12182.329    2981.7653   -2353.5325    4473.3649    79.413517 
   20300    1081.0574   -114.36538   0.97816346   -113.38722    20842.304    4.2848494    4.2848494    4.2848494    20842.304    42814.671    5061.2781    14650.965    11585.056   -275.08921   -4394.7868    78.669556 
   20400    798.28322    -114.1167   0.72230344    -113.3944   -7793.2746    4.2962813    4.2962813    4.2962813   -7793.2746   -18913.364    6857.5263   -11323.986   -10316.614    14494.512   -5159.1016    79.300903 
   20500    647.61899   -113.97789   0.58597927   -113.39191    -9073.958    4.3004695    4.3004695    4.3004695    -9073.958     4745.295   -4444.7448   -27522.424   -975.28903    1822.6518     5669.699    79.533045 
   20600    1131.0815    -114.4076    1.0234263   -113.38418    11766.859    4.2835095    4.2835095    4.2835095    11766.859     4133.268    16743.216    14424.093    7134.9289   -7376.6282   -1737.8991    78.595776 
   20700    853.16423   -114.16322   0.77196093   -113.39126    9662.4063    4.2925446    4.2925446    4.2925446    9662.4063    24109.129   -3591.9371    8470.0267   -2627.2366    13835.855    313.90788    79.094165 
   20800    710.99463   -114.03823   0.64332288   -113.39491   -33069.569    4.3045909    4.3045909    4.3045909   -33069.569   -52272.776   -9856.0275   -37079.905    4174.1485    2211.7424    1649.2437     79.76193 
   20900    552.02074   -113.89316   0.49947997   -113.39368    17999.269    4.2812598    4.2812598    4.2812598    17999.269     19190.87    25653.416    9153.5217   -1462.1158   -13073.035   -328.62076    78.472003 
   21000    1202.2281   -114.47968    1.0878013   -113.39188    -4661.229    4.2918735    4.2918735    4.2918735    -4661.229   -16637.198   -7060.2606    9713.7712    4174.6528    5443.0545     2321.207    79.057075 
   21100    700.09931   -114.02452   0.63346457   -113.39106    -14646.55    4.3063902    4.3063902    4.3063902    -14646.55   -16937.347   -17299.446   -9702.8577   -8500.1144    12140.644   -1612.7415    79.861993 
   21200     660.4543   -113.98338   0.59759293   -113.38579    5751.4739    4.2790925    4.2790925    4.2790925    5751.4739   -23774.891    31018.057    10011.255    453.04769   -14849.971    4637.3297    78.352893 
   21300    778.53504   -114.09782   0.70443486   -113.39338    7404.7619    4.2922589    4.2922589    4.2922589    7404.7619    23330.362   -8266.6947    7150.6188    5771.8299   -10757.703   -3811.8453    79.078376 
   21400    1064.5175   -114.34696   0.96319779   -113.38376   -11078.432    4.3043426    4.3043426    4.3043426   -11078.432    -25009.37   -7864.5211   -361.40624   -5023.2373    12678.272   -1358.7157    79.748126 
   21500    782.28563   -114.09294   0.70782848   -113.38511    5628.4271    4.2839749    4.2839749    4.2839749    5628.4271    9597.4049    10717.366   -3429.4892    1292.5198   -8116.0152    5687.1361    78.621394 
   21600    631.90126   -113.96479   0.57175754   -113.39303   -8658.9567    4.2897798    4.2897798    4.2897798   -8658.9567   -9582.2789    4942.0241   -21336.615    5394.8365   -13337.727    3147.2638    78.941431 
   21700     941.1061   -114.24151   0.85153257   -113.38997   -4447.0314    4.2949623    4.2949623    4.2949623   -4447.0314    14004.305   -23227.086   -4118.3129    3981.4729    1766.7817   -1719.9099    79.227884 
   21800    1089.7073   -114.37228   0.98599005   -113.38629   -3368.1648    4.2965009    4.2965009    4.2965009   -3368.1648   -3317.6682   -627.09277   -6159.7334   -14123.794    6610.4854   -2258.4658    79.313062 
   21900    927.10808   -114.22813   0.83886688   -113.38927   -8717.7337    4.2894547    4.2894547    4.2894547   -8717.7337   -7639.5239    3851.8716   -22365.549    7891.1374   -7357.0363    7201.3656    78.923487 
   22000    608.07926   -113.94342    0.5502029   -113.39321    17778.126    4.2828308    4.2828308    4.2828308    17778.126    24659.203    248.46899    28426.706    8165.8419   -6043.8136   -11250.076    78.558423 
   22100    1168.3837   -114.44857    1.0571781   -113.39139   -14643.794     4.303111     4.303111     4.303111   -14643.794   -8625.6742   -20000.319    -15305.39   -2518.5744    1615.4294   -12934.032    79.679691 
   22200    1212.9351   -114.48406    1.0974892   -113.38657    14380.172    4.2882118    4.2882118    4.2882118    14380.172    15169.852    3270.1678    24700.496   -1691.8412   -3297.5777    10387.774    78.854897 
   22300    767.17023   -114.08668   0.69415174   -113.39253    7351.4653    4.2818611    4.2818611    4.2818611    7351.4653    24653.564   -545.12908   -2054.0391   -2219.0843   -4858.0491   -8314.8308    78.505074 
   22400    723.69005   -114.04945   0.65480996   -113.39464   -26716.641    4.3038265    4.3038265    4.3038265   -26716.641   -653.48433   -37162.206   -42334.231   -1077.6057    59.072496   -17632.046    79.719447 
   22500    1289.9668   -114.55081    1.1671891   -113.38362    7226.4996    4.2866101    4.2866101    4.2866101    7226.4996    7593.8822    4832.2972    9253.3192   -2332.5191    6982.6842    8135.6632    78.766572 
   22600    1227.0307   -114.49738    1.1102432   -113.38714   -1444.7586     4.285263     4.285263     4.285263   -1444.7586     8420.476   -12698.865   -55.886371    9954.1031   -2146.8372   -10877.898    78.692337 
   22700    672.02684   -114.00549   0.60806401   -113.39743   -9001.8947    4.2955918    4.2955918    4.2955918   -9001.8947    9741.0364   -29024.125   -7722.5958   -6493.7491   -4403.6619   -11647.316    79.262726 
   22800    999.98082   -114.29715   0.90480366   -113.39234    964.81411    4.2896422    4.2896422    4.2896422    964.81411   -4248.4161   -2981.2893    10124.148   -7815.7076    7785.1493   -4441.6694    78.933835 
   22900    1158.0083   -114.43535    1.0477902   -113.38756    4786.3272    4.2936543    4.2936543    4.2936543    4786.3272    1854.1795    5101.4966    7403.3054    1291.7035    7113.3824    2229.2592    79.155523 
   23000    1122.5468   -114.40379     1.015704   -113.38809    5738.7945    4.2881416    4.2881416    4.2881416    5738.7945    7118.7776   -23854.488    33952.094    6570.7272   -1565.5445   -2777.4804    78.851026 
   23100    758.93564   -114.07936   0.68670091   -113.39266    3129.5081    4.2917195    4.2917195    4.2917195    3129.5081   -1301.9292     7030.321    3660.1326   -1889.1361    7498.3915   -9240.1501    79.048562 
   23200    803.20431   -114.11946   0.72675614    -113.3927   -7872.1868    4.2934533    4.2934533    4.2934533   -7872.1868   -19526.011    4135.0313   -8225.5812   -4667.8846     4001.061    9559.6841    79.144405 
   23300    1151.7488   -114.42919    1.0421265   -113.38706    6660.2414    4.2830099    4.2830099    4.2830099    6660.2414   -16167.422    13566.503    22581.643    2571.9265   -5260.3417   -7384.9795     78.56828 
   23400     913.0652   -114.21645   0.82616058   -113.39029   -2474.0007     4.296799     4.296799     4.296799   -2474.0007    4090.8795   -16389.539    4876.6571    2879.5669    2344.8697   -7655.1655    79.329572 
   23500    656.59032   -113.98799   0.59409672   -113.39389   -14754.917    4.2920309    4.2920309    4.2920309   -14754.917   -36396.947    6422.7268   -14290.529    1056.1794    11706.118    6331.3559    79.065771 
   23600    656.02343   -113.98691   0.59358378   -113.39333    11699.561    4.2817814    4.2817814    4.2817814    11699.561   -21650.277    24869.782    31879.179    121.48012   -1010.9789    17.494496    78.500691 
   23700    1064.3997   -114.35144   0.96309121   -113.38835    508.14599    4.2971865    4.2971865    4.2971865    508.14599   -9728.4498     1067.979    10184.909   -445.72688    -8125.284    2952.1501    79.351035 
   23800    823.49454   -114.13555   0.74511517   -113.39044   -1808.1942    4.2915252    4.2915252    4.2915252   -1808.1942   -17520.474   -6100.7143    18196.606   -6880.8695    8672.5117    2135.5055    79.037827 
   23900     403.2988   -113.75949   0.36491323   -113.39458   -5234.8768    4.2857918    4.2857918    4.2857918   -5234.8768   -39444.557    20090.391    3649.5347    534.27289    5052.5895    1594.4519    78.721472 
   24000    765.88799   -114.08654   0.69299155   -113.39355   -7037.2883    4.2939206    4.2939206    4.2939206   -7037.2883   -11490.505    11032.688   -20654.048   -396.16576   -5200.2635    4298.4939     79.17025 
   24100    1091.9949   -114.37472    0.9880599   -113.38666    -3486.736    4.2931867    4.2931867    4.2931867    -3486.736   -12126.183    -10912.77    12578.745   -6878.4519   -1285.3354   -5029.2944    79.129665 
   24200    688.56526   -114.01609   0.62302832   -113.39306   -8689.5688    4.2890949    4.2890949    4.2890949   -8689.5688   -22743.138    4095.8369   -7421.4052   -4051.1923    11073.734   -2330.8863    78.903628 
   24300    595.59638   -113.93681   0.53890812    -113.3979   -3685.7405    4.2889789    4.2889789    4.2889789   -3685.7405   -14104.952    19593.345   -16545.614    1259.4333   -13971.872    5180.4233    78.897225 
   24400    1034.0909   -114.32804   0.93566721   -113.39237   -2255.6037    4.2982422    4.2982422    4.2982422   -2255.6037    557.24677    -14954.39    7630.3328   -1212.3807   -3291.0674   -7202.0708    79.409534 
   24500    1209.2967    -114.4811     1.094197    -113.3869   -1210.0681    4.2915438    4.2915438    4.2915438   -1210.0681    299.45623   -4581.2686    651.60803    1087.2154    9193.3335   -2550.5797    79.038858 
   24600     754.0485   -114.07324   0.68227893   -113.39097    19553.671    4.2824386    4.2824386    4.2824386    19553.671    1493.9162    22279.481    34887.616    1328.2973   -7650.1489    4745.3794    78.536844 
   24700    933.17443   -114.24106   0.84435584   -113.39671   -21947.011    4.3016657    4.3016657    4.3016657   -21947.011   -8422.9484   -26523.043   -30895.043    -2528.581   -11179.456   -1162.2121    79.599432 
   24800     1160.921   -114.44049    1.0504257   -113.39007    10034.161     4.286724     4.286724     4.286724    10034.161    33473.677   -9029.9894    5658.7971    -2863.226    1130.0207   -3935.1023     78.77285 
   24900    1220.3548   -114.49356    1.1042026   -113.38935    8504.4684    4.2873456    4.2873456    4.2873456    8504.4684    6211.2389    10116.059    9186.1076    1979.6904   -5330.9843   -8187.9903    78.807124 
   25000    992.72948   -114.28798    0.8982425   -113.38973   -25083.045    4.3041602    4.3041602    4.3041602   -25083.045   -22403.198   -21089.307   -31756.631    5908.1569    2433.8378    6682.3182    79.737988 
   25100    807.19172   -114.11712   0.73036403   -113.38676    21376.614     4.280167     4.280167     4.280167    21376.614    47455.992   -3944.5462    20618.396    979.06899    44.175579   -12926.169     78.41193 
   25200    1216.9017   -114.49068    1.1010782    -113.3896    2984.2238    4.2917846    4.2917846    4.2917846    2984.2238    10834.682   -14895.894    13013.883   -5148.1284   -2134.0694   -12773.662    79.052164 
   25300    1071.7482   -114.35527   0.96974032   -113.38553    6105.3526    4.3000643    4.3000643    4.3000643    6105.3526     10595.97   -6645.7146    14365.803   -2240.1292   -5288.6159    7508.9872    79.510569 
   25400    864.38344   -114.16732    0.7821123    -113.3852    3939.7301    4.2861799    4.2861799    4.2861799    3939.7301    4396.5089    1668.5717    5754.1095   -1229.2454    9414.6344   -16560.853    78.742863 
   25500    716.99762   -114.03886   0.64875451   -113.39011    -10788.12    4.2961487    4.2961487    4.2961487    -10788.12    28522.833   -33553.851   -27333.344    4003.2536    78.651466    -7380.112     79.29356 
   25600    1185.6481   -114.45685    1.0727993   -113.38405    9725.8493    4.2884054    4.2884054    4.2884054    9725.8493    22845.558   -349.63398    6681.6237    4928.3466   -3703.3992    10669.321    78.865579 
   25700    1025.5076   -114.31734   0.92790086   -113.38944    838.22427    4.2935505    4.2935505    4.2935505    838.22427    179.40261   -5669.8937    8005.1639   -1100.7249   -1545.5078   -4701.8862    79.149782 
   25800     602.9969    -113.9418   0.54560427    -113.3962   -9004.2552     4.294927     4.294927     4.294927   -9004.2552    10203.276   -30576.074   -6639.9677   -1112.6699   -822.83127   -14916.486    79.225931 
   25900    790.12577   -114.10712    0.7149224    -113.3922    14700.154    4.2838962    4.2838962    4.2838962    14700.154     36073.56   -15094.362    23121.265    878.46069    3352.0248     7812.287    78.617062 
   26000    1075.2711   -114.36152   0.97292786   -113.38859   -8683.4407     4.300124     4.300124     4.300124   -8683.4407   -18773.519   -8189.4524    912.64988    3935.9603   -3662.6392    2196.5149    79.513876 
   26100    983.28878   -114.27964   0.88970035   -113.38994   -8118.7984    4.2908334    4.2908334    4.2908334   -8118.7984   -9385.5411   -21573.402    6602.5478   -8895.5125    8216.4913   -14168.786    78.999613 
   26200    427.65345   -113.78086   0.38694983   -113.39391    17885.235    4.2830296    4.2830296    4.2830296    17885.235    41512.539   -1362.7057    13505.871    391.03023   -1924.0163    7266.3761     78.56936 
   26300    717.33143   -114.04003   0.64905655   -113.39097   -20075.676    4.3021245    4.3021245    4.3021245   -20075.676   -25163.404   -23113.939   -11949.685    2498.1742    4996.9294    13723.532    79.624903 
   26400    1034.6541   -114.31893   0.93617674   -113.38275   -4118.6269    4.2883354    4.2883354    4.2883354   -4118.6269   -34392.317   -12384.646    34421.082    1232.8531   -4993.1514   -3333.2357    78.861716 
   26500    583.43838   -113.91786   0.52790731   -113.38995    14692.322    4.2849906    4.2849906    4.2849906    14692.322    50333.991   -10847.234    4590.2087   -4274.2146      2183.38    375.71177    78.677332 
   26600    704.52903   -114.03049   0.63747267   -113.39302   -21941.947    4.2975993    4.2975993    4.2975993   -21941.947   -19681.862   -25928.099   -20215.879     618.9371    -2136.178    20013.622     79.37391 
   26700    733.91719   -114.05506   0.66406369     -113.391    5574.8339    4.2909047    4.2909047    4.2909047    5574.8339    492.53023   -12641.427    28873.399   -3357.3567    489.94025   -5904.2606    79.003553 
   26800    1032.7198   -114.32252   0.93442656   -113.38809    5449.8063    4.2855943    4.2855943    4.2855943    5449.8063    298.17692   -10127.964    26179.206   -4498.1488    5654.2286   -662.35335    78.710592 
   26900    769.60681   -114.08906   0.69635641    -113.3927    7117.1816    4.2888304    4.2888304    4.2888304    7117.1816    23722.905   -25777.792    23406.432    3207.1407   -3048.3875    20276.692    78.889033 
   27000    596.03439   -113.93463   0.53930444   -113.39533   -26396.717    4.3025577    4.3025577    4.3025577   -26396.717   -35826.133    -19590.54   -23773.478   -88.114696   -9174.8412    5020.9026    79.648958 
   27100    844.04668   -114.15439   0.76371118   -113.39068   -3878.4325    4.2849268    4.2849268    4.2849268   -3878.4325   -15258.884   -9312.0605    12935.647   -1008.9462     -2037.44   -869.02845    78.673818 
   27200     1251.243   -114.51856    1.1321509   -113.38641    13544.412    4.2813813    4.2813813    4.2813813    13544.412    27487.133   -3416.1915    16562.294   -4570.9659    6063.3655    6259.0784    78.478687 
   27300    783.47306   -114.10362   0.70890289   -113.39472   -21354.145    4.3050556    4.3050556    4.3050556   -21354.145   -9536.3916   -21151.994   -33374.048    6141.4755   -1896.1103    6426.6522    79.787763 
   27400     726.5261   -114.05564   0.65737608   -113.39827    2381.0424    4.2813698    4.2813698    4.2813698    2381.0424   -7930.6958    1024.2945    14049.529   -89.921893   -7801.2753   -7388.6598    78.478055 
   27500    1094.5046   -114.38779   0.99033077   -113.39746    14627.289    4.2880152    4.2880152    4.2880152    14627.289    43736.047   -17290.316    17436.136   -1181.0052    7921.7509   -8418.5197    78.844054 
   27600    1383.9205   -114.64209    1.2522003   -113.38989    -1682.484    4.2961063    4.2961063    4.2961063    -1682.484    2588.8963   -17790.508     10154.16   -5335.1972   -2056.4732   -656.96696    79.291215 
   27700     967.2473   -114.26987   0.87518568   -113.39468    5548.1394    4.2812403    4.2812403    4.2812403    5548.1394     11909.41   -1534.3774    6269.3856    377.94386   -7414.1956   -510.49909    78.470932 
   27800    800.04889   -114.12086   0.72390105   -113.39695   -23057.812    4.2977971    4.2977971    4.2977971   -23057.812   -835.24613    -35228.01   -33110.181   -6376.1639   -3069.2929   -14987.085    79.384869 
   27900    1354.9716   -114.61295    1.2260068   -113.38694   -2083.6178    4.2847828    4.2847828    4.2847828   -2083.6178    21897.687   -27331.898   -816.64333    3948.9943    7386.5703    1253.3605    78.665887 
   28000    1144.1646   -114.42591    1.0352641   -113.39065    3512.6152    4.2893351    4.2893351    4.2893351    3512.6152    12271.914   -12229.144    10495.076    3362.6502   -1336.8713    3421.5921    78.916885 
   28100    925.83448    -114.2294    0.8377145   -113.39168   -22166.884    4.2982256    4.2982256    4.2982256   -22166.884   -28634.211   -30329.748   -7536.6942   -7119.6224   -3901.4968   -14052.412    79.408612 
   28200    908.25216   -114.20725   0.82180564   -113.38544    15398.403    4.2783831    4.2783831    4.2783831    15398.403    16244.257   -9744.4012    39695.354   -5574.7272    3641.6223   -10952.638    78.313927 
   28300    1078.1069   -114.36589   0.97549377    -113.3904   -2873.3007    4.2962052    4.2962052    4.2962052   -2873.3007    12897.285   -23220.609    1703.4222    2678.1446   -7527.0892    14163.925     79.29669 
   28400    1065.7537   -114.35141   0.96431636    -113.3871    9827.9156    4.2917858    4.2917858    4.2917858    9827.9156     -9201.73   -3440.8283    42126.305   -294.93584    3260.7734    4167.0044    79.052226 
   28500    856.66395     -114.163   0.77512754   -113.38787    7141.9645    4.2838809    4.2838809    4.2838809    7141.9645    507.09725    4668.8024    16249.994   -8031.0477    8876.5742   -10622.272    78.616222 
   28600    704.20634   -114.02998    0.6371807    -113.3928   -15872.085    4.2980676    4.2980676    4.2980676   -15872.085   -9560.6068   -30547.962   -7507.6857    1307.3702    1985.8879    17718.016    79.399859 
   28700    944.07324   -114.24125    0.8542173   -113.38703    16656.345    4.2852355    4.2852355    4.2852355    16656.345    31888.746   -4855.3765    22935.665   -1883.5364    1878.3753     14229.98     78.69082 
   28800    975.58468    -114.2705   0.88272952   -113.38777   -1270.4507    4.2923669    4.2923669    4.2923669   -1270.4507   -15818.896   -2657.6808    14665.225   -7330.9455   -7746.9089   -4556.8824    79.084344 
   28900      629.927    -113.9621   0.56997119   -113.39213   -18987.555    4.2917735    4.2917735    4.2917735   -18987.555   -17600.563   -28477.287   -10884.815   -1540.2349    11048.478    6944.0875    79.051548 
   29000    621.77359   -113.95474   0.56259381   -113.39215    9690.9387    4.2857227    4.2857227    4.2857227    9690.9387    10946.503   -22561.742    40688.055    5431.1103   -10014.646    11312.391    78.717665 
   29100    1031.0782   -114.31802   0.93294124   -113.38508   -4156.6688      4.29977      4.29977      4.29977   -4156.6688   -13962.092    -7657.539    9149.6246   -5361.2453    3155.5925   -4365.0939    79.494242 
   29200    778.79856   -114.09047    0.7046733    -113.3858    5333.5352    4.2851416    4.2851416    4.2851416    5333.5352   -23394.869   -8531.4347    47926.909   -4748.9769    9194.5539    9355.2529     78.68565 
   29300    398.41674     -113.756   0.36049584    -113.3955   -17247.926    4.2899347    4.2899347    4.2899347   -17247.926    6273.5337   -23828.115   -34189.197   -2048.2639    2961.0391    10303.157    78.949981 
   29400    701.69344   -114.02554   0.63490697   -113.39064   -4223.6462    4.2949041    4.2949041    4.2949041   -4223.6462    22546.652   -19351.036   -15866.555   -9159.9466    2160.5296   -3329.9826    79.224664 
   29500    971.44832   -114.26366   0.87898686   -113.38467     12832.55    4.2872838    4.2872838    4.2872838     12832.55    7505.6909     2314.913    28677.047   -10082.295   -15658.384   -3796.3924    78.803714 
   29600    442.89656   -113.79294   0.40074212    -113.3922   -11105.872    4.2980852    4.2980852    4.2980852   -11105.872    14700.169   -38042.511   -9975.2735   -791.62474    958.92753    7008.6014    79.400831 
   29700    598.24529   -113.92833   0.54130491   -113.38703   -7435.5702    4.2917976    4.2917976    4.2917976   -7435.5702    6891.9841   -43763.643    14564.949    4760.0086   -7594.5106    1820.1421    79.052878 
   29800    880.67545   -114.18035   0.79685366   -113.38349    19612.359    4.2901633    4.2901633    4.2901633    19612.359    18205.305    -4235.937     44867.71    539.64858   -8371.7163   -4461.8902    78.962605 
   29900    1112.0784   -114.38729    1.0062319   -113.38105   -13679.298     4.301017     4.301017     4.301017   -13679.298   -8615.5632   -25981.163   -6441.1684    1741.1038    4995.1468    13067.669    79.563429 
   30000    832.78562   -114.13359   0.75352193   -113.38007   -10332.898    4.2941328    4.2941328    4.2941328   -10332.898    4992.5108   -45924.942    9933.7376    2383.1917    5562.5852    4912.4068    79.181989 
   30100    964.38564   -114.25524   0.87259639   -113.38264   -1129.4765    4.2907371    4.2907371    4.2907371   -1129.4765    -9161.213   -11759.783    17532.567   -2246.0317    5096.5321   -9154.9926    78.994294 
   30200    1143.9179   -114.41621    1.0350409   -113.38117    7260.9496    4.2935363    4.2935363    4.2935363    7260.9496   -2156.1632   -5109.9553    29048.967    1006.8142   -9142.0185     7175.707    79.148999 
   30300    1048.2588   -114.33266   0.94848663   -113.38417   -6563.3463    4.2972469    4.2972469    4.2972469   -6563.3463    11905.266    -33710.24    2114.9361     3834.297    -7323.932     1071.203    79.354382 
   30400    841.91574   -114.14848   0.76178305    -113.3867    705.67553    4.2938538    4.2938538    4.2938538    705.67553    44978.857   -20931.031   -21930.799   -4107.4522   -9241.5008   -5464.2173    79.166555 
   30500    1136.4114   -114.40942    1.0282489   -113.38118    14881.373    4.2872588    4.2872588    4.2872588    14881.373    38911.384     3283.097    2449.6373   -11083.143   -9722.1183   -2948.1068     78.80234 
   30600    1067.6575   -114.35237   0.96603897   -113.38633    -11049.99     4.301124     4.301124     4.301124    -11049.99     24638.46   -30946.034   -26842.395   -6610.7258     6676.247    8610.9028    79.569365 
   30700    945.41989   -114.24269   0.85543578   -113.38725   -9470.0066    4.2913947    4.2913947    4.2913947   -9470.0066    23798.089   -26526.059    -25682.05     1343.905   -379.43006    3030.7733    79.030619 
   30800    1322.3188   -114.58104    1.1964618   -113.38457    10275.565     4.282066     4.282066     4.282066    10275.565    13301.261   -2032.8147     19558.25     7568.824   -7112.8304   -7876.4937    78.516344 
   30900    1185.1204    -114.4573    1.0723219   -113.38498     -16707.3    4.3069728    4.3069728    4.3069728     -16707.3   -4974.4597   -26814.851   -18332.591    2656.7117    -14756.42    11458.969    79.894411 
   31000     700.1541   -114.02294   0.63351415   -113.38942    12266.598    4.2865528    4.2865528    4.2865528    12266.598    62551.643   -29616.119    3864.2685   -1647.9892    3759.6459    1187.0538    78.763414 
   31100    1054.1665    -114.3402   0.95383205   -113.38637    12696.545    4.2854967    4.2854967    4.2854967    12696.545    50745.556   -26748.202     14092.28   -5805.2339   -9912.3458   -9980.2903    78.705215 
   31200    1223.3823   -114.48658     1.106942   -113.37963   -643.57532    4.3039268    4.3039268    4.3039268   -643.57532    19434.912   -17943.438   -3422.1999    -3023.718   -3410.7485    851.93933    79.725021 
   31300    807.63548   -114.11687   0.73076555    -113.3861    5199.8263    4.2874565    4.2874565    4.2874565    5199.8263    37605.773   -20693.178   -1313.1164    510.42272    4712.4849    931.10326    78.813238 
   31400    787.57779   -114.10251   0.71261693   -113.38989   -11598.556    4.2902426    4.2902426    4.2902426   -11598.556    17260.143   -35654.959   -16400.851    3548.9666    8957.3121     -11369.4    78.966985 
   31500    1309.0159   -114.56603    1.1844251   -113.38161   -6993.7869    4.2990037    4.2990037    4.2990037   -6993.7869    6443.3539   -23961.332    -3463.383    1973.8648    1983.9951   -2046.1499    79.451746 
   31600     1065.367    -114.3463   0.96396649   -113.38233   -1023.1143    4.2923345    4.2923345    4.2923345   -1023.1143    21891.565   -27600.824    2639.9159   -1735.7066    -5850.398    7152.2661    79.082553 
   31700    415.63132   -113.76584   0.37607195   -113.38977    6965.0631    4.2913117    4.2913117    4.2913117    6965.0631    57397.389   -30446.013   -6056.1865    1309.9444   -858.38384   -8893.9801    79.026034 
   31800    857.54919   -114.15997   0.77592853   -113.38404    2633.1403    4.2976944    4.2976944    4.2976944    2633.1403    22007.387   -27533.811    13425.845     826.1966    -4582.647    -960.7738    79.379178 
   31900    1026.9747   -114.30864   0.92922826   -113.37941    9134.1203    4.2921634    4.2921634    4.2921634    9134.1203    15016.891   -22639.013    35024.483    2246.1772   -4096.9184   -1291.1711    79.073098 
   32000    691.77966   -114.01168   0.62593677   -113.38575   -6600.1635    4.2945416    4.2945416    4.2945416   -6600.1635    23970.347   -35045.358   -8725.4792   -2239.5332   -3101.0794   -12042.514    79.204607 
   32100    853.76137   -114.15547   0.77250123   -113.38297   -15100.603    4.2958534    4.2958534    4.2958534   -15100.603   -17128.103   -13844.274   -14329.433    -5559.662    11049.616   -6550.0354    79.277209 
   32200    1122.3409   -114.39541    1.0155176   -113.37989    397.27011    4.2902693    4.2902693    4.2902693    397.27011   -29044.364    5843.1303    24393.044    -2017.466    10993.279   -488.13507     78.96846 
   32300     880.2918   -114.18013   0.79650652   -113.38362   -8674.2875    4.2952817    4.2952817    4.2952817   -8674.2875   -15258.508   -18331.528    7567.1733    5157.7415    1776.3322   -2994.0435    79.245565 
   32400    632.03294    -113.9585   0.57187669   -113.38662    12685.059    4.2909367    4.2909367    4.2909367    12685.059    16803.253   -19037.647    40289.571    5012.0905   -6874.9627    3799.2907    79.005318 
   32500    875.75942   -114.17614   0.79240553   -113.38374    10343.641    4.2941607    4.2941607    4.2941607    10343.641    10929.187   -4332.8129     24434.55    1380.4296    95.735809    662.73049    79.183535 
   32600    646.34509    -113.9706   0.58482662   -113.38577    8424.9989    4.2930202    4.2930202    4.2930202    8424.9989    11928.229   -9282.7287    22629.496   -5551.4523   -2928.9279   -1983.0252    79.120458 
   32700    618.87268    -113.9483   0.55996901   -113.38833   -9250.1967    4.2909655    4.2909655    4.2909655   -9250.1967    7931.9604   -25548.181   -10134.369   -1239.3331    414.33183   -5689.4231    79.006911 
   32800     989.9203   -114.27984   0.89570069   -113.38413   -15703.688    4.2958609    4.2958609    4.2958609   -15703.688   -6661.5109   -27212.941   -13236.611   -869.44874    2141.7764    1448.1207    79.277626 
   32900    1002.3783   -114.28944   0.90697291   -113.38246   -8580.0711    4.2936407    4.2936407    4.2936407   -8580.0711   -32503.075   -10136.298     16899.16   -1426.6815    7209.1611    2143.2292    79.154772 
   33000    504.10417   -113.84574   0.45612405   -113.38961   -19026.129    4.2940101    4.2940101    4.2940101   -19026.129   -4154.7853   -36260.308   -16663.293   -1801.0286   -5310.4749   -8627.5929    79.175204 
   33100    558.21427   -113.89627     0.505084   -113.39118    9978.7427    4.2894562    4.2894562    4.2894562    9978.7427    57220.258   -16525.938   -10758.092   -217.82759   -3830.8593    2920.2818    78.923566 
   33200    978.08912    -114.2683   0.88499559    -113.3833     5419.737    4.2957989    4.2957989    4.2957989     5419.737    21470.077   -20910.892    15700.026    3884.4225   -9250.2883    6470.4179    79.274192 
   33300    762.94702    -114.0784    0.6903305   -113.38807   -14047.726     4.295229     4.295229     4.295229   -14047.726   -4673.2899   -35328.704   -2141.1845    2062.5975   -2427.6405   -5193.9146    79.242645 
   33400    620.44234    -113.9498   0.56138927   -113.38841   -536.39805    4.2871825    4.2871825    4.2871825   -536.39805     6420.709   -10010.283    1980.3802    -673.7486    -3798.996    5763.7926    78.798132 
   33500    1054.3928   -114.34076   0.95403673   -113.38672    1176.2828    4.2943786    4.2943786    4.2943786    1176.2828   -1390.1538   -7002.7653    11921.768   -2198.0298    6875.0594    343.85075     79.19559 
   33600    974.51285   -114.26739   0.88175971   -113.38563   -9871.8783    4.2991175    4.2991175    4.2991175   -9871.8783   -4596.1827   -27050.224    2030.7723   -3968.6551    5892.9306   -709.66917    79.458056 
   33700    749.51144   -114.06454    0.6781737   -113.38637    7116.1712    4.2857703    4.2857703    4.2857703    7116.1712    39812.555   -18796.626    332.58448     -3886.99   -2882.1197    3222.7447    78.720286 
[...]
   91300    1016.3928    -114.3098    0.9196536   -113.39015   -3973.2653    4.2837974    4.2837974    4.2837974   -3973.2653   -8310.7195   -9331.3063    5722.2298    24053.337   -431.50893   -5541.9117    78.611626 
   91400    1183.1275    -114.4567    1.0705186   -113.38618    4067.3154    4.2814063    4.2814063    4.2814063    4067.3154    9969.3336   -7104.7253    9337.3378   -16353.979   -3118.0104   -6703.7463    78.480063 
   91500    873.60636   -114.17918   0.79045739   -113.38872   -6642.8855    4.2868023    4.2868023    4.2868023   -6642.8855   -1057.0977   -17604.244   -1267.3144    3975.3301    767.64966    4611.3587    78.777169 
   91600    754.89917    -114.0735   0.68304863   -113.39045    3616.2275    4.2790533    4.2790533    4.2790533    3616.2275    2307.4761   -3210.1312    11751.338    34369.031    7130.9638    3595.8095    78.350737 
   91700    1148.6982   -114.42623    1.0393662   -113.38687    8357.6641    4.2812253    4.2812253    4.2812253    8357.6641    21359.494    7512.6182   -3799.1205   -2340.9285    4772.2295   -7577.6663    78.470105 
   91800    1073.4488   -114.35861   0.97127907   -113.38733   -7590.3888    4.2887738    4.2887738    4.2887738   -7590.3888    2621.4349    -14588.93   -10803.671   -3482.4166    167.68489    1160.7181    78.885906 
   91900    653.80176   -113.98414   0.59157358   -113.39257   -10210.356    4.2804122    4.2804122    4.2804122   -10210.356   -23434.011   -22405.885    15208.829    36729.734    5070.4986    5971.2298    78.425407 
   92000    953.95767   -114.25375   0.86316095   -113.39059    2875.4269    4.2816288    4.2816288    4.2816288    2875.4269    6180.0466   -2894.4748    5340.7089     11384.17    6901.7181   -2651.2738    78.492296 
   92100    1165.1138   -114.43864    1.0542194   -113.38442    6511.2047    4.2861791    4.2861791    4.2861791    6511.2047    33844.746    -5392.252     -8918.88   -10791.108   -3251.0557   -2353.0423    78.742818 
   92200    555.12946   -113.89542    0.5022928   -113.39313    295.96394    4.2816502    4.2816502    4.2816502    295.96394    10550.572   -29397.575    19734.895    29346.432   -4889.7039    2253.6239    78.493475 
   92300    692.35585   -114.01921   0.62645812   -113.39276   -13316.349    4.2841124    4.2841124    4.2841124   -13316.349    -28718.14   -31667.115     20436.21    21273.836    5927.7532     1776.353    78.628966 
   92400    1185.3922   -114.45679    1.0725677   -113.38423    4414.0716    4.2805354    4.2805354    4.2805354    4414.0716    19251.017    -10609.17    4600.3675    -9674.803    2975.2576    -238.8107    78.432179 
   92500    720.57038   -114.04303   0.65198722   -113.39104    977.54548    4.2845891    4.2845891    4.2845891    977.54548    29083.224   -37986.661    11836.073    25861.853   -1857.1194    1738.9269    78.655217 
   92600    491.44351   -113.83887   0.44466842    -113.3942   -4029.9036    4.2839638    4.2839638    4.2839638   -4029.9036    9413.5724   -46630.226    25126.943    21169.396    2520.1683    5569.4618    78.620785 
   92700    986.49496   -114.27866   0.89260137   -113.38606    1355.0135    4.2812417    4.2812417    4.2812417    1355.0135    16070.756   -24855.901    12850.185   -20921.441    10468.381   -2188.0873     78.47101 
   92800    975.74689   -114.26841   0.88287629   -113.38553   -8219.8713    4.2860873    4.2860873    4.2860873   -8219.8713    7270.4324    -36098.65    4168.6036    10549.476   -6174.2367    2208.2394    78.737755 
   92900    585.58112   -113.92098    0.5298461   -113.39113    3938.3934    4.2799283    4.2799283    4.2799283    3938.3934    24470.009   -35078.353    22423.523    30387.735    -13259.81    6754.2527    78.398812 
   93000    739.93298   -114.05872   0.66950691   -113.38921    725.72084      4.28455      4.28455      4.28455    725.72084    27166.247    -35238.05    10248.966   -15089.495    5192.8733    3365.6394    78.653066 
   93100    1007.8777   -114.29733   0.91194893   -113.38539   -10677.049    4.2855245    4.2855245    4.2855245   -10677.049    9014.5885    -35151.25   -5894.4851   -17076.252   -4229.7293    -3311.312    78.706745 
   93200    926.01948   -114.22635   0.83788189   -113.38846    3235.3846    4.2726862    4.2726862    4.2726862    3235.3846    14100.711   -13611.478    9216.9206    25656.904   -9990.7705   -190.86164    78.001506 
   93300    729.41951   -114.05295    0.6599941   -113.39295   -6037.6434    4.2870918    4.2870918    4.2870918   -6037.6434    5724.1648   -26309.975    2472.8802   -2167.7053     2739.728    7810.5627     78.79313 
   93400    936.73661   -114.23483   0.84757897   -113.38725   -7031.6756     4.288775     4.288775     4.288775   -7031.6756    16810.171   -30687.989   -7217.2092   -28819.243    3359.7168   -6156.2093    78.885975 
   93500     1038.747   -114.32287   0.93988009   -113.38299     8858.717    4.2727837    4.2727837    4.2727837     8858.717    20830.441    8792.5478   -3046.8374    9002.2314   -14051.863   -3141.4211    78.006848 
   93600    875.99282   -114.18258   0.79261672   -113.38996   -4181.8607    4.2807557    4.2807557    4.2807557   -4181.8607   -3741.7158   -4943.4473    -3860.419    5706.5825   -12796.479    8681.4128    78.444291 
   93700     889.0589   -114.19428   0.80443917   -113.38984   -7731.0464    4.2881504    4.2881504    4.2881504   -7731.0464    -5422.827   -20338.105    2567.7928   -21656.205     4768.815    4151.8652    78.851514 
   93800    1002.0677   -114.29307   0.90669187   -113.38638    3852.4516    4.2825309    4.2825309    4.2825309    3852.4516    10435.673    5636.0843   -4514.4027   -6067.4065   -3912.1691     -7450.97     78.54192 
   93900    913.43936   -114.21316   0.82649913   -113.38666    10204.299    4.2769275    4.2769275    4.2769275    10204.299    19623.191    14519.132   -3529.4274    12772.674   -11925.952   -2461.2561    78.234023 
   94000    845.86564   -114.15587   0.76535701   -113.39052   -4822.2412    4.2828554    4.2828554    4.2828554   -4822.2412   -17529.471   -15043.954    18106.701   -13899.537    986.09994    6473.2783    78.559777 
   94100    924.44001   -114.22452   0.83645275   -113.38807   -11720.853    4.2877519    4.2877519    4.2877519   -11720.853   -24973.119   -15351.939     5162.499   -19672.626     2676.826    -14322.33    78.829532 
   94200    1065.8306   -114.34945   0.96438593   -113.38506    2239.7392    4.2796851    4.2796851    4.2796851    2239.7392    11793.216    6558.6561   -11632.655     5983.855   -13271.836   -9867.9006    78.385447 
   94300     901.8312   -114.20368   0.81599582   -113.38768    11774.797    4.2772261    4.2772261    4.2772261    11774.797     20138.58    1912.8353    13272.976   -1567.7093   -11172.655    7960.7219    78.250412 
   94400    756.47014    -114.0755   0.68447008   -113.39103   -5807.7401    4.2867485    4.2867485    4.2867485   -5807.7401    6492.5022   -33896.736    9981.0136    -19259.77    3648.1099   -6181.4903    78.774201 
   94500    946.71111   -114.24353   0.85660411   -113.38693   -12255.728     4.287919     4.287919     4.287919   -12255.728    8192.4107    -27682.88   -17276.715     475.2158     5162.904    -17771.32    78.838747 
   94600    1174.5863    -114.4457    1.0627903   -113.38291    9103.6152    4.2750881    4.2750881    4.2750881    9103.6152    12013.559    6460.5341    8836.7528    4271.9221   -5545.5467    -63.19816    78.133129 
   94700    879.03341   -114.18468    0.7953679   -113.38931    1985.5662    4.2801115    4.2801115    4.2801115    1985.5662    15810.655   -30006.141    20152.184   -21375.546    -3116.158    3374.5738    78.408879 
   94800    659.53795   -113.98935    0.5967638   -113.39259   -9706.0368    4.2902638    4.2902638    4.2902638   -9706.0368    27611.716    -51172.38   -5557.4468   -9360.0317     5148.923   -18405.233    78.968154 
   94900    1002.7921   -114.29335   0.90734733     -113.386    10146.561    4.2771162    4.2771162    4.2771162    10146.561    36962.808   -9314.5136    2791.3874     4134.911    1657.2971   -6816.4642    78.244379 
   95000    933.97633   -114.23346   0.84508141   -113.38838    3434.6339    4.2777834    4.2777834    4.2777834    3434.6339    8381.9056   -16585.973    18507.969       -16228   -6404.2106    5685.3373    78.281001 
   95100    673.23963   -114.00025   0.60916136   -113.39108   -17465.377    4.2882827    4.2882827    4.2882827   -17465.377   -10221.934   -51852.888     9678.691   -22201.003    1382.0476   -12849.338     78.85881 
   95200    841.43305   -114.14807   0.76134631   -113.38672    5952.7498    4.2789063    4.2789063    4.2789063    5952.7498    33512.693   -18099.877    2445.4329    8116.3782    13738.157   -7709.9465    78.342664 
   95300    760.77667   -114.07505   0.68836672   -113.38668   -3206.7072    4.2847088    4.2847088    4.2847088   -3206.7072    29579.459   -24934.767   -14264.813   -4656.3274    6464.0841    8815.3942    78.661807 
   95400    614.53295   -113.94578   0.55604233   -113.38974   -6050.1463    4.2824169    4.2824169    4.2824169   -6050.1463    10062.207   -32228.836    4016.1903   -27999.421   -7445.4508    -1679.301    78.535647 
   95500    926.27247    -114.2252    0.8381108   -113.38708    -1991.713      4.27954      4.27954      4.27954    -1991.713     10414.93   -13017.798   -3372.2712   -5693.0863    6926.6603   -8012.7955    78.377474 
   95600    890.89441   -114.19358   0.80609998   -113.38748   -14041.663    4.2879069    4.2879069    4.2879069   -14041.663    4884.1937   -12607.188   -34401.995    5128.3232     16906.36    6983.8025    78.838082 
   95700    646.95891   -113.97592   0.58538202   -113.39053    4592.4215    4.2768093    4.2768093    4.2768093    4592.4215    29477.199   -11552.802   -4147.1322   -26004.525   -3674.9938    10299.611    78.227538 
   95800    750.78157   -114.07107   0.67932295   -113.39175    6632.5962    4.2811399    4.2811399    4.2811399    6632.5962    21293.309   -700.86822   -694.65188   -17655.569   -2529.4477   -6434.5969    78.465414 
   95900    992.79288   -114.28554   0.89829986   -113.38724   -7186.1477    4.2858756    4.2858756    4.2858756   -7186.1477    4807.8249    5115.8468   -31482.115    11621.774    21134.296   -3687.3657    78.726089 
   96000    748.41669   -114.06697   0.67718315   -113.38979    2292.7053    4.2751196    4.2751196    4.2751196    2292.7053    1536.3613     8964.763   -3623.0084   -13136.793    12640.863    12366.848    78.134856 
   96100    706.17504   -114.03226   0.63896201    -113.3933   -8388.5736    4.2849391    4.2849391    4.2849391   -8388.5736   -3315.1473   -19625.172   -2225.4014   -32112.109   -10319.574   -503.75613    78.674496 
   96200    902.33644   -114.20525   0.81645297    -113.3888    5747.7254    4.2822301    4.2822301    4.2822301    5747.7254    22078.554    10029.719   -14865.096   -1671.9703    6267.5771   -2579.3619    78.525374 
   96300    816.46242    -114.1284   0.73875236   -113.38964    4358.8514    4.2792475    4.2792475    4.2792475    4358.8514     17194.99    15516.958   -19635.394    4858.9926    19508.434    5392.9119    78.361405 
   96400    736.21357   -114.05663   0.66614151   -113.39049   -18066.866    4.2871606    4.2871606    4.2871606   -18066.866   -15816.946   -24498.514   -13885.139   -32989.482   -1463.1257    9747.1663    78.796922 
   96500     967.8854   -114.26422   0.87576305   -113.38845     3132.121     4.276827     4.276827     4.276827     3132.121    3404.7355    6230.5794   -238.95181   -15121.391   -4762.7555   -2896.2626    78.228508 
   96600    1006.4624   -114.29874   0.91066831   -113.38807    1910.7254    4.2814039    4.2814039    4.2814039    1910.7254    14103.089    20457.602   -28828.515    7390.2841    21846.628   -5424.4838    78.479928 
   96700    646.32939   -113.97637   0.58481242   -113.39155   -5158.3703    4.2863694    4.2863694    4.2863694   -5158.3703    16335.484   -12546.363   -19264.232    -25340.22    11893.857    9756.2086    78.753306 
   96800    872.74629   -114.18019   0.78967918   -113.39051    4073.2478    4.2759327    4.2759327    4.2759327    4073.2478   -411.93617    683.11671    11948.563   -28831.387   -11308.824    753.15524    78.179442 
   96900    1148.9979   -114.42835    1.0396374   -113.38871   -3187.1468    4.2822215    4.2822215    4.2822215   -3187.1468     -6174.83    17497.721   -20884.331    8084.5249     9048.569   -4853.1868    78.524898 
   97000     859.2016   -114.16919   0.77742366   -113.39177   -2637.0873    4.2845457    4.2845457    4.2845457   -2637.0873    1973.5946    9866.0352   -19750.892   -4853.3217    20563.501   -586.30047    78.652825 
   97100    726.37912   -114.05037   0.65724309   -113.39312    6702.9576    4.2797425    4.2797425    4.2797425    6702.9576    12290.285    -5087.182     12905.77   -36201.964    1081.6297    3639.2697    78.388604 
   97200    1156.1184   -114.43194    1.0460802   -113.38586   -2451.8308    4.2854475    4.2854475    4.2854475   -2451.8308    6970.1117   -7672.6176   -6652.9866   -5584.3268     196.2277   -2872.2773      78.7025 
   97300    1106.2163   -114.38778    1.0009278   -113.38686   -1931.5146    4.2812508    4.2812508    4.2812508   -1931.5146   -7277.1072    14307.266   -12824.702    2713.8543    15973.758   -4066.0991    78.471509 
   97400    780.39131   -114.09876   0.70611445   -113.39265    254.39503    4.2787264    4.2787264    4.2787264    254.39503   -6256.4388   -8682.5223    15702.146    -37748.53     8565.956    2107.1312    78.332784 
   97500    1022.3807   -114.31668   0.92507154   -113.39161    1564.8069    4.2860241    4.2860241    4.2860241    1564.8069    16569.905   -21019.461    9143.9763   -16250.236   -7537.3074   -1384.3951    78.734275 
   97600    1257.1586   -114.52403    1.1375035   -113.38652    15553.209    4.2778794    4.2778794    4.2778794    15553.209    29372.656    20786.018   -3499.0464    14837.727    6620.7081    -417.5336    78.286272 
   97700    912.14129   -114.21918   0.82532461   -113.39385   -11588.414    4.2821572    4.2821572    4.2821572   -11588.414   -24556.306   -14029.266    3820.3309   -29148.533    16266.067    4587.5928    78.521363 
   97800    935.41678   -114.24034   0.84638476   -113.39395   -10614.361    4.2841107    4.2841107    4.2841107   -10614.361   -14394.898   -32707.643    15259.459   -37151.481   -32.820753   -519.02277    78.628876 
   97900    1349.8247   -114.60738    1.2213498   -113.38603    15843.074    4.2777978    4.2777978    4.2777978    15843.074    46112.737    -1034.221    2450.7045    14748.691    1776.7736   -7204.0987     78.28179 
   98000    1037.0302   -114.32953   0.93832668   -113.39121   -6652.0059    4.2867687    4.2867687    4.2867687   -6652.0059    7204.6848   -21240.964   -5919.7389   -10397.899    10115.232   -3411.4928    78.775313 
   98100    869.61615   -114.18079   0.78684697   -113.39394    -11857.91    4.2810443    4.2810443    4.2810443    -11857.91   -22595.262   -28010.154    15031.686    -46457.98    4737.5045    4321.2184    78.460154 
   98200    1334.5403   -114.59584    1.2075201   -113.38832    8922.3183    4.2775554    4.2775554    4.2775554    8922.3183    22814.131   -4825.4124    8778.2361    7361.5203   -2304.4912    600.36638    78.268485 
   98300    1148.8061   -114.42875    1.0394639   -113.38929   -1675.5145     4.288301     4.288301     4.288301   -1675.5145    25168.911   -22809.712   -7385.7417    9200.7484    -282.2188    -2041.609    78.859819 
   98400    774.97139   -114.09641    0.7012104    -113.3952   -177.83911    4.2777098    4.2777098    4.2777098   -177.83911    1297.1782   -16088.017    14257.321   -46981.228     9144.501   -906.99294    78.276959 
   98500    1162.3771   -114.44338    1.0517433   -113.39164    1540.9018    4.2794244    4.2794244    4.2794244    1540.9018   -3256.8528    1735.3841     6144.174   -11248.349    2945.8412    -3726.668    78.371123 
   98600    1370.0478   -114.62577    1.2396481   -113.38613   -2672.0683    4.2877156    4.2877156    4.2877156   -2672.0683    4342.7173   -5711.6363   -6647.2861    23136.327   -1168.3737    878.82058    78.827528 
   98700    663.73649   -113.99569   0.60056273   -113.39512    6920.4211    4.2782049    4.2782049    4.2782049    6920.4211    4954.3604    1623.8237    14183.079   -29750.937    8021.4024    358.48809    78.304143 
   98800    785.65416   -114.10506   0.71087639   -113.39418    1994.9182    4.2817153    4.2817153    4.2817153    1994.9182    7657.2788   -3221.5348    1549.0105   -35716.329    6657.6019   -652.37628    78.497056 
   98900    1345.3491    -114.6016    1.2173001    -113.3843    2542.8639    4.2850294    4.2850294    4.2850294    2542.8639    5804.3287    16754.003    -14929.74    14201.558   -510.60887    3214.8672    78.679469 
   99000    843.73969   -114.15647    0.7634334   -113.39304    582.58337    4.2788177    4.2788177    4.2788177    582.58337   -19302.607    9711.3354    11339.022   -14858.496   -1614.6941    544.32152    78.337794 
   99100    447.39595   -113.80254   0.40481326   -113.39773   -10403.719    4.2834456    4.2834456    4.2834456   -10403.719   -18205.972   -16905.406    3900.2215    -40448.01    8862.2773    1448.5358    78.592258 
   99200    1061.4459   -114.34868   0.96041857   -113.38827     5921.327    4.2811396    4.2811396    4.2811396     5921.327    14501.673    22402.616   -19140.308    6058.7047    4667.2953   -3033.5162    78.465398 
   99300    931.87955    -114.2328    0.8431842   -113.38962   -3739.8216    4.2830679    4.2830679    4.2830679   -3739.8216   -3179.4167    1459.4194   -9499.4677   -10513.162   -6066.4355    174.88665    78.571472 
   99400    430.85355     -113.787   0.38984535   -113.39716   -17723.351    4.2812393    4.2812393    4.2812393   -17723.351   -42712.419   -20925.312    10467.677   -45460.518    5874.3896    3584.3102    78.470877 
   99500    757.20273   -114.07734   0.68513294   -113.39221    3154.5417    4.2756288    4.2756288    4.2756288    3154.5417   -13067.611    29590.991   -7059.7548   -1952.3313    10777.374   -1487.9889    78.162778 
   99600    862.81099   -114.16873   0.78068952   -113.38804   -9869.1259    4.2906713    4.2906713    4.2906713   -9869.1259   -12343.506    16939.179   -34203.051    5077.0499   -5770.8624     2926.994    78.990661 
   99700       520.98   -113.86358   0.47139365   -113.39218   -6773.3475    4.2807593    4.2807593    4.2807593   -6773.3475   -14426.677   -6982.1589    1088.7932   -35737.222   -6040.4088   -352.36643    78.444488 
   99800    609.26141   -113.94054   0.55127253   -113.38927    7623.6932     4.272648     4.272648     4.272648    7623.6932   -3495.0893     15736.66    10629.509   -13626.042    10421.729      1646.06    77.999416 
   99900    819.19988   -114.12853   0.74122927    -113.3873   -18416.239    4.2905539    4.2905539    4.2905539   -18416.239   -33605.388    14294.653   -35937.982    13887.283   -253.81917   -475.39623    78.984175 
  100000    699.20799   -114.02138   0.63265808   -113.38872   -2211.9385    4.2793418    4.2793418    4.2793418   -2211.9385   -13621.363    13773.218    -6787.671   -22641.861    -13093.09    552.75464    78.366586 
Loop time of 22.6076 on 1 procs for 100000 steps with 8 atoms

Pair  time (%) = 7.39882 (32.7272)
Kspce time (%) = 5.37051 (23.7554)
Neigh time (%) = 0 (0)
Comm  time (%) = 1.07909 (4.77314)
Outpt time (%) = 0.0248477 (0.109909)
Other time (%) = 8.73429 (38.6344)

Nlocal:    8 ave 8 max 8 min
Histogram: 1 0 0 0 0 0 0 0 0 0
Nghost:    2189 ave 2189 max 2189 min
Histogram: 1 0 0 0 0 0 0 0 0 0
Neighs:    2344 ave 2344 max 2344 min
Histogram: 1 0 0 0 0 0 0 0 0 0

Total # of neighbors = 2344
Ave neighs/atom = 293
Neighbor list builds = 0
Dangerous builds = 0
unfix 20
unfix 21
print "seeds:2937064"
seeds:2937064
