LAMMPS (10 Feb 2015)
Reading data file ...
  triclinic box = (0 0 0) to (4.2565 4.2565 4.2565) with tilt (0 0 0)
  1 by 1 by 1 MPI processor grid
  reading atoms ...
  8 atoms
4 atoms in group Mg
4 atoms in group O
Setting atom values ...
  4 settings made for charge
Setting atom values ...
  4 settings made for charge
PPPM initialization ...
  G vector (1/distance) = 0.352851
  grid = 8 8 8
  stencil order = 5
  estimated absolute RMS force accuracy = 3.9608e-05
  estimated relative force accuracy = 2.75062e-06
  using double precision FFTs
  3d grid and FFT values/proc = 3375 512
Neighbor list info ...
  1 neighbor list requests
  update every 1 steps, delay 0 steps, check yes
  master list distance cutoff = 11
Setting up minimization ...
Memory usage per processor = 4.06549 Mbytes
Step PotEng Lx Ly Lz Xy Xz Yz Press Pxx Pyy Pzz Pxy Pxz Pyz eatoms 
       0   -110.92329       4.2565       4.2565       4.2565            0            0            0    120138.29    120138.29    120138.29    120138.29 1.5343687e-10 -1.0407196e-10 -1.3145771e-10   -110.92329 
      10   -111.05478     4.299065     4.299065     4.299065            0            0            0    61836.089    61836.089    61836.089    61836.089 1.0666232e-10 -5.0344756e-11 -1.3613158e-10   -111.05478 
      20   -111.10767      4.34163      4.34163      4.34163            0            0            0    10591.608    10591.608    10591.608    10591.608 -1.2465538e-10 -9.1160209e-12 2.8254225e-10   -111.10767 
      25   -111.10952     4.351169     4.351169     4.351169            0            0            0   -6.6622077   -6.6622077   -6.6622077   -6.6622077 -1.5540302e-10 -3.5403029e-11 3.0098099e-10   -111.10952 
Loop time of 0.0144081 on 1 procs for 25 steps with 8 atoms

Minimization stats:
  Stopping criterion = linesearch alpha is zero
  Energy initial, next-to-last, final = 
        -110.923293971     -111.109518965     -111.109518965
  Force two-norm initial, final = 17.348 0.0010058
  Force max component initial, final = 17.348 0.0010053
  Final line search alpha, max atom move = 0.00777135 7.8125e-06
  Iterations, force evaluations = 25 41

Pair  time (%) = 0.00380397 (26.4016)
Kspce time (%) = 0.0022769 (15.8029)
Neigh time (%) = 0 (0)
Comm  time (%) = 0.000470161 (3.26317)
Outpt time (%) = 2.28882e-05 (0.158856)
Other time (%) = 0.0078342 (54.3735)

Nlocal:    8 ave 8 max 8 min
Histogram: 1 0 0 0 0 0 0 0 0 0
Nghost:    2189 ave 2189 max 2189 min
Histogram: 1 0 0 0 0 0 0 0 0 0
Neighs:    2344 ave 2344 max 2344 min
Histogram: 1 0 0 0 0 0 0 0 0 0

Total # of neighbors = 2344
Ave neighs/atom = 293
Neighbor list builds = 0
Dangerous builds = 0
pypospack:output_section:begin
tot_energy = -111.109518965105
num_atoms = 8
xx = 4.35116899821938
yy = 4.35116899821938
zz = 4.35116899821938
xy = 0
xz = 0
yz = 0
tot_press = -6.66220766530753
pxx = -6.66220766529406
pyy = -6.66220766581444
pzz = -6.6622076648141
pxy = -1.55403020158447e-10
pxz = -3.54030294322521e-11
pyz = 3.00980987063428e-10
pypospack:output_section:done
pypospack:lammps_sim:done
PPPM initialization ...
  G vector (1/distance) = 0.351894
  grid = 8 8 8
  stencil order = 5
  estimated absolute RMS force accuracy = 4.14019e-05
  estimated relative force accuracy = 2.8752e-06
  using double precision FFTs
  3d grid and FFT values/proc = 3375 512
Setting up run ...
Memory usage per processor = 3.06549 Mbytes
Step Temp PotEng KinEng TotEng Press Lx Ly Lz Press Pxx Pyy Pzz Pxy Pxz Pyz Volume 
       0         1200   -111.10953    1.0857852   -110.02375    14069.291     4.351169     4.351169     4.351169    14069.291     11592.89    5845.0277    24769.955   -1098.5601   -4347.5983    7144.8858    82.379254 
     100    421.08881    -110.2705   0.38101001   -109.88949    16280.985    4.3872645    4.3872645    4.3872645    16280.985    1481.3395   -18701.101    66062.716   -4406.7609   -4392.6312   -1759.7305    84.446458 
     200    622.39029   -110.15059   0.56315181   -109.58744    -29737.73    4.4268699    4.4268699    4.4268699    -29737.73   -69401.215   -54024.653    34212.679    -5013.652   -5587.7036   -1349.5174    86.754151 
     300    1383.1478   -110.58725    1.2515012   -109.33574   -4260.7842    4.3953816    4.3953816    4.3953816   -4260.7842   -13111.237   -28770.729    29099.614   -1448.1348    3514.7305   -3519.7469    84.916045 
     400    1109.8363   -110.13501    1.0042032   -109.13081    5923.7057    4.3836688    4.3836688    4.3836688    5923.7057   -13570.152   -12278.397    43619.666    -8823.586   -9375.3114   -14627.949    84.238999 
     500    738.77391   -109.67942   0.66845816   -109.01096      12356.1    4.4213834    4.4213834    4.4213834      12356.1    1251.7177   -35101.799     70918.38   -1280.1431   -21136.723   -6508.3924    86.431993 
     600    1231.7955   -110.04475    1.1145545    -108.9302   -23418.399     4.437011     4.437011     4.437011   -23418.399   -65655.625   -52127.075    47527.503   -9237.3254    2651.3413   -9534.9791    87.351734 
     700    1347.5121    -110.1083    1.2192573   -108.88905   -8846.0337     4.409935     4.409935     4.409935   -8846.0337    1882.4521   -15027.327   -13393.227   -8463.7438   -18103.966   -7933.1006    85.762326 
     800    1020.0918    -109.8264   0.92300049    -108.9034    30832.185    4.4026094    4.4026094    4.4026094    30832.185   -8432.4586   -30866.099    131795.11    546.40324   -179.62917     3630.372    85.335646 
     900    1005.5569   -109.83826   0.90984903   -108.92841     9435.293    4.4329083    4.4329083    4.4329083     9435.293    18766.313   -62351.603    71891.169   -2310.5415   -1417.2492    5662.2991    87.109642 
    1000    1476.1302    -110.2351    1.3356336   -108.89946   -28325.213    4.4380446    4.4380446    4.4380446   -28325.213   -20876.468   -54802.144   -9297.0275    8376.2756   -6245.4853    112.53709    87.412791 
    1100    907.34444   -109.71604   0.82098431   -108.89505    3916.1475    4.4032021    4.4032021    4.4032021    3916.1475    13836.554   -418.60609   -1669.5052   -2047.4272    19217.816   -387.76734    85.370112 
    1200    1568.4958   -110.32597     1.419208   -108.90676    10275.363    4.3938056    4.3938056    4.3938056    10275.363    7673.3228   -8450.7817    31603.548    5334.8918   -13902.571    11143.602    84.824736 
    1300    1023.2626   -109.85424   0.92586954   -108.92837    8850.1367    4.4269492    4.4269492    4.4269492    8850.1367   -19021.195   -15087.943    60659.548    1791.5038   -11086.598    13091.606    86.758814 
    1400     1116.748   -109.92387    1.0104571   -108.91341   -7209.4977    4.4240291    4.4240291    4.4240291   -7209.4977    -24434.66   -26860.788    29666.955   -5103.6839    14377.877    10871.517    86.587247 
    1500    988.70139   -109.78917    0.8945978   -108.89458     31074.94     4.409232     4.409232     4.409232     31074.94    47886.756    22004.612    23333.453    959.38241    -9954.723    4814.5817     85.72132 
    1600    1629.7046   -110.37565     1.474591   -108.90106   -10915.633    4.4127329    4.4127329    4.4127329   -10915.633    -21579.09   -2357.4461   -8810.3621    392.69383    9819.2216    905.64714    85.925671 
    1700     1058.856   -109.87703   0.95807518   -108.91896   -3425.0456     4.423419     4.423419     4.423419   -3425.0456   -12790.622   -17953.025     20468.51    9592.6072    22259.519   -20859.998    86.551429 
    1800    991.61411    -109.8075   0.89723329   -108.91027    11010.012    4.4253605    4.4253605    4.4253605    11010.012   -38927.316   -36992.956    108950.31   -256.34153   -965.98441   -12076.857    86.665445 
    1900    972.36509   -109.78318   0.87981637   -108.90336    7410.4548    4.4137569    4.4137569    4.4137569    7410.4548    13379.948    -8856.323    17707.739    12091.765    3767.9847   -13829.122      85.9855 
    2000    1360.2285   -110.13208    1.2307633   -108.90131   -24918.166    4.4179309    4.4179309    4.4179309   -24918.166   -30285.489   -16640.952   -27828.057    8783.9922    8947.2073   -9497.6908    86.229679 
    2100    1547.6895   -110.29126     1.400382   -108.89088    3119.6298    4.4191438    4.4191438    4.4191438    3119.6298    13111.101   -9858.4128    6106.2009   -6849.7173    -5532.963   -591.48431    86.300719 
    2200    900.53674   -109.71642   0.81482456    -108.9016    6210.9774    4.4144409    4.4144409    4.4144409    6210.9774    -35515.13    14.343544    54133.719    16123.432    14086.288      5735.63    86.025481 
    2300    903.77586   -109.72463   0.81775539   -108.90687    26151.001    4.4170615    4.4170615    4.4170615    26151.001    21315.724   -6616.3694    63753.649   -8340.7401     20859.41    11958.978    86.178782 
    2400    1294.7268   -110.07507     1.171496   -108.90358   -977.68804    4.4206986    4.4206986    4.4206986   -977.68804     4533.519   -40553.663    33087.079    8255.6379     1066.132    16413.218     86.39184 
    2500    1088.1352   -109.88462   0.98456764   -108.90006   -10995.677    4.4202684    4.4202684    4.4202684   -10995.677    8365.4698   -3865.3444   -37487.157    2032.4079    12149.891    3728.7581    86.366621 
    2600    1219.2169   -109.99979    1.1031731   -108.89662    21040.326    4.4131885    4.4131885    4.4131885    21040.326    13436.042   -36109.605     85794.54   -14174.705   -17288.504    2739.2163    85.952284 
    2700    1218.0011   -110.00723     1.102073   -108.90515   -15702.212     4.406184     4.406184     4.406184   -15702.212   -18886.249   -24462.471   -3757.9157    10953.456     4553.239   -4005.4468     85.54367 
    2800    1249.5599   -110.04162    1.1306281   -108.91099    11093.732     4.411363     4.411363     4.411363    11093.732    1396.3922   -23624.834    55509.638   -7800.5224    16426.383   -5142.5916    85.845669 
    2900      1330.48   -110.10895    1.2038463    -108.9051    -31270.11    4.4326324    4.4326324    4.4326324    -31270.11   -13035.542   -62555.492   -18219.296    5324.8072   -5636.9457   -3725.8936    87.093381 
    3000    1033.5137    -109.8287   0.93514492   -108.89355   -17592.528    4.4147339    4.4147339    4.4147339   -17592.528    11237.994   -48241.341   -15774.236    7493.0063    16135.375   -3498.4153    86.042611 
    3100    1414.0521   -110.15714     1.279464   -108.87767    24178.389    4.3938283    4.3938283    4.3938283    24178.389    33075.636   -2649.4171    42108.947     4520.017    11292.249   -395.62505    84.826048 
    3200    1066.2727   -109.87706   0.96478592   -108.91227    -30692.57    4.4234942    4.4234942    4.4234942    -30692.57   -8818.4212   -38385.484   -44873.804    16689.946    2857.8205    -5903.387    86.555843 
    3300    1275.5606   -110.05105     1.154154   -108.89689   -18623.969    4.4242789    4.4242789    4.4242789   -18623.969   -23787.526   -32039.357   -45.024493   -9389.8118    6020.7629    8081.2072    86.601916 
    3400    1321.9734   -110.07953    1.1961493   -108.88338    13535.648    4.3974442    4.3974442    4.3974442    13535.648    49954.059   -16117.884    6770.7708    9862.1647    8979.4243   -1971.8688    85.035647 
    3500    800.98783   -109.63226   0.72475062   -108.90751   -3440.8458    4.4099316    4.4099316    4.4099316   -3440.8458    15823.524   -13983.748   -12162.314    9607.2349    2067.2281   -13177.035    85.762131 
    3600    1416.1851   -110.17078     1.281394   -108.88939   -14468.062    4.4259893    4.4259893    4.4259893   -14468.062   -12644.871   -2124.4407   -28634.874   -10689.012    4746.0791    13800.248    86.702392 
    3700    1014.7792   -109.79733   0.91819355   -108.87914    19984.029    4.4136242    4.4136242    4.4136242    19984.029    65147.428   -28100.347    22905.006    11348.846    14148.718   -16430.271    85.977744 
    3800    1414.0273   -110.16676    1.2794416   -108.88732   -10990.132     4.411851     4.411851     4.411851   -10990.132   -28090.834   -8767.3732    3887.8109    2062.9035    12222.479    10325.969    85.874159 
    3900     1070.008   -109.86236   0.96816572    -108.8942    34749.181    4.4071093    4.4071093    4.4071093    34749.181    75490.115    37170.334   -8412.9054   -756.74068    8944.7927    3642.0725    85.597578 
    4000    1059.6148    -109.8711   0.95876177   -108.91234   -16979.662    4.4186724    4.4186724    4.4186724   -16979.662   -9327.5663   -34728.899   -6882.5224    21155.751    1061.9881   -13762.012    86.273102 
    4100    1531.5375   -110.29017    1.3857673    -108.9044   -21623.488    4.4218886    4.4218886    4.4218886   -21623.488   -14935.696   -35399.734   -14535.034   -11861.352    2676.3126    951.94709    86.461627 
    4200    893.90414   -109.71465   0.80882325   -108.90582    37676.405    4.3951615    4.3951615    4.3951615    37676.405    52328.559    28702.587     31998.07    12172.916   -13620.771    3842.4737    84.903287 
    4300    1181.1851   -109.99597    1.0687611   -108.92721   -4070.0006      4.40051      4.40051      4.40051   -4070.0006   -13654.084   -1633.9251    3078.0072     4953.205    21647.031   -10315.721    85.213623 
    4400    1483.1751   -110.25998     1.342008   -108.91797    -16084.32    4.4208864    4.4208864    4.4208864    -16084.32    3343.7749    -25807.61   -25789.125   -2287.7242    4705.7265    2750.2688    86.402849 
    4500    1215.3526   -110.01004    1.0996766   -108.91036    16326.932    4.4040342    4.4040342    4.4040342    16326.932    37877.545    24359.149   -13255.896    11438.761    3989.9919   -7740.8065     85.41852 
    4600    1320.8635   -110.11453    1.1951451   -108.91938   -17887.513    4.4152503    4.4152503    4.4152503   -17887.513   -36054.673   -5693.8065   -11914.059   -3626.3217     27691.45   -3938.9414    86.072814 
    4700    1265.9972   -110.05097    1.1455008   -108.90547    11251.304    4.4066707    4.4066707    4.4066707    11251.304    47345.082    7627.6704   -21218.841    6704.3714    6482.9101    5019.8679     85.57202 
    4800    833.19504   -109.67242   0.75389239   -108.91853    22585.907    4.3993756    4.3993756    4.3993756    22585.907    30160.119    28223.973    9373.6303    3138.2877    4830.3042   -5473.3371    85.147742 
    4900    1463.1587   -110.24516    1.3238967   -108.92126   -29332.499    4.4243858    4.4243858    4.4243858   -29332.499     -29822.7   -34393.672   -23781.124    4520.8473   -2704.9405    8714.4915    86.608193 
    5000     1035.904   -109.84625   0.93730771   -108.90894   -2715.8169    4.4166253    4.4166253    4.4166253   -2715.8169    15094.881    5637.7099   -28880.041    2004.2847    302.32984   -7293.6684    86.153249 
    5100    1038.0154   -109.83706   0.93921811   -108.89784    12235.612    4.4050378    4.4050378    4.4050378    12235.612   -23657.372    36001.016    24363.192    2842.0767    11656.508   -507.91657    85.476929 
    5200    1386.3951   -110.15339    1.2544394   -108.89895   -3990.0847    4.4066913    4.4066913    4.4066913   -3990.0847    45096.582   -46118.231   -10948.606    692.52932   -12063.516    1794.6717    85.573223 
    5300    1200.9554   -109.98563    1.0866497   -108.89898    10270.895    4.4046805    4.4046805    4.4046805    10270.895    26424.813   -12623.287    17011.158    1512.5907   -3216.9712   -16517.237    85.456133 
    5400    931.67591   -109.74825   0.84299994   -108.90525   -6015.4423    4.4293913    4.4293913    4.4293913   -6015.4423    36284.717   -33549.525   -20781.519   -3432.6822    2693.5431    18180.998    86.902476 
    5500    1044.7589   -109.82778   0.94531977   -108.88246   -13875.916    4.4244719    4.4244719    4.4244719   -13875.916    14631.158   -42104.831   -14154.077   -3620.5472   -11983.802   -3050.6644    86.613248 
    5600    1624.0648   -110.33152     1.469488   -108.86203   -1741.7572    4.3848888    4.3848888    4.3848888   -1741.7572   -16511.814    2098.0532    9188.4894    5241.2615    16617.952    -676.8653    84.309352 
    5700    1134.0504   -109.93019    1.0261126   -108.90408   -14473.563    4.4095812    4.4095812    4.4095812   -14473.563    42276.267   -41337.768   -44359.187    -2735.899    950.26488    16152.408    85.741689 
    5800    1288.2214   -110.05939    1.1656098   -108.89378   -36137.092    4.4314277    4.4314277    4.4314277   -36137.092   -53982.623   -38188.831   -16239.823   -7690.7093    635.34915   -3617.7576     87.02239 
    5900    1223.5411   -109.99912    1.1070857   -108.89203      12610.5    4.3877811    4.3877811    4.3877811      12610.5     15016.56     6193.537    16621.402   -2513.6393     1394.371    12864.623    84.476295 
    6000     1212.469   -110.00317    1.0970674   -108.90611    27167.551    4.3887578    4.3887578    4.3887578    27167.551    35541.443   -7017.9965    52979.206   -461.76175    1011.5411    -4937.603    84.532721 
    6100     1174.433    -109.9598    1.0626517   -108.89715   -20831.765    4.4341603    4.4341603    4.4341603   -20831.765   -43005.614   -15497.319   -3992.3618    583.35434   -12784.288   -14594.144    87.183473 
    6200    939.76537   -109.73849   0.85031946   -108.88817   -1914.0928    4.4134322    4.4134322    4.4134322   -1914.0928   -145.21477    29161.214   -34758.278   -10532.712   -7985.5037   -7385.1948    85.966529 
    6300    925.74271   -109.71679   0.83763145   -108.87916    42599.327    4.3852961    4.3852961    4.3852961    42599.327    27714.733    85411.672    14671.577   -6009.0098    3306.7711    -19963.14    84.332846 
    6400    1444.8406   -110.21794    1.3073221   -108.91062   -17449.311    4.4130155    4.4130155    4.4130155   -17449.311   -30375.037    11390.456   -33363.353    7588.2476    -15387.64   -2932.6278     85.94218 
    6500    1083.4947   -109.88302   0.98036878   -108.90265   -20166.017    4.4222845    4.4222845    4.4222845   -20166.017   -7627.3153   -35384.131   -17486.606   -15530.055    5249.0254    4140.8768    86.484851 
    6600    1142.7326   -109.91852    1.0339685   -108.88455     8405.854      4.39479      4.39479      4.39479     8405.854    16810.384    7695.4837    711.69432   -13898.122   -17582.009   -8411.7294    84.881763 
    6700    1222.0003   -110.00299    1.1056915    -108.8973    -3316.621    4.3991962    4.3991962    4.3991962    -3316.621    15280.987   -10962.428   -14268.421    6666.7569   -7270.0756    16551.641    85.137327 
    6800    1022.7045   -109.82723   0.92536452   -108.90186   -4970.4941    4.4155213    4.4155213    4.4155213   -4970.4941    -6317.974   -8092.7811   -500.72718   -19578.159   -1625.3967    13463.998    86.088663 
    6900    1116.6066   -109.90906    1.0103291   -108.89873   -2621.5363    4.4092427    4.4092427    4.4092427   -2621.5363   -2653.1969    15872.393   -21083.805   -12140.967   -4064.2619   -4992.2944    85.721945 
    7000      1375.22   -110.14059     1.244328   -108.89627   -14667.353    4.4037727    4.4037727    4.4037727   -14667.353    -1359.781   -16600.891   -26041.387    13203.865   -3480.4963    15075.123    85.403309 
    7100    993.70587   -109.80179   0.89912595   -108.90266   -13312.196    4.4028104    4.4028104    4.4028104   -13312.196   -19774.881   -4404.6629   -15757.045   -22414.796    743.41696   -1880.4507    85.347334 
    7200    1470.8797   -110.23443    1.3308828   -108.90355   -5390.8332    4.3983329    4.3983329    4.3983329   -5390.8332   -8321.2467   -2916.1525   -4935.1002    5465.5152    6480.2606   -1144.7726    85.087212 
    7300    1151.6052   -109.95863    1.0419966   -108.91663    -21784.17    4.4157294    4.4157294    4.4157294    -21784.17    9516.6455   -47000.573   -27868.582    7186.1013   -6294.8409    3647.0849    86.100831 
    7400    1213.1741   -110.00937    1.0977054   -108.91167    8316.6666    4.3944738    4.3944738    4.3944738    8316.6666   -4050.1798   -1314.7028    30314.882    2328.1373     2316.469    2057.9744     84.86344 
    7500    1287.0149   -110.08485    1.1645181   -108.92033   -4500.4906    4.4005747    4.4005747    4.4005747   -4500.4906    -7317.313    2162.4538   -8346.6124    6876.6871    -1613.112    11647.556    85.217384 
    7600    925.71574   -109.75042   0.83760706   -108.91281   -12647.983    4.4159328    4.4159328    4.4159328   -12647.983   -17828.823   -969.84922   -19145.275    18683.093    2882.1639    432.39162    86.112734 
    7700    1328.1215   -110.09339    1.2017122   -108.89168     30915.18    4.3913953    4.3913953    4.3913953     30915.18    26481.905    36385.754     29877.88   -3886.3282   -15125.052   -2255.8452    84.685217 
    7800    1019.8449   -109.83369   0.92277711   -108.91091   -16495.111     4.414812     4.414812     4.414812   -16495.111   -15569.436   -36086.257    2170.3601    21389.393    1819.4946     587.2016    86.047178 
    7900    1044.9537   -109.84118    0.9454961   -108.89568    4956.1381    4.4092428    4.4092428    4.4092428    4956.1381   -13088.692    16396.933    11560.174    3704.2556   -8022.3287   -14532.218     85.72195 
    8000    873.93112   -109.67964   0.79075125   -108.88889    47990.726    4.3921025    4.3921025    4.3921025    47990.726    75939.252    25914.754    42118.171    111.33259   -10958.347   -12330.795    84.726137 
    8100    1360.3951   -110.12921     1.230914   -108.89829   -26730.174    4.4155843    4.4155843    4.4155843   -26730.174   -39085.941   -32562.735   -8541.8467    11204.581    -9209.361    4646.1287    86.092345 
    8200    984.15436   -109.78464   0.89048355   -108.89415    35286.447    4.3972126    4.3972126    4.3972126    35286.447    59720.334    42890.134     3248.872   -7527.5367   -11864.253   -5022.9215    85.022208 
    8300    1442.5019   -110.21599     1.305206   -108.91078   -8515.5416    4.3992491    4.3992491    4.3992491   -8515.5416   -5245.4834   -7960.2821   -12340.859    11962.413    6074.2473   -3057.6701    85.140393 
    8400    1181.2355   -109.98205    1.0688067   -108.91324   -2773.8848    4.4086511    4.4086511    4.4086511   -2773.8848   -7624.3054    10854.882   -11552.231    14281.439   -9693.1008    8315.8873    85.687447 
    8500      1355.85   -110.12997    1.2268016   -108.90317    1985.0453    4.4014306    4.4014306    4.4014306    1985.0453    16928.548    12613.465   -23586.877   -15724.169     6491.036   -2976.8748    85.267115 
    8600    1497.8806   -110.26369    1.3553138   -108.90838   -21154.323    4.4148734    4.4148734    4.4148734   -21154.323   -4386.1139   -48565.983   -10510.872     9165.516   -3166.5823    3210.9346     86.05077 
    8700    1304.4547   -110.08176     1.180298   -108.90146   -25380.384    4.4090404    4.4090404    4.4090404   -25380.384   -23656.409   -257.03422   -52227.708    6752.4601   -23321.935    5259.0923    85.710144 
    8800    1407.0952   -110.16495    1.2731693   -108.89179    7937.0944    4.3912546    4.3912546    4.3912546    7937.0944    41147.307   -7310.8611   -10025.163   -6466.8285     7556.159    4170.5173    84.677074 
    8900    1345.4438   -110.12219    1.2173858    -108.9048   -36026.998    4.4184581    4.4184581    4.4184581   -36026.998   -37302.904   -2370.0142   -68408.074   -2509.9525    -31587.37    6578.3755    86.260551 
    9000    1269.5957   -110.04578    1.1487569   -108.89702   -5700.1712     4.414116     4.414116     4.414116   -5700.1712    25070.938   -4844.4412    -37327.01   -2513.0277   -16814.301    2105.7334     86.00649 
    9100    1484.7486   -110.23267    1.3434317   -108.88923   -1853.5019    4.3987724    4.3987724    4.3987724   -1853.5019    2371.0455   -9372.6955    1441.1442   -1746.0883    12120.452    6456.7209    85.112721 
    9200    1170.8109   -109.96189    1.0593743   -108.90252    9886.4826      4.40037      4.40037      4.40037    9886.4826    38351.936    20194.316   -28886.805    5653.0872   -21650.733    712.06481    85.205489 
    9300    1266.5146   -110.05209     1.145969   -108.90613   -11299.761    4.4128996    4.4128996    4.4128996   -11299.761   -549.18535   -14449.372   -18900.725   -7345.0605    11693.107   -5645.1895    85.935408 
    9400    1331.6721   -110.10288    1.2049249   -108.89795   -16268.744    4.4038346    4.4038346    4.4038346   -16268.744   -11141.087   -13639.643   -24025.501   -9771.0592   -6240.0929    -3728.285    85.406907 
    9500     998.3252   -109.80296   0.90330562   -108.89966    31554.693    4.3911849    4.3911849    4.3911849    31554.693    81703.617     18943.54   -5983.0773    17381.576   -13670.616    4746.9906    84.673047 
    9600    1323.3691   -110.10986    1.1974122   -108.91244   -19606.901    4.4135365    4.4135365    4.4135365   -19606.901    3351.0739   -45790.004   -16381.772   -19828.574    10803.868    -1683.853    85.972621 
    9700    1154.4675   -109.95502    1.0445865   -108.91043   -14893.062    4.4053578    4.4053578    4.4053578   -14893.062   -3423.1226   -11304.578   -29951.487   -1284.3143   -28051.393    3033.6679    85.495562 
    9800    1180.4137   -109.96573    1.0680631   -108.89767    31609.442     4.384881     4.384881     4.384881    31609.442    56100.814    41690.419   -2962.9062    5203.2796    3291.4201   -467.53719    84.308904 
    9900    1320.5967   -110.10389    1.1949037   -108.90899    -19723.13    4.4017678    4.4017678    4.4017678    -19723.13   -26024.218   -29876.849   -3268.3223    -22821.17   -1306.3666   -6334.0033    85.286716 
   10000    1047.4364   -109.86722   0.94774249   -108.91948    3713.6949    4.4044301    4.4044301    4.4044301    3713.6949    7143.1167    40969.213   -36971.245   -3555.7197   -27089.202    2689.4446    85.441559 
   10100    1355.0257   -110.13472    1.2260557   -108.90867    21434.348    4.3994786    4.3994786    4.3994786    21434.348    25250.932    11850.849    27201.263   -6710.8551    7688.6178   -13199.719    85.153721 
   10200    996.27325    -109.8174   0.90144897   -108.91595    19687.483    4.3872351    4.3872351    4.3872351    19687.483    6200.0678    34906.459    17955.922   -23758.375   -23668.991   -7768.9004    84.444764 
   10300    1156.1997   -109.96485    1.0461538    -108.9187     17960.46    4.4128291    4.4128291    4.4128291     17960.46    19314.306     30498.94    4068.1327    15830.013   -7780.4058    3136.9939    85.931288 
   10400    1455.0299   -110.21955    1.3165416   -108.90301   -22919.688    4.4119138    4.4119138    4.4119138   -22919.688    -23347.71   -33537.048   -11874.307   -6892.1263   -6156.5918   -7458.2571    85.877826 
   10500     866.4625    -109.6747   0.78399348   -108.89071    39868.344    4.3680505    4.3680505    4.3680505    39868.344    45400.094    40164.823    34040.116   -17202.238   -26598.908   -1862.1589    83.341814 
   10600    1679.5945   -110.43825    1.5197324   -108.91851   -2048.3736    4.3981453    4.3981453    4.3981453   -2048.3736   -2966.3544    7167.3284   -10346.095    15715.309    6306.5332   -1225.1545    85.076327 
   10700    1005.4761   -109.82157   0.90977587   -108.91179   -17962.877    4.4164841    4.4164841    4.4164841   -17962.877   -6319.0743    -24356.57   -23212.986   -9102.6123   -20063.097    1801.3487    86.144989 
   10800     1046.229   -109.85072   0.94664999   -108.90407    12332.692    4.3904094    4.3904094    4.3904094    12332.692    15871.861    7269.7721    13856.444   -22246.739   -16456.415    559.21766    84.628189 
   10900    1763.1434   -110.50041    1.5953292   -108.90508    8353.6677    4.3815927    4.3815927    4.3815927    8353.6677    27841.863     422.0536   -3202.9132    22992.598    5166.3728    3507.7691    84.119371 
   11000    601.05893   -109.47861   0.54385075   -108.93476    10870.388    4.3998006    4.3998006    4.3998006    10870.388   -3808.5493    26347.516    10072.199    -22031.56   -30512.032   -10640.208    85.172418 
   11100    1519.5458   -110.28472     1.374917   -108.90981   -6628.0998    4.4125021    4.4125021    4.4125021   -6628.0998   -16662.076     24981.97   -28204.193    1320.6982    3766.5733   -3971.5341    85.912185 
   11200    1315.8723   -110.08827    1.1906289   -108.89764    32588.582    4.3835782    4.3835782    4.3835782    32588.582    59457.838    19094.675    19213.234    14049.834   -16688.118    3056.9774    84.233774 
   11300    791.82685   -109.63402   0.71646158   -108.91756    7488.7988    4.3884917    4.3884917    4.3884917    7488.7988   -25384.678    25467.913    22383.161   -23421.027   -17727.961   -142.62114    84.517343 
   11400    1724.7247   -110.46623    1.5605671   -108.90566   -11214.118    4.4045468    4.4045468    4.4045468   -11214.118    6841.2367   -32151.862   -8331.7296    10145.401    3993.6203    4359.9776    85.448349 
   11500    800.16788   -109.63412   0.72400871   -108.91011    15633.976    4.3919544    4.3919544    4.3919544    15633.976   -8473.1516    4045.2535    51329.826   -15287.481   -31389.161   -3743.7431    84.717566 
   11600    1098.8671   -109.90696   0.99427808   -108.91268   -12706.074    4.4033175    4.4033175    4.4033175   -12706.074   -22701.185   -3853.8817   -11563.156   -4239.5262   -822.28567    10937.554    85.376828 
   11700    1732.0185   -110.46114    1.5671668   -108.89397    11677.897    4.3934681    4.3934681    4.3934681    11677.897    24987.313    19202.639     -9156.26   -196.69528   -688.78934    8916.8146    84.805189 
   11800    823.43387   -109.65703   0.74506027   -108.91197    4515.4637    4.3906838    4.3906838    4.3906838    4515.4637    -41739.87   -575.38835    55861.649   -24886.061   -18184.819    499.45981    84.644059 
   11900    1334.7666   -110.10993    1.2077249   -108.90221   -1352.3022    4.4051309    4.4051309    4.4051309   -1352.3022   -6267.0963    23340.724   -21130.534    3409.9048    19859.429    6135.7017    85.482349 
   12000    1383.1628   -110.15186    1.2515148   -108.90034   -6993.7781     4.392935     4.392935     4.392935   -6993.7781   -10936.473    -15011.94    4967.0794   -11968.087   -22451.276    2023.2665    84.774322 
   12100    782.33906   -109.62539   0.70787683   -108.91751    8438.9048    4.3948348    4.3948348    4.3948348    8438.9048   -25699.089    21668.928    29346.876   -26506.332   -3805.1918   -1800.7764    84.884358 
   12200    1768.4745   -110.50036    1.6001529   -108.90021   -1350.9103    4.4000594    4.4000594    4.4000594   -1350.9103    23629.149   -7422.8746   -20259.005    5213.7247      13560.3   -1917.0028    85.187451 
   12300    901.18077   -109.72423    0.8154073   -108.90883   -4922.7736    4.3960338    4.3960338    4.3960338   -4922.7736    -49732.56    4920.9367    30043.302    -17959.27   -33551.679   -11454.479     84.95385 
   12400    1118.3213   -109.91523    1.0118806   -108.90335   -9589.7278    4.4025708    4.4025708    4.4025708   -9589.7278   -42100.075   -10268.454    23599.346   -20426.664    12542.035   -491.74451    85.333401 
   12500    1342.5951   -110.11102    1.2148083   -108.89621    22127.544    4.3884543    4.3884543    4.3884543    22127.544    25081.958    52309.805    -11009.13    7211.4823    3921.4604    2220.8567    84.515183 
   12600    836.69341    -109.6714   0.75705778   -108.91434   -7563.2597     4.392013     4.392013     4.392013   -7563.2597   -46372.501   -10682.955    34365.677   -30684.651   -31748.307   -11535.587    84.720957 
   12700    1580.0852   -110.33471    1.4296943   -108.90502   -5293.5607    4.4051254    4.4051254    4.4051254   -5293.5607   -24085.294    5747.4331     2457.179    496.71234    6620.6611    5640.9619    85.482028 
   12800    1269.0487   -110.05053    1.1482619   -108.90227    4572.6962    4.3916542    4.3916542    4.3916542    4572.6962   -6774.1732    7517.2278    12975.034    771.08405       -12902    3747.3536    84.700193 
   12900    802.60882   -109.64061   0.72621733   -108.91439   -8681.9782    4.3941209    4.3941209    4.3941209   -8681.9782   -34464.869    -17927.25    26346.185   -30261.311   -19726.682   -8039.4858    84.842995 
   13000    1738.8117   -110.47763    1.5733133   -108.90431   -2855.1943    4.4016507    4.4016507    4.4016507   -2855.1943    -11002.81    30030.063   -27592.837    11746.048    4635.6923    13962.462    85.279909 
   13100    804.31249   -109.63886   0.72775885   -108.91111   -2858.6033    4.4018477    4.4018477    4.4018477   -2858.6033    -32323.64    5447.2269    18300.604   -30434.246   -25234.847   -2644.8733    85.291358 
   13200    1377.5548   -110.14366    1.2464405   -108.89722    5203.9202    4.3989985    4.3989985    4.3989985    5203.9202   -29425.504    26803.832    18233.432   -615.85443    2158.2197   -8860.5661    85.125847 
   13300    1366.8889   -110.13278    1.2367898   -108.89599   -9120.7914    4.3987766    4.3987766    4.3987766   -9120.7914   -34963.079    5619.8291    1980.8762   -11544.274   -6387.2172    13361.701    85.112965 
   13400    714.88089   -109.56187   0.64683925   -108.91503   -5818.9056    4.3973344    4.3973344    4.3973344   -5818.9056   -54840.203   -707.73811    38091.225   -34468.411    -24461.87   -15024.928    85.029276 
   13500    1642.5975   -110.38597    1.4862568   -108.89971    18918.847    4.3858915    4.3858915    4.3858915    18918.847    23198.377    25565.588    7992.5772    6057.1996    14162.405   -1739.1727    84.367203 
   13600    668.42667   -109.53009    0.6048065   -108.92528    713.77653    4.3923571    4.3923571    4.3923571    713.77653   -27907.439    20516.168    9532.6007   -19174.629   -23788.802    5327.6073    84.740872 
   13700    1210.9993   -110.01902    1.0957377   -108.92328    -8048.563    4.3992194    4.3992194    4.3992194    -8048.563   -25303.721   -11230.532    12388.564   -19987.049   -13318.706   -8617.4627    85.138669 
   13800    1432.9191   -110.20919    1.2965353   -108.91266    6618.8592    4.3981768    4.3981768    4.3981768    6618.8592   -23597.039    28836.699    14616.918     6412.105    2864.8734    2277.6463    85.078153 
   13900    856.85044   -109.69002   0.77529628   -108.91472   -16355.959    4.3924203    4.3924203    4.3924203   -16355.959   -46793.513   -4898.5569    2624.1923   -38547.821   -20187.534   -2037.7926    84.744527 
   14000    1457.2067   -110.22611    1.3185112    -108.9076    10413.858    4.3882608    4.3882608    4.3882608    10413.858   -12446.626    16555.265    27132.935    10170.481    1649.0364    3476.1217    84.504007 
   14100    1131.2262    -109.9404    1.0235573   -108.91684   -22808.221    4.4015795    4.4015795    4.4015795   -22808.221   -56269.233    6582.3905   -18737.821   -14072.355   -15894.408    2759.5048    85.275769 
   14200    980.62081   -109.79895   0.88728631   -108.91166   -18925.143    4.4037829    4.4037829    4.4037829   -18925.143   -55014.168   -1808.7373    47.477225   -19240.546   -14332.516    4883.6756    85.403902 
   14300    1900.0397   -110.60727    1.7191959   -108.88808    1048.9075    4.3896449    4.3896449    4.3896449    1048.9075    14311.545   -11455.074    290.25124    14065.759     -910.598    770.39502    84.583988 
   14400    980.44283   -109.79193   0.88712527   -108.90481   -21364.517    4.3970985    4.3970985    4.3970985   -21364.517   -61587.204    -9974.585    7468.2384   -32630.969   -11250.245    580.78313    85.015589 
   14500    1226.0324   -110.00774    1.1093398    -108.8984   -2352.9667    4.4072689    4.4072689    4.4072689   -2352.9667   -12107.971   -6992.9547    12042.025    14596.949   -9993.2381   -4855.0416    85.606877 
   14600    1241.7521   -110.01683    1.1235634   -108.89327   -14428.682    4.4037413    4.4037413    4.4037413   -14428.682   -38000.001    -16302.71    11016.666   -21386.783    1362.0397    2210.4324    85.401477 
   14700    1069.2485   -109.86527   0.96747853   -108.89779    2077.1461     4.389962     4.389962     4.389962    2077.1461   -19260.031    1081.7248    24409.744    -22120.28   -28993.692   -3673.5544    84.602321 
   14800    1531.3041   -110.28364    1.3855562   -108.89809    15153.057    4.3950973    4.3950973    4.3950973    15153.057    -787.0195    25424.487    20821.702    6138.2711    5171.9255   -9217.0019    84.899568 
   14900    851.00794   -109.68213   0.77000986   -108.91212   -15802.903     4.404925     4.404925     4.404925   -15802.903   -50866.133   -40970.426     44427.85   -35573.776   -3217.5584   -3504.6484    85.470362 
   15000    1200.8094   -109.99321    1.0865176   -108.90669    10574.826    4.3872604    4.3872604    4.3872604    10574.826    237.14861    35749.461   -4262.1312   -7925.8318   -23195.723   -7819.2569    84.446222 
   15100    1364.7966   -110.14349    1.2348967   -108.90859    12813.512     4.391764     4.391764     4.391764    12813.512    4970.0181    18757.919    14712.598   -6218.7521    15359.854   -12256.937    84.706547 
   15200     1115.368   -109.92386    1.0092084   -108.91466   -12011.564    4.4036842    4.4036842    4.4036842   -12011.564     -28718.5   -26995.811     19679.62   -27712.429   -12734.941    52.524809    85.398158 
   15300    1388.9202   -110.15923    1.2567242    -108.9025    7138.1201    4.3976112    4.3976112    4.3976112    7138.1201    13803.779    15800.984   -8190.4026    10051.812    544.27533   -4697.5223    85.045335 
   15400    1223.9973   -110.01016    1.1074984   -108.90267   -12290.109    4.3937516    4.3937516    4.3937516   -12290.109   -34589.227   -10194.049    7912.9498   -25402.775    6444.1673   -1431.9792    84.821608 
   15500    1014.9852   -109.82858   0.91837993    -108.9102    666.81269    4.3919708    4.3919708    4.3919708    666.81269   -17416.929   -11127.034    30544.401   -13205.353   -16274.162    4242.8787    84.718513 
   15600    1345.2075    -110.1305     1.217172   -108.91333    1951.7028    4.3983071    4.3983071    4.3983071    1951.7028    21637.548    12914.227   -28696.666   -1026.4184     10128.59   -2826.4354    85.085716 
   15700    1072.3099   -109.88831    0.9702485   -108.91806    12801.756     4.399353     4.399353     4.399353    12801.756    30604.699   -15780.417    23580.986   -19062.814   -2602.1821    2471.7879     85.14643 
   15800    1491.1294   -110.26354    1.3492052   -108.91434    -14149.91    4.3959232    4.3959232    4.3959232    -14149.91   -20489.602   -18333.962   -3626.1669    6578.2003   -10090.479    7429.7112    84.947437 
   15900    850.70544   -109.68541   0.76973616   -108.91567    31600.146    4.3826821    4.3826821    4.3826821    31600.146     42243.08    34476.678    18080.681   -12629.792    13568.883    -680.2182    84.182128 
   16000    1264.3338   -110.06714    1.1439957   -108.92315   -4098.4375    4.3992946    4.3992946    4.3992946   -4098.4375   -593.33441    -16252.89    4550.9117   -14535.294    1926.7603    4815.9312    85.143035 
   16100     1527.645   -110.29441    1.3822453   -108.91217   -688.52496     4.401338     4.401338     4.401338   -688.52496    31530.519   -26008.943   -7587.1515     10409.35    199.79365    2445.0067    85.261734 
   16200    725.89024   -109.57963   0.65680074   -108.92283    30071.473    4.3841253    4.3841253    4.3841253    30071.473    55894.597    5813.2895    28506.532   -16258.218    10886.968   -4111.4982    84.265322 
   16300    1532.6128   -110.30583    1.3867403   -108.91909   -6504.1497    4.3949404    4.3949404    4.3949404   -6504.1497   -30564.437    3533.0779    7518.9102    -9602.352    16048.656    10517.076    84.890478 
   16400    1067.0161    -109.8831   0.96545861   -108.91764    4087.8735    4.4021762    4.4021762    4.4021762    4087.8735    11098.192   -16293.161    17458.589    5703.1817   -6773.1345   -13312.562    85.310459 
   16500    1029.0317   -109.85235   0.93108953   -108.92126   -24339.719    4.3940946    4.3940946    4.3940946   -24339.719   -16591.371   -40433.231   -15994.554   -23749.325    24314.881    3230.2031    84.841475 
   16600    1704.1306   -110.45179    1.5419332   -108.90986    17834.343     4.390976     4.390976     4.390976    17834.343    34304.884     5009.931    14188.216    2684.0515   -14426.751    210.79157    84.660961 
   16700     950.6912    -109.7819   0.86020537   -108.92169   -7757.7305    4.4059186    4.4059186    4.4059186   -7757.7305    7345.8173   -39834.115    9215.1062   -8585.6169     2116.887   -10274.254    85.528214 
   16800    1147.1696   -109.95231    1.0379832   -108.91433   -24143.923    4.4039221    4.4039221    4.4039221   -24143.923   -14695.291   -43688.959    -14047.52   -28039.612     10729.81    1424.2763    85.412001 
   16900    1322.7605   -110.10115    1.1968615   -108.90429     26499.15    4.3853251    4.3853251    4.3853251     26499.15    60877.351   -7314.3392    25934.439    6939.8191   -24607.214   -7300.7344    84.334519 
   17000    1100.3738   -109.92204   0.99564137    -108.9264   -9938.6351    4.3919991    4.3919991    4.3919991   -9938.6351     636.2592   -46121.015    15668.851   -33118.939    23984.555   -1178.8416    84.720151 
   17100    1448.2457   -110.23836    1.3104031   -108.92796    -6205.759    4.4095377    4.4095377    4.4095377    -6205.759   -5505.5728   -38919.999    25808.295    3789.2969    10552.913     179.0799     85.73915 
   17200    1091.0329   -109.90511   0.98718948   -108.91792    3405.8672    4.3977741    4.3977741    4.3977741    3405.8672    48218.403   -27426.419   -10574.382   -5812.5067    -3010.124   -11014.886    85.054784 
   17300    965.36288   -109.78316   0.87348062   -108.90967   -12648.766    4.3959008    4.3959008    4.3959008   -12648.766   -24898.378   -35460.184    22412.266   -17579.643    20928.712    2935.5917    84.946141 
   17400    1332.9465   -110.10477     1.206078   -108.89869   -2487.6994    4.3956045    4.3956045    4.3956045   -2487.6994    19412.438   -12514.026    -14361.51    7171.1801   -3637.2566    -6319.681    84.928963 
   17500    1156.6844   -109.94905    1.0465924   -108.90245    2363.5153    4.3910195    4.3910195    4.3910195    2363.5153    11197.861   -28227.348    24120.033   -16778.953   -1664.3558   -13638.462    84.663476 
   17600    1435.5202   -110.20341    1.2988889   -108.90452   -22503.836    4.4096414    4.4096414    4.4096414   -22503.836   -7956.7492   -40002.604   -19552.154   -14424.266    15814.018    7271.8898      85.7452 
   17700    920.10924   -109.74227   0.83253417   -108.90974     12363.05    4.3934551    4.3934551    4.3934551     12363.05    77490.641   -26457.745   -13943.747    6108.6702   -6209.9188   -24005.894    84.804439 
   17800    1085.4166   -109.89991   0.98210776   -108.91781    22136.537    4.3769605    4.3769605    4.3769605    22136.537    17331.037   -1242.5825    50321.157   -29429.226    5289.9561    4866.5701    83.852861 
   17900    1464.2669    -110.2514    1.3248995    -108.9265   -13516.304    4.4103439    4.4103439    4.4103439   -13516.304    12762.408   -37700.276   -15611.044    8270.0391    17327.446   -1972.0497    85.786189 
   18000     1254.363    -110.0507     1.134974   -108.91572    435.62444    4.3983291    4.3983291    4.3983291    435.62444    6995.5697    -38813.47    33124.773   -12057.726   -10602.647   -16489.139    85.086993 
   18100    930.20087    -109.7429   0.84166529   -108.90123    26219.426    4.3808015    4.3808015    4.3808015    26219.426    55644.985    10764.198    12249.095   -23827.799    10898.983    22051.559     84.07381 
   18200    1330.8504   -110.10972    1.2041815   -108.90553   -20277.006    4.4031804    4.4031804    4.4031804   -20277.006   -28663.014    -10615.64   -21552.365    17417.412    -5854.262   -12118.889    85.368852 
   18300    1172.9874   -109.96514    1.0613437    -108.9038     6611.851    4.3977334    4.3977334    4.3977334     6611.851    9043.6578    82.855183     10709.04    -34049.95   -9554.3962    2149.5608    85.052424 
   18400    1200.1872   -109.98828    1.0859546   -108.90233    10198.754    4.4020178    4.4020178    4.4020178    10198.754    4552.4318    18335.284     7708.545    7681.6213    7510.6443    6795.7289    85.301246 
   18500    1218.3831   -109.99984    1.1024186   -108.89742   -6325.6834    4.3961783    4.3961783    4.3961783   -6325.6834   -21534.353    20437.876   -17880.574   -1170.0195   -3934.8099   -11756.002     84.96223 
   18600    759.82639   -109.59442   0.68750688   -108.90691    39787.621    4.3899911    4.3899911    4.3899911    39787.621      40652.2    21339.647    57371.017    -32345.87   -356.09391    22.990604    84.604004 
   18700    1744.2741   -110.48088    1.5782559   -108.90263   -36311.344    4.4124881    4.4124881    4.4124881   -36311.344   -35744.808    -30859.39   -42329.836    16316.085    5249.8367   -8457.0148    85.911368 
   18800    893.95278   -109.71945   0.80886726   -108.91059    18376.727    4.3903073    4.3903073    4.3903073    18376.727    38554.418   -22453.445    39029.207   -30794.267   -5835.2424   -3405.3418    84.622285 
   18900    1735.7444   -110.48374     1.570538    -108.9132   -3400.7966    4.3880923    4.3880923    4.3880923   -3400.7966   -12924.486    4078.8142   -1356.7183    -4728.602    341.60692   -12402.673    84.494269 
   19000     1091.113   -109.90382   0.98726195   -108.91655   -6240.5447    4.4012309    4.4012309    4.4012309   -6240.5447   -3633.2966   -11546.495   -3541.8427    12103.281    -8070.195    -2216.082    85.255513 
   19100    776.49495     -109.622   0.70258895   -108.91941    10423.711    4.3944308    4.3944308    4.3944308    10423.711   -9759.4461    40028.221    1002.3579   -35190.557    2449.6779   -11628.333    84.860952 
   19200    1781.9923   -110.51566    1.6123841   -108.90327    7182.8079    4.4014101    4.4014101    4.4014101    7182.8079    2595.6913    20469.615   -1516.8826     13850.94   -1952.3484   -2507.3315    85.265924 
   19300     985.8801   -109.80468   0.89204503   -108.91263    21649.998    4.3869306    4.3869306    4.3869306    21649.998     9425.306    44429.301    11095.387   -31962.303   -4326.2169    878.40046    84.427179 
   19400     1230.231   -110.03027    1.1131389   -108.91714    3714.7875    4.3959835    4.3959835    4.3959835    3714.7875   -16752.478    9595.0373    18301.803   -15907.419   -1848.3988   -6084.9207    84.950937 
   19500     1600.777   -110.34743    1.4484167   -108.89902   -3773.7574    4.4056113    4.4056113    4.4056113   -3773.7574    13708.089   -3597.1169   -21432.244    585.36482     6235.453    11681.571     85.51032 
   19600    540.58181   -109.39853   0.48912978    -108.9094    24501.168    4.3913608    4.3913608    4.3913608    24501.168   -7599.5453    64827.476    16275.574   -36447.681   -10171.991    -2007.476    84.683219 
   19700     1704.052   -110.44535    1.5418621   -108.90349    -10047.39    4.3934418    4.3934418    4.3934418    -10047.39   -9896.2243   -7440.8845    -12805.06    13310.975  -0.57211514    12392.309    84.803667 
   19800    1195.2487   -109.98753    1.0814861   -108.90605    15446.049    4.3885169    4.3885169    4.3885169    15446.049   -18198.466    36446.573    28090.039   -20607.698     2646.765    12254.751    84.518798 
   19900    1034.7898   -109.85189   0.93629953   -108.91559    3397.2852     4.406154     4.406154     4.406154    3397.2852   -36464.558    23556.713    23099.701   -15455.076   -9098.3764    -7931.227    85.541922 
   20000    1591.7331   -110.33458    1.4402336   -108.89434   -25330.109    4.4084906    4.4084906    4.4084906   -25330.109   -31099.859   -31109.308   -13781.162      11574.2   -5537.9395    10726.984    85.678084 
   20100    768.37161   -109.58769   0.69523878   -108.89245    40742.387    4.3736835    4.3736835    4.3736835    40742.387   -6615.1596    55392.721    73449.599   -39216.382    4435.4081    5256.5733    83.664663 
   20200    1607.2103   -110.36539    1.4542376   -108.91115    1315.1615    4.3936246    4.3936246    4.3936246    1315.1615   -4382.4823    932.67606    7395.2906    13889.161    593.64177   -10549.502    84.814254 
   20300    985.32529   -109.79798   0.89154303   -108.90644   -2866.5498    4.4091965    4.4091965    4.4091965   -2866.5498   -18469.073    17842.971   -7973.5475   -12083.238    1549.6355    3445.7333    85.719249 
   20400    1257.3494   -110.03823    1.1376761   -108.90055   -4228.8568     4.396661     4.396661     4.396661   -4228.8568   -16658.645   -21287.784    25259.858   -22793.065    7766.4365    10244.625    84.990217 
   20500    1534.0501   -110.28434    1.3880407    -108.8963    19015.028    4.3880171    4.3880171    4.3880171    19015.028    41169.832    39219.192   -23343.941     7171.586   -6878.2692    -7549.673    84.489927 
   20600    923.35992   -109.75917   0.83547546   -108.92369    7023.3412    4.3981511    4.3981511    4.3981511    7023.3412    39298.662   -31733.493    13504.854   -26781.081    2.7343406    16193.653    85.076661 
   20700    1543.5872   -110.30915    1.3966701   -108.91248   -22672.428     4.412578     4.412578     4.412578   -22672.428   -28636.177   -25363.648    -14017.46    978.40389     5018.243   -9975.2327    85.916622 
   20800    1233.8192   -110.01301    1.1163855   -108.89662    34914.776     4.386429     4.386429     4.386429    34914.776    85145.645    22651.964   -3053.2803   -20328.162     2127.193    -599.6492    84.398222 
   20900    1063.0197   -109.87419    0.9618426   -108.91235   -8465.0709    4.3967416    4.3967416    4.3967416   -8465.0709   -5391.9027   -18847.656   -1155.6537   -22621.785    1232.9499    8915.8967    84.994891 
   21000    1754.3841   -110.48021    1.5874036   -108.89281   -6707.3363    4.4041878    4.4041878    4.4041878   -6707.3363    12449.205   -12114.857   -20456.357    17041.525   -1748.3065   -10199.703    85.427456 
   21100    811.25086   -109.63174   0.73403682   -108.89771     22601.12    4.3878343    4.3878343    4.3878343     22601.12    57887.271    17429.002   -7512.9138   -35247.101   -7894.8311    10398.105    84.479365 
   21200    1572.8385   -110.32872    1.4231373   -108.90558     -34067.8    4.4013713    4.4013713    4.4013713     -34067.8   -39725.646   -32080.892   -30396.862   -1338.5924    -746.4048   -3865.0915    85.263669 
   21300    1244.4225   -110.03065    1.1259796   -108.90467    30219.224    4.3929079    4.3929079    4.3929079    30219.224    54651.876     37491.61   -1485.8147   -14616.124    8913.1447    941.03988    84.772755 
   21400    854.16394    -109.7018   0.77286549   -108.92893   -10360.791    4.3966794    4.3966794    4.3966794   -10360.791    11610.171   -33827.863   -8864.6815   -26625.953    1561.2551    16483.021    84.991288 
   21500    1622.0476   -110.37756    1.4676628    -108.9099    6897.5286    4.3981079    4.3981079    4.3981079    6897.5286    3041.8457    28932.196   -11281.456    3203.9988    916.84674    1330.1739    85.074157 
   21600    1070.7022   -109.88728   0.96879384   -108.91848   -6695.4876    4.3989709    4.3989709    4.3989709   -6695.4876    22865.528   -39423.182    -3528.808   -16213.188   -2795.2129    4345.4309    85.124243 
   21700    825.25528    -109.6629   0.74670832   -108.91619   -26490.914    4.4061984    4.4061984    4.4061984   -26490.914   -26017.807   -26962.858   -26492.077   -16641.719    7111.1482    22162.737    85.544512 
   21800     1419.571   -110.17984    1.2844577   -108.89538    31535.769    4.3791314    4.3791314    4.3791314    31535.769    45665.207    9264.0978    39678.003    13411.394   -6431.0868   -6595.2666    83.977691 
   21900    957.82416   -109.78843   0.86665943   -108.92177   -17192.981    4.3984718    4.3984718    4.3984718   -17192.981   -7337.4956   -30412.551   -13828.896   -35498.303   -1340.2286    18011.736    85.095271 
   22000    1200.5463   -109.99189    1.0862795   -108.90561   -23298.094    4.4110247    4.4110247    4.4110247   -23298.094    -20085.03   -34745.214   -15064.039    6750.5138    9266.5068    16945.151    85.825918 
   22100    1158.1009   -109.94817     1.047874   -108.90029    2294.1794     4.384836     4.384836     4.384836    2294.1794    -32407.74     16229.04    23061.238   -17146.975    7403.7068   -4330.9746    84.306307 
   22200    1076.6577   -109.88711   0.97418253   -108.91293   -25822.852     4.387907     4.387907     4.387907   -25822.852   -21073.214   -37616.423   -18778.918   -25068.632   -5965.3566    29877.849    84.483567 
   22300    1284.4624   -110.07454    1.1622086   -108.91233   -647.00227     4.396918     4.396918     4.396918   -647.00227   -5342.8991    17919.683   -14517.791    8462.8497    5779.7124    7084.8721     85.00512 
   22400    1248.1223   -110.04001    1.1293273   -108.91068   -31183.172    4.4086799    4.4086799    4.4086799   -31183.172   -22605.744   -51163.155   -19780.618   -35138.647    8338.1827    3458.1318    85.689123 
   22500    1132.6264   -109.92983    1.0248241   -108.90501   -14740.072    4.3965343    4.3965343    4.3965343   -14740.072   -11272.456   -6287.0354   -26660.725    8240.8284   -7743.7831    22948.843    84.982871 
   22600     1226.155   -110.00917    1.1094508   -108.89971    33328.361    4.3683903    4.3683903    4.3683903    33328.361     22252.59    48113.996    29618.496   -898.38985    6729.1732   -8123.6087    83.361265 
   22700    1137.4924   -109.95688     1.029227   -108.92765   -12723.011    4.4038249    4.4038249    4.4038249   -12723.011   -3590.1476   -34074.596   -504.28829   -7092.6573   -3874.8217    10861.605    85.406342 
   22800    1292.5246   -110.07807    1.1695035   -108.90857   -8269.6806    4.4049466    4.4049466    4.4049466   -8269.6806   -24442.504    30862.477   -31229.015    3329.4671    6092.1812   -7801.0565     85.47162 
   22900    1092.5926   -109.89276   0.98860075   -108.90416    12611.034    4.3859397    4.3859397    4.3859397    12611.034    50521.449   -19123.147    6434.7991     9242.371    18.020303    2845.1448    84.369983 
   23000      1399.47   -110.17454    1.2662699   -108.90827    7526.7163    4.3893822    4.3893822    4.3893822    7526.7163    13552.469    6484.9313    2542.7488   -11343.952    7050.1406   -5540.1114    84.568805 
   23100    1040.3111    -109.8639   0.94129533    -108.9226     3111.906    4.3978964    4.3978964    4.3978964     3111.906    28566.477   -3997.0372   -15233.722    19774.303   -2934.8288   -1397.6587    85.061879 
   23200    1260.4146   -110.05703    1.1404496   -108.91658   -19534.658    4.4080202    4.4080202    4.4080202   -19534.658     5280.877    -35801.12   -28083.731    13644.058    2093.1529   -7071.9642     85.65066 
   23300    1434.2124   -110.20221    1.2977056    -108.9045    14848.455    4.3859304    4.3859304    4.3859304    14848.455    10681.485    2095.2148    31768.665   -10891.862   -6558.9265   -3352.5475    84.369449 
   23400    823.17996    -109.6692   0.74483052   -108.92437   -2221.1538    4.3983111    4.3983111    4.3983111   -2221.1538    1328.2508    4564.5527   -12556.265    25720.351    726.01409   -6097.9916    85.085946 
   23500     1563.319   -110.32329    1.4145239   -108.90876   -170.22201    4.4106948    4.4106948    4.4106948   -170.22201    15944.172   -29197.483    12742.645   -7526.4863   -2353.7068   -6557.4423    85.806663 
   23600    1077.0952   -109.88837   0.97457839   -108.91379    9076.6197    4.3926491    4.3926491    4.3926491    9076.6197    43495.093   -10681.814   -5583.4199    2235.3112    3060.6129    9950.5312    84.757775 
   23700    1049.6029   -109.86251   0.94970274   -108.91281    22362.251    4.3834677    4.3834677    4.3834677    22362.251    28981.081    16788.559    21317.112    17983.439    1987.3786   -10656.067    84.227405 
   23800    1510.9906   -110.28142     1.367176   -108.91424   -16113.039    4.4106178    4.4106178    4.4106178   -16113.039   -12532.616   -51564.774    15758.272   -23757.094    4766.2642    1010.5451    85.802171 
   23900     1110.437    -109.9123    1.0047467   -108.90755   -9727.0708    4.4045659    4.4045659    4.4045659   -9727.0708    24153.984    -23119.84   -30215.356    8916.7875    13543.816    1749.2044    85.449465 
   24000     1478.342   -110.23084    1.3376349    -108.8932    19120.125    4.3846133    4.3846133    4.3846133    19120.125    32999.321   -5243.1524    29604.206   -4863.5045    866.36936   -8654.9704    84.293463 
   24100    964.62432   -109.78401   0.87281236    -108.9112    13144.059    4.3974881    4.3974881    4.3974881    13144.059    45304.053   -29971.406     24099.53   -19739.353   -6460.5239    8750.5696    85.038191 
   24200    1105.1613   -109.91657   0.99997317    -108.9166   -21386.287    4.4045986    4.4045986    4.4045986   -21386.287   -13376.061   -10650.459   -40132.339    16451.397     8222.643    59.338088    85.451368 
   24300    1397.4761   -110.17502    1.2644658   -108.91056   -4922.2017    4.3921912    4.3921912    4.3921912   -4922.2017   -4798.8443   -48890.574    38922.813   -38364.407    3484.3758   -3859.8338    84.731267 
   24400    957.72874   -109.78133   0.86657309   -108.91476    2610.6791    4.4027879    4.4027879    4.4027879    2610.6791    27632.914    -29795.69    9994.8136   -9853.8477    -814.6876    9574.1378    85.346022 
   24500       1572.1   -110.32299    1.4224691   -108.90052   -16699.375    4.3908503    4.3908503    4.3908503   -16699.375   -16351.411   -13704.391   -20042.323   -4057.8274      3347.96    4918.3089    84.653691 
   24600    660.99458   -109.51226   0.59808179   -108.91418    12982.122    4.3910462    4.3910462    4.3910462    12982.122    32040.915   -30907.697    37813.147   -53346.497    3237.7411    -2631.774    84.665022 
   24700     1597.968   -110.34839     1.445875   -108.90252   -8732.0058    4.4090797    4.4090797    4.4090797   -8732.0058   -4906.0026    -12306.62   -8983.3948    10481.066    11108.383     9731.381     85.71244 
   24800    1136.8877   -109.93796    1.0286799   -108.90928   -11895.802    4.3944382    4.3944382    4.3944382   -11895.802    4676.2059   -40994.347    630.73496   -38357.954   -4554.9528   -4551.6386    84.861381 
   24900    1139.1392   -109.94309     1.030717   -108.91238      7210.32    4.3928727    4.3928727    4.3928727      7210.32    14295.668    -19390.16    26725.452    -16726.18   -1533.7799    3900.1428    84.770719 
   25000    1395.5772   -110.16652    1.2627476   -108.90378    1968.9287    4.3950448    4.3950448    4.3950448    1968.9287    4407.4026    4851.4223   -3352.0387   -6899.5379     1623.796     2924.486    84.896523 
   25100    791.98989   -109.63069   0.71660909   -108.91408   -13656.587     4.406745     4.406745     4.406745   -13656.587    13872.417   -48578.214   -6263.9629   -41458.044   -1235.2607   -5098.8531    85.576351 
   25200    1851.6268   -110.57303    1.6753909   -108.89764   -895.91414    4.3978847    4.3978847    4.3978847   -895.91414   -6213.6511    1905.0365    1620.8722    16071.609   -12330.808   -4699.8014    85.061205 
   25300    823.27126   -109.65567   0.74491314   -108.91075    20844.649    4.3829342    4.3829342    4.3829342    20844.649     46081.38    793.62647    15658.939   -40907.844    6412.7786    584.62234     84.19666 
   25400    1177.2517   -109.97949    1.0652021   -108.91429   -9668.1286    4.4032617    4.4032617    4.4032617   -9668.1286    18919.124   -27090.146   -20833.364   -10002.873   -4824.0427   -9159.7896    85.373579 
   25500     1360.506   -110.13893    1.2310144   -108.90791   -2345.4625    4.4029909    4.4029909    4.4029909   -2345.4625   -11305.706    19431.157   -15161.839    2168.8822   -6018.2543    50.592618    85.357831 
   25600    888.56403   -109.72606   0.80399141   -108.92206   -7287.2836    4.3998008    4.3998008    4.3998008   -7287.2836   -15556.646   -24535.174     18229.97   -48117.095   -1783.7316   -4299.9854    85.172428 
   25700    1805.9783   -110.53387    1.6340872   -108.89978    2264.3557    4.3966146    4.3966146    4.3966146    2264.3557    25288.639     12987.64   -31483.212    12458.238    6176.8928   -9175.6698    84.987527 
   25800    693.79321   -109.53644   0.62775868   -108.90869   -3500.8906    4.4028262    4.4028262    4.4028262   -3500.8906   -224.29614   -22552.874    12274.499   -39558.299    2159.7761    6008.2864     85.34825 
   25900    1439.8842   -110.19652    1.3028375   -108.89368   -19272.289    4.4050476    4.4050476    4.4050476   -19272.289   -30027.024   -16883.251   -10906.592   -15057.655   -3768.4306   -10207.956    85.477498 
   26000     1310.472   -110.07876    1.1857426   -108.89301    23797.654    4.3809929    4.3809929    4.3809929    23797.654    16417.705    41872.345    13102.912   -8454.5205    477.36688   -5310.9591    84.084832 
   26100    892.75398   -109.73686   0.80778256   -108.92907   -5777.8285    4.3987092    4.3987092    4.3987092   -5777.8285   -14478.864   -13974.881    11120.259   -34212.505    4124.8884    1723.8043    85.109054 
   26200    1962.9052   -110.67782    1.7760779   -108.90174   -16056.446    4.4087828    4.4087828    4.4087828   -16056.446   -4329.3048   -1048.2342   -42791.798    13640.642   -1260.4224   -16419.872    85.695125 
   26300     636.3877   -109.48072   0.57581696    -108.9049    33285.384    4.3794442    4.3794442    4.3794442    33285.384    12370.303    35212.734    52273.116   -45063.695   -343.83802   -661.97029     83.99569 
   26400    1266.4005   -110.06373    1.1458658   -108.91787   -8268.3418    4.3965887    4.3965887    4.3965887   -8268.3418    1903.6613   -16020.199   -10688.488   -1546.3477   -3511.0142   -9168.8661    84.986026 
   26500     1449.637   -110.21767    1.3116621   -108.90601    7437.2222     4.402223     4.402223     4.402223    7437.2222   -9212.2541    27462.654    4061.2668   -18085.224     16.47378   -410.37228    85.313178 
   26600    929.05118   -109.75461   0.84062504   -108.91398   -5417.3761    4.3998865    4.3998865    4.3998865   -5417.3761   -3766.4732   -16451.798    3966.1432   -34597.346   -3198.3838    2447.0674    85.177405 
   26700     1531.936   -110.28501    1.3861279   -108.89888    22080.812    4.3933297    4.3933297    4.3933297    22080.812    40646.206    1522.9761    24073.253    19889.134   -86.643906    235.40903    84.797178 
   26800     1045.627   -109.85586    0.9461053   -108.90975    12000.328    4.3864991    4.3864991    4.3864991    12000.328    11748.517    20245.956    4006.5098   -51064.208    -8352.904    6391.6778     84.40227 
   26900    1207.2763   -110.00483     1.092369   -108.91246     -541.227    4.4104123    4.4104123    4.4104123     -541.227   -12652.083    3610.6034    7417.7986    12836.828    411.41145   -1212.0907    85.790178 
   27000     1447.726   -110.20768    1.3099329   -108.89775   -5009.1525    4.4013638    4.4013638    4.4013638   -5009.1525    2753.4274   -16102.524    -1678.361   -12987.592    3586.1705    17507.175    85.263235 
   27100    951.53712   -109.75779   0.86097078   -108.89682     23623.86    4.3834683    4.3834683    4.3834683     23623.86    30651.556     24774.75    15445.275   -35822.973   -14637.616   -1604.7962     84.22744 
   27200    1546.4586   -110.29922    1.3992683   -108.89995    4501.6344    4.4019217    4.4019217    4.4019217    4501.6344    10870.721    17743.755   -15109.573    19869.917    645.23514    1928.2221    85.295664 
   27300    780.73281   -109.61051   0.70642346   -108.90409   -6741.8045    4.4134234    4.4134234    4.4134234   -6741.8045    2721.7489    -36475.34    13528.178   -56292.347   -6991.7354    9652.6319    85.966012 
   27400    1468.8344   -110.22104    1.3290322   -108.89201    15755.358    4.3941427    4.3941427    4.3941427    15755.358    9207.1355    33923.255    4135.6829    5321.5504     3481.408   -1347.0892    84.844259 
   27500    1142.2348   -109.93918     1.033518   -108.90567    5945.0965     4.384083     4.384083     4.384083    5945.0965   -636.79195    1660.2317     16811.85   -19988.081   -4123.9701   -6269.3135     84.26288 
   27600    1349.1166   -110.13961    1.2207091    -108.9189   -11820.049    4.4064478    4.4064478    4.4064478   -11820.049    -14209.32    -11887.26   -9363.5669   -26037.671    6335.9848    5567.9548    85.559039 
   27700    1322.3468   -110.10258    1.1964871    -108.9061   -13977.452    4.4103069    4.4103069    4.4103069   -13977.452   -13942.144   -17105.484   -10884.728    14085.901    14868.604     10640.72    85.784029 
   27800    1160.4153   -109.94932    1.0499682   -108.89935   -8416.5405    4.3831668    4.3831668    4.3831668   -8416.5405   -5918.5173   -25398.176    6067.0719   -40253.976   -407.22288   -8668.0658    84.210062 
   27900    1295.8061   -110.08019    1.1724726   -108.90771    26411.327    4.3947195    4.3947195    4.3947195    26411.327    57684.933    17025.715    4523.3324     2593.997    2926.9413    22730.828    84.877677 
   28000    1016.6613   -109.83558   0.91989648   -108.91568   -12853.945    4.4075589    4.4075589    4.4075589   -12853.945   -22094.072   -28219.174     11751.41   -38711.921    5058.6437   -8784.8407    85.623778 
   28100    1120.1674   -109.92356     1.013551   -108.91001    3180.1379    4.3989052    4.3989052    4.3989052    3180.1379   -3136.2988    22.982174     12653.73   -19105.871    7759.4258    5010.1156     85.12043 
   28200     996.2085   -109.80758   0.90139039   -108.90619    22684.393      4.39118      4.39118      4.39118    22684.393    6986.9246    45204.267    15861.987   -4579.1581    934.27041    13383.482    84.672763 
   28300     947.8673    -109.7736   0.85765025   -108.91595    -17246.94    4.3991792    4.3991792    4.3991792    -17246.94   -30301.643   -26236.768    4797.5917   -45584.831    2358.1314     5744.619    85.136336 
   28400    1695.0411   -110.43291    1.5337088   -108.89921   -1145.6711    4.4047122    4.4047122    4.4047122   -1145.6711   -4621.0906    14228.872   -13044.795    18765.079   -4614.2238   -171.09205    85.457976 
   28500    793.16098   -109.61585   0.71766872   -108.89818   -13768.773    4.4057773    4.4057773    4.4057773   -13768.773   -41124.722   -52809.643    52628.047     -38315.2    9156.2815    716.92237    85.519988 
   28600    1232.2601   -110.00706    1.1149748   -108.89209   -441.25531     4.396962     4.396962     4.396962   -441.25531   -11715.176    6719.2401    3672.1703   -4914.6668   -2910.6878   -13204.495    85.007677 
   28700    1422.9548   -110.18402    1.2875194    -108.8965    2005.7918    4.3913051    4.3913051    4.3913051    2005.7918    392.44708    12333.355   -6708.4264    -3714.916    3152.8874    12860.079    84.679995 
   28800    999.71265   -109.82559   0.90456102   -108.92103   -13042.989    4.3979767    4.3979767    4.3979767   -13042.989   -15226.222   -18471.527    -5431.219   -40455.958    -9118.799    -710.5351    85.066539 
   28900    1528.7208   -110.28972    1.3832187    -108.9065   -9280.7715    4.4131115    4.4131115    4.4131115   -9280.7715    17244.687   -5959.3973   -39127.604    14695.096   -7371.1459   -9961.4419    85.947787 
   29000    767.58619    -109.6018   0.69452812   -108.90727   -19367.976    4.4010971    4.4010971    4.4010971   -19367.976   -6340.5862   -58105.913    6342.5694    -46506.96    1839.8529    17295.841    85.247733 
   29100    1253.2237   -110.02592    1.1339432   -108.89198    20526.365    4.3743112    4.3743112    4.3743112    20526.365    42092.827    8244.6181     11241.65    -8389.714    2403.9996   -2106.4852     83.70069 
   29200    1401.3616   -110.18005    1.2679814   -108.91207   -14477.213     4.402762     4.402762     4.402762   -14477.213   -3730.9144   -18957.784   -20742.941   -7969.4844   -7637.8752    -3373.452     85.34452 
   29300    764.07336   -109.60964   0.69134963   -108.91829   -36303.898     4.413099     4.413099     4.413099   -36303.898   -25978.971   -76942.348   -5990.3757   -44262.957    7111.8132    14796.219    85.947057 
   29400    1681.4706   -110.41821      1.52143   -108.89678    22439.972    4.3897097    4.3897097    4.3897097    22439.972    67292.441   -513.02169    540.49567    13114.017   -395.60572   -5551.5655    84.587734 
   29500    799.37301   -109.63612    0.7232895   -108.91283   -16485.218    4.3981965    4.3981965    4.3981965   -16485.218   -29587.754   -34003.099    14135.201   -50204.976   -2044.0431    4094.4767    85.079295 
   29600    1104.3414   -109.90439   0.99923129   -108.90516    1451.4246    4.3954592    4.3954592    4.3954592    1451.4246    567.63899   -1424.2594    5210.8941   -11175.536   -425.97321   -2921.3765    84.920544 
   29700    1366.4129     -110.138    1.2363591   -108.90164   -16894.559    4.4202786    4.4202786    4.4202786   -16894.559   -16475.175   -10121.188   -24087.313   -2661.1444   -498.25172   -5823.2065    86.367219 
   29800    730.87887   -109.56043   0.66131456   -108.89912   -41496.293      4.41146      4.41146      4.41146   -41496.293   -64703.416   -50774.815   -9010.6481   -61282.089    2604.7385    5230.4225    85.851331 
   29900    1544.0986   -110.26352    1.3971329   -108.86638    51364.537     4.363769     4.363769     4.363769    51364.537    73280.662    46267.026    34545.922    19693.948   -4543.4768   -10262.325    83.096983 
   30000    1029.2329   -109.84774   0.93127159   -108.91647   -22603.508    4.3997728    4.3997728    4.3997728   -22603.508   -43583.355   -36215.264    11988.095   -46946.662   -1126.0819    1929.8231    85.170803 
   30100    1052.4241   -109.85515   0.95225544    -108.9029   -26680.593    4.4119396    4.4119396    4.4119396   -26680.593   -14810.324   -36628.909   -28602.545   -21116.466    4079.7279    20731.577    85.879337 
   30200    1416.3398   -110.16559     1.281534   -108.88405    25789.803     4.390777     4.390777     4.390777    25789.803    40786.179    40461.706   -3878.4761    677.43174   -1240.8577   -11343.266    84.649452 
   30300    849.41317   -109.67166   0.76856688   -108.90309   -25932.635    4.4021892    4.4021892    4.4021892   -25932.635   -62104.601    -42004.33    26311.025   -56484.662     3860.932    15064.711    85.311211 
   30400    1474.4708   -110.22743    1.3341321   -108.89329     14446.44    4.3954087    4.3954087    4.3954087     14446.44    29232.395    20964.356   -6857.4305    15209.624    2094.1507      13804.1    84.917614 
   30500    1120.9159   -109.92107    1.0142282   -108.90684   -11717.829     4.403694     4.403694     4.403694   -11717.829   -19058.029   -33133.993    17038.534   -43152.623   -2118.7123   -6490.9148    85.398725 
   30600    1087.0347   -109.89752   0.98357184   -108.91395   -4770.6668    4.3939251    4.3939251    4.3939251   -4770.6668   -9501.9726   -3404.8422   -1405.1857   -22740.615     5680.357    15769.562    84.831654 
   30700    1219.7212   -110.01663    1.1036294     -108.913    21362.386    4.3942845    4.3942845    4.3942845    21362.386     3862.443    54424.625    5800.0907   -2605.6539   -7397.8962   -8690.2619    84.852474 
   30800    1054.2648   -109.86964   0.95392093   -108.91572   -22201.301    4.4077366    4.4077366    4.4077366   -22201.301   -60559.574   -35202.402    29158.072   -46606.448    -5301.666     1517.122    85.634133 
   30900    1560.3766   -110.31127    1.4118615   -108.89941    2375.6192    4.3941225    4.3941225    4.3941225    2375.6192   -5353.9373   -9178.6037    21659.399    12598.325   -6318.1823    6785.0351    84.843091 
   31000    952.89384   -109.77445   0.86219837   -108.91225    -1893.833    4.3898686    4.3898686    4.3898686    -1893.833   -41572.465   -25872.832    61763.798   -28644.025   -6797.8857     2229.981    84.596923 
   31100    1385.7762   -110.17235    1.2538794   -108.91847   -18099.787    4.3868855    4.3868855    4.3868855   -18099.787   -32655.949     -12331.3   -9312.1109   -19107.125   -3007.1692   -7218.6853     84.42458 
   31200    907.15756   -109.74567   0.82081523   -108.92485     10169.07    4.3962202    4.3962202    4.3962202     10169.07   -14195.579    23595.725    21107.063    5455.7107    5288.8345     13085.42    84.964658 
   31300    1258.9574   -110.06154    1.1391311   -108.92241   -26372.402    4.3992056    4.3992056    4.3992056   -26372.402    -63756.73   -24536.346    9175.8708   -32335.041   -7694.2128   -11729.287     85.13787 
   31400    1274.0817   -110.06486    1.1528159   -108.91205    4161.5693    4.3984028    4.3984028    4.3984028    4161.5693   -10387.548    24509.111   -1636.8553    17665.624     4465.819    5657.4841    85.091269 
   31500    1153.5076   -109.96156    1.0437179   -108.91784    4466.0162    4.3908573    4.3908573    4.3908573    4466.0162   -22343.728   -28640.613     64382.39   -23051.045   -2423.8416    5654.3217    84.654093 
   31600    1105.6856   -109.92869    1.0004475   -108.92824   -8183.2762     4.401175     4.401175     4.401175   -8183.2762    -35761.34    11705.904   -494.39236   -10480.982    10977.398    2212.0966    85.252263 
   31700    1230.2421   -110.02657    1.1131489   -108.91342    5264.4302    4.4049214    4.4049214    4.4049214    5264.4302   -16607.852    23476.109    8925.0334    6054.0016   -4659.4832    -404.3214    85.470157 
   31800    1036.2717   -109.84335   0.93764043   -108.90571    33005.905    4.3883003    4.3883003    4.3883003    33005.905    -3547.842    51679.584    50885.972   -40653.391    4627.8852    2188.4593    84.506287 
   31900    1321.5219   -110.10253    1.1957408   -108.90679    -7438.545     4.408079     4.408079     4.408079    -7438.545   -17197.612    13356.486   -18474.509    14426.674    4377.3243     -20967.4    85.654088 
   32000    1525.6589   -110.28215    1.3804482    -108.9017    -11878.08    4.3903889    4.3903889    4.3903889    -11878.08   -17548.491   -11316.088   -6769.6623   -30979.085   -685.56223   -5723.1344    84.627004 
   32100    1019.4269   -109.83379   0.92239887   -108.91139    32793.309    4.3895838    4.3895838    4.3895838    32793.309    4383.6141    57679.848    36316.466   -12979.358    4465.1238   -4904.4825    84.580456 
   32200    1232.0757   -110.01369     1.114808   -108.89888   -36327.884    4.4192767    4.4192767    4.4192767   -36327.884   -31810.072   -18369.602   -58803.977    7355.3867    2744.7333   -28152.802    86.308505 
   32300    1041.8284     -109.835    0.9426682   -108.89233    17328.682    4.3815234    4.3815234    4.3815234    17328.682   -15717.731    16902.126    50801.652   -42740.732   -8910.3003    5549.0848    84.115377 
   32400    1583.4509    -110.3318    1.4327397   -108.89906    7105.4312    4.3860092    4.3860092    4.3860092    7105.4312     5260.816    13059.422    2996.0555    16122.936    9091.9731   -8541.1487    84.373993 
   32500    1209.6194   -110.00092     1.094489   -108.90643   -28910.061    4.4075919    4.4075919    4.4075919   -28910.061   -38961.375   -26821.331   -20947.478   -22020.412    3209.5041   -13012.717      85.6257 
   32600    1042.0648    -109.8498    0.9428821   -108.90691    17461.263    4.3933131    4.3933131    4.3933131    17461.263    9621.0139    12671.035    30091.741   -28367.422   -6418.5633   -8340.1292    84.796216 
   32700    1168.1448   -109.96808     1.056962   -108.91112    8044.9171    4.3970804    4.3970804    4.3970804    8044.9171   -18971.165    59508.443   -16402.527    6092.5909     17987.88   -2370.6091    85.014539 
   32800    1061.1681   -109.87543   0.96016723   -108.91526   -8628.5452    4.3982979    4.3982979    4.3982979   -8628.5452   -5411.7943   -10386.486   -10087.355   -32419.728   -8245.4914   -17474.533     85.08518 
   32900    1393.8038   -110.16892     1.261143   -108.90777    12572.759    4.3990483    4.3990483    4.3990483    12572.759    2348.1919    2614.8196    32755.266    11882.668    2206.4831    8029.2809    85.128735 
   33000    1254.3483   -110.04095    1.1349607   -108.90599    -14375.29     4.405419     4.405419     4.405419    -14375.29   -22483.235   -9295.1094   -11347.527    2456.0311    9571.2728    1449.5939    85.499124 
   33100    1050.2906   -109.85163   0.95032504    -108.9013    15094.768    4.3942893    4.3942893    4.3942893    15094.768   -9790.6701     41497.51    13577.462   -17084.823   -3049.9542   -2053.6396    84.852751 
   33200    1201.7205   -109.99264     1.087342    -108.9053    16410.992    4.3942786    4.3942786    4.3942786    16410.992   -39.592089    14324.281    34948.286    18322.224    2438.3057    12611.701    84.852133 
   33300    1266.2661   -110.05518    1.1457442   -108.90944   -11449.283    4.4087345    4.4087345    4.4087345   -11449.283   -35696.451    16481.924   -15133.321   -21049.944    5465.7007    66.722693    85.692306 
   33400    1591.3614   -110.34171    1.4398973   -108.90181    7397.7086    4.3956217    4.3956217    4.3956217    7397.7086   -11955.755    12102.118    22046.763   -6306.5182   -835.19264   -8683.3048    84.929959 
   33500    836.51249   -109.67155   0.75689408   -108.91466    13849.064    4.3979333    4.3979333    4.3979333    13849.064   -19648.137    62864.769   -1669.4396    533.63532    2873.5835    19401.181    85.064022 
   33600    1506.4678   -110.27565    1.3630837   -108.91257   -22708.356    4.4034827    4.4034827    4.4034827   -22708.356   -53768.021   -1590.4485   -12766.599   -23125.736    7680.1327   -9753.3503    85.386438 
   33700    1062.2365   -109.87554   0.96113388    -108.9144     21497.42    4.3833246    4.3833246    4.3833246     21497.42   -19006.458    52210.178    31288.539    12437.013   -11407.643    13189.005    84.219159 
   33800    1201.4105   -110.01757    1.0870615   -108.93051   -21178.761    4.4086349    4.4086349    4.4086349   -21178.761   -45255.539    4550.8935   -22831.637    5313.0053    10378.719    8706.7076    85.686501 
   33900    1504.6523   -110.27119     1.361441   -108.90975   -1600.7202    4.4055948    4.4055948    4.4055948   -1600.7202    -36730.24    29899.496    2028.5832   -2761.2906   -9431.7538   -9095.5693    85.509361 
   34000    969.37325   -109.77771   0.87710929    -108.9006     32527.13    4.3741023    4.3741023    4.3741023     32527.13   -15675.693    74481.987    38775.096    3875.9861    -7842.532    11063.313    83.688699 
   34100    1360.3302   -110.14723    1.2308554   -108.91638   -23078.073    4.4048672    4.4048672    4.4048672   -23078.073   -30877.425   -750.47688   -37606.318    4155.9395     4756.999     24707.84    85.467002 
   34200    1271.4886   -110.05096    1.1504696   -108.90049    17337.953    4.4021455    4.4021455    4.4021455    17337.953   -32502.633    75842.539    8673.9539   -8603.6212    -11408.02     6608.666    85.308671 
   34300    1088.2685   -109.89316   0.98468819   -108.90847   -10302.561    4.4036411    4.4036411    4.4036411   -10302.561   -28351.074   -14683.357    12126.747    17483.967    3770.0746    14838.654    85.395649 
   34400    1348.9298   -110.12315      1.22054   -108.90261    -10875.52    4.4036977    4.4036977    4.4036977    -10875.52    -27264.85    25215.205   -30576.915    1425.2198   -4719.1918    10414.729    85.398945 
   34500    1351.0118   -110.11918    1.2224239   -108.89676    40076.015    4.3723278    4.3723278    4.3723278    40076.015    4206.7674    45240.734    70780.545    3898.9961   -12061.835   -783.36149    83.586888 
   34600    1027.3198   -109.86296   0.92954055   -108.93342   -14742.791    4.4019159    4.4019159    4.4019159   -14742.791   -4977.7374   -326.55974   -38924.074    11490.622    15134.315    23896.067    85.295326 
   34700    1205.3501   -109.99414    1.0906261   -108.90351     1064.067    4.4146245    4.4146245    4.4146245     1064.067    -27735.72    33459.456   -2531.5346   -9233.1016    852.61206    1524.0658    86.036218 
   34800    1182.7002   -109.95659     1.070132   -108.88646    17351.347    4.3910828    4.3910828    4.3910828    17351.347    8734.6706    29935.085    13384.285    12164.337   -4305.4442    15508.198    84.667138 
   34900    917.38466    -109.7328   0.83006892   -108.90273   -8602.1636    4.3988916    4.3988916    4.3988916   -8602.1636   -22512.269     9017.118    -12311.34    1177.7434    19439.751    16145.317    85.119641 
   35000    1487.1078   -110.24403    1.3455664   -108.89846    17612.198     4.397742     4.397742     4.397742    17612.198   -3099.4865    41586.579    14349.503    -2584.367   -5010.1591    828.54359    85.052924 
[...]
   91200    1179.0067   -109.99563      1.06679   -108.92884   -811.68969    4.3685376    4.3685376    4.3685376   -811.68969    12956.934   -21499.001    6106.9978    16345.731    680.48237    53217.388    83.369699 
   91300    1569.1516   -110.34041    1.4198014   -108.92061   -11240.578    4.3807115    4.3807115    4.3807115   -11240.578    -21750.64   -3594.9681   -8376.1247   -22085.781    1307.5458   -14665.217    84.068625 
   91400    945.81964   -109.78192   0.85579748   -108.92612   -11763.873    4.3708191    4.3708191    4.3708191   -11763.873   -2833.4036   -20250.591   -12207.625   -3431.2725   -2331.6185    17200.775     83.50039 
   91500    855.34996   -109.70361   0.77393862   -108.92967    8203.0514    4.3679815    4.3679815    4.3679815    8203.0514    26095.875    29093.395   -30580.116    9025.2368    1199.3747    44384.449    83.337863 
   91600    1964.1249   -110.69252    1.7771815   -108.91534    1587.4322    4.3749423    4.3749423    4.3749423    1587.4322   -9078.8125    15802.231   -1961.1223   -14029.175    4535.6879   -23252.682     83.73692 
   91700    785.20784   -109.64675   0.71047255   -108.93628    10232.994    4.3687518    4.3687518    4.3687518    10232.994    25073.042    16230.071   -10604.132   -4506.9302   -7303.4971    55447.014    83.381964 
   91800    1272.0764   -110.08186    1.1510014   -108.93086   -12983.155     4.380744     4.380744     4.380744   -12983.155    2577.6453   -34897.449   -6629.6612    13129.738   -1173.3909   -1081.5168    84.070501 
   91900    1337.3777   -110.12528    1.2100874   -108.91519    14786.361    4.3687268    4.3687268    4.3687268    14786.361    28211.196     19391.15   -3243.2633    4852.6114    114.38377    594.67934     83.38053 
   92000    977.61669   -109.80571   0.88456813   -108.92114   -4353.3211    4.3728862    4.3728862    4.3728862   -4353.3211    16101.488   -15892.696   -13268.755    1507.0002   -6514.8593    51511.541    83.618912 
   92100    1115.9024   -109.92816    1.0096919   -108.91847   -18314.077    4.3796786    4.3796786    4.3796786   -18314.077   -18854.832   -31460.143   -4627.2566    18413.262    -3092.094   -32173.646    84.009177 
   92200     1313.631   -110.10453    1.1886009   -108.91592    18526.691    4.3644575    4.3644575    4.3644575    18526.691    17711.236     19999.32    17869.517    4824.7027    286.94605    12960.262    83.136322 
   92300    1532.3267   -110.29934    1.3864814   -108.91286   -11855.423    4.3804047    4.3804047    4.3804047   -11855.423    -22976.08   -8691.1277   -3899.0618    6921.2565   -45.474103    18564.735    84.050967 
   92400    592.42521   -109.46565   0.53603878   -108.92961   -19823.075    4.3730156    4.3730156    4.3730156   -19823.075   -28458.312   -26821.275   -4189.6387    17267.993   -2829.0161   -35420.918    83.626338 
   92500     1512.409   -110.29183    1.3684594   -108.92338    26943.794     4.365899     4.365899     4.365899    26943.794    14807.525    43351.265     22672.59   -4385.3814    1643.9453    3021.6924    83.218724 
   92600    1398.3331   -110.19131    1.2652411   -108.92607    9190.7051    4.3763923    4.3763923    4.3763923    9190.7051   -14982.894    40770.424    1784.5856    10867.716    -1312.177   -3489.7658    83.820211 
   92700    615.29893   -109.50041    0.5567354   -108.94367   -13081.977    4.3750495    4.3750495    4.3750495   -13081.977   -18822.149   -20975.233    551.44956    1950.4457     6053.134   -36634.091    83.743074 
   92800    1701.5592   -110.46015    1.5396065   -108.92054    16907.369     4.370963     4.370963     4.370963    16907.369    11114.525    21427.845    18179.737   -8571.7211    423.16709    10359.616    83.508639 
   92900    1133.1728   -109.95199    1.0253185   -108.92667   -8120.4221    4.3743084    4.3743084    4.3743084   -8120.4221   -14140.683    4310.0353   -14530.619    15579.545   -3790.3439    -6546.348    83.700529 
   93000       870.29   -109.71306   0.78745668    -108.9256   -16331.664    4.3778624    4.3778624    4.3778624   -16331.664   -14811.477   -26658.748   -7524.7667      5291.54    5692.3799   -33835.202    83.904705 
   93100    1279.5651   -110.07453    1.1577774   -108.91676    12703.779    4.3688785    4.3688785    4.3688785    12703.779    25594.021    33409.105   -20891.788   -832.59695   -1522.4813    39846.082    83.389217 
   93200    1252.2723   -110.05459    1.1330823   -108.92151   -12564.687    4.3776162    4.3776162    4.3776162   -12564.687    5131.3878   -21566.252   -21259.198    12555.144   -4831.6939   -9639.9004    83.890551 
   93300    1375.2207   -110.16147    1.2443286   -108.91714   -2650.8307    4.3696461    4.3696461    4.3696461   -2650.8307   -1450.6101   -3797.5916   -2704.2904   -203.90571   -3024.3297   -9121.8603    83.433177 
   93400    776.99086   -109.63009   0.70303766   -108.92705    485.92219    4.3740057    4.3740057    4.3740057    485.92219    26847.317    11173.536   -36563.087   -7026.9408    -2130.602    58125.396    83.683155 
   93500    1539.9208    -110.3064    1.3933527   -108.91305   -2987.1377    4.3771652    4.3771652    4.3771652   -2987.1377   -2408.2314      16661.5   -23214.682    5162.9932   -7925.9295   -23188.114    83.864625 
   93600    881.12557   -109.72227   0.79726093   -108.92501     8737.561    4.3653275    4.3653275    4.3653275     8737.561    24435.956     18853.83   -17077.103   -7859.8464   -435.84145    29792.817    83.186049 
   93700    1221.6249    -110.0368    1.1053519   -108.93144   -21528.115    4.3789797    4.3789797    4.3789797   -21528.115   -3818.8929   -18658.176   -42107.277    1346.6394   -13097.742    38227.679    83.968963 
   93800    1774.2447   -110.52081    1.6053739   -108.91544    13291.843    4.3714838    4.3714838    4.3714838    13291.843   -1083.2722      51062.2     -10103.4    679.40732   -6185.1325   -8738.3492    83.538489 
   93900    750.68745   -109.60816   0.67923778   -108.92893   -10074.298    4.3709868    4.3709868    4.3709868   -10074.298    16616.257    -9063.843    -37775.31   -7045.8369    3331.9046    56954.692    83.509998 
   94000    918.81023   -109.75285    0.8313588   -108.92149   -11911.617    4.3782838    4.3782838    4.3782838   -11911.617   -33554.196    15004.665    -17185.32   -1473.0083   -15557.281   -7133.4068    83.928941 
   94100    1403.8752   -110.18439    1.2702558   -108.91413    7804.0797    4.3670783    4.3670783    4.3670783    7804.0797    22692.045    4620.9095   -3900.7158    6117.0421   -3478.6295    12176.831    83.286181 
   94200     1224.382   -110.02681    1.1078466   -108.91896   -4679.7666    4.3750446    4.3750446    4.3750446   -4679.7666    9339.6994   -11324.534   -12054.466   -7134.2127   -3527.9459    29504.956    83.742794 
   94300    1121.4474   -109.93308    1.0147092   -108.91837   -12574.788    4.3779691    4.3779691    4.3779691   -12574.788   -29428.285    8252.9434   -16549.023    -2272.641   -11432.106   -22563.294    83.910844 
   94400    1527.5668   -110.29103    1.3821745   -108.90886    15825.869    4.3713754    4.3713754    4.3713754    15825.869    19368.199    35844.385   -7734.9763   -2063.6133    1930.3552   -783.74655    83.532273 
   94500    1005.4864   -109.83151   0.90978525   -108.92173    7195.7132    4.3693268    4.3693268    4.3693268    7195.7132   -16974.191    47076.194   -8514.8632   -10492.232   -6395.0327    13547.709    83.414889 
   94600    815.13313   -109.66956   0.73754958   -108.93201    -6726.765    4.3722494    4.3722494    4.3722494    -6726.765   -7815.2754    11305.266   -23670.286   -3112.5047   -5217.2513   -41471.473    83.582387 
   94700    1722.6335    -110.4766     1.558675   -108.91792    13227.807    4.3755419    4.3755419    4.3755419    13227.807    10575.999    26576.737    2530.6849     248.2243     5733.214   -7339.9191    83.771354 
   94800    981.85702   -109.81434   0.88840487   -108.92593    7982.4399     4.375641     4.375641     4.375641    7982.4399   -8269.5515    61817.197   -29600.326   -2999.4319   -6313.0322   -3323.7911    83.777046 
   94900    1177.0721    -109.9844    1.0650396   -108.91936   -14216.091    4.3779644    4.3779644    4.3779644   -14216.091    12933.986   -19995.849   -35586.409    -3302.307   -4798.7966   -43040.758    83.910573 
   95000    1479.0559    -110.2492    1.3382809   -108.91092    20329.241    4.3657539    4.3657539    4.3657539    20329.241    8024.6274    67260.058   -14296.963    5713.8949    2490.6292    28110.818    83.210429 
   95100    925.61509   -109.76044   0.83751599   -108.92293   -16704.179    4.3747672    4.3747672    4.3747672   -16704.179    8679.3621   -19102.385   -39689.513    -6813.042    -6242.205   -30527.155    83.726867 
   95200    1220.2853   -110.02111    1.1041398   -108.91697   -13374.529    4.3776758    4.3776758    4.3776758   -13374.529     7798.834   -19329.102    -28593.32   -4645.9011    870.69111   -8225.1749     83.89398 
   95300    1120.6927   -109.93377    1.0140263   -108.91975    674.87478    4.3670049    4.3670049    4.3670049    674.87478    11046.588    29124.388   -38146.351    4986.9713   -1932.7759    36603.143    83.281981 
   95400    1471.0744    -110.2484     1.331059   -108.91734   -1900.7322    4.3722998    4.3722998    4.3722998   -1900.7322    6761.8442    16434.399    -28898.44   -6961.5559   -6498.9425   -27384.585    83.585282 
   95500    1133.5577   -109.94407    1.0256668    -108.9184    4226.5087    4.3740775    4.3740775    4.3740775    4226.5087    21097.293    15301.157   -23718.923   -7427.7801    5688.7536    29600.739    83.687275 
   95600    822.14406   -109.67037   0.74389322   -108.92648   -15825.756    4.3740046    4.3740046    4.3740046   -15825.756    4079.3262    2742.9141   -54299.508    3418.6431   -8707.3615     22140.95    83.683088 
   95700    1494.4265   -110.26692    1.3521885   -108.91473    8837.2531    4.3715196    4.3715196    4.3715196    8837.2531   -5634.2919    33117.683   -971.63187   -6729.0366   -4275.9977   -6043.2077    83.540543 
   95800    1218.1111   -110.02475    1.1021725   -108.92257   -13166.633    4.3734799    4.3734799    4.3734799   -13166.633    28413.224   -14928.544    -52984.58   -1472.7256    1780.8056    50785.455    83.652976 
   95900    1092.3987   -109.91115   0.98842529   -108.92273   -6739.0653    4.3722305    4.3722305    4.3722305   -6739.0653   -15877.997    37357.715   -41696.914    3153.1526   -12699.615    1295.8564    83.581306 
   96000    1380.9449   -110.16488     1.249508   -108.91537   -699.31614    4.3694774    4.3694774    4.3694774   -699.31614    6021.4695    10950.976   -19070.394   -11856.224    2303.0215    11345.303    83.423516 
   96100    959.00552   -109.78936   0.86772835   -108.92163   -21004.163     4.377532     4.377532     4.377532   -21004.163    9766.0283   -28915.342   -43863.176    3644.1918   -6945.1519    45709.998    83.885708 
   96200    1083.5755   -109.89927   0.98044186   -108.91883   -1871.8575    4.3695464    4.3695464    4.3695464   -1871.8575   -14930.017    31174.686   -21860.241    6635.0446   -6874.3401    -12307.54     83.42747 
   96300    1587.0546   -110.35009    1.4360003   -108.91409   -2625.6323    4.3706581    4.3706581    4.3706581   -2625.6323    28839.403   -19341.063   -17375.237   -5874.0492    4475.5609    14956.624    83.491164 
   96400    881.51265   -109.72096   0.79761117   -108.92335   -12209.916     4.376295     4.376295     4.376295   -12209.916   -12884.499     17853.32   -41598.568    7835.1492   -15268.929     25700.82    83.814616 
   96500    1140.3493   -109.95203     1.031812   -108.92022    1040.8084    4.3664412    4.3664412    4.3664412    1040.8084    7499.9672    13264.347   -17641.889      7095.12    2145.5893   -17465.451    83.249731 
   96600     1455.132   -110.23112    1.3166341   -108.91449   -5571.4754    4.3778021    4.3778021    4.3778021   -5571.4754    26756.601   -7700.5889   -35770.438   -4709.6054   -2378.1062    10137.857    83.901238 
   96700    1068.4144   -109.88961   0.96672381   -108.92289    -3872.095     4.370257     4.370257     4.370257    -3872.095    6401.9462     10865.27   -28883.501     3957.803   -24313.277    12650.848    83.468177 
   96800    1217.3086   -110.02283    1.1014464   -108.92138    10538.171    4.3676025    4.3676025    4.3676025    10538.171    40536.927    7144.7113   -16067.126   -2807.1657     15733.23   -20149.161    83.316175 
   96900    1217.2675   -110.01832    1.1014092   -108.91691   -9563.8629    4.3796526    4.3796526    4.3796526   -9563.8629   -6173.0534    6738.3993   -29256.935   -3461.9937   -16476.823    1732.0529    84.007682 
   97000      1029.57   -109.85124    0.9315766   -108.91966    15849.026    4.3639146    4.3639146    4.3639146    15849.026    26952.236    22152.227   -1557.3866    1705.9561    -25560.81    5350.9657    83.105299 
   97100    1278.1998   -110.07782     1.156542   -108.92128    5351.1416    4.3711822    4.3711822    4.3711822    5351.1416    30650.898    4987.9124   -19585.385   -994.13075    19358.241     -29061.2    83.521203 
   97200     1356.682   -110.14794    1.2275544   -108.92038   -2735.4569    4.3742909    4.3742909    4.3742909   -2735.4569    12206.008    5575.9031   -25988.282    -3055.465   -31734.571   -1571.2401    83.699521 
   97300    1205.1597   -110.00919    1.0904538   -108.91874    17210.693    4.3688968    4.3688968    4.3688968    17210.693    30861.101    8212.9138    12558.065    2173.7626   -16246.744   -2704.8628    83.390267 
   97400    1130.9701   -109.94278    1.0233255   -108.91945   -3094.3209    4.3740249    4.3740249    4.3740249   -3094.3209      15604.1   -1587.6246   -23299.438    1325.4545    17137.628   -34100.628    83.684255 
   97500    1134.6837   -109.94225    1.0266857   -108.91556    14274.277    4.3704538    4.3704538    4.3704538    14274.277   -7493.5368    23589.275    26727.093   -8589.9307   -38288.667    7720.6116    83.479452 
   97600    1174.3678   -109.97945    1.0625927   -108.91686   -5386.3983    4.3779993    4.3779993    4.3779993   -5386.3983    24761.389   -23609.009   -17311.575    4065.9358    2093.9841   -11726.786    83.912576 
   97700    1257.1016   -110.05812     1.137452   -108.92067    3016.6127    4.3709986    4.3709986    4.3709986    3016.6127    21356.498   -1837.0765   -10469.583   -1788.7421    5179.7734   -20754.041    83.510674 
   97800    1624.0071   -110.38319    1.4694357   -108.91375    14187.822    4.3676731    4.3676731    4.3676731    14187.822    6461.1615    23953.336    12148.968    3733.9739    -30716.48    10336.435    83.320217 
   97900     731.9104   -109.59139   0.66224792   -108.92914   -8624.0783     4.376533     4.376533     4.376533   -8624.0783    38407.077   -31327.563   -32951.749    1823.6644    10532.344    -9655.673    83.828293 
   98000    1130.5399   -109.94654    1.0229362    -108.9236    6882.8238    4.3724058    4.3724058    4.3724058    6882.8238   -10769.648    28403.202    3014.9174    6741.8197    6147.5717   -10144.912    83.591356 
   98100     1625.926   -110.38685     1.471172   -108.91568     3496.842    4.3752138    4.3752138    4.3752138     3496.842   -1561.3038    11490.543    561.28694    5614.1461   -14235.284    5595.2609     83.75251 
   98200    600.06128    -109.4773   0.54294805   -108.93435   -10259.779     4.371964     4.371964     4.371964   -10259.779    37406.083    -26520.97   -41664.451    2265.6437    12770.461   -11561.095     83.56602 
   98300    1701.3657   -110.46519    1.5394315   -108.92576    6250.8911    4.3685681    4.3685681    4.3685681    6250.8911   -4004.9452    33782.573   -11024.954   -584.41533    20296.821   -3608.9665    83.371443 
   98400    1378.1115   -110.17144    1.2469443    -108.9245   -3491.9025     4.377851     4.377851     4.377851   -3491.9025     7784.152   -7303.0009   -10956.859   -12204.182   -4528.2623    3054.1784    83.904053 
   98500    555.46355   -109.43288   0.50259509   -108.93029   -13172.905    4.3749425    4.3749425    4.3749425   -13172.905    18106.742   -10247.227   -47378.229    5941.0926    20003.683   -7822.3301    83.736931 
   98600    1711.9685   -110.45952     1.549025   -108.91049    -551.1692    4.3752051    4.3752051    4.3752051    -551.1692   -25962.411    23542.559    766.34376   -10727.396    4177.2493    4898.8103    83.752012 
   98700     928.9319   -109.76428    0.8405171   -108.92376   -6486.4246    4.3722163    4.3722163    4.3722163   -6486.4246    12425.685   -21753.834   -10131.125   -8752.8734   -5538.3685   -5583.0816    83.580492 
   98800    1134.9817   -109.95241    1.0269553   -108.92546    1174.2671    4.3652305    4.3652305    4.3652305    1174.2671    28910.375    4138.7666    -29526.34    9530.7439     15724.92   -2416.9557    83.180501 
   98900    1544.1091   -110.31434    1.3971424    -108.9172   -4589.7376    4.3810008    4.3810008    4.3810008   -4589.7376   -33554.775    23485.332   -3699.7698    -14029.76   -21166.212    5518.1836    84.085282 
   99000    863.06356   -109.70414   0.78091804   -108.92322   -11810.464    4.3771312    4.3771312    4.3771312   -11810.464    1730.2551   -14367.915   -22793.733   -5164.6071   -7155.3774   -10199.232    83.862671 
   99100    1480.6674   -110.24799    1.3397389   -108.90825    9250.8397    4.3631225    4.3631225    4.3631225    9250.8397    13640.026    29589.188   -15476.694     3241.939    2131.4786   -4650.2446    83.060058 
   99200    1011.0314   -109.83297   0.91480244   -108.91817    -8575.065    4.3763941    4.3763941    4.3763941    -8575.065    -39982.87     3101.501    11156.174   -10764.178   -30540.146    1189.3785    83.820314 
   99300    1150.0349   -109.96032    1.0405757   -108.91975   -7217.6558    4.3746504    4.3746504    4.3746504   -7217.6558    34920.093   -18131.223   -38441.838   -1982.9107   -2803.7118   -21838.824    83.720164 
   99400    1574.9213   -110.33735    1.4250219   -108.91233    16627.851    4.3750156    4.3750156    4.3750156    16627.851    10932.013    31596.184    7355.3561   -800.57854    1132.0422    6529.3275    83.741132 
   99500    1150.0284   -109.95765    1.0405698   -108.91708   -17187.966    4.3794013    4.3794013    4.3794013   -17187.966   -34910.628   -3132.8714     -13520.4   -7810.7733   -28245.348   -12735.318    83.993222 
   99600    773.63451   -109.61794   0.70000076   -108.91794    24684.025    4.3625228    4.3625228    4.3625228    24684.025    46383.604    40622.931    -12954.46   -1350.6681    9210.6244   -25563.098    83.025811 
   99700     1464.037    -110.2428    1.3246914   -108.91811     6838.145    4.3728639    4.3728639    4.3728639     6838.145   -8487.9525    12142.379    16860.009    2935.8897    6156.5921    16894.454    83.617633 
   99800    1188.6003    -109.9926    1.0754705   -108.91713    1004.5054     4.381427     4.381427     4.381427    1004.5054    9441.7402    18987.508   -25415.732   -318.68084   -16409.725   -34190.648    84.109827 
   99900    1258.1123   -110.05189    1.1383665   -108.91353    20155.223    4.3666392    4.3666392    4.3666392    20155.223    40730.702    27871.049   -8136.0808    879.36966    20573.622   -12625.796    83.261061 
  100000    1383.8687   -110.16412    1.2521535   -108.91197    9829.4264    4.3690551    4.3690551    4.3690551    9829.4264    5055.5731    6988.1402    17444.566    -3098.776    5386.8428    10013.422    83.399332 
Loop time of 21.6837 on 1 procs for 100000 steps with 8 atoms

Pair  time (%) = 6.60069 (30.4409)
Kspce time (%) = 5.342 (24.6361)
Neigh time (%) = 0.0122612 (0.0565456)
Comm  time (%) = 1.03428 (4.76984)
Outpt time (%) = 0.0249968 (0.115279)
Other time (%) = 8.66943 (39.9814)

Nlocal:    8 ave 8 max 8 min
Histogram: 1 0 0 0 0 0 0 0 0 0
Nghost:    1978 ave 1978 max 1978 min
Histogram: 1 0 0 0 0 0 0 0 0 0
Neighs:    2063 ave 2063 max 2063 min
Histogram: 1 0 0 0 0 0 0 0 0 0

Total # of neighbors = 2063
Ave neighs/atom = 257.875
Neighbor list builds = 151
Dangerous builds = 0
seeds:3254321
