LAMMPS (10 Feb 2015)
# ---- initialize simulations
clear
units metal
dimension 3
boundary p p p
atom_style charge
atom_modify map array
# ---- create atoms
read_data /Users/eugeneragasa/pyflamestk_git/pypospack/tests/tests_integration/workflow/WorkflowLammpsThermalExpansion/param_3101/MgO_NaCl_unit.npt.T1100/lammps.structure
  triclinic box = (0 0 0) to (4.2565 4.2565 4.2565) with tilt (0 0 0)
  1 by 1 by 1 MPI processor grid
  reading atoms ...
  8 atoms
# ---- define interatomic potential
include potential.mod
mass 1 24.305
mass 2 15.999

group Mg type 1
4 atoms in group Mg
group O type 2
4 atoms in group O

set group Mg charge 1.61886676565
  4 settings made for charge
set group O charge -1.61886676565
  4 settings made for charge

variable R_cut equal 10.0

pair_style buck/coul/long ${R_cut}
pair_style buck/coul/long 10
pair_coeff 1 1 0.0 0.5 0.0 ${R_cut}
pair_coeff 1 1 0.0 0.5 0.0 10
pair_coeff 1 2 1642.32869573 0.278339228763 0.0 ${R_cut}
pair_coeff 1 2 1642.32869573 0.278339228763 0.0 10
pair_coeff 2 2 10249.6145692 0.172187509684 14.0611166933 ${R_cut}
pair_coeff 2 2 10249.6145692 0.172187509684 14.0611166933 10

kspace_style pppm 1.0e-5

neighbor 1.0 bin
neigh_modify every 1 delay 0 check yes
# ---- define settings
compute eng all pe/atom
compute eatoms all reduce sum c_eng
# ---- run minimization
reset_timestep 0
fix 1 all box/relax iso 0.0 vmax 0.001
thermo 10
thermo_style custom step pe lx ly lz xy xz yz press pxx pyy pzz pxy pxz pyz c_eatoms
min_style cg
minimize 1e-25 1e-25 5000 10000
PPPM initialization ...
  G vector (1/distance) = 0.352512
  grid = 8 8 8
  stencil order = 5
  estimated absolute RMS force accuracy = 3.81673e-05
  estimated relative force accuracy = 2.65057e-06
  using double precision FFTs
  3d grid and FFT values/proc = 3375 512
Neighbor list info ...
  1 neighbor list requests
  update every 1 steps, delay 0 steps, check yes
  master list distance cutoff = 11
Memory usage per processor = 4.06549 Mbytes
Step PotEng Lx Ly Lz Xy Xz Yz Press Pxx Pyy Pzz Pxy Pxz Pyz eatoms 
       0   -105.55076       4.2565       4.2565       4.2565            0            0            0    126453.59    126453.59    126453.59    126453.59 4.0363335e-11 4.044677e-11 1.0723156e-10   -105.55076 
      10   -105.69165     4.299065     4.299065     4.299065            0            0            0    68786.015    68786.015    68786.015    68786.015 -1.0242962e-10 -4.708445e-11 -3.569371e-11   -105.69165 
      20   -105.75532      4.34163      4.34163      4.34163            0            0            0    18126.479    18126.479    18126.479    18126.479 7.5197513e-11 1.703257e-11 -3.0007315e-11   -105.75532 
      27   -105.76066    4.3583247    4.3583247    4.3583247            0            0            0    1.3863117    1.3863117    1.3863117    1.3863117 -6.2572681e-11 -1.3142723e-10 -3.2118437e-11   -105.76066 
Loop time of 0.014559 on 1 procs for 27 steps with 8 atoms

Minimization stats:
  Stopping criterion = linesearch alpha is zero
  Energy initial, next-to-last, final = 
        -105.550764672     -105.760658065     -105.760658065
  Force two-norm initial, final = 18.26 0.000217628
  Force max component initial, final = 18.26 0.000209876
  Final line search alpha, max atom move = 0.25 5.24691e-05
  Iterations, force evaluations = 27 40

Pair  time (%) = 0.00400925 (27.5379)
Kspce time (%) = 0.00229812 (15.7848)
Neigh time (%) = 0 (0)
Comm  time (%) = 0.000436306 (2.99681)
Outpt time (%) = 2.69413e-05 (0.185049)
Other time (%) = 0.00778842 (53.4955)

Nlocal:    8 ave 8 max 8 min
Histogram: 1 0 0 0 0 0 0 0 0 0
Nghost:    2189 ave 2189 max 2189 min
Histogram: 1 0 0 0 0 0 0 0 0 0
Neighs:    2344 ave 2344 max 2344 min
Histogram: 1 0 0 0 0 0 0 0 0 0

Total # of neighbors = 2344
Ave neighs/atom = 293
Neighbor list builds = 0
Dangerous builds = 0
unfix 1
# ---- define output variables ----
variable natoms equal "count(all)"
variable tot_energy equal "c_eatoms"
variable length_x equal "lx"
variable length_y equal "ly"
variable length_z equal "lz"
variable tilt_xy equal "xy"
variable tilt_xz equal "xz"
variable tilt_yz equal "yz"
variable tot_press equal "press"
variable press_xx equal "pxx"
variable press_yy equal "pyy"
variable press_zz equal "pzz"
variable press_xy equal "pxy"
variable press_xz equal "pxz"
variable press_yz equal "pyz"

# ---- output ----
print "pypospack:output_section:begin"
pypospack:output_section:begin
print "tot_energy = ${tot_energy}"
tot_energy = -105.760658064539
print "num_atoms = ${natoms}"
num_atoms = 8
print "xx = ${length_x}"
xx = 4.35832471527479
print "yy = ${length_y}"
yy = 4.35832471527479
print "zz = ${length_z}"
zz = 4.35832471527479
print "xy = ${tilt_xy}"
xy = 0
print "xz = ${tilt_xz}"
xz = 0
print "yz = ${tilt_yz}"
yz = 0
print "tot_press = ${tot_press}"
tot_press = 1.38631174704167
print "pxx = ${press_xx}"
pxx = 1.38631174709188
print "pyy = ${press_yy}"
pyy = 1.38631174731354
print "pzz = ${press_zz}"
pzz = 1.3863117467196
print "pxy = ${press_xy}"
pxy = -6.25726806975275e-11
print "pxz = ${press_xz}"
pxz = -1.31427228854923e-10
print "pyz = ${press_yz}"
pyz = -3.21184365171528e-11
print "pypospack:output_section:done"
pypospack:output_section:done
print "pypospack:lammps_sim:done"
pypospack:lammps_sim:done
#------------------------------------------------------------------------------
# RUN THERMOSTAT
# running using an NPT Nose-Hoover style thermostat
#------------------------------------------------------------------------------
variable tempdamp equal 0.1
variable pressdamp equal 1.0
# set initial velocities
velocity all create 1100 2852252 mom yes dist gaussian loop all
# fix for Nose-Hoover style thermostat
fix 20 all npt temp 1100 1100 0.1 aniso 0.0 0.0 1.0 drag 1.0 couple xyz
variable boxx equal lx
variable boxy equal ly
variable boxz equal lz
variable boxp equal press
variable boxt equal temp
# calculate averages every 10000 steps
reset_timestep 0
fix 21 all ave/time 10 10 100 v_boxx v_boxy v_boxz v_boxp v_boxt file lattice.out
thermo_style custom step temp pe ke etotal press lx ly lz press pxx pyy pzz pxy pxz pyz vol
thermo_modify flush yes
thermo 100
run 100000
PPPM initialization ...
  G vector (1/distance) = 0.351503
  grid = 8 8 8
  stencil order = 5
  estimated absolute RMS force accuracy = 3.99806e-05
  estimated relative force accuracy = 2.7765e-06
  using double precision FFTs
  3d grid and FFT values/proc = 3375 512
Memory usage per processor = 3.06549 Mbytes
Step Temp PotEng KinEng TotEng Press Lx Ly Lz Press Pxx Pyy Pzz Pxy Pxz Pyz Volume 
       0         1100   -105.76067   0.99530312   -104.76537    12840.742    4.3583247    4.3583247    4.3583247    12840.742    11864.562    14068.089    12589.576   -1688.7193   -2241.5125   -7359.3681    82.786353 
     100    265.15509   -104.88367    0.2399179   -104.64375    12665.152    4.3946383    4.3946383    4.3946383    12665.152    23028.539    11236.111    3730.8049    1961.4397   -1171.2055    14610.641    84.872971 
     200    899.03993   -105.17391   0.81347023   -104.36044   -28815.011    4.4300308    4.4300308    4.4300308   -28815.011   -38388.582   -39976.136   -8080.3146    3955.1429   -7386.2327    2478.5334     86.94012 
     300    799.92431   -104.85415   0.72378833   -104.13036    7438.9351    4.4100451    4.4100451    4.4100451    7438.9351   -4885.8202    15468.855     11733.77    966.66123    2608.0088    10731.508    85.768754 
     400    596.25147   -104.47298   0.53950086   -103.93348    28299.998    4.4023424    4.4023424    4.4023424    28299.998    22570.474    14695.498    47634.021    -2270.838   -5542.3771    31802.674    85.320116 
     500    1366.8941   -105.05359    1.2367945    -103.8168   -16078.803    4.4318564    4.4318564    4.4318564   -16078.803   -17854.968   -38394.747    8013.3062    4941.1551    7754.4509   -11186.063    87.047648 
     600    941.18435   -104.59413   0.85160338   -103.74253   -25534.143    4.4402243    4.4402243    4.4402243   -25534.143   -32889.668   -23782.922   -19929.839    6351.6375    4323.0482    10928.065    87.541652 
     700    1166.5235   -104.75322     1.055495   -103.69773     23559.88    4.4163605    4.4163605    4.4163605     23559.88    27936.172   -14231.426    56974.894   -4112.1986   -11166.248    7890.2299    86.137756 
     800    1050.8193   -104.66647   0.95080338   -103.71567   -12782.873    4.4266176    4.4266176    4.4266176   -12782.873   -30417.576   -13868.759    5937.7156     6220.496    8861.0332    6629.5221     86.73932 
     900    962.57224   -104.58871   0.87095559   -103.71776    7205.0246    4.4363752    4.4363752    4.4363752    7205.0246    57379.998   -23552.275   -12212.649   -6429.7293    7832.1497   -10143.691    87.314183 
    1000     1050.314   -104.67291   0.95034617   -103.72256     17975.25    4.4133146    4.4133146    4.4133146     17975.25    8503.5651    17048.727    28373.458    -2333.109    1947.9261    26118.054    85.959656 
    1100    1375.8945   -104.99495    1.2449383   -103.75001   -14232.114      4.42231      4.42231      4.42231   -14232.114   -2653.1856   -22118.995   -17924.161    260.09613    1926.5018   -3640.9045    86.486345 
    1200    987.80915   -104.64218   0.89379048   -103.74838    17811.354    4.4235627    4.4235627    4.4235627    17811.354    36522.922    11475.958    5435.1813   -7026.6138    1925.1586    2838.5049    86.559863 
    1300     1055.724   -104.69876   0.95524124   -103.74352    8166.8042    4.4239027    4.4239027    4.4239027    8166.8042    10455.617    24758.714   -10713.918   -1709.0854    545.03333    3720.3145    86.579827 
    1400     1188.786   -104.80892    1.0756386   -103.73328   -7686.8762    4.4254358    4.4254358    4.4254358   -7686.8762    519.55533   -1988.6801   -21591.504    3399.8134    -538.2586   -11671.549    86.669867 
    1500    985.39819   -104.61979   0.89160899   -103.72818    41759.009    4.4076818    4.4076818    4.4076818    41759.009    53152.546    64033.732    8090.7489   -8862.3375    91.329326     22731.81    85.630937 
    1600    1067.0463   -104.70868   0.96548593   -103.74319   -4212.4404    4.4305719    4.4305719    4.4305719   -4212.4404    28934.655   -30380.155   -11191.821   -3160.2426   -479.63982   -4147.5829    86.971981 
    1700    1162.6657   -104.78438    1.0520044   -103.73238   -9724.4862    4.4306611    4.4306611    4.4306611   -9724.4862   -11461.678    31141.865   -48853.645    5302.5275    196.79229    3017.0316    86.977238 
    1800    1323.4938   -104.92218     1.197525   -103.72465    13422.734    4.3990499    4.3990499    4.3990499    13422.734    52459.725    -17684.93     5493.406   -1287.8676    3365.8082    3047.2802    85.128827 
    1900    1006.6218   -104.66755    0.9108126   -103.75674    1773.0086    4.4132247    4.4132247    4.4132247    1773.0086    38010.524    1646.4003   -34337.898   -1239.4126   -7895.9743    -6027.694      85.9544 
    2000    1430.8088   -105.03833    1.2946259    -103.7437    -22154.32    4.4310254    4.4310254    4.4310254    -22154.32   -6970.4346   -9408.9661   -50083.558    6724.7931    6704.8681    7563.8297    86.998689 
    2100    757.74183   -104.43167   0.68562073   -103.74605    14481.281    4.4077035    4.4077035    4.4077035    14481.281    93188.268   -14135.777   -35608.648    2480.6409    4716.4807   -18148.659    85.632202 
    2200     1390.809    -105.0079    1.2584332   -103.74946    8197.2607    4.4043543    4.4043543    4.4043543    8197.2607    9695.8656    41619.728   -26723.812    3200.2772    1575.8423    9574.2468    85.437147 
    2300    664.83144   -104.37581   0.60155346   -103.77426    9313.5579    4.4099627    4.4099627    4.4099627    9313.5579     29925.56    31786.197   -33771.083    1706.6657    1492.4108   -13548.203    85.763944 
    2400    1411.7855   -105.04654    1.2774131   -103.76912   -19499.354    4.4169481    4.4169481    4.4169481   -19499.354   -449.46404   -15909.835   -42138.763    3109.0304   -9326.6053    7642.0382     86.17214 
    2500    1171.6295   -104.81935     1.060115   -103.75923   -7870.0609    4.4146543    4.4146543    4.4146543   -7870.0609    19941.238    -5358.849   -38192.572   -5414.6959    6475.4482   -11873.443    86.037959 
    2600     876.3305   -104.53956   0.79292225   -103.74664    16739.647     4.396796     4.396796     4.396796    16739.647    21468.157    39005.796   -10255.012    4771.8159   -8425.7261    2639.0004    84.998046 
    2700    1429.7487   -105.04303    1.2936666   -103.74936   -9897.3551    4.4136611    4.4136611    4.4136611   -9897.3551   -5971.4519    1520.5879   -25241.201    -6910.002    10266.011    7449.0669    85.979902 
    2800    732.95977   -104.41862    0.6631974   -103.75543    10171.651    4.4164988    4.4164988    4.4164988    10171.651    39614.697    38689.191   -47788.934   -10471.488    5447.1838    3831.6647    86.145846 
    2900    1203.9793   -104.84237    1.0893858   -103.75299   -4823.1485    4.4055237    4.4055237    4.4055237   -4823.1485   -14394.753     21632.51   -21707.202    7128.8998    5395.6477    10679.405    85.505222 
    3000    1160.2689   -104.80334    1.0498357   -103.75351    5675.5866    4.3965628    4.3965628    4.3965628    5675.5866    22237.031    6548.1262   -11758.398   -2250.4003    281.35549   -10272.757    84.984523 
    3100    1111.3265   -104.76134    1.0055516   -103.75578   -7452.2497    4.4170879    4.4170879    4.4170879   -7452.2497     25071.92   -5544.0097   -41884.659    3276.4282   -3994.8863    16649.089    86.180325 
    3200    1045.6741   -104.69167   0.94614794   -103.74552   -1720.6585    4.4114164    4.4114164    4.4114164   -1720.6585    21855.194    -800.2875   -26216.882   -8964.6208    12285.167   -4673.2803    85.848785 
    3300    1164.3937    -104.7918    1.0535679   -103.73824    16808.737    4.3975671    4.3975671    4.3975671    16808.737    45468.231    5954.9539   -996.97263   -6685.3312   -15568.268    -5930.967    85.042777 
    3400    926.36387   -104.59515    0.8381935   -103.75696    945.95688    4.4170091    4.4170091    4.4170091    945.95688    37166.069    8466.4173   -42794.616    29.018275    30174.862   -3584.1721    86.175714 
    3500    1321.3724   -104.94004    1.1956055   -103.74444   -5609.0656     4.416479     4.416479     4.416479   -5609.0656    27120.288    -22194.54   -21752.945   -5496.7255    2196.3205   -5324.3117    86.144692 
    3600    875.15897    -104.5396   0.79186223   -103.74774    -18567.96    4.4089242    4.4089242    4.4089242    -18567.96   -31163.792   -8084.9467    -16455.14    1493.2475    19536.877   -4949.0291    85.703372 
    3700    936.56533   -104.60051   0.84742399   -103.75308    33006.765     4.398053     4.398053     4.398053    33006.765    92950.049    20724.343   -14654.097   -233.92704   -7252.0013    1576.3963    85.070968 
    3800    1166.3765   -104.82826     1.055362   -103.77289    2426.4862    4.4175052    4.4175052    4.4175052    2426.4862    50026.042   -22063.333    -20683.25   -4237.2045    -240.4991   -1631.1151    86.204751 
    3900     953.3342   -104.62186   0.86259682   -103.75926   -11589.311    4.4227332    4.4227332    4.4227332   -11589.311    39825.799   -29317.035   -45276.699    -1251.771    18491.229   -4204.5784    86.511175 
    4000    1335.3797   -104.94855    1.2082796   -103.74027    11455.879    4.4073134    4.4073134    4.4073134    11455.879    32541.766    18204.277   -16378.406    12533.123    90.599888   -330.84112    85.609468 
    4100    803.98399   -104.47231   0.72746161   -103.74485    7530.1902    4.4083646    4.4083646    4.4083646    7530.1902    47457.916   -2647.8505   -22219.495   -15564.754     26835.78    2961.9681    85.670738 
    4200    1365.8757   -104.97006    1.2358731   -103.73419   -13453.237    4.4219889    4.4219889    4.4219889   -13453.237   -7292.3872   -3575.0934   -29492.231    924.15161   -1399.2828   -3473.3385     86.46751 
    4300    1001.4781   -104.63838   0.90615843   -103.73222   -16811.267    4.4260802    4.4260802    4.4260802   -16811.267    -18093.86     6701.444   -39041.385    3423.8079    13315.003   -2327.9483    86.707735 
    4400    1186.0601   -104.79782    1.0731721   -103.72465    2490.1355    4.4121515    4.4121515    4.4121515    2490.1355    18460.994    4848.9093   -15839.497   -439.91461   -6620.1911    3706.9879    85.891707 
    4500    953.78829   -104.59473   0.86300769   -103.73173    15900.659    4.4018761    4.4018761    4.4018761    15900.659    1150.7695    63291.059    -16739.85   -14662.983    7613.2791   -6375.5968    85.293012 
    4600    1047.1026   -104.69342   0.94744048   -103.74598   -6478.0442    4.4249128    4.4249128    4.4249128   -6478.0442    21768.875   -8282.1015   -32920.906    2627.0269   -2075.9742   -10745.716    86.639142 
    4700    1378.4803   -104.97712    1.2472779   -103.72984   -9008.6593    4.4189032    4.4189032    4.4189032   -9008.6593   -9527.2456     11374.48   -28873.212   -10249.211    2044.4763    5727.2565    86.286621 
    4800    894.45424     -104.545     0.809321   -103.73568    12983.106    4.4063692    4.4063692    4.4063692    12983.106    30660.123    23074.964   -14785.768   -4477.9435    12985.387   -5247.4113     85.55446 
    4900    1275.1889   -104.89121    1.1538177   -103.73739   -908.40365    4.4158619    4.4158619    4.4158619   -908.40365   -4235.6641    8148.8914   -6638.4382   -2883.4533   -8132.0957     5460.919    86.108582 
    5000    839.84671   -104.49755   0.75991096   -103.73764    6318.6875    4.4243059    4.4243059    4.4243059    6318.6875    58893.046   -11933.154   -28003.829   -11760.895    18676.159    2639.3577    86.603501 
    5100    1337.5742   -104.93998    1.2102653   -103.72972   -18623.503    4.4227284    4.4227284    4.4227284   -18623.503   -2196.0962    -5102.833    -48571.58    -11026.82    -13478.08    2191.2525    86.510895 
    5200    879.74858   -104.53053     0.796015   -103.73452    21867.346    4.3986255    4.3986255    4.3986255    21867.346    33825.287    36096.629   -4319.8778   -8335.5727    16470.148     2199.796    85.104196 
    5300    1338.2657   -104.95821    1.2108909   -103.74732   -26700.393    4.4118198    4.4118198    4.4118198   -26700.393   -27166.406   -11060.571   -41874.202   -1549.8629   -13452.609    4228.0514    85.872341 
    5400    1088.2773   -104.73071   0.98469617   -103.74601    -5373.243    4.4208905    4.4208905    4.4208905    -5373.243     15699.49    13930.664   -45749.883   -1189.0597    140.62392   -4284.5856    86.403089 
    5500    1051.0999   -104.69222    0.9510573   -103.74116    -7214.579    4.4198586    4.4198586    4.4198586    -7214.579   -1150.2419    25282.157   -45775.652   -9055.7843    11506.924    3912.3693      86.3426 
    5600     1077.114   -104.71218   0.97459539   -103.73758    5531.0839    4.4112377    4.4112377    4.4112377    5531.0839    62127.562   -19368.502   -26165.808    9845.1869   -10555.901    2919.0481    85.838353 
    5700    1169.6611   -104.80684     1.058334    -103.7485    6404.0902    4.4043704    4.4043704    4.4043704    6404.0902   -15879.712    54296.203    -19204.22   -12200.639    22235.179   -4147.7585    85.438085 
    5800    1210.2091   -104.85971    1.0950226   -103.76469   -8649.1819    4.4161479    4.4161479    4.4161479   -8649.1819    41101.923   -23766.588   -43282.881    -7348.068   -5243.6957   -1700.6216    86.125313 
    5900     1116.086   -104.77557    1.0098581   -103.76572   -598.89415    4.4195957    4.4195957    4.4195957   -598.89415    13150.022    9714.3582   -24661.063    12250.565    10953.748   -4836.1091    86.327194 
    6000    915.24078   -104.58475   0.82812909   -103.75662    14776.971    4.4191494    4.4191494    4.4191494    14776.971    44244.704    16183.417   -16097.208     1309.815    -11370.34   -5504.8488    86.301046 
    6100     1301.597   -104.91977    1.1777123   -103.74206    -13962.09    4.4142152    4.4142152    4.4142152    -13962.09    12364.854   -32729.842   -21521.282   -4313.5403   -4407.9685    361.95287    86.012292 
    6200    1165.6324   -104.79487    1.0546887   -103.74019   -757.65659    4.4099345    4.4099345    4.4099345   -757.65659    39060.199   -32885.543   -8447.6253    -8505.722    5716.2627   -10005.511    85.762298 
    6300    988.69383    -104.6469   0.89459096   -103.75231    10458.346    4.4212478    4.4212478    4.4212478    10458.346    80200.647   -18239.559    -30586.05   -1145.6265    7444.1239   -3184.5241    86.424038 
    6400    745.06054   -104.43051   0.67414644   -103.75636   -6636.0309    4.4228787    4.4228787    4.4228787   -6636.0309    30412.218   -30360.711     -19959.6    23412.171    16130.491   -2093.5854    86.519715 
    6500    1065.0516   -104.70608   0.96368109    -103.7424     8275.121    4.4045101    4.4045101    4.4045101     8275.121    23242.336    3048.2678   -1465.2405   -2057.0399    -3382.329    404.82458    85.446214 
    6600    1160.3845   -104.80362    1.0499403   -103.75368   -6552.6091    4.4135349    4.4135349    4.4135349   -6552.6091    36899.065   -20003.643   -36553.249   -4841.4618    6081.9617   -10209.389    85.972528 
    6700    828.62067   -104.50156    0.7497534    -103.7518   -19505.553    4.4343231    4.4343231    4.4343231   -19505.553    16105.937   -31215.322   -43407.275   -1735.7092    1287.4497      1394.74    87.193074 
    6800     953.9595   -104.59309    0.8631626   -103.72993     24263.96    4.4121888    4.4121888    4.4121888     24263.96    20187.596    46619.071    5985.2148   -13229.868     9771.644   -5224.2816    85.893891 
    6900     1085.963   -104.71944   0.98260212   -103.73684   -9787.9218    4.4176589    4.4176589    4.4176589   -9787.9218    853.25464   -19883.406   -10333.614    7993.0291    -947.0519   -13916.689    86.213749 
    7000    967.77005   -104.61446   0.87565868    -103.7388   -3103.0271    4.4235865    4.4235865    4.4235865   -3103.0271    1527.2856    4398.4755   -15234.843   -19437.787    3878.2693    6756.4548    86.561262 
    7100    1186.3331   -104.80927    1.0734191   -103.73585    5399.7834      4.41736      4.41736      4.41736    5399.7834   -3029.2261    28405.529    -9176.953   -826.26445   -195.41523   -7649.4191    86.196255 
    7200    638.95169   -104.32338   0.57813691   -103.74524    13177.862    4.4183634    4.4183634    4.4183634    13177.862    53575.981    21232.231   -35274.627    7429.6728   -25925.413     7873.834    86.255005 
    7300    1277.1519   -104.89938    1.1555939   -103.74378   -11889.503     4.420254     4.420254     4.420254   -11889.503   -3434.1239    9862.3743   -42096.758    5084.0043    13012.557    123.31495    86.365775 
    7400    1167.8294   -104.80241    1.0566765   -103.74573   -21103.836    4.4157134    4.4157134    4.4157134   -21103.836    10697.437   -21631.824    -52377.12   -8061.1112   -11569.121    10434.588    86.099897 
    7500    927.76454    -104.5903   0.83946085   -103.75084    8664.1105    4.4059659    4.4059659    4.4059659    8664.1105     15530.78    43797.583   -33336.032    11575.154    5817.2978    3692.8351    85.530971 
    7600    1415.6896   -105.03833    1.2809457   -103.75739   -16291.735    4.4208579    4.4208579    4.4208579   -16291.735    19845.026   -22520.965   -46199.267   -12640.188   -2358.0836    3429.8936    86.401181 
    7700    739.44448   -104.43013    0.6690649   -103.76107   -8136.7297    4.4209047    4.4209047    4.4209047   -8136.7297    32160.909   -77.907576   -56493.191    10.612062    1320.1162    3158.9213    86.403924 
    7800    1378.2196   -105.00832     1.247042   -103.76127     16362.02    4.3980688    4.3980688    4.3980688     16362.02    18469.123    46552.477   -15935.539    1995.8489    14158.018    10317.081    85.071884 
    7900    1335.6081   -104.98646    1.2084862   -103.77798   -22620.932    4.4091436    4.4091436    4.4091436   -22620.932   -3523.9937   -23040.152    -41298.65   -5295.8314   -6894.2744   -4597.2598    85.716162 
    8000     883.9965   -104.56429   0.79985861   -103.76443    3476.2894    4.4218302    4.4218302    4.4218302    3476.2894    27353.671    21864.251   -38789.053   -5483.8657    5589.0176    3026.8347    86.458199 
    8100    1320.8159   -104.93296     1.195102   -103.73786    4912.7832    4.4124979    4.4124979    4.4124979    4912.7832    33769.268    16868.628   -35899.547     10161.75   -2733.3099   -3022.9002    85.911943 
    8200    1032.8786   -104.66789   0.93457027   -103.73332    -13783.12    4.4134082    4.4134082    4.4134082    -13783.12   -396.87148   -172.70213   -40779.785    -12799.78   -4724.9447   -1643.8824    85.965126 
    8300    1540.2562   -105.12331    1.3936562   -103.72966   -12000.157    4.4127835    4.4127835    4.4127835   -12000.157    9381.5616   -4555.3039   -40826.728    16852.742     791.1631   -5790.6581    85.928626 
    8400    1003.4079   -104.64567   0.90790454   -103.73777   -2269.4513    4.4173655    4.4173655    4.4173655   -2269.4513    18950.364    6853.4289   -32612.147     328.2269   -4137.5025    -7554.097    86.196573 
    8500    1208.3593   -104.82636    1.0933488   -103.73301    -9880.067    4.4176683    4.4176683    4.4176683    -9880.067   -21038.528    25759.809   -34361.482    1184.3744    1091.7818    1905.6342    86.214302 
    8600    1112.6534   -104.74297    1.0067522   -103.73621    9309.1846    4.4110017    4.4110017    4.4110017    9309.1846    46489.903    6580.9828   -25143.332   -2634.6987   -10662.587    584.67362    85.824577 
    8700    1052.5733   -104.69705   0.95239043   -103.74466    13000.359    4.4133425    4.4133425    4.4133425    13000.359    2931.2398    68544.226    -32474.39   -1018.1681     2755.877    7388.6411    85.961286 
    8800    1152.2864   -104.78952     1.042613   -103.74691   -113.02034    4.4160311    4.4160311    4.4160311   -113.02034    31069.904    2212.0751    -33621.04     12953.05   -13462.185     7138.347    86.118485 
    8900    948.28364   -104.60895   0.85802697   -103.75092    21862.045    4.4057979    4.4057979    4.4057979    21862.045    35898.589    48380.181   -18692.636   -3659.2103    8019.4793   -5924.8426    85.521184 
    9000    1420.8614   -105.03521    1.2856253   -103.74959    -10475.84     4.406506     4.406506     4.406506    -10475.84    -10989.96     10733.53    -31171.09   -12498.301   -5259.9577    18126.856    85.562425 
    9100    945.93554    -104.6011   0.85590235    -103.7452    4534.3628    4.4131052    4.4131052    4.4131052    4534.3628     29898.77     8039.183   -24334.865   -1452.1845    3192.4334   -14743.518    85.947419 
    9200    1275.4414   -104.89461    1.1540462   -103.74056    -17875.88    4.4111231    4.4111231    4.4111231    -17875.88   -8761.7685   -15338.821   -29527.051   -12274.183    1146.2553     13712.96    85.831663 
    9300    972.42711   -104.62041   0.87987248   -103.74053    21033.544    4.4062084    4.4062084    4.4062084    21033.544    28782.615    69420.633   -35102.617    5619.6368   -7398.2981   -8140.3357     85.54509 
    9400    1161.3921   -104.80078    1.0508519   -103.74993   -11451.866    4.4109053    4.4109053    4.4109053   -11451.866   -5923.5683    3855.9229   -32287.951    -15251.64    5036.2769    8528.7838    85.818953 
    9500     1035.483   -104.68381   0.93692675   -103.74688    8364.9043    4.4158868    4.4158868    4.4158868    8364.9043     17386.86    41012.198   -33304.345   -7527.7999   -10581.179    3395.7548    86.110042 
    9600    1538.5813   -105.12935    1.3921407   -103.73721   -18969.204    4.4155803    4.4155803    4.4155803   -18969.204   -15565.019    1455.7559   -42798.349   -3683.1606    6769.0712   -4863.6281    86.092113 
    9700    738.26794     -104.406   0.66800035     -103.738    22899.532    4.4065332    4.4065332    4.4065332    22899.532    43133.842    44551.781   -18987.027   -12181.792   -9725.1997    18254.886    85.564009 
    9800    1304.4905   -104.92398    1.1803304   -103.74365   -21631.144    4.4168367    4.4168367    4.4168367   -21631.144   -7043.0658   -6668.8844    -51181.48    8853.7188    14364.691   -16108.294    86.165623 
    9900    1169.6683     -104.798    1.0583404   -103.73965   -4248.2436    4.4129525    4.4129525    4.4129525   -4248.2436    10063.944    17984.482   -40793.156   -9309.9132    4061.7909    8329.0954    85.938498 
   10000    1161.3893   -104.78856    1.0508495   -103.73771   -19531.715    4.4005778    4.4005778    4.4005778   -19531.715    9807.2823   -39129.617   -29272.811   -2343.6337     2125.944   -17609.732    85.217562 
   10100    1026.3473   -104.67811   0.92866062   -103.74945    2869.6435     4.412464     4.412464     4.412464    2869.6435    31846.134    21315.098   -44552.301   -7657.0776    12698.492     -8152.95    85.909963 
   10200    1322.6272   -104.93913    1.1967409   -103.74239   -12688.792    4.4185147    4.4185147    4.4185147   -12688.792   -11800.691    6777.0479   -33042.733     -5953.41    11032.071    3854.6843    86.263863 
   10300    843.21117   -104.51029   0.76295519   -103.74734    4356.5495    4.4142877    4.4142877    4.4142877    4356.5495    17865.548    35011.871    -39807.77    228.23287     1374.893   -13780.385     86.01653 
   10400    1498.4846   -105.09906    1.3558603    -103.7432    4079.7564    4.4074991    4.4074991    4.4074991    4079.7564   -5673.9435    28567.543    -10654.33     5394.881    3512.0343    12910.811    85.620292 
   10500    959.42118   -104.62657   0.86810445   -103.75846    8176.1896    4.4062683    4.4062683    4.4062683    8176.1896    13966.155    33898.265   -23335.851    1813.3207    4691.5262   -19349.786    85.548579 
   10600    1222.1105   -104.85872    1.1057912   -103.75293    10196.025     4.418439     4.418439     4.418439    10196.025    3915.6377    47111.199   -20438.761    3818.7218    6036.9997    2788.5369    86.259433 
   10700    833.47129   -104.50491   0.75414234   -103.75077    -13218.36    4.4169603    4.4169603    4.4169603    -13218.36   -6848.3432   -20468.715   -12338.021    -11659.65   -7350.7592   -25441.023    86.172853 
   10800     1326.166    -104.9425    1.1999428   -103.74256    3600.8744    4.3939499    4.3939499    4.3939499    3600.8744    8631.8514    25.060071    2145.7116    14545.624     10066.67   -4878.2166    84.833096 
   10900    1214.3743   -104.86048    1.0987914   -103.76169   -5542.7892    4.4137304    4.4137304    4.4137304   -5542.7892   -13938.947    2120.8026   -4810.2238    -5975.296   -6239.4146    10173.583    85.983951 
   11000    567.03739    -104.2768   0.51306735   -103.76373   -23323.405    4.4229645    4.4229645    4.4229645   -23323.405   -35310.989   -17400.957   -17258.268    12507.551     11939.23   -24346.618     86.52475 
   11100    1583.2816   -105.17165    1.4325865   -103.73906    9078.2126    4.3941774    4.3941774    4.3941774    9078.2126    6293.1098    16086.072    4855.4557    3485.8382   -3705.2042    14152.813    84.846269 
   11200    912.17661   -104.58871   0.82535657   -103.76336   -8492.9731    4.4071024    4.4071024    4.4071024   -8492.9731   -12388.522    15760.981   -28851.379    2320.3403    6613.4401   -36420.842    85.597173 
   11300    889.56071   -104.57226   0.80489322   -103.76737    -12943.77    4.4298747    4.4298747    4.4298747    -12943.77   -35428.094    29873.077   -33276.293    7541.9569   -1910.8989    3082.1132    86.930928 
   11400    1569.0477   -105.16921    1.4197073    -103.7495   -17563.358    4.4154137    4.4154137    4.4154137   -17563.358   -27895.775    11439.828   -36234.126   -20494.777   -3471.5794     2152.473    86.082369 
   11500    743.94137   -104.41581   0.67313379   -103.74267    20836.515    4.3981632    4.3981632    4.3981632    20836.515   -56.170867    49083.734    13481.982    17375.504    5931.2779   -7489.7647    85.077366 
   11600    1354.3314   -104.97148    1.2254275   -103.74605   -1107.9621    4.4179762    4.4179762    4.4179762   -1107.9621   -34256.835    51632.725   -20699.777   -10027.891   -3678.0216     8968.521    86.232329 
   11700    1157.3778   -104.79222    1.0472198     -103.745   -9801.8121    4.4192281    4.4192281    4.4192281   -9801.8121   -42639.531    27727.085    -14492.99    1516.7511    7302.1354   -8530.5881    86.305657 
   11800    1419.1409   -105.02588    1.2840686   -103.74181   -2306.3422    4.4027707    4.4027707    4.4027707   -2306.3422    -13048.71    11228.286   -5098.6029    8730.1217   -1213.4835    3798.3987    85.345022 
   11900    1063.2813   -104.73505   0.96207929   -103.77297    3335.0179    4.4090888    4.4090888    4.4090888    3335.0179   -24939.619    47884.968   -12940.296   -326.16598    4971.4277   -5681.3552    85.712969 
   12000    787.39716   -104.49525   0.71245349   -103.78279    3776.6314    4.4169022    4.4169022    4.4169022    3776.6314   -37055.418    37306.807    11078.505    7252.4122   -4498.0855   -4644.0995    86.169457 
   12100    1301.4508   -104.94386    1.1775801   -103.76628   -160.86563    4.4073782    4.4073782    4.4073782   -160.86563   -11785.226    27287.831   -15985.202    -18329.59   -558.97681    11624.542    85.613245 
   12200    984.69711   -104.64902   0.89097463   -103.75805    4079.6001    4.4064488    4.4064488    4.4064488    4079.6001   -24981.544    25870.559    11349.785    17262.542    1482.6926   -9176.4995    85.559094 
   12300    920.94773   -104.58771   0.83329286   -103.75442   -4437.4991    4.4201049    4.4201049    4.4201049   -4437.4991   -33713.921    21887.475   -1486.0518     3308.838   -7165.6364    14835.323    86.357036 
   12400     1525.576   -105.11896    1.3803733   -103.73859    -17215.62    4.4141254    4.4141254    4.4141254    -17215.62   -45297.292    15074.709   -21424.276   -5981.1732    2980.6055   -1807.4092     86.00704 
   12500    969.20716   -104.61925   0.87695901   -103.74229   -10497.657    4.4174266    4.4174266    4.4174266   -10497.657   -40423.318   -9858.8371    18789.186    15380.651   -3912.4734   -5786.9752    86.200149 
   12600    1136.0867   -104.77237    1.0279551   -103.74442    3648.6429    4.4142728    4.4142728    4.4142728    3648.6429   -15297.907    58650.186    -32406.35   -6060.5191    5931.1469    214.85033    86.015654 
   12700    1136.5074   -104.79099    1.0283357   -103.76266    19091.038    4.4101259    4.4101259    4.4101259    19091.038   -27566.626    70843.148    13996.593    15609.164   -7795.2206   -16173.061    85.773468 
   12800    1242.3483   -104.89976    1.1241029   -103.77566   -16830.142     4.416009     4.416009     4.416009   -16830.142   -42024.745   -2995.8495    -5469.833   -6061.2637    1172.2371    20228.828     86.11719 
   12900     1264.787   -104.92237    1.1444059   -103.77797   -5386.2539    4.4068837    4.4068837    4.4068837   -5386.2539   -32648.145    30187.817   -13698.434    5740.7821   -4135.8102     8592.108    85.584431 
   13000    891.60254   -104.59062   0.80674072   -103.78388    8161.0533     4.413561     4.413561     4.413561    8161.0533   -47899.329    45111.036    27271.453   -16939.087    3197.1939   -18076.771    85.974054 
   13100    954.18439   -104.63373   0.86336609   -103.77036   -7102.0573    4.4153822    4.4153822    4.4153822   -7102.0573   -24857.867    34525.405    -30973.71   -10188.947   -3412.4964    17281.481    86.080524 
   13200    1253.2514   -104.88934    1.1339682   -103.75537    6597.1719    4.4119695    4.4119695    4.4119695    6597.1719   -40993.589    44203.503    16581.601    8461.4586   -4798.8681   -17067.157    85.881082 
   13300     1303.636   -104.93309    1.1795573   -103.75354   -14125.102     4.409971     4.409971     4.409971   -14125.102   -22618.964   -4385.4019   -15370.939   -7028.1584    7919.8489     6134.064    85.764427 
   13400    809.96182   -104.49028   0.73287048   -103.75741    19114.044     4.410935     4.410935     4.410935    19114.044   -40372.201    76351.081    21363.252    1912.9078   -9104.5782    7845.1652    85.820686 
   13500    943.12088   -104.61556   0.85335559   -103.76221   -83.495548    4.4188434    4.4188434    4.4188434   -83.495548   -29275.809    31503.337   -2478.0149    -8453.709    707.30269   -1359.3371    86.283117 
   13600    1430.8349   -105.05627    1.2946495   -103.76162   -21997.601    4.4084636    4.4084636    4.4084636   -21997.601   -26066.419   -12788.059   -27138.327   -2185.5482   -11903.511    13915.862    85.676513 
   13700    1054.4049   -104.72039   0.95404768   -103.76634    9063.0175    4.4101396    4.4101396    4.4101396    9063.0175   -34108.492    59900.255    1397.2894   -5005.6833    6793.5445   -11508.982    85.774265 
   13800    881.93658   -104.56053   0.79799475   -103.76253   -30696.193    4.4261787    4.4261787    4.4261787   -30696.193   -55215.391    6280.0036   -43153.192   -17647.503   -13585.438    1421.3292    86.713522 
   13900    1466.7116   -105.06991    1.3271115   -103.74279    2551.4445    4.4082886    4.4082886    4.4082886    2551.4445   -15500.488    23465.663   -310.84188   -2521.6388      3961.23   -2644.7429    85.666308 
   14000    1010.8327   -104.66494    0.9146227   -103.75031   -26557.163    4.4157376    4.4157376    4.4157376   -26557.163   -48835.219   -1232.8355   -29603.435   -4777.2671   -9647.5713   -1808.4432    86.101314 
   14100    1130.8698   -104.76791    1.0232347   -103.74467    9036.8215    4.4093242    4.4093242    4.4093242    9036.8215   -7637.5603    34177.925    570.09933   -5406.5336   -5534.9314   -4318.2903    85.726701 
   14200    803.33565    -104.4837   0.72687498   -103.75682    14965.362    4.4169939    4.4169939    4.4169939    14965.362   -7051.9585    30436.348    21511.697    10674.552    -4606.214    542.15752    86.174822 
   14300    994.95571    -104.6446   0.90025684   -103.74435   -11574.594    4.4244449    4.4244449    4.4244449   -11574.594   -21341.857   -1736.9981   -11644.927    1098.5368   -9558.0151     5148.686    86.611664 
   14400     1237.984   -104.85271    1.1201539   -103.73256     7097.629    4.4120898    4.4120898    4.4120898     7097.629   -29241.435    41255.633    9278.6891    6710.6378    3433.7749    16558.913    85.888107 
   14500    790.88122   -104.46142   0.71560595   -103.74582    7070.7891     4.414841     4.414841     4.414841    7070.7891    24204.077    16910.776   -19902.485    12328.311   -13784.457   -857.91847    86.048876 
   14600    1276.5312   -104.89431    1.1550323   -103.73928   -8137.7027    4.4182572    4.4182572    4.4182572   -8137.7027   -25868.966    30840.317    -29384.46    13058.746    7064.5769    10682.083    86.248787 
   14700    1179.1218   -104.81034    1.0668942   -103.74345     6355.322     4.417039     4.417039     4.417039     6355.322    34228.587    7488.9888    -22651.61   -3927.5013   -2814.8258   -3689.9125    86.177463 
   14800    1044.3734   -104.69526   0.94497103   -103.75029    116.48928    4.4238038    4.4238038    4.4238038    116.48928   -6863.6363    23336.224    -16123.12    5807.1373     4626.706   -7438.2189    86.574017 
   14900    1182.9787   -104.81592     1.070384   -103.74554    -1442.173    4.4159128    4.4159128    4.4159128    -1442.173    14532.941     11503.46    -30362.92   -4129.4775    842.18917    9048.1294    86.111559 
   15000    1155.6436    -104.7876    1.0456506   -103.74195    20486.581    4.4073837    4.4073837    4.4073837    20486.581   -3592.2176    48806.281    16245.681    -4536.341    3940.6636   -12089.952    85.613562 
   15100    894.52625   -104.56632   0.80938615   -103.75694   -500.52116    4.4276103    4.4276103    4.4276103   -500.52116    2949.4254    16991.997   -21442.985    9186.1705   -724.47044    14099.142    86.797687 
   15200    1348.6654   -104.95554    1.2203008   -103.73524    -14071.01    4.4283306    4.4283306    4.4283306    -14071.01   -37481.805    15491.398   -20222.624    -13014.95    -6531.685   -5650.8397    86.840061 
   15300    737.46564   -104.39123   0.66727441   -103.72396    36799.813    4.4077563    4.4077563    4.4077563    36799.813    23189.769    76725.617    10484.051    14817.363    6974.6973    672.46092    85.635281 
   15400    1530.0087   -105.11804     1.384384   -103.73366   -29597.163    4.4152348    4.4152348    4.4152348   -29597.163   -44867.328   -4741.4155   -39182.747    -6766.721   -15783.935   -4403.8783    86.071904 
   15500    989.80123   -104.63492   0.89559295   -103.73932    5197.5931    4.4195827    4.4195827    4.4195827    5197.5931    3867.4985    28425.833   -16700.553    7978.1846    6089.6623   -2514.0806    86.326434 
   15600    1122.8122    -104.7631    1.0159441   -103.74716    -15680.89    4.4183161    4.4183161    4.4183161    -15680.89   -33971.571    -1975.114   -11095.986    6017.9496   -15872.689    12213.009    86.252236 
   15700    1378.4287   -104.98317    1.2472313   -103.73594   -7156.4507    4.4220104    4.4220104    4.4220104   -7156.4507   -9304.3768   -12985.424    820.44828   -531.08175    4593.2405    4046.4667     86.46877 
   15800    713.88065   -104.38154   0.64593422    -103.7356   -3440.0503    4.4241023    4.4241023    4.4241023   -3440.0503   -29670.741    17100.104    2250.4862    14055.508   -8631.1398    1527.0065    86.591543 
   15900    1380.3891   -104.97269    1.2490051   -103.72369    2404.9362    4.4155162    4.4155162    4.4155162    2404.9362   -22398.924   -5017.8807    34631.613    -8691.614    400.87576    16012.298     86.08836 
   16000    809.21765   -104.47745   0.73219714   -103.74525    20111.504    4.4126401    4.4126401    4.4126401    20111.504   -22484.732    85235.143   -2415.8992   -1496.4081   -2997.2831    21280.054     85.92025 
   16100    992.11252   -104.65634   0.89768425   -103.75865   -3544.6797    4.4291496    4.4291496    4.4291496   -3544.6797   -33260.121    26303.819   -3677.7372    3732.3767   -14173.497    9417.8047     86.88825 
   16200     1067.575   -104.71257   0.96596434   -103.74661     191.4627    4.4301137    4.4301137    4.4301137     191.4627   -12891.252    17367.918   -3902.2778    9943.9085   -1256.6671   -3669.6397       86.945 
   16300    1089.3427   -104.71933   0.98566014   -103.73367   -5191.3572    4.4108199    4.4108199    4.4108199   -5191.3572   -1777.4246    9561.6013   -23358.248   -2539.0203   -14872.173    3254.1411    85.813966 
   16400    1247.5674   -104.86563    1.1288252   -103.73681    1250.3952    4.4215086    4.4215086    4.4215086    1250.3952   -27138.522    28901.041    1988.6668   -2277.7313    3497.9634   -16358.638    86.439334 
   16500    745.00087   -104.41599   0.67409244    -103.7419   -13616.187    4.4285794    4.4285794    4.4285794   -13616.187   -14413.733    4988.4196   -31423.246    22136.123   -18934.755     4545.881    86.854696 
   16600     1518.198    -105.1036    1.3736975    -103.7299    7821.7299    4.4122067    4.4122067    4.4122067    7821.7299   -8992.2051    53074.914   -20617.519   -17272.092    7490.5338     3187.025    85.894931 
   16700    1047.2099   -104.70073   0.94753752    -103.7532   -10894.478    4.4208303    4.4208303    4.4208303   -10894.478   -20801.768   -12072.919    191.25305    20564.312   -15714.777    472.78182     86.39956 
   16800    1207.6399   -104.83488     1.092698   -103.74218    7088.2524     4.425985     4.425985     4.425985    7088.2524    1246.4282     40732.65   -20714.321    -5069.034    6625.6676    2911.3239    86.702137 
   16900    891.26924   -104.54083   0.80643914    -103.7344     7479.202    4.4289616    4.4289616    4.4289616     7479.202   -16209.764    24565.012    14082.358   -4070.0856   -10415.889   -4659.0743    86.877186 
   17000     1348.336   -104.94823    1.2200027   -103.72823   -11360.788    4.4183385    4.4183385    4.4183385   -11360.788   -28743.405     6631.273   -11970.231    7582.6548   -6139.4839    4586.9548    86.253548 
   17100     1088.269   -104.72176   0.98468869   -103.73707    28683.922    4.4059301    4.4059301    4.4059301    28683.922    33361.967    11536.183    41153.617   -16028.986   -10170.935   -8074.2879    85.528882 
   17200    976.13349   -104.64081    0.8832261   -103.75759   -15214.884    4.4317931    4.4317931    4.4317931   -15214.884   -6593.6682   -22160.279   -16890.703    5829.1396   -14853.128    5039.9133     87.04392 
   17300    1264.7342   -104.87929    1.1443581   -103.73493    5326.7095    4.4261863    4.4261863    4.4261863    5326.7095   -6203.6375   -5700.6154    27884.381    -4739.727   -7979.5271    9001.6102    86.713969 
   17400    1154.0404   -104.77207       1.0442   -103.72787   -7155.1288    4.4281432    4.4281432    4.4281432   -7155.1288   -41600.902   -2616.3812    22751.897    2498.6909   -2412.5847    2038.0728    86.829033 
   17500    1432.8176   -105.01362    1.2964435   -103.71717   -11998.644    4.4282207    4.4282207    4.4282207   -11998.644    -34256.73   -10842.686    9103.4838   -42.976071    3657.1615     17349.49    86.833593 
   17600    848.97656    -104.4925   0.76817184   -103.72433    21574.845    4.4214206    4.4214206    4.4214206    21574.845    9707.6761    34583.875    20432.983   -5794.6526   -20736.222   -1320.6568    86.434175 
   17700    1630.0899   -105.19958    1.4749396   -103.72464   -20884.535    4.4258262    4.4258262    4.4258262   -20884.535   -22856.884   -24842.813   -14953.909    3641.8543    11637.302    595.75548    86.692807 
   17800    835.32906   -104.48806   0.75582329   -103.73223    29267.349    4.4112951    4.4112951    4.4112951    29267.349    31784.152     43784.12    12233.775   -10288.506    -23677.45   -4121.8557    85.841707 
   17900    1087.3527   -104.72372   0.98385955   -103.73986    14470.684     4.430799     4.430799     4.430799    14470.684    18325.449    2614.2266    22472.377   -4865.0713   -8106.7491    5498.3821    86.985359 
   18000    1344.9303   -104.95081    1.2169212   -103.73389   -26103.546    4.4230058    4.4230058    4.4230058   -26103.546   -53012.986    18994.525   -44292.177   -6002.5111   -1557.6885   -6707.2819    86.527174 
   18100    715.43524   -104.37624   0.64734084    -103.7289    51715.095    4.4039644    4.4039644    4.4039644    51715.095    68724.813    33305.242     53115.23    4463.9933   -17298.709    3108.4799    85.414458 
   18200    1395.3047   -104.99769    1.2625011   -103.73519   -24992.346    4.4337117    4.4337117    4.4337117   -24992.346   -41935.313   -13359.356    -19682.37    866.95556   -15570.088    3149.1329    87.157015 
   18300    906.93602   -104.55718   0.82061477   -103.73657   -8354.4973    4.4219761    4.4219761    4.4219761   -8354.4973   -40365.565    14427.768    874.30528   -8074.5766    -22728.95    12753.381    86.466759 
   18400    1249.6092   -104.86493    1.1306727   -103.73425    19292.921    4.4100042    4.4100042    4.4100042    19292.921    3646.8674    7462.3291    46769.565    1222.0475    15588.425   -4706.4751    85.766364 
   18500    842.59534   -104.51484   0.76239797   -103.75244   -2510.6166    4.4232833    4.4232833    4.4232833   -2510.6166    967.33681   -7542.4294   -956.75716   -14465.624   -18659.392    6520.6214    86.543464 
   18600    1169.2965   -104.78946     1.058004   -103.73145   -4971.2716      4.43818      4.43818      4.43818   -4971.2716   -11946.511    270.99225   -3238.2962   -11469.847    4924.5832    501.35468    87.420791 
   18700    1054.3392   -104.67921   0.95398824   -103.72522   -5826.2205    4.4184559    4.4184559    4.4184559   -5826.2205    21355.421   -8030.6058   -30803.477   -10695.604   -20680.639   -3048.0522     86.26042 
   18800    1314.3974   -104.92921    1.1892944   -103.73991    4311.2108    4.4017268    4.4017268    4.4017268    4311.2108   -9247.5231    -7447.079    29628.235    4547.0215   -352.92735   -3008.1451     85.28433 
   18900    1157.4656   -104.81117    1.0472992   -103.76387   -15518.074    4.4350567    4.4350567    4.4350567   -15518.074   -26567.769   -18943.522   -1042.9301    6434.9136   -7806.5182    4428.1123    87.236357 
   19000     711.0645   -104.38279    0.6433861   -103.73941    -21034.48    4.4406858    4.4406858    4.4406858    -21034.48   -13386.109   -33734.708   -15982.622    2481.5669     -12990.9    842.19835     87.56895 
   19100    1267.9211   -104.86011    1.1472416   -103.71287    23139.815    4.4015493    4.4015493    4.4015493    23139.815    57706.502   -9299.4379     21012.38    12061.414    25486.129   -1968.5119    85.274017 
   19200    1084.0678    -104.7316    0.9808873   -103.75071    -5828.188    4.4157683    4.4157683    4.4157683    -5828.188    11104.662   -30755.325     2166.099   -13126.148   -8863.1814   -5458.6407    86.103106 
   19300    1197.4504   -104.83327    1.0834783   -103.74979   -17697.065    4.4410276    4.4410276    4.4410276   -17697.065   -43222.898   -47453.945    37585.648    2466.2633    1517.3156    4388.1212    87.589173 
   19400    987.06272    -104.6359   0.89311509   -103.74278   -18888.904    4.4282336    4.4282336    4.4282336   -18888.904    166.60049   -33906.405   -22926.909   -10747.035   -28224.705   -7532.1426    86.834355 
   19500    939.87603    -104.5807   0.85041958   -103.73028    30253.864    4.3890101    4.3890101    4.3890101    30253.864     60993.64    7791.3982    21976.552   -721.39867   -1908.9605    4294.6608    84.547302 
   19600    1446.2407   -105.07074     1.308589   -103.76215    -17722.17    4.4174137    4.4174137    4.4174137    -17722.17   -20350.241   -34205.257    1388.9867    16908.141   -1216.7703   -6038.4293    86.199399 
   19700    1123.2955   -104.76427    1.0163814   -103.74789     -29390.3     4.443078     4.443078     4.443078     -29390.3   -4404.2018   -53052.403   -30714.296   -3450.6808   -18628.796    98.465372    87.710548 
   19800    1162.2347   -104.78139    1.0516144   -103.72978    6560.9819    4.4159952    4.4159952    4.4159952    6560.9819    42841.738   -24055.828    897.03569    8876.9133   -700.59102    1513.4462    86.116385 
   19900    910.66441    -104.5527   0.82398829   -103.72872    25463.057    4.4053582    4.4053582    4.4053582    25463.057    57527.695    37277.381   -18415.907   -14265.799   -22552.368   -11516.462    85.495584 
   20000    970.04597   -104.61622   0.87771798   -103.73851   -1077.5107    4.4326558    4.4326558    4.4326558   -1077.5107   -22881.241    32106.645   -12457.936   -12048.008    1220.5591   -3657.2205     87.09476 
   20100    979.49566   -104.61475   0.88626826   -103.72848   -13078.149    4.4360997    4.4360997    4.4360997   -13078.149   -50881.355    65062.236   -53415.328    1200.9489    -16323.82   -17658.469    87.297921 
   20200    1260.2776   -104.86257    1.1403257   -103.72224   -2179.7811    4.4122043    4.4122043    4.4122043   -2179.7811   -11444.177    24184.982   -19280.149   -596.85629    1115.5504   -3933.2431    85.894795 
   20300    1233.4773   -104.85269    1.1160762   -103.73661   -243.42394     4.412133     4.412133     4.412133   -243.42394   -7211.7547    26597.903   -20116.421    6894.5452   -10183.142    3191.3306    85.890627 
   20400    970.50933   -104.62815   0.87813724   -103.75002   -4093.8536    4.4264576    4.4264576    4.4264576   -4093.8536   -17661.175    54410.272   -49030.658   -20625.471   -2738.0934   -4628.9834    86.729914 
   20500    858.21743   -104.51627   0.77653317   -103.73974    14555.381    4.4315169    4.4315169    4.4315169    14555.381     14334.91      55398.6   -26067.368   -27710.438    1747.9864    13893.018    87.027644 
   20600    895.69441   -104.53777   0.81044312   -103.72732      12279.6    4.4207669    4.4207669    4.4207669      12279.6    28000.009    13522.263   -4683.4727   -24564.026   -3965.3035   -2915.0641    86.395841 
   20700    1166.6209   -104.77861    1.0555831   -103.72303    5309.5642    4.4129396    4.4129396    4.4129396    5309.5642    59427.055   -17892.638   -25605.724   -2665.2058    9639.0022    9937.4963    85.937745 
   20800    1164.4779   -104.78584     1.053644    -103.7322   -15133.369    4.4304222    4.4304222    4.4304222   -15133.369    2972.1737   -27336.017   -21036.264    1804.1712   -12546.994   -1397.5071    86.963164 
   20900    1320.9483   -104.92161    1.1952218   -103.72639   -16044.134    4.4215831    4.4215831    4.4215831   -16044.134   -22273.831   -36023.475    10164.902   -7994.4257   -4218.0801    5395.7229    86.443705 
   21000     993.2546    -104.6333   0.89871763   -103.73458    4777.4331     4.408859     4.408859     4.408859    4777.4331    24527.499    -16135.99    5940.7906     8157.393   -10055.877    2498.8557    85.699568 
   21100    1169.0217   -104.80192    1.0577554   -103.74416   -2387.9622    4.4163567    4.4163567    4.4163567   -2387.9622    23890.178   -14679.299   -16374.766    -19202.53   -3518.7529    4402.9784    86.137535 
   21200    780.73991   -104.44839   0.70642988   -103.74196    456.59428    4.4250809    4.4250809    4.4250809    456.59428   -2499.8163    11301.543   -7431.9438   -11229.868   -10338.598    4440.2919    86.649017 
   21300    1378.0079    -104.9751    1.2468505   -103.72825   -8062.4598    4.4184226    4.4184226    4.4184226   -8062.4598   -13436.966    11213.255   -21963.669   -7835.4122   -5584.9861    2146.2768     86.25847 
   21400     671.6312   -104.34921   0.60770602   -103.74151    9291.4387    4.4150229    4.4150229    4.4150229    9291.4387   -25127.078    31632.627    21368.767   -11226.016    2018.4205    14150.095    86.059512 
   21500    1315.4584   -104.93335    1.1902544    -103.7431   -9501.2941     4.408995     4.408995     4.408995   -9501.2941   -18017.185    18689.798   -29176.495    14185.234   -24528.549   -5238.9747    85.707498 
   21600    998.71571   -104.65372   0.90365896   -103.75006   -4625.4577    4.4173747    4.4173747    4.4173747   -4625.4577   -6525.3465   -22014.491    14663.464   -6340.2298    3865.0049    7195.6618    86.197111 
   21700    1216.0523   -104.84289    1.1003096   -103.74259   -17212.826    4.4258292    4.4258292    4.4258292   -17212.826   -20514.253    2355.4833   -33479.709    2376.0158   -19986.362     -10813.3    86.692983 
   21800     886.7916   -104.53684   0.80238768   -103.73445    21775.404    4.4177362    4.4177362    4.4177362    21775.404   -3359.0093    56125.771    12559.449   -8781.7754    -7343.522   -3867.4206    86.218278 
   21900    1030.6239   -104.66898   0.93253021   -103.73645   -1946.9076    4.4207265    4.4207265    4.4207265   -1946.9076   -34860.693    53138.176   -24118.206   -10568.296   -13549.875   -8100.1944    86.393476 
   22000    1058.8448   -104.68929   0.95806504   -103.73122    596.48005    4.4232807    4.4232807    4.4232807    596.48005   -33231.099    16480.122    18540.417     1055.353   -3637.3533   -3899.1344    86.543312 
   22100    1202.6896   -104.81935    1.0882188   -103.73114      -8018.3    4.4088737    4.4088737    4.4088737      -8018.3   -16622.389    6466.6013   -13899.112   -11734.302   -17532.685    8234.3121    85.700422 
   22200    1067.8231   -104.71216   0.96618881   -103.74597    9894.5701    4.4200735    4.4200735    4.4200735    9894.5701    -41205.39    76039.701   -5150.6002    13038.148    -2734.834   -6265.4398    86.355195 
   22300    1154.5509    -104.7922     1.044662   -103.74754    -6841.077    4.4140277    4.4140277    4.4140277    -6841.077   -38091.295    40195.487   -22627.424    2590.8293   -11181.701    -2133.073    86.001326 
   22400    1260.5728   -104.88489    1.1405928    -103.7443   -4219.2829    4.4171176    4.4171176    4.4171176   -4219.2829   -21119.788    17638.701   -9176.7618    5126.7418    719.64579   -6290.6053    86.182062 
   22500    891.05376   -104.55054   0.80624417   -103.74429    -11951.95    4.4256785    4.4256785    4.4256785    -11951.95   -65304.208    64761.711   -35313.351    8509.7692   -21660.469    4906.3052    86.684129 
   22600    1440.3068   -105.04265    1.3032198   -103.73943   -9716.8947    4.4058743    4.4058743    4.4058743   -9716.8947   -37452.187     34855.98   -26554.477   -17752.458    4763.8287    1154.8797    85.525634 
   22700    1067.6131   -104.71404   0.96599875   -103.74804    15249.154    4.4006472    4.4006472    4.4006472    15249.154   -30621.075    76293.786    74.750956    6470.2073   -13944.906    2229.2358    85.221592 
   22800    1108.5396   -104.75835    1.0030299   -103.75532   -14850.037    4.4277388    4.4277388    4.4277388   -14850.037   -56125.642    44882.936   -33307.404   -14516.046    4648.8893   -7622.0716    86.805248 
   22900    1026.9607   -104.67494    0.9292156   -103.74572   -2424.4937    4.4227299    4.4227299    4.4227299   -2424.4937   -44602.577    51853.837   -14524.741    8290.0565   -12734.534   -4219.7017    86.510983 
   23000    1101.8302   -104.73604   0.99695913   -103.73908   -6040.8806    4.4066345    4.4066345    4.4066345   -6040.8806   -32238.392    27274.911   -13159.161    10439.655    3218.5819   -4058.3463    85.569915 
   23100     1182.299   -104.82078     1.069769   -103.75101    5902.4383    4.4034381    4.4034381    4.4034381    5902.4383   -3493.4578    32455.275   -11254.503   -6762.7852   -4064.7132     6853.599    85.383841 
   23200    1065.7012   -104.72842   0.96426887   -103.76415   -7791.4851    4.4289982    4.4289982    4.4289982   -7791.4851   -48256.072     58022.32   -33140.703    2878.3244   -2808.4612     898.1746     86.87934 
   23300     1110.871    -104.7566    1.0051395   -103.75146   -13067.388    4.4192505    4.4192505    4.4192505   -13067.388   -33286.991    36468.767    -42383.94   -14291.065   -12.104398    376.56755    86.306966 
   23400    1377.9222   -104.98003     1.246773   -103.73326    8728.5899    4.4038219    4.4038219    4.4038219    8728.5899   -4223.8175    21873.841    8535.7465    10161.423   -11960.419   -8366.5355     85.40617 
   23500    646.87119   -104.33546   0.58530265   -103.75016    11451.201     4.419446     4.419446     4.419446    11451.201   -27835.039      87520.1   -25331.457   -11904.034   -5791.5314   -9419.8404    86.318423 
   23600    1303.1618    -104.9179    1.1791282   -103.73878   -4489.0373    4.4206934    4.4206934    4.4206934   -4489.0373   -2101.6023    33584.726   -44950.236    4837.1249   -6157.8247   -1193.4987    86.391534 
   23700    1114.8942   -104.74284    1.0087797   -103.73406    9843.4202     4.408356     4.408356     4.408356    9843.4202    -33606.01      50889.1     12247.17    5936.5081   -5594.7186    5008.6713     85.67024 
   23800    1279.0961   -104.90077     1.157353   -103.74342   -17361.594    4.4127701    4.4127701    4.4127701   -17361.594   -45901.731    33915.544   -40098.595   -12386.839   -12274.383   -1649.5212     85.92784 
   23900     923.8137   -104.58808   0.83588605   -103.75219    29713.308    4.4173337    4.4173337    4.4173337    29713.308    7724.4155    57037.119    24378.388    19534.834    10151.528   -11746.179    86.194715 
   24000    1041.4945   -104.68233   0.94236615   -103.73997   -35562.761    4.4374505    4.4374505    4.4374505   -35562.761   -50645.014   -25184.351   -30858.919    -21016.53   -7932.9524   -9159.0189    87.377692 
   24100     1245.912   -104.84352    1.1273274   -103.71619    25015.627    4.3975226    4.3975226    4.3975226    25015.627    -7340.307    42019.185    40368.004    6974.8467     4409.231   -9256.2756    85.040194 
   24200    928.87307   -104.57942   0.84046387   -103.73895    1131.8553    4.4026077    4.4026077    4.4026077    1131.8553   -9891.1918   -12607.674    25894.431   -12722.691   -9933.2753    4897.0244    85.335545 
   24300    1286.5779   -104.89727    1.1641227   -103.73315   -27103.189    4.4356941    4.4356941    4.4356941   -27103.189   -38855.777    322.03717   -42775.827     6664.376    2855.4392    3431.8894    87.273974 
   24400    990.38218   -104.62702   0.89611861    -103.7309   -13380.509    4.4192465    4.4192465    4.4192465   -13380.509   -42072.485   -6406.0975     8337.055    8359.1534   -16292.115     1829.491    86.306731 
   24500    1113.6292   -104.73117    1.0076351   -103.72354    7552.5545    4.3994179    4.3994179    4.3994179    7552.5545   -936.55963    22442.463    1151.7602    2682.9785    7246.2594   -13180.733    85.150199 
   24600    850.66671   -104.51582   0.76970111   -103.74612    14349.658    4.4100164    4.4100164    4.4100164    14349.658   -32464.279    25516.506    49996.748    9267.3831    -895.7061   -18002.149    85.767075 
   24700    880.82847   -104.53773   0.79699211   -103.74073   -9807.3978    4.4321995    4.4321995    4.4321995   -9807.3978   -18622.699    8982.7242   -19782.219   -576.88934   -8393.0688   -6669.6025    87.067867 
   24800    1237.2332   -104.83942    1.1194746   -103.71994   -10436.073    4.4160978    4.4160978    4.4160978   -10436.073   -31333.976    21956.772   -21931.014    2159.1022    8278.9284    3465.2831    86.122385 
   24900    1135.2259   -104.74231    1.0271762   -103.71513     12479.22    4.3990699    4.3990699    4.3990699     12479.22   -14648.436    60837.521   -8751.4241   -3743.0045   -25840.937   -3827.2996    85.129989 
   25000     1448.098   -105.04376    1.3102695   -103.73349   -25246.699    4.4200779    4.4200779    4.4200779   -25246.699   -20591.114    -14788.54   -40360.445    7015.4981    18177.683    9017.3467    86.355453 
   25100    987.07696    -104.6318   0.89312798   -103.73867   -4197.7453     4.424279     4.424279     4.424279   -4197.7453    -35117.59    55544.072   -33019.718   -2043.3219   -20938.771    -1552.046    86.601917 
   25200    1207.5437   -104.82612    1.0926109   -103.73351     3871.322    4.4083132    4.4083132    4.4083132     3871.322     5252.311    10691.885     -4330.23    473.50769    6356.8954   -10772.788    85.667744 
   25300    1049.0043   -104.69284   0.94916117   -103.74368    20941.941    4.4032069    4.4032069    4.4032069    20941.941    7606.0402    28829.316    26390.466    1818.0727   -12892.565    6531.6753     85.37039 
   25400    614.32648   -104.30342   0.55585551   -103.74756    27481.265     4.421594     4.421594     4.421594    27481.265    16674.549    60626.102    5143.1428   -72.054074    3623.4323   -13046.397    86.444345 
   25500    1445.3036   -105.03837     1.307741   -103.73063   -11320.811    4.4198669    4.4198669    4.4198669   -11320.811   -14647.109    -22940.67    3625.3455   -933.46585   -9543.6017   -747.50473    86.343086 
   25600    783.63331   -104.44055   0.70904789   -103.73151    28820.507    4.3990441    4.3990441    4.3990441    28820.507    59970.778    45044.108   -18553.365   -10039.198   -3430.7449   -9853.6844    85.128491 
   25700    1321.7275   -104.93895    1.1959268   -103.74303    3347.1095    4.4111253    4.4111253    4.4111253    3347.1095   -3543.7378    9995.4206    3589.6457    727.37223    7804.8575   -16327.683    85.831791 
   25800     1296.832    -104.9212    1.1734009    -103.7478   -19563.118    4.4225763    4.4225763    4.4225763   -19563.118    -14663.12    5993.7758   -50020.011    4449.4793    -9564.032      11429.5    86.501973 
   25900    853.01646    -104.5155   0.77182722   -103.74367    12086.506     4.412294     4.412294     4.412294    12086.506    15313.077    28281.233   -7334.7917   -1849.4731    3693.0381   -15961.063     85.90003 
   26000    1273.7021   -104.89226    1.1524724   -103.73979    11977.364    4.4064595    4.4064595    4.4064595    11977.364     28204.15   -5992.3654    13720.306    11348.843   -4217.4485    3450.6243    85.559718 
   26100    1078.5334   -104.72233   0.97587968   -103.74645   -17363.302    4.4197589    4.4197589    4.4197589   -17363.302   -6554.0473   -8309.4483   -37226.411    5810.1795    5425.2348   -15408.281    86.336761 
   26200    1337.9099   -104.94072     1.210569   -103.73015    9295.8984    4.4130007    4.4130007    4.4130007    9295.8984    36681.093   -7564.1845   -1229.2135    13980.031     -5831.14    2549.1953    85.941316 
   26300    946.96327   -104.59799   0.85683226   -103.74116   -8515.0615    4.4113404    4.4113404    4.4113404   -8515.0615    21446.497    1951.9349   -48943.617    3913.0295    -14441.93   -19347.803    85.844352 
   26400    1280.6277   -104.89602    1.1587388   -103.73728     20341.24    4.4052605    4.4052605    4.4052605     20341.24    46197.678    16867.906   -2041.8629   -2586.5429    2244.5639    7205.5526    85.489898 
   26500    790.20105   -104.46467   0.71499052   -103.74968   -7603.0332    4.4198551    4.4198551    4.4198551   -7603.0332     36786.53   -15541.298   -44054.332   -7581.0838   -19941.559   -11395.436    86.342395 
   26600    1406.8264   -105.01076    1.2729261   -103.73783   -11320.453     4.412489     4.412489     4.412489   -11320.453   -5774.7559   -15746.288   -12440.315     9821.725    5182.7994   -7032.6323    85.911422 
   26700    939.42873   -104.59393   0.85001486   -103.74391    19302.055    4.3995854    4.3995854    4.3995854    19302.055    94275.625   -5485.9322   -30883.527    4236.4904   -16205.439   -2209.8386    85.159921 
   26800    1051.2002    -104.7017   0.95114803   -103.75055   -28896.218    4.4207543    4.4207543    4.4207543   -28896.218    618.03814    -55106.04   -32200.652   -1148.5164   -2627.8451   -36076.724    86.395105 
   26900    1228.3107   -104.84272    1.1114013   -103.73132    22092.297    4.4052714    4.4052714    4.4052714    22092.297    73595.887    9283.3855   -16602.381   -5809.4634   -1756.2928     4964.059    85.490529 
   27000     990.2707   -104.63908   0.89601774   -103.74306   -30537.334    4.4160301    4.4160301    4.4160301   -30537.334   -16139.973   -34917.033   -40554.996   -394.07505   -9141.4947   -22342.331    86.118427 
   27100    1259.4592   -104.87052    1.1395851   -103.73094    15775.553    4.4073746    4.4073746    4.4073746    15775.553     41401.27     435.9262    5489.4619   -4372.5929    2730.1851    -918.6792    85.613035 
   27200    952.95121   -104.60707   0.86225028   -103.74482   -12623.437    4.4131946    4.4131946    4.4131946   -12623.437    -21020.48    1914.7616   -18764.594    8039.4305   -13629.147   -12903.565    85.952643 
   27300    1130.0057   -104.75231    1.0224529   -103.72986    2015.2741    4.4195918    4.4195918    4.4195918    2015.2741    33655.654   -2843.8085   -24766.023    11391.389    12186.093     3527.843    86.326968 
   27400    870.77243    -104.5147   0.78789319    -103.7268    12910.813    4.4040818    4.4040818    4.4040818    12910.813   -4810.2984    19396.153    24146.586    5087.4149   -8738.3877    -21245.58    85.421294 
   27500    1069.6545   -104.70217   0.96784588   -103.73433    3966.9398    4.4153821    4.4153821    4.4153821    3966.9398    43627.066   -19629.583   -12096.664    8423.9321   -5624.2292    -7162.842    86.080518 
   27600    1163.9395   -104.78544     1.053157   -103.73229    8612.2315    4.4086097    4.4086097    4.4086097    8612.2315   -10697.884   -5390.7019    41925.281    650.61794    3415.4893   -7565.6005    85.685029 
   27700    886.80274   -104.54598   0.80239775   -103.74359   -4738.7693    4.4129192    4.4129192    4.4129192   -4738.7693    16000.866    16310.086    -46527.26   -11978.288   -22008.911   -20558.578    85.936553 
   27800    1236.8905   -104.85316    1.1191645     -103.734    18839.495     4.410967     4.410967     4.410967    18839.495    11892.273    12261.507    32364.704   -4991.2265   -1260.5055    6992.3299    85.822554 
   27900    627.99623   -104.31023   0.56822419   -103.74201    6324.4899     4.415927     4.415927     4.415927    6324.4899    14151.705   -5900.1663    10721.931   -7088.1056    3395.1761   -23178.839    86.112393 
   28000    1424.4216   -105.01011    1.2888466   -103.72126   -14691.308    4.4209082    4.4209082    4.4209082   -14691.308   -12028.508    1867.5099   -33912.926    -5202.224   -86.304744    11936.865    86.404128 
   28100    875.57203   -104.52231   0.79223597   -103.73007    14755.038    4.4006432    4.4006432    4.4006432    14755.038    27842.293    12157.796    4265.0253    14616.795   -8482.4421   -15183.831    85.221365 
   28200    1254.2291   -104.87292    1.1348528   -103.73807    356.94453    4.4141664    4.4141664    4.4141664    356.94453    10403.752   -8725.8955    -607.0225    10385.258    1851.7112    7479.5347    86.009437 
   28300    1115.8673   -104.74698    1.0096602   -103.73732   -11938.486    4.4216661    4.4216661    4.4216661   -11938.486     30667.72    -40393.65   -26089.527    4438.6708   -13842.263   -11584.759    86.448574 
   28400    915.32392   -104.56199   0.82820432   -103.73378    7592.8557    4.4060001    4.4060001    4.4060001    7592.8557     16640.35    3185.6748    2952.5419    3969.5788    -9295.574    -5186.886     85.53296 
   28500    1473.2034   -105.06736    1.3329854   -103.73437   -3965.1313    4.4067392    4.4067392    4.4067392   -3965.1313    45572.716   -34410.244   -23057.866   -5037.8282    2572.3544   -2107.3537    85.576011 
   28600    1120.7017   -104.75699    1.0140345   -103.74295   -17294.361    4.4197169    4.4197169    4.4197169   -17294.361   -6785.3524   -28613.638   -16484.093     3574.313   -4848.6724   -12095.724    86.334299 
   28700    1100.5885   -104.73146   0.99583561   -103.73562    21150.529    4.4109069    4.4109069    4.4109069    21150.529      63565.7    4197.9403   -4312.0545   -6081.9223   -4592.2958    12919.867    85.819045 
   28800    1315.1073   -104.92968    1.1899367   -103.73974   -13759.646    4.4091714    4.4091714    4.4091714   -13759.646    22058.981   -31570.374   -31767.545    10220.369   -8549.5941   -22240.819    85.717786 
   28900    1183.6176   -104.81324    1.0709621   -103.74228    7449.6764    4.4045048    4.4045048    4.4045048    7449.6764    31904.809   -21400.117    11844.338    918.08316   -11396.949    16745.504    85.445907 
   29000     1205.155   -104.83311    1.0904496   -103.74266    6626.3988    4.4171521    4.4171521    4.4171521    6626.3988    51281.416    1874.1289   -33276.348   -9454.9495   -12.396897   -9442.9038    86.184081 
   29100    1213.5117   -104.83816    1.0980109   -103.74015   -14040.865    4.4126595    4.4126595    4.4126595   -14040.865   -5802.3862   -13680.563   -22639.645    5161.8333   -4646.9891    6048.1119    85.921382 
   29200    865.53561   -104.51932   0.78315481   -103.73616    46253.078    4.3986901    4.3986901    4.3986901    46253.078    81471.618    48134.667    9152.9483    -14084.61     1177.588      2443.33    85.107941 
   29300    1310.8658   -104.92792    1.1860989   -103.74182   -25623.023    4.4179872    4.4179872    4.4179872   -25623.023   -26516.161    2026.7467   -52379.653    636.50005   -8811.0168     671.4465    86.232972 
   29400    972.84052    -104.6212   0.88024655   -103.74095    14209.112    4.4051385    4.4051385    4.4051385    14209.112    34135.766    21072.567   -12580.998    3138.1753   -4721.6681    14773.076    85.482791 
   29500    1122.2956   -104.75307    1.0154766    -103.7376    13208.284    4.4080903    4.4080903    4.4080903    13208.284    17600.228    38670.034    -16645.41   -6918.9778    4185.9714   -6747.7792     85.65475 
   29600    1006.2303   -104.65376   0.91045832   -103.74331   -19034.599    4.4099896    4.4099896    4.4099896   -19034.599    -17224.47   -780.54914   -39098.779   -759.13694   -23966.091    12900.633    85.765514 
   29700     1168.754   -104.79439    1.0575131   -103.73688    27405.549    4.4045857    4.4045857    4.4045857    27405.549    10159.704    74712.934   -2655.9918   -4101.0621    12302.782   -8438.3156    85.450618 
   29800    815.47662   -104.48415   0.73786039   -103.74629    -21491.16    4.4176147    4.4176147    4.4176147    -21491.16    -20715.74   -3807.4132   -39950.326    8054.9195   -21756.171    10753.966    86.211164 
   29900    1506.4563   -105.09462    1.3630733   -103.73155    4116.5988    4.4008044    4.4008044    4.4008044    4116.5988   -16589.451    31710.734   -2771.4874   -5541.7452    4232.4254    6638.6502    85.230729 
   30000    747.98282    -104.4191   0.67679057   -103.74231    17384.609    4.4044912    4.4044912    4.4044912    17384.609    1531.5909      51169.9   -547.66422    2679.9379   -10874.209    8141.9759    85.445117 
   30100    1188.0951   -104.81259    1.0750134   -103.73758   -18880.146    4.4172016    4.4172016    4.4172016   -18880.146   -24609.651    676.27954   -32707.067    965.86886    2833.8651    8868.8428    86.186979 
   30200    1253.0494   -104.86882    1.1337854   -103.73504   -1191.9608    4.4054453    4.4054453    4.4054453   -1191.9608   -21349.364    26295.438   -8521.9562   -6793.5475   -6749.5843   -1346.6878    85.500653 
   30300    881.60928   -104.53778    0.7976986   -103.74008   -1678.6618     4.410019     4.410019     4.410019   -1678.6618   -5819.3984    14821.798   -14038.384    3917.8975   -6250.7677    14257.322    85.767228 
   30400    940.57801   -104.58501   0.85105475   -103.73396    8709.2701    4.4065142    4.4065142    4.4065142    8709.2701   -302.05853    25731.039    698.82945    10998.764    1675.9299   -9737.3464    85.562907 
   30500    1533.9856   -105.12046    1.3879824   -103.73247   -23973.088    4.4076321    4.4076321    4.4076321   -23973.088   -13513.598   -15310.901   -43094.766   -11210.134   -19082.644    9549.5896    85.628042 
   30600    879.03006   -104.53332   0.79536487   -103.73796   -4308.8966    4.4181742    4.4181742    4.4181742   -4308.8966   -6634.9581    16014.341   -22306.073    12566.987     4950.878    4574.4047    86.243925 
   30700    959.81611   -104.60546   0.86846179     -103.737    3326.5024    4.4017953    4.4017953    4.4017953    3326.5024   -10767.775    16043.509     4703.773    2598.1755   -12175.947   -11284.215    85.288315 
   30800    1421.0504   -105.02842    1.2857963   -103.74263    8015.5208    4.3982312    4.3982312    4.3982312    8015.5208      3560.54    45218.125   -24732.103    6672.3055    2949.2426    17571.259    85.081312 
   30900    848.06381   -104.51744   0.76734596   -103.75009    -22530.52    4.4230859    4.4230859    4.4230859    -22530.52   -34887.072   -16130.587   -16573.902    19522.936    -4484.311   -13504.184    86.531878 
   31000    1204.1329   -104.82466    1.0895247   -103.73513    18308.991    4.4016875    4.4016875    4.4016875    18308.991    27493.154    28794.767   -1360.9474   -15558.658    -5200.339    10692.677    85.282047 
   31100    1045.6338   -104.68822   0.94611146   -103.74211   -5558.3293    4.4071018    4.4071018    4.4071018   -5558.3293   -392.52657    6938.8635   -23221.325    19767.507    7953.0102    3665.6009    85.597141 
   31200    1163.5222   -104.79279    1.0527793   -103.74001    1226.6719    4.4072365    4.4072365    4.4072365    1226.6719   -6718.0865     9214.625    1183.4772    8879.3821   -5889.6177    7032.2568    85.604989 
   31300     976.3415   -104.63634   0.88341431   -103.75292    -3557.402     4.412946     4.412946     4.412946    -3557.402    36150.686   -15728.536   -31094.356    14148.801    9491.2497    5541.8083    85.938117 
   31400      1074.08   -104.72195   0.97185015    -103.7501   -12997.442    4.4100358    4.4100358    4.4100358   -12997.442    5826.5678   -24359.313   -20459.582    16204.293   -19739.565   -1540.9752    85.768207 
   31500    1315.2988   -104.92678      1.19011   -103.73667    4279.1985    4.4032055    4.4032055    4.4032055    4279.1985    30239.619    1228.4423   -18630.466   -13837.061    7160.2709     11577.04    85.370314 
   31600    876.15743   -104.53459   0.79276566   -103.74182   -12526.607     4.415665     4.415665     4.415665   -12526.607   -28926.426     1915.835   -10569.231    12208.843   -2049.8581   -4564.1642    86.097069 
   31700    1296.4633   -104.90588    1.1730672   -103.73281    10035.758      4.39973      4.39973      4.39973    10035.758    68657.799   -12568.601   -25981.924   -3453.9837    1335.6033    8652.1691     85.16832 
   31800    994.73681   -104.65355   0.90005877   -103.75349   -4389.9588    4.4051383    4.4051383    4.4051383   -4389.9588    11430.309   -6336.8561   -18263.329    14534.824    22462.142   -2794.9501    85.482783 
   31900    1244.5753   -104.87846    1.1261179   -103.75234   -1171.1945    4.4114246    4.4114246    4.4114246   -1171.1945    7290.1692    -6232.012   -4571.7407   -12112.026   -8944.6181    2366.8534    85.849267 
   32000    1154.8129   -104.79393     1.044899   -103.74903   -3581.7866    4.4085576    4.4085576    4.4085576   -3581.7866    4008.6567    2390.9138    -17144.93   -979.60791    16060.347         3967     85.68199 
   32100    989.24681     -104.643   0.89509131   -103.74791    13236.008    4.4055538    4.4055538    4.4055538    13236.008    33931.583    11077.419   -5300.9792    7219.8044   -12241.939   -5762.3548    85.506969 
   32200    997.79074   -104.65026   0.90282203   -103.74743    2754.8335    4.4140922    4.4140922    4.4140922    2754.8335    8926.8206    25266.939    -25929.26   -15253.408     10532.37    -4367.742      86.0051 
   32300    1187.8162   -104.81583    1.0747611   -103.74107   -3371.0936    4.4060746    4.4060746    4.4060746   -3371.0936    -8077.194     5615.614   -7651.7009    22703.997    3316.7888   -354.68937    85.537303 
   32400    1128.2183   -104.76523    1.0208356   -103.74439   -8396.8272    4.4083275    4.4083275    4.4083275   -8396.8272   -6871.9673    7329.6395   -25648.154    2385.1535    7081.0245    613.87458    85.668579 
   32500     1193.095    -104.8222    1.0795374   -103.74266   -8384.6292    4.4059943    4.4059943    4.4059943   -8384.6292   -17146.228    29483.355   -37491.014    2809.6291     32830.74    5036.6627    85.532626 
   32600    864.89342   -104.52832   0.78257374   -103.74575    4270.9853    4.4113282    4.4113282    4.4113282    4270.9853    42971.134   -2712.6088   -27445.569    7749.7498   -6283.4076   -4924.5871     85.84364 
   32700    882.49363   -104.54378   0.79849878   -103.74528   -3129.2791    4.4111138    4.4111138    4.4111138   -3129.2791   -8755.1778    38888.322   -39520.981      4970.12    44110.929   -2880.2694    85.831121 
   32800    1353.3757   -104.96282    1.2245628   -103.73825    15781.312    4.4044507    4.4044507    4.4044507    15781.312    52300.865    5761.9701     -10718.9    4979.0391   -11084.192    2600.7693    85.442761 
   32900    1041.2366   -104.68449    0.9421328   -103.74235   -23947.637    4.4102598    4.4102598    4.4102598   -23947.637   -40447.942    4686.0944   -36081.063   -9972.0233    23050.428    491.51924    85.781277 
   33000    1183.2468   -104.80796    1.0706265   -103.73733    19330.217    4.4045384    4.4045384    4.4045384    19330.217    61821.785    19964.459   -23795.593   -3968.1591    268.31364   -1174.4788    85.447862 
   33100    1181.4218   -104.81795    1.0689753   -103.74898   -13270.399    4.4106223    4.4106223    4.4106223   -13270.399    -22089.38   -1132.5295   -16589.287    8371.9978    9071.1498    4680.0569    85.802434 
   33200    1232.6739     -104.859    1.1153493   -103.74365   -11935.979    4.4143505    4.4143505    4.4143505   -11935.979    1557.3516   -17352.089   -20013.199    1205.5547    20870.785    7044.9099    86.020198 
   33300    1273.2005   -104.88741    1.1520185   -103.73539   -9802.9428      4.41552      4.41552      4.41552   -9802.9428    13920.447   -17840.126   -25489.149    1645.7221     4870.807    5032.7679    86.088586 
   33400    1101.7183   -104.73233    0.9968579   -103.73547   -11207.223    4.4070873    4.4070873    4.4070873   -11207.223   -30514.313   -4737.9048    1630.5477   -4353.6991    10728.017    7939.9048    85.596295 
   33500    1208.2386    -104.8257    1.0932397   -103.73246    12393.457    4.4061165    4.4061165    4.4061165    12393.457    19309.569    14776.103    3094.6982   -4302.4371   -9726.4223   -450.47304    85.539743 
[...]
   91300    730.42084   -104.40893   0.66090012   -103.74803    4173.7885    4.4017948    4.4017948    4.4017948    4173.7885   -15804.486    25317.404    3008.4475    -8611.032    3058.0683   -14219.362    85.288282 
   91400    1221.3843   -104.83819    1.1051342   -103.73306    2423.5282    4.4192857    4.4192857    4.4192857    2423.5282   -33628.552    18487.003    22412.134    5693.8467    1867.6084   -13849.894    86.309029 
   91500     837.2517   -104.48672   0.75756293   -103.72916    2198.7243    4.4060083    4.4060083    4.4060083    2198.7243    -33966.56    15560.539    25002.194   -6848.2639    12672.427   -15143.937    85.533439 
   91600    798.18705   -104.45211   0.72221641   -103.72989    28182.347     4.386326     4.386326     4.386326    28182.347    17025.161    51936.663    15585.218    6592.8944    9625.2841   -22405.444    84.392278 
   91700    1528.9294   -105.11203    1.3834075   -103.72862   -5615.0253    4.4057753    4.4057753    4.4057753   -5615.0253   -23027.837    10420.014   -4237.2534      9045.95    9642.6884   -4184.2792    85.519868 
   91800    513.13114   -104.21259   0.46429184    -103.7483   -19852.384    4.4056386    4.4056386    4.4056386   -19852.384   -25542.686    2804.0734    -36818.54   -6997.9725    20231.458    -12288.23    85.511909 
   91900    1757.2604   -105.31967    1.5900061   -103.72966    5522.9655    4.3892677    4.3892677    4.3892677    5522.9655     12280.04   -2793.1533    7082.0101    4352.2994   -8824.2377   -1646.0737    84.562187 
   92000    826.59807   -104.50364    0.7479233   -103.75572   -5007.9068    4.3956853    4.3956853    4.3956853   -5007.9068    -40067.23     47226.84   -22183.331   -10505.996    20044.308    -8848.144    84.933648 
   92100     1042.212   -104.69552   0.94301534    -103.7525    593.05853    4.4034806    4.4034806    4.4034806    593.05853    -14932.83    18580.188   -1868.1832    5573.0091   -9713.2386   -20454.343    85.386315 
   92200    1198.9638   -104.82969    1.0848476   -103.74484   -11180.972    4.4067174    4.4067174    4.4067174   -11180.972   -40987.684    19179.295   -11734.528    12375.679    12641.495    1610.7266    85.574744 
   92300    1197.0956    -104.8208    1.0831573   -103.73765   -10558.901    4.3973006    4.3973006    4.3973006   -10558.901   -12324.662   -5753.8183   -13598.224   -1238.5905    3718.5342   -19233.873    85.027313 
   92400    1187.1669   -104.81159    1.0741736   -103.73742    10900.747    4.3942116    4.3942116    4.3942116    10900.747   -16225.149    42959.731    5967.6592    21141.009    11052.157    16986.198    84.848252 
   92500    994.98284   -104.64728   0.90028138   -103.74699   -18889.911    4.4061547    4.4061547    4.4061547   -18889.911   -33503.739    20443.293   -43609.286   -10757.506    15403.304   -11361.817    85.541968 
   92600    1000.5886   -104.64349    0.9053536   -103.73814    7603.8253    4.4055028    4.4055028    4.4055028    7603.8253   -4297.8647    9924.0073    17185.333    10483.475   -10344.591    8502.2336    85.504002 
   92700    1085.0955   -104.71762    0.9818172    -103.7358   -8808.2832    4.3928047    4.3928047    4.3928047   -8808.2832   -10196.006   -1894.5313   -14334.312   -5121.9758     21990.68    -12850.74    84.766778 
   92800    1197.8498   -104.82648    1.0838397   -103.74264   -7422.2988    4.3912561    4.3912561    4.3912561   -7422.2988    6661.6084   -33114.902    4186.3969    205.01733   -12555.749   -2752.0337    84.677161 
   92900     950.0524   -104.60685   0.85962738   -103.74723    8613.7745     4.402559     4.402559     4.402559    8613.7745   -31119.042    33101.174    23859.191    21539.581    7294.6187    9451.2488    85.332714 
   93000    957.28333   -104.61115   0.86617008   -103.74498   -11838.957    4.4081061    4.4081061    4.4081061   -11838.957   -33159.254    24046.142    -26403.76   -12488.039    551.21429   -11721.656    85.655673 
   93100    1137.3823   -104.76687    1.0291274   -103.73774    7275.7634    4.3928201    4.3928201    4.3928201    7275.7634   -31069.659    32452.491    20444.458    23970.301   -1256.1834     14114.33    84.767672 
   93200    1191.2576   -104.82353    1.0778749   -103.74566    -3180.683    4.3923909    4.3923909    4.3923909    -3180.683   -27411.678    10731.976    7137.6529   -16071.977    8889.6721   -23583.265    84.742827 
   93300    945.34324   -104.61288   0.85536643   -103.75751   -10207.438    4.4000611    4.4000611    4.4000611   -10207.438   -45390.463     28602.06    -13833.91    12240.027    -1958.753   -14310.185    85.187546 
   93400    1235.0055   -104.86749    1.1174589   -103.75003    2113.4734    4.4027268    4.4027268    4.4027268    2113.4734   -36919.198    50389.122   -7129.5044    9230.9069    8569.3915   -4214.7247    85.342471 
   93500    1037.0808   -104.69258   0.93837251   -103.75421   -16932.026     4.400084     4.400084     4.400084   -16932.026   -20041.734   -3598.0352    -27156.31    1891.1645   -3178.2531   -15167.833    85.188879 
   93600    1302.0579   -104.92885    1.1781293   -103.75073    8227.4281    4.3933362    4.3933362    4.3933362    8227.4281   -27299.418    55461.328   -3479.6254    23625.447    9755.2779    14192.563    84.797553 
   93700    995.29533   -104.65629   0.90056413   -103.75572    772.87762    4.4048458    4.4048458    4.4048458    772.87762   -9784.9826    45542.592   -33438.977   -8424.0883   -4675.2878   -26010.484    85.465756 
   93800    1056.0703   -104.70967   0.95555464   -103.75411   -17286.299    4.3998789    4.3998789    4.3998789   -17286.299   -29359.646   -14554.127   -7945.1227    17834.645    6367.4826    -5760.998    85.176964 
   93900    1323.9942   -104.94809    1.1979778   -103.75011    10829.283    4.3908363    4.3908363    4.3908363    10829.283   -13763.377    46243.842    7.3828804   -14099.759    2110.8474   -499.66859     84.65288 
   94000    732.03664   -104.42319   0.66236213   -103.76083   -11978.155    4.4117958    4.4117958    4.4117958   -11978.155   -32352.174    11229.626   -14811.916    9495.2333     1092.959   -5472.7762    85.870941 
   94100     1189.108   -104.82003    1.0759299    -103.7441    3209.0094    4.4005862    4.4005862    4.4005862    3209.0094   -40239.678    18372.497     31494.21    13493.142    7009.3635     14457.31    85.218051 
   94200    1011.7603   -104.66654   0.91546202   -103.75108   -8609.1135    4.3957135    4.3957135    4.3957135   -8609.1135   -17736.214    3245.1668   -11336.293    1989.2407   -8015.9034   -37794.673    84.935282 
   94300     993.0541   -104.64896   0.89853622   -103.75042    2902.1418    4.4039038    4.4039038    4.4039038    2902.1418   -39864.301    32665.385    15905.342    27497.647    637.24599    4535.6496    85.410935 
   94400    1300.9983   -104.92475    1.1771706   -103.74758    -10066.91    4.3969812    4.3969812    4.3969812    -10066.91   -22769.354   -13844.682    6413.3045   -12606.203   -5032.7449   -16880.798    85.008788 
   94500    883.22187   -104.55815   0.79915771     -103.759   -15273.062    4.4069505    4.4069505    4.4069505   -15273.062   -18973.712   -4940.8255   -21904.649    18960.582   -4926.2301   -3165.1428    85.588321 
   94600     1367.281   -104.98206    1.2371446   -103.74492    15737.191    4.3943532    4.3943532    4.3943532    15737.191   -20325.243     28755.07    38781.745   -5576.5132   -4947.1874     3445.562    84.856456 
   94700    709.78795   -104.40111   0.64223106   -103.75888    4372.8794    4.4023087    4.4023087    4.4023087    4372.8794   -17607.424    36011.908   -5285.8457    14406.313    -2577.391   -30283.705    85.318158 
   94800    1544.6496   -105.13728    1.3976314   -103.73965   -17616.103     4.418313     4.418313     4.418313   -17616.103   -35887.079   -8709.0043    -8252.227    12105.596   -7222.6881    9452.4502     86.25205 
   94900    1028.2371   -104.67325    0.9303705   -103.74287    11826.975    4.3941936    4.3941936    4.3941936    11826.975    -7022.501    21413.919    21089.507    7854.4254   -4437.9434   -21080.797    84.847208 
   95000    1097.6714   -104.74303   0.99319612   -103.74983     16309.24    4.3976558    4.3976558    4.3976558     16309.24   -19793.093     67917.03    803.78297    17518.466    3529.4202    11360.063    85.047919 
   95100    1381.9939   -104.99457    1.2504571   -103.74411   -5825.0364    4.4113214    4.4113214    4.4113214   -5825.0364   -28879.743    25067.786   -13663.151   -11877.703   -3770.0928   -15957.785    85.843241 
   95200    875.67719   -104.54161   0.79233113   -103.74928    1916.1877     4.410579     4.410579     4.410579    1916.1877   -39089.886    28892.888    15945.561    16067.859    -1422.653   -21784.968    85.799907 
   95300    1313.7733   -104.93086    1.1887297   -103.74213   -642.56306    4.4071834    4.4071834    4.4071834   -642.56306   -33781.853    30333.616    1520.5474   -2709.8623   -2747.6346   -7206.2952    85.601894 
   95400    832.39643   -104.50426   0.75316978   -103.75109    6757.9611    4.3990588    4.3990588    4.3990588    6757.9611   -20545.799    33630.819    7188.8627    11088.155    1105.3551   -10805.763    85.129345 
   95500    1361.4374   -104.98286    1.2318572     -103.751   -9589.0209    4.4116703    4.4116703    4.4116703   -9589.0209   -46099.096    14906.841    2425.1917    8552.6129    362.37734    18674.279    85.863612 
   95600    933.57451   -104.59152   0.84471784   -103.74681   -12916.879    4.4193215    4.4193215    4.4193215   -12916.879   -32152.222    19796.493   -26394.907   -11207.138    449.59795   -11373.748    86.311127 
   95700    1262.5296   -104.87734    1.1423633   -103.73498   -5428.7235    4.4004536    4.4004536    4.4004536   -5428.7235   -31843.711   -6426.8728    21984.414    19331.415   -1370.8752   -3628.8738    85.210345 
   95800    1134.6539   -104.77131    1.0266587   -103.74465    11086.443     4.396709     4.396709     4.396709    11086.443   -2252.1329    57043.195   -21531.734   -12039.451   -1199.6054   -7554.1539    84.993004 
   95900    1126.1469   -104.77228    1.0189614   -103.75332   -15008.319    4.4082675    4.4082675    4.4082675   -15008.319   -38819.327     23231.74   -29437.369    25408.472    7001.8921   -6835.5766    85.665081 
   96000    1206.8655   -104.83502    1.0919973   -103.74302    7921.5753    4.4124376    4.4124376    4.4124376    7921.5753   -10909.885    40550.766   -5876.1547   -6060.1438   -3087.3963    19796.183    85.908421 
   96100     1070.568   -104.70881   0.96867243   -103.74014   -19485.202    4.4078911    4.4078911    4.4078911   -19485.202   -24696.255   -42072.499    8313.1492    18335.606    5614.0385   -2518.3292     85.64314 
   96200    1091.0152   -104.71737    0.9871735    -103.7302     24218.45    4.4002402    4.4002402    4.4002402     24218.45   -28183.465    49999.311    50839.504    6337.6544    6670.1829    3939.6489    85.197949 
   96300    1095.2167   -104.72877   0.99097507   -103.73779   -18423.027    4.4141032    4.4141032    4.4141032   -18423.027   -44487.773   -23494.254    12712.947    4809.2239   -3010.5082   -7870.4017    86.005742 
   96400     1168.574   -104.79615    1.0573503    -103.7388    2530.3232    4.4067916    4.4067916    4.4067916    2530.3232   -33369.881    39862.138    1098.7119    12722.513   -732.25935   -6994.7134    85.579063 
   96500    1168.3796   -104.79837    1.0571744    -103.7412    11775.833    4.3919239    4.3919239    4.3919239    11775.833   -8122.0558    33701.952    9747.6035   -13461.074    2558.6806    16548.496    84.715801 
   96600     1178.787   -104.82523    1.0665913   -103.75864   -13184.026    4.4051722    4.4051722    4.4051722   -13184.026   -42504.289   -21133.237    24085.446    14715.511    3536.8182   -3653.2993    85.484753 
   96700     1087.602   -104.73267   0.98408512   -103.74858   -1286.0663    4.4163783    4.4163783    4.4163783   -1286.0663   -48650.335    37355.905    7436.2318   -14216.179    5048.5599   -11264.602    86.138799 
   96800    724.28081   -104.40461   0.65534449   -103.74926    3041.3857    4.4001218    4.4001218    4.4001218    3041.3857   -25658.254    17321.416    17460.995    8598.7537    5667.4378    12394.432    85.191074 
   96900    1435.1831   -105.04009    1.2985838   -103.74151    216.72577     4.396133     4.396133     4.396133    216.72577   -28618.656     16959.51    12309.323    3424.5859    10366.701   -7360.7528    84.959603 
   97000    849.39226   -104.52162   0.76854797   -103.75308   -9845.3602    4.4107533    4.4107533    4.4107533   -9845.3602   -27888.605    14837.674   -16485.149   -5591.3435   -1210.7352    21122.975    85.810079 
   97100    1230.9984    -104.8576    1.1138332   -103.74376   -22458.294    4.4106259    4.4106259    4.4106259   -22458.294   -46176.927   -498.24303    -20699.71    7064.9997    12703.481   -11673.352    85.802641 
   97200    1292.1864   -104.89934    1.1691974   -103.73014    4447.1465    4.3978387    4.3978387    4.3978387    4447.1465    -19665.62    16369.704    16637.356   -6370.5054   -7169.6613    4731.6388    85.058532 
   97300    658.06295   -104.34204   0.59542919   -103.74661   -264.40096    4.4073087    4.4073087    4.4073087   -264.40096   -18694.119    12515.477    5385.4391    16784.156    12989.181    13208.238    85.609197 
   97400    1348.0869    -104.9571    1.2197773   -103.73732   -5418.8375    4.4071052    4.4071052    4.4071052   -5418.8375   -21796.562   -10658.241    16198.291     -6124.08    -8869.238   -1931.8977    85.597335 
   97500    966.11288   -104.61855   0.87415924   -103.74439   -7503.6046     4.399434     4.399434     4.399434   -7503.6046    -24965.09   -18311.664     20765.94    13953.473     4415.341    7337.6271    85.151129 
   97600    1225.4015    -104.8501     1.108769   -103.74133   -6518.2444     4.405215     4.405215     4.405215   -6518.2444   -29330.285    15715.642    -5940.091   -1143.1518    10348.971    94.098119    85.487245 
   97700    1218.4391   -104.84524    1.1024693   -103.74277   -13891.091    4.4048581    4.4048581    4.4048581   -13891.091   -27516.763   -29204.137    15047.627    9721.7113   -10908.359    14197.715     85.46647 
   97800    831.37132   -104.49555   0.75224224   -103.74331    883.56675    4.4097956    4.4097956    4.4097956    883.56675   -29343.966    13207.296     18787.37    7766.6753    24529.303   -10930.675    85.754195 
   97900    1220.1228    -104.8387    1.1039927    -103.7347    5014.7459    4.3967484    4.3967484    4.3967484    5014.7459   -26793.379    9626.1815    32211.436   -1474.2949   -6419.0125   -1062.1604    84.995288 
   98000     846.3091   -104.51171   0.76575826   -103.74595    1290.1673    4.3990176    4.3990176    4.3990176    1290.1673   -26362.107    -13272.25    43504.859    17861.952    1159.4384    9024.3468    85.126957 
   98100    1364.0346   -104.97758    1.2342071   -103.74338   -12043.225    4.4086986    4.4086986    4.4086986   -12043.225    -22185.82    11396.546   -25340.401   -4747.4627    25.200187   -1445.9276    85.690213 
   98200     987.5249   -104.63765   0.89353328   -103.74412   -7717.4097    4.4054789    4.4054789    4.4054789   -7717.4097   -32727.681   -14594.487     24169.94    25800.909   -4115.0937    5563.3463    85.502614 
   98300    1403.7852   -105.00044    1.2701743   -103.73027   -12998.239    4.4105069    4.4105069    4.4105069   -12998.239   -16797.012   -853.22027   -21344.484   -8410.7094    8504.9737    4483.0344    85.795696 
   98400    972.55882   -104.61698   0.87999166   -103.73699     567.3874     4.391189     4.391189     4.391189     567.3874   -24214.541   -6719.5461    32636.249    24595.812    2037.3831   -3174.6961    84.673284 
   98500    1169.6366   -104.80621    1.0583118    -103.7479    10674.406    4.4017609    4.4017609    4.4017609    10674.406    6183.8447    6558.1888    19281.186    3645.2302    3187.9965    4022.8387    85.286311 
   98600    791.21518   -104.45757   0.71590812   -103.74167   -17923.355    4.4188246    4.4188246    4.4188246   -17923.355   -16420.767   -7048.2384   -30301.061    15549.892    4215.3044   -27906.532     86.28202 
   98700    1113.1972   -104.74086    1.0072442   -103.73361   -5098.1356    4.3983227    4.3983227    4.3983227   -5098.1356   -18022.876   -11655.487    14383.956    8817.1206    1161.1078    13325.861    85.086619 
   98800    1213.4821   -104.83023    1.0979841   -103.73224    6655.4765    4.3936186    4.3936186    4.3936186    6655.4765   -759.14393    19718.788     1006.785    1626.9626    3771.9935   -12195.713    84.813904 
   98900     813.1559   -104.48157   0.73576055   -103.74581   -17643.521    4.4097281    4.4097281    4.4097281   -17643.521   -27171.943   -40233.716    14475.097     5541.274    1251.8741   -1389.6364    85.750256 
   99000    1258.3535   -104.87418    1.1385847    -103.7356    3428.6101    4.4114318    4.4114318    4.4114318    3428.6101    -33785.71    58977.485   -14905.945   -14546.452   -2061.8131    24186.779    85.849686 
   99100    874.26593   -104.53536   0.79105418   -103.74431   -4013.6122    4.3992681    4.3992681    4.3992681   -4013.6122   -20521.756   -18162.131    26643.051    18220.197    3323.0542   -18727.724    85.141498 
   99200    1219.0154   -104.84481    1.1029907   -103.74182   -287.37999    4.4016152    4.4016152    4.4016152   -287.37999   -37208.703    26783.287    9563.2763   -20335.126   -7343.4408     12378.37    85.277848 
   99300    1373.7074   -104.98188    1.2429593   -103.73892   -4626.1297    4.4003303    4.4003303    4.4003303   -4626.1297   -28111.082   -12176.289    26408.982    16637.994     1530.062   -5730.5262    85.203183 
   99400     887.3955   -104.55385    0.8029341   -103.75092   -8502.9046    4.4059847    4.4059847    4.4059847   -8502.9046   -48491.765    15619.762    7363.2888   -11516.506   -7955.6451   -3630.6388    85.532066 
   99500    1507.6408   -105.10237     1.364145   -103.73823   -7857.7405     4.411725     4.411725     4.411725   -7857.7405   -24205.882   -13642.202    14274.862   -2799.3487   -8572.3197    13830.367    85.866802 
   99600    671.58444   -104.35724   0.60766372   -103.74958    13654.024    4.4030217    4.4030217    4.4030217    13654.024   -36298.047    42199.957    35060.164   -4557.3126   -3994.9787    -24688.86    85.359621 
   99700    1408.7351   -105.00969    1.2746531   -103.73504    2380.8216    4.4044562    4.4044562    4.4044562    2380.8216   -37188.313    15300.423    29030.356   -12448.044   -8022.0557    2213.8081    85.443078 
   99800    945.66037   -104.59327   0.85565338   -103.73762    10247.595    4.4001575    4.4001575    4.4001575    10247.595   -32031.209    34884.343     27889.65    16.669154   -5512.7636   -14422.125    85.193147 
   99900    890.40379   -104.54859   0.80565606   -103.74294    20886.966     4.405293     4.405293     4.405293    20886.966   -35996.214    19552.982     79104.13    -14004.28   -4393.1902   -2690.9591    85.491786 
  100000    1474.3589   -105.06934    1.3340309   -103.73531   -22381.624    4.4060423    4.4060423    4.4060423   -22381.624   -31828.655   -24529.277   -10786.941    5010.8795   -781.13292    7839.1369    85.535418 
Loop time of 21.0576 on 1 procs for 100000 steps with 8 atoms

Pair  time (%) = 6.4193 (30.4845)
Kspce time (%) = 5.25 (24.9316)
Neigh time (%) = 0.0251837 (0.119594)
Comm  time (%) = 0.796482 (3.78239)
Outpt time (%) = 0.0224001 (0.106375)
Other time (%) = 8.54426 (40.5756)

Nlocal:    8 ave 8 max 8 min
Histogram: 1 0 0 0 0 0 0 0 0 0
Nghost:    1684 ave 1684 max 1684 min
Histogram: 1 0 0 0 0 0 0 0 0 0
Neighs:    2018 ave 2018 max 2018 min
Histogram: 1 0 0 0 0 0 0 0 0 0

Total # of neighbors = 2018
Ave neighs/atom = 252.25
Neighbor list builds = 345
Dangerous builds = 0
unfix 20
unfix 21
print "seeds:2852252"
seeds:2852252
