# ['Al']

107 atoms
1 atom types

    0.0000    11.2008 xlo xhi
    0.0000    11.2008 ylo yhi
    0.0000    11.2008 zlo zhi

    0.0000    -0.0000    -0.0000 xy xz yz

Atoms

1 1     1.8668     1.8668     0.0000
2 1     1.8668     0.0000     1.8668
3 1     0.0000     1.8668     1.8668
4 1     0.0000     0.0000     3.7336
5 1     1.8668     1.8668     3.7336
6 1     1.8668     0.0000     5.6004
7 1     0.0000     1.8668     5.6004
8 1     0.0000     0.0000     7.4672
9 1     1.8668     1.8668     7.4672
10 1     1.8668     0.0000     9.3340
11 1     0.0000     1.8668     9.3340
12 1     0.0000     3.7336     0.0000
13 1     1.8668     5.6004     0.0000
14 1     1.8668     3.7336     1.8668
15 1     0.0000     5.6004     1.8668
16 1     0.0000     3.7336     3.7336
17 1     1.8668     5.6004     3.7336
18 1     1.8668     3.7336     5.6004
19 1     0.0000     5.6004     5.6004
20 1     0.0000     3.7336     7.4672
21 1     1.8668     5.6004     7.4672
22 1     1.8668     3.7336     9.3340
23 1     0.0000     5.6004     9.3340
24 1     0.0000     7.4672     0.0000
25 1     1.8668     9.3340     0.0000
26 1     1.8668     7.4672     1.8668
27 1     0.0000     9.3340     1.8668
28 1     0.0000     7.4672     3.7336
29 1     1.8668     9.3340     3.7336
30 1     1.8668     7.4672     5.6004
31 1     0.0000     9.3340     5.6004
32 1     0.0000     7.4672     7.4672
33 1     1.8668     9.3340     7.4672
34 1     1.8668     7.4672     9.3340
35 1     0.0000     9.3340     9.3340
36 1     3.7336     0.0000     0.0000
37 1     5.6004     1.8668     0.0000
38 1     5.6004     0.0000     1.8668
39 1     3.7336     1.8668     1.8668
40 1     3.7336     0.0000     3.7336
41 1     5.6004     1.8668     3.7336
42 1     5.6004     0.0000     5.6004
43 1     3.7336     1.8668     5.6004
44 1     3.7336     0.0000     7.4672
45 1     5.6004     1.8668     7.4672
46 1     5.6004     0.0000     9.3340
47 1     3.7336     1.8668     9.3340
48 1     3.7336     3.7336     0.0000
49 1     5.6004     5.6004     0.0000
50 1     5.6004     3.7336     1.8668
51 1     3.7336     5.6004     1.8668
52 1     3.7336     3.7336     3.7336
53 1     5.6004     5.6004     3.7336
54 1     5.6004     3.7336     5.6004
55 1     3.7336     5.6004     5.6004
56 1     3.7336     3.7336     7.4672
57 1     5.6004     5.6004     7.4672
58 1     5.6004     3.7336     9.3340
59 1     3.7336     5.6004     9.3340
60 1     3.7336     7.4672     0.0000
61 1     5.6004     9.3340     0.0000
62 1     5.6004     7.4672     1.8668
63 1     3.7336     9.3340     1.8668
64 1     3.7336     7.4672     3.7336
65 1     5.6004     9.3340     3.7336
66 1     5.6004     7.4672     5.6004
67 1     3.7336     9.3340     5.6004
68 1     3.7336     7.4672     7.4672
69 1     5.6004     9.3340     7.4672
70 1     5.6004     7.4672     9.3340
71 1     3.7336     9.3340     9.3340
72 1     7.4672     0.0000     0.0000
73 1     9.3340     1.8668     0.0000
74 1     9.3340     0.0000     1.8668
75 1     7.4672     1.8668     1.8668
76 1     7.4672     0.0000     3.7336
77 1     9.3340     1.8668     3.7336
78 1     9.3340     0.0000     5.6004
79 1     7.4672     1.8668     5.6004
80 1     7.4672     0.0000     7.4672
81 1     9.3340     1.8668     7.4672
82 1     9.3340     0.0000     9.3340
83 1     7.4672     1.8668     9.3340
84 1     7.4672     3.7336     0.0000
85 1     9.3340     5.6004     0.0000
86 1     9.3340     3.7336     1.8668
87 1     7.4672     5.6004     1.8668
88 1     7.4672     3.7336     3.7336
89 1     9.3340     5.6004     3.7336
90 1     9.3340     3.7336     5.6004
91 1     7.4672     5.6004     5.6004
92 1     7.4672     3.7336     7.4672
93 1     9.3340     5.6004     7.4672
94 1     9.3340     3.7336     9.3340
95 1     7.4672     5.6004     9.3340
96 1     7.4672     7.4672     0.0000
97 1     9.3340     9.3340     0.0000
98 1     9.3340     7.4672     1.8668
99 1     7.4672     9.3340     1.8668
100 1     7.4672     7.4672     3.7336
101 1     9.3340     9.3340     3.7336
102 1     9.3340     7.4672     5.6004
103 1     7.4672     9.3340     5.6004
104 1     7.4672     7.4672     7.4672
105 1     9.3340     9.3340     7.4672
106 1     9.3340     7.4672     9.3340
107 1     7.4672     9.3340     9.3340
