# ['Ni']

107 atoms
1 atom types

    0.0000    10.5305 xlo xhi
    0.0000    10.5305 ylo yhi
    0.0000    10.5305 zlo zhi

    0.0000    -0.0000    -0.0000 xy xz yz

Atoms

1 1     1.7551     1.7551     0.0000
2 1     1.7551     0.0000     1.7551
3 1     0.0000     1.7551     1.7551
4 1     0.0000     0.0000     3.5102
5 1     1.7551     1.7551     3.5102
6 1     1.7551     0.0000     5.2653
7 1     0.0000     1.7551     5.2653
8 1     0.0000     0.0000     7.0203
9 1     1.7551     1.7551     7.0203
10 1     1.7551     0.0000     8.7754
11 1     0.0000     1.7551     8.7754
12 1     0.0000     3.5102     0.0000
13 1     1.7551     5.2653     0.0000
14 1     1.7551     3.5102     1.7551
15 1     0.0000     5.2653     1.7551
16 1     0.0000     3.5102     3.5102
17 1     1.7551     5.2653     3.5102
18 1     1.7551     3.5102     5.2653
19 1     0.0000     5.2653     5.2653
20 1     0.0000     3.5102     7.0203
21 1     1.7551     5.2653     7.0203
22 1     1.7551     3.5102     8.7754
23 1     0.0000     5.2653     8.7754
24 1     0.0000     7.0203     0.0000
25 1     1.7551     8.7754     0.0000
26 1     1.7551     7.0203     1.7551
27 1     0.0000     8.7754     1.7551
28 1     0.0000     7.0203     3.5102
29 1     1.7551     8.7754     3.5102
30 1     1.7551     7.0203     5.2653
31 1     0.0000     8.7754     5.2653
32 1     0.0000     7.0203     7.0203
33 1     1.7551     8.7754     7.0203
34 1     1.7551     7.0203     8.7754
35 1     0.0000     8.7754     8.7754
36 1     3.5102     0.0000     0.0000
37 1     5.2653     1.7551     0.0000
38 1     5.2653     0.0000     1.7551
39 1     3.5102     1.7551     1.7551
40 1     3.5102     0.0000     3.5102
41 1     5.2653     1.7551     3.5102
42 1     5.2653     0.0000     5.2653
43 1     3.5102     1.7551     5.2653
44 1     3.5102     0.0000     7.0203
45 1     5.2653     1.7551     7.0203
46 1     5.2653     0.0000     8.7754
47 1     3.5102     1.7551     8.7754
48 1     3.5102     3.5102     0.0000
49 1     5.2653     5.2653     0.0000
50 1     5.2653     3.5102     1.7551
51 1     3.5102     5.2653     1.7551
52 1     3.5102     3.5102     3.5102
53 1     5.2653     5.2653     3.5102
54 1     5.2653     3.5102     5.2653
55 1     3.5102     5.2653     5.2653
56 1     3.5102     3.5102     7.0203
57 1     5.2653     5.2653     7.0203
58 1     5.2653     3.5102     8.7754
59 1     3.5102     5.2653     8.7754
60 1     3.5102     7.0203     0.0000
61 1     5.2653     8.7754     0.0000
62 1     5.2653     7.0203     1.7551
63 1     3.5102     8.7754     1.7551
64 1     3.5102     7.0203     3.5102
65 1     5.2653     8.7754     3.5102
66 1     5.2653     7.0203     5.2653
67 1     3.5102     8.7754     5.2653
68 1     3.5102     7.0203     7.0203
69 1     5.2653     8.7754     7.0203
70 1     5.2653     7.0203     8.7754
71 1     3.5102     8.7754     8.7754
72 1     7.0203     0.0000     0.0000
73 1     8.7754     1.7551     0.0000
74 1     8.7754     0.0000     1.7551
75 1     7.0203     1.7551     1.7551
76 1     7.0203     0.0000     3.5102
77 1     8.7754     1.7551     3.5102
78 1     8.7754     0.0000     5.2653
79 1     7.0203     1.7551     5.2653
80 1     7.0203     0.0000     7.0203
81 1     8.7754     1.7551     7.0203
82 1     8.7754     0.0000     8.7754
83 1     7.0203     1.7551     8.7754
84 1     7.0203     3.5102     0.0000
85 1     8.7754     5.2653     0.0000
86 1     8.7754     3.5102     1.7551
87 1     7.0203     5.2653     1.7551
88 1     7.0203     3.5102     3.5102
89 1     8.7754     5.2653     3.5102
90 1     8.7754     3.5102     5.2653
91 1     7.0203     5.2653     5.2653
92 1     7.0203     3.5102     7.0203
93 1     8.7754     5.2653     7.0203
94 1     8.7754     3.5102     8.7754
95 1     7.0203     5.2653     8.7754
96 1     7.0203     7.0203     0.0000
97 1     8.7754     8.7754     0.0000
98 1     8.7754     7.0203     1.7551
99 1     7.0203     8.7754     1.7551
100 1     7.0203     7.0203     3.5102
101 1     8.7754     8.7754     3.5102
102 1     8.7754     7.0203     5.2653
103 1     7.0203     8.7754     5.2653
104 1     7.0203     7.0203     7.0203
105 1     8.7754     8.7754     7.0203
106 1     8.7754     7.0203     8.7754
107 1     7.0203     8.7754     8.7754
