LAMMPS (11 Aug 2017)
# ---- initialize simulations
clear
units metal
dimension 3
boundary p p p
atom_style atomic
atom_modify map array
# ---- create atoms
read_data /home/sullberg/repos/pypospack/examples/Ni__eam__born_exp_rose/01_preconditioning_3.5NN/rank_4/Ni_fcc_vac.lmps_min_pos/lammps.structure
  triclinic box = (0 0 0) to (10.5305 10.5305 10.5305) with tilt (0 -0 -0)
  1 by 1 by 1 MPI processor grid
  reading atoms ...
  107 atoms
# ---- define interatomic potential
include potential.mod
mass 1 58.6934

group Ni type 1
107 atoms in group Ni

pair_style eam/alloy
pair_coeff * * /home/sullberg/repos/pypospack/examples/Ni__eam__born_exp_rose/01_preconditioning_3.5NN/rank_4/Ni_fcc_vac.lmps_min_pos/Ni.eam.alloy Ni

neighbor 1.0 bin
neigh_modify every 1 delay 0 check yes
# ---- define settings
compute eng all pe/atom
compute eatoms all reduce sum c_eng

# ---- run minimization
reset_timestep 0
thermo 1
thermo_style custom step pe lx ly lz xy xz yz press pxx pyy pzz pxy pxz pyz c_eatoms
min_style cg
minimize 1e-20 1e-20 1000 100000
Neighbor list info ...
  update every 1 steps, delay 0 steps, check yes
  max neighbors/atom: 2000, page size: 100000
  master list distance cutoff = 11
  ghost atom cutoff = 11
  binsize = 5.5, bins = 2 2 2
  1 neighbor lists, perpetual/occasional/extra = 1 0 0
  (1) pair eam/alloy, perpetual
      attributes: half, newton on
      pair build: half/bin/newton/tri
      stencil: half/bin/3d/newton/tri
      bin: standard
Per MPI rank memory allocation (min/avg/max) = 4.384 | 4.384 | 4.384 Mbytes
Step PotEng Lx Ly Lz Xy Xz Yz Press Pxx Pyy Pzz Pxy Pxz Pyz c_eatoms 
       0   -489.78244      10.5305      10.5305      10.5305            0           -0           -0   -5648.9078   -5648.9078   -5648.9078   -5648.9078 -8.5185725e-08 -8.5223153e-08 -8.5212864e-08   -489.78244 
       1   -489.96823      10.5305      10.5305      10.5305            0           -0           -0   -7810.0877   -7810.0877   -7810.0877   -7810.0877 -9.2068951e-06 -9.2068726e-06 -9.206784e-06   -489.96823 
       2   -490.00949      10.5305      10.5305      10.5305            0           -0           -0   -8290.2121   -8290.2121   -8290.2121   -8290.2121 -1.4424093e-05 -1.442407e-05 -1.4424064e-05   -490.00949 
       3    -490.0153      10.5305      10.5305      10.5305            0           -0           -0    -8435.692    -8435.692    -8435.692    -8435.692 -7.2432576e-06 -7.2432377e-06 -7.2432815e-06    -490.0153 
       4   -490.01602      10.5305      10.5305      10.5305            0           -0           -0   -8438.1895   -8438.1895   -8438.1895   -8438.1895 -2.3374478e-06 -2.3373833e-06 -2.3373615e-06   -490.01602 
       5   -490.01608      10.5305      10.5305      10.5305            0           -0           -0   -8426.0701   -8426.0701   -8426.0701   -8426.0701 -1.6427947e-06 -1.642745e-06 -1.6427664e-06   -490.01608 
       6   -490.01609      10.5305      10.5305      10.5305            0           -0           -0   -8427.7147   -8427.7147   -8427.7147   -8427.7147 -5.6881073e-07 -5.689173e-07 -5.6883885e-07   -490.01609 
       7   -490.01609      10.5305      10.5305      10.5305            0           -0           -0   -8428.0432   -8428.0432   -8428.0432   -8428.0432 -1.1063204e-06 -1.1063248e-06 -1.106322e-06   -490.01609 
       8   -490.01609      10.5305      10.5305      10.5305            0           -0           -0   -8427.6299   -8427.6299   -8427.6299   -8427.6299 -4.4955328e-07 -4.4955779e-07 -4.4956058e-07   -490.01609 
       9   -490.01609      10.5305      10.5305      10.5305            0           -0           -0   -8427.2957   -8427.2957   -8427.2957   -8427.2957 -3.5295286e-07 -3.52928e-07 -3.529628e-07   -490.01609 
      10   -490.01609      10.5305      10.5305      10.5305            0           -0           -0   -8427.3112   -8427.3112   -8427.3112   -8427.3112 -3.1851014e-07 -3.1848023e-07 -3.1846133e-07   -490.01609 
      11   -490.01609      10.5305      10.5305      10.5305            0           -0           -0   -8427.3218   -8427.3218   -8427.3218   -8427.3218 -2.2066919e-07 -2.2061059e-07 -2.2064211e-07   -490.01609 
      12   -490.01609      10.5305      10.5305      10.5305            0           -0           -0   -8427.3213   -8427.3213   -8427.3213   -8427.3213 -1.9056535e-07 -1.9062958e-07 -1.9066857e-07   -490.01609 
      13   -490.01609      10.5305      10.5305      10.5305            0           -0           -0   -8427.3216   -8427.3216   -8427.3216   -8427.3216 -1.4096403e-07 -1.4093981e-07 -1.409318e-07   -490.01609 
      14   -490.01609      10.5305      10.5305      10.5305            0           -0           -0   -8427.3224   -8427.3224   -8427.3224   -8427.3224 -1.073877e-07 -1.0744913e-07 -1.0745015e-07   -490.01609 
      15   -490.01609      10.5305      10.5305      10.5305            0           -0           -0   -8427.3228   -8427.3228   -8427.3228   -8427.3228 -7.8385193e-08 -7.8448642e-08 -7.8463696e-08   -490.01609 
      16   -490.01609      10.5305      10.5305      10.5305            0           -0           -0   -8427.3227   -8427.3227   -8427.3227   -8427.3227 -4.9430793e-08 -4.9477093e-08 -4.9517823e-08   -490.01609 
      17   -490.01609      10.5305      10.5305      10.5305            0           -0           -0   -8427.3225   -8427.3225   -8427.3225   -8427.3225 -1.3889829e-08 -1.3879364e-08 -1.3885175e-08   -490.01609 
      18   -490.01609      10.5305      10.5305      10.5305            0           -0           -0   -8427.3226   -8427.3226   -8427.3226   -8427.3226 1.1916401e-08 1.1935393e-08 1.1975277e-08   -490.01609 
      19   -490.01609      10.5305      10.5305      10.5305            0           -0           -0   -8427.3226   -8427.3226   -8427.3226   -8427.3226 1.3514273e-08 1.3547748e-08 1.3652689e-08   -490.01609 
      20   -490.01609      10.5305      10.5305      10.5305            0           -0           -0   -8427.3226   -8427.3226   -8427.3226   -8427.3226 8.0379398e-09 8.0487364e-09 8.0550438e-09   -490.01609 
      21   -490.01609      10.5305      10.5305      10.5305            0           -0           -0   -8427.3226   -8427.3226   -8427.3226   -8427.3226 5.1643753e-09 5.1958917e-09 5.0983152e-09   -490.01609 
      22   -490.01609      10.5305      10.5305      10.5305            0           -0           -0   -8427.3226   -8427.3226   -8427.3226   -8427.3226 3.5719997e-09 3.5888966e-09 3.6436771e-09   -490.01609 
      23   -490.01609      10.5305      10.5305      10.5305            0           -0           -0   -8427.3226   -8427.3226   -8427.3226   -8427.3226 2.7587214e-09 2.706092e-09 2.7252546e-09   -490.01609 
      24   -490.01609      10.5305      10.5305      10.5305            0           -0           -0   -8427.3226   -8427.3226   -8427.3226   -8427.3226 2.2878222e-09 2.2646413e-09 2.2693093e-09   -490.01609 
      25   -490.01609      10.5305      10.5305      10.5305            0           -0           -0   -8427.3226   -8427.3226   -8427.3226   -8427.3226 1.8692377e-09 1.9465294e-09 1.8566453e-09   -490.01609 
      26   -490.01609      10.5305      10.5305      10.5305            0           -0           -0   -8427.3226   -8427.3226   -8427.3226   -8427.3226 1.512501e-09 1.5631237e-09 1.5681744e-09   -490.01609 
      27   -490.01609      10.5305      10.5305      10.5305            0           -0           -0   -8427.3226   -8427.3226   -8427.3226   -8427.3226 1.0954697e-09 1.1335054e-09 1.1813307e-09   -490.01609 
      28   -490.01609      10.5305      10.5305      10.5305            0           -0           -0   -8427.3226   -8427.3226   -8427.3226   -8427.3226 4.5480119e-10 4.7233496e-10 5.0876321e-10   -490.01609 
      29   -490.01609      10.5305      10.5305      10.5305            0           -0           -0   -8427.3226   -8427.3226   -8427.3226   -8427.3226 2.2235118e-10 2.1252904e-10 2.4420173e-10   -490.01609 
      30   -490.01609      10.5305      10.5305      10.5305            0           -0           -0   -8427.3226   -8427.3226   -8427.3226   -8427.3226  1.80477e-10 1.7679194e-10 1.7730611e-10   -490.01609 
      31   -490.01609      10.5305      10.5305      10.5305            0           -0           -0   -8427.3226   -8427.3226   -8427.3226   -8427.3226 7.9044624e-11 9.4954695e-11 5.6835188e-11   -490.01609 
      32   -490.01609      10.5305      10.5305      10.5305            0           -0           -0   -8427.3226   -8427.3226   -8427.3226   -8427.3226 7.0343168e-11 -7.0409565e-12 5.9514469e-11   -490.01609 
Loop time of 0.195367 on 1 procs for 32 steps with 107 atoms

58.7% CPU use with 1 MPI tasks x no OpenMP threads

Minimization stats:
  Stopping criterion = energy tolerance
  Energy initial, next-to-last, final = 
        -489.782444298     -490.016090683     -490.016090683
  Force two-norm initial, final = 1.70406 2.60877e-12
  Force max component initial, final = 0.345787 4.68715e-13
  Final line search alpha, max atom move = 1 4.68715e-13
  Iterations, force evaluations = 32 64

MPI task timing breakdown:
Section |  min time  |  avg time  |  max time  |%varavg| %total
---------------------------------------------------------------
Pair    | 0.19322    | 0.19322    | 0.19322    |   0.0 | 98.90
Neigh   | 0          | 0          | 0          |   0.0 |  0.00
Comm    | 0.00099802 | 0.00099802 | 0.00099802 |   0.0 |  0.51
Output  | 0.0007143  | 0.0007143  | 0.0007143  |   0.0 |  0.37
Modify  | 0          | 0          | 0          |   0.0 |  0.00
Other   |            | 0.0004363  |            |       |  0.22

Nlocal:    107 ave 107 max 107 min
Histogram: 1 0 0 0 0 0 0 0 0 0
Nghost:    3259 ave 3259 max 3259 min
Histogram: 1 0 0 0 0 0 0 0 0 0
Neighs:    28093 ave 28093 max 28093 min
Histogram: 1 0 0 0 0 0 0 0 0 0

Total # of neighbors = 28093
Ave neighs/atom = 262.551
Neighbor list builds = 0
Dangerous builds = 0

# ---- define output variables ----
variable natoms equal "count(all)"
variable tot_energy equal "c_eatoms"
variable a11 equal "xhi-xlo"
variable a22 equal "yhi-ylo"
variable a33 equal "zhi-zlo"
variable tilt_xy equal "xy"
variable tilt_xz equal "xz"
variable tilt_yz equal "yz"
variable tot_press equal "press"
variable press_xx equal "pxx"
variable press_yy equal "pyy"
variable press_zz equal "pzz"
variable press_xy equal "pxy"
variable press_xz equal "pxz"
variable press_yz equal "pyz"

# ---- output ----
print "pypospack:output_section:begin"
pypospack:output_section:begin
print "tot_energy = ${tot_energy}"
tot_energy = -490.016090683153
print "num_atoms = ${natoms}"
num_atoms = 107
print "a11 = ${a11}"
a11 = 10.5305
print "a22 = ${a22}"
a22 = 10.5305
print "a33 = ${a33}"
a33 = 10.5305
print "a12 = ${tilt_xy}"
a12 = 0
print "a13 = ${tilt_xz}"
a13 = -0
print "a23 = ${tilt_yz}"
a23 = -0
print "tot_press = ${tot_press}"
tot_press = -8427.32258075132
print "pxx = ${press_xx}"
pxx = -8427.32258075131
print "pyy = ${press_yy}"
pyy = -8427.32258075127
print "pzz = ${press_zz}"
pzz = -8427.32258075137
print "pxy = ${press_xy}"
pxy = 7.03431679625449e-11
print "pxz = ${press_xz}"
pxz = -7.04095653073624e-12
print "pyz = ${press_yz}"
pyz = 5.95144691232481e-11
print "pypospack:output_section:done"
pypospack:output_section:done
print "pypospack:lammps_sim:done"
pypospack:lammps_sim:done
Total wall time: 0:00:00
