# ['Ni']

28 atoms
1 atom types

    0.0000     2.4796 xlo xhi
    0.0000     4.2949 ylo yhi
    0.0000    28.3447 zlo zhi

    0.0000     0.0000     0.0000 xy xz yz

Atoms

1 1     0.0000     0.0000     0.0000
2 1     1.2398     2.1474     0.0000
3 1     1.2398     0.7158     2.0246
4 1     0.0000     2.8633     2.0246
5 1     0.0000     1.4316     4.0492
6 1     1.2398     3.5791     4.0492
7 1     0.0000     0.0000     6.0739
8 1     1.2398     2.1474     6.0739
9 1     1.2398     0.7158     8.0985
10 1     0.0000     2.8633     8.0985
11 1     0.0000     1.4316    10.1231
12 1     1.2398     3.5791    10.1231
13 1     0.0000     0.0000    12.1477
14 1     1.2398     2.1474    12.1477
15 1     0.0000     1.4316    14.1724
16 1     1.2398     3.5791    14.1724
17 1     0.0000     0.0000    16.1970
18 1     1.2398     2.1474    16.1970
19 1     1.2398     0.7158    18.2216
20 1     0.0000     2.8633    18.2216
21 1     0.0000     1.4316    20.2462
22 1     1.2398     3.5791    20.2462
23 1     0.0000     0.0000    22.2708
24 1     1.2398     2.1474    22.2708
25 1     1.2398     0.7158    24.2955
26 1     0.0000     2.8633    24.2955
27 1     0.0000     1.4316    26.3201
28 1     1.2398     3.5791    26.3201
