# ['Ni']

10 atoms
1 atom types

    0.0000     3.2094 xlo xhi
    0.0000     2.2974 ylo yhi
    0.0000    22.9739 zlo zhi

    0.0000     0.0000     0.0000 xy xz yz

Atoms

1 1     0.0000     0.0000     0.0000
2 1     1.6047     1.1487     1.1487
3 1     0.0000     0.0000     2.2974
4 1     1.6047     1.1487     3.4461
5 1     0.0000     0.0000     4.5948
6 1     1.6047     1.1487     5.7435
7 1     0.0000     0.0000     6.8922
8 1     1.6047     1.1487     8.0409
9 1     0.0000     0.0000     9.1896
10 1     1.6047     1.1487    10.3383
