# ['Ni']

18 atoms
1 atom types

    0.0000     2.3533 xlo xhi
    0.0000     4.0760 ylo yhi
    0.0000    34.5800 zlo zhi

    0.0000     0.0000    -0.0004 xy xz yz

Atoms

1 1     0.0000     0.0000     0.0000
2 1     1.1766     0.6793     1.9211
3 1     0.0000     1.3587     3.8422
4 1     1.1766     2.0380     0.0000
5 1     0.0000     2.7173     1.9211
6 1     1.1766     3.3966     3.8422
7 1     0.0000     0.0000     5.7634
8 1     1.1766     0.6793     7.6844
9 1     0.0000     1.3587     9.6056
10 1     1.1766     2.0380     5.7634
11 1     0.0000     2.7173     7.6844
12 1     1.1766     3.3966     9.6056
13 1     0.0000     0.0000    11.5267
14 1     1.1766     0.6793    13.4478
15 1     0.0000     1.3587    15.3689
16 1     1.1766     2.0380    11.5267
17 1     0.0000     2.7173    13.4478
18 1     1.1766     3.3966    15.3689
