LAMMPS (11 Aug 2017)
Reading data file ...
  triclinic box = (0 0 0) to (3.5167 3.5167 3.5167) with tilt (0 -0 0)
  1 by 1 by 1 MPI processor grid
  reading atoms ...
  4 atoms
4 atoms in group Ni
Neighbor list info ...
  update every 1 steps, delay 0 steps, check yes
  max neighbors/atom: 2000, page size: 100000
  master list distance cutoff = 5.64464
  ghost atom cutoff = 5.64464
  binsize = 2.82232, bins = 2 2 2
  1 neighbor lists, perpetual/occasional/extra = 1 0 0
  (1) pair eam/alloy, perpetual
      attributes: half, newton on
      pair build: half/bin/newton/tri
      stencil: half/bin/3d/newton/tri
      bin: standard
Setting up cg style minimization ...
  Unit style    : metal
  Current step  : 0
WARNING: Energy due to 3 extra global DOFs will be included in minimizer energies
Per MPI rank memory allocation (min/avg/max) = 4.086 | 4.086 | 4.086 Mbytes
Step Temp PotEng Press Pxx Pyy Pzz Pxy Pxz Pyz Lx Ly Lz Volume 
       0            0   -17.942168    -259187.6    -259187.6    -259187.6    -259187.6 -5.1123978e-13 6.6461171e-12 -6.1348773e-12       3.5167       3.5167       3.5167    43.491658 
       1            0   -17.944277   -258992.96   -258992.96   -258992.96   -258992.96 6.9038079e-12 1.5853189e-11 -1.6875975e-11    3.5163483    3.5163483    3.5163483    43.478612 
       2            0   -17.946385   -258797.84   -258797.84   -258797.84   -258797.84 -3.1204345e-11 -3.8877545e-11 -1.2532893e-11    3.5159967    3.5159967    3.5159967    43.465568 
       3            0   -17.948491   -258602.25   -258602.25   -258602.25   -258602.25 -1.2280804e-11 -1.0745704e-11 8.1872027e-12     3.515645     3.515645     3.515645    43.452527 
       4            0   -17.950595   -258406.17   -258406.17   -258406.17   -258406.17 -9.4692945e-12 2.3033419e-12 -9.9811482e-12    3.5152933    3.5152933    3.5152933    43.439489 
       5            0   -17.952696   -258209.61   -258209.61   -258209.61   -258209.61 4.8640703e-12 1.0240148e-12 -4.0192581e-11    3.5149417    3.5149417    3.5149417    43.426453 
       6            0   -17.954796   -258012.58   -258012.58   -258012.58   -258012.58 -1.0243222e-12 2.6120217e-11 4.2765453e-11      3.51459      3.51459      3.51459     43.41342 
       7            0   -17.956894   -257815.06   -257815.06   -257815.06   -257815.06 -1.4857132e-11 -2.0492595e-12 -9.4778254e-12    3.5142383    3.5142383    3.5142383    43.400389 
       8            0   -17.958989   -257617.06   -257617.06   -257617.06   -257617.06 -1.1530546e-11 -3.6641513e-11 -6.4314824e-11    3.5138866    3.5138866    3.5138866    43.387362 
       9            0   -17.961083   -257418.57   -257418.57   -257418.57   -257418.57 -4.1522432e-11 -1.179032e-11 -3.0757357e-12     3.513535     3.513535     3.513535    43.374336 
      10            0   -17.963174   -257219.61   -257219.61   -257219.61   -257219.61 -2.8971876e-11 -2.8971876e-11 -4.1278514e-11    3.5131833    3.5131833    3.5131833    43.361313 
      11            0   -17.965264   -257020.16   -257020.16   -257020.16   -257020.16 -1.3336195e-11            0 4.1034447e-12    3.5128316    3.5128316    3.5128316    43.348293 
      12            0   -17.967351   -256820.22   -256820.22   -256820.22   -256820.22 1.4366371e-11 -1.4879455e-11 -1.539254e-12      3.51248      3.51248      3.51248    43.335276 
      13            0   -17.969437    -256619.8    -256619.8    -256619.8    -256619.8 4.3625299e-12 1.8219978e-11 1.2061112e-11    3.5121283    3.5121283    3.5121283    43.322261 
      14            0    -17.97152    -256418.9    -256418.9    -256418.9    -256418.9 -3.8504476e-12 4.6718764e-11 3.8504476e-11    3.5117766    3.5117766    3.5117766    43.309249 
      15            0   -17.973601    -256217.5    -256217.5    -256217.5    -256217.5 1.5663192e-11 -3.3380573e-12 7.7032091e-12     3.511425     3.511425     3.511425    43.296239 
      16            0    -17.97568   -256015.62   -256015.62   -256015.62   -256015.62 -2.5171378e-11 -9.2466288e-12 -9.2466288e-12    3.5110733    3.5110733    3.5110733    43.283232 
      17            0   -17.977758   -255813.25   -255813.25   -255813.25   -255813.25 3.3400639e-12 2.5949727e-11 3.8539199e-12    3.5107216    3.5107216    3.5107216    43.270227 
      18            0   -17.979833    -255610.4    -255610.4    -255610.4    -255610.4 -1.0537214e-11 -1.0537214e-11 -2.3387475e-11    3.5103699    3.5103699    3.5103699    43.257226 
      19            0   -17.981906   -255407.05   -255407.05   -255407.05   -255407.05 -9.7691341e-12 -1.6967443e-11 -2.1337845e-11    3.5100183    3.5100183    3.5100183    43.244226 
      20            0   -17.983977   -255203.21   -255203.21   -255203.21   -255203.21 -2.211574e-11 -3.0087692e-11 -2.0315621e-11    3.5096666    3.5096666    3.5096666     43.23123 
      21            0   -17.986046   -254998.88   -254998.88   -254998.88   -254998.88 1.6977647e-11 -2.2636863e-11 -8.2315866e-12    3.5093149    3.5093149    3.5093149    43.218236 
      22            0   -17.988113   -254794.06   -254794.06   -254794.06   -254794.06 3.9883737e-11 -2.8304587e-12 -1.3637665e-11    3.5089633    3.5089633    3.5089633    43.205244 
      23            0   -17.990177   -254588.75   -254588.75   -254588.75   -254588.75 1.7760035e-11 -1.9304386e-11 -4.0153122e-11    3.5086116    3.5086116    3.5086116    43.192255 
      24            0    -17.99224   -254382.94   -254382.94   -254382.94   -254382.94 -1.9567661e-11 -2.5746922e-11 -3.0123899e-11    3.5082599    3.5082599    3.5082599    43.179269 
      25            0   -17.994301   -254176.64   -254176.64   -254176.64   -254176.64 3.2965973e-11 4.9191413e-11 4.8933866e-11    3.5079083    3.5079083    3.5079083    43.166285 
      26            0   -17.996359   -253969.85   -253969.85   -253969.85   -253969.85 -1.6745569e-11 -2.6535286e-11 -2.8596279e-11    3.5075566    3.5075566    3.5075566    43.153304 
      27            0   -17.998416   -253762.56   -253762.56   -253762.56   -253762.56 -4.0974561e-11 -2.7058672e-11 -2.3966253e-11    3.5072049    3.5072049    3.5072049    43.140326 
      28            0    -18.00047   -253554.77   -253554.77   -253554.77   -253554.77 1.3404517e-11 3.454241e-11 2.1137892e-11    3.5068532    3.5068532    3.5068532     43.12735 
      29            0   -18.002522   -253346.49   -253346.49   -253346.49   -253346.49 1.5729261e-11 1.2119267e-11 -1.8049972e-12    3.5065016    3.5065016    3.5065016    43.114377 
      30            0   -18.004572   -253137.71   -253137.71   -253137.71   -253137.71 1.4186389e-11 -1.4186389e-11 5.9324898e-12    3.5061499    3.5061499    3.5061499    43.101406 
      31            0   -18.006621   -252928.44   -252928.44   -252928.44   -252928.44 -1.1610539e-11 9.2884309e-12 4.721619e-11    3.5057982    3.5057982    3.5057982    43.088438 
      32            0   -18.008666   -252718.66   -252718.66   -252718.66   -252718.66 2.090526e-11 -1.6259647e-11 2.761559e-11    3.5054466    3.5054466    3.5054466    43.075473 
      33            0    -18.01071   -252508.38   -252508.38   -252508.38   -252508.38 -1.0843027e-11 -2.2202389e-11 -5.1633464e-13    3.5050949    3.5050949    3.5050949     43.06251 
      34            0   -18.012752   -252297.61   -252297.61   -252297.61   -252297.61 3.6154306e-12 1.4203477e-11 9.2968215e-12    3.5047432    3.5047432    3.5047432     43.04955 
      35            0   -18.014792   -252086.33   -252086.33   -252086.33   -252086.33 -1.9890855e-11 -7.2330383e-12 -1.0332912e-12    3.5043916    3.5043916    3.5043916    43.036592 
      36            0   -18.016829   -251874.55   -251874.55   -251874.55   -251874.55 -6.4600145e-12 3.4108877e-11 1.0336023e-11    3.5040399    3.5040399    3.5040399    43.023637 
      37            0   -18.018865   -251662.27   -251662.27   -251662.27   -251662.27 2.8432624e-12 1.9127401e-11 6.7204383e-12    3.5036882    3.5036882    3.5036882    43.010685 
      38            0   -18.020898   -251449.48   -251449.48   -251449.48   -251449.48 8.532356e-12  1.65476e-11 2.8441187e-11    3.5033365    3.5033365    3.5033365    42.997735 
      39            0   -18.022929   -251236.19   -251236.19   -251236.19   -251236.19 4.0088289e-11 2.9742924e-11 2.4311607e-11    3.5029849    3.5029849    3.5029849    42.984788 
      40            0   -18.024958    -251022.4    -251022.4    -251022.4    -251022.4 -2.8458323e-12 -5.1742406e-12 4.3981045e-12    3.5026332    3.5026332    3.5026332    42.971843 
      41            0   -18.026985    -250808.1    -250808.1    -250808.1    -250808.1 -1.9150458e-11 6.4697493e-12 8.0224891e-12    3.5022815    3.5022815    3.5022815    42.958901 
      42            0   -18.029009    -250593.3    -250593.3    -250593.3    -250593.3 1.5790945e-11 2.5369059e-11 3.3135097e-11    3.5019299    3.5019299    3.5019299    42.945961 
      43            0   -18.031032   -250377.99   -250377.99   -250377.99   -250377.99 4.1431352e-12 -2.7707216e-11 -3.7288216e-11    3.5015782    3.5015782    3.5015782    42.933025 
      44            0   -18.033052   -250162.17   -250162.17   -250162.17   -250162.17 6.9936475e-12 2.8492638e-12 3.2637022e-11    3.5012265    3.5012265    3.5012265     42.92009 
      45            0   -18.035071   -249945.84   -249945.84   -249945.84   -249945.84 -2.8501225e-12 -5.7002451e-12 9.0685717e-12    3.5008749    3.5008749    3.5008749    42.907159 
      46            0   -18.037087      -249729      -249729      -249729      -249729 6.2203235e-12 1.5291629e-11 1.814261e-11    3.5005232    3.5005232    3.5005232     42.89423 
      47            0   -18.039101   -249511.66   -249511.66   -249511.66   -249511.66 -2.7222119e-11 -2.411102e-11 -9.5925562e-12    3.5001715    3.5001715    3.5001715    42.881303 
      48            0   -18.041112    -249293.8    -249293.8    -249293.8    -249293.8 5.6276007e-11 1.9709569e-11 3.1379709e-11    3.4998198    3.4998198    3.4998198    42.868379 
      49            0   -18.043122   -249075.43   -249075.43   -249075.43   -249075.43 2.5941463e-11 5.4477072e-12 1.4786634e-11    3.4994682    3.4994682    3.4994682    42.855458 
      50            0    -18.04513   -248856.55   -248856.55   -248856.55   -248856.55 -1.0639207e-11 2.3354357e-12 -2.8025228e-11    3.4991165    3.4991165    3.4991165     42.84254 
      51            0   -18.047135   -248637.16   -248637.16   -248637.16   -248637.16 -1.5574266e-12 -2.1284831e-11 1.8169977e-12    3.4987648    3.4987648    3.4987648    42.829624 
      52            0   -18.049138   -248417.26   -248417.26   -248417.26   -248417.26 9.0877287e-12 -1.8175457e-12 5.1929878e-13    3.4984132    3.4984132    3.4984132     42.81671 
      53            0   -18.051139   -248196.84   -248196.84   -248196.84   -248196.84 -4.4153711e-12 2.0778217e-12 -1.2986386e-12    3.4980615    3.4980615    3.4980615    42.803799 
      54            0   -18.053138    -247975.9    -247975.9    -247975.9    -247975.9 3.8970909e-12 2.0264873e-11 1.1691273e-11    3.4977098    3.4977098    3.4977098    42.790891 
      55            0   -18.055134   -247754.45   -247754.45   -247754.45   -247754.45 -6.7569954e-12 -9.0959554e-12 1.3254106e-11    3.4973582    3.4973582    3.4973582    42.777985 
      56            0   -18.057129   -247532.49   -247532.49   -247532.49   -247532.49 -3.4575059e-11 1.8717325e-11 4.6533351e-11    3.4970065    3.4970065    3.4970065    42.765082 
      57            0   -18.059121      -247310      -247310      -247310      -247310 2.8604543e-12 -3.3805368e-11 -1.9503097e-11    3.4966548    3.4966548    3.4966548    42.752182 
      58            0   -18.061111      -247087      -247087      -247087      -247087 3.381557e-12 1.6647665e-11 -3.9017966e-12    3.4963031    3.4963031    3.4963031    42.739284 
      59            0   -18.063099   -246863.48   -246863.48   -246863.48   -246863.48 4.5014302e-11 4.7616285e-11 6.504957e-11    3.4959515    3.4959515    3.4959515    42.726389 
      60            0   -18.065084   -246639.44   -246639.44   -246639.44   -246639.44 -4.2425121e-11 -1.145218e-11 -2.863045e-11    3.4955998    3.4955998    3.4955998    42.713496 
      61            0   -18.067068   -246414.88   -246414.88   -246414.88   -246414.88 -1.1455637e-11 -8.3313724e-12  3.38462e-12    3.4952481    3.4952481    3.4952481    42.700606 
      62            0   -18.069049    -246189.8    -246189.8    -246189.8    -246189.8 -1.3021699e-11 4.0106834e-11 2.9689475e-11    3.4948965    3.4948965    3.4948965    42.687718 
      63            0   -18.071028    -245964.2    -245964.2    -245964.2    -245964.2 3.4648179e-11 5.8094315e-11 4.0639969e-11    3.4945448    3.4945448    3.4945448    42.674833 
      64            0   -18.073005   -245738.08   -245738.08   -245738.08   -245738.08 -3.3876867e-11 -2.6059129e-12 -3.1270955e-12    3.4941931    3.4941931    3.4941931    42.661951 
      65            0   -18.074979   -245511.43   -245511.43   -245511.43   -245511.43 -7.8200995e-13 -7.2987596e-12 -2.9977048e-11    3.4938415    3.4938415    3.4938415    42.649071 
      66            0   -18.076951   -245284.26   -245284.26   -245284.26   -245284.26 -2.424963e-11 -1.5123425e-11 -2.2685138e-11    3.4934898    3.4934898    3.4934898    42.636194 
      67            0   -18.078922   -245056.57   -245056.57   -245056.57   -245056.57 3.1038469e-11 -5.4252114e-11 -5.4773769e-12    3.4931381    3.4931381    3.4931381     42.62332 
      68            0   -18.080889   -244828.35   -244828.35   -244828.35   -244828.35 -2.3481564e-11 1.8785251e-11 9.3926255e-12    3.4927864    3.4927864    3.4927864    42.610448 
      69            0   -18.082855    -244599.6    -244599.6    -244599.6    -244599.6 -5.7416719e-12 -9.3954632e-12 -1.3571225e-11    3.4924348    3.4924348    3.4924348    42.597578 
      70            0   -18.084818   -244370.33   -244370.33   -244370.33   -244370.33 9.9204299e-12 3.3155121e-11 1.5402773e-11    3.4920831    3.4920831    3.4920831    42.584712 
      71            0    -18.08678   -244140.53   -244140.53   -244140.53   -244140.53 -8.6177134e-12 -5.7451423e-12 -1.8802284e-11    3.4917314    3.4917314    3.4917314    42.571847 
      72            0   -18.088739    -243910.2    -243910.2    -243910.2    -243910.2 -2.533851e-11 1.044887e-12 -1.5412083e-11    3.4913798    3.4913798    3.4913798    42.558986 
      73            0   -18.090695   -243679.34   -243679.34   -243679.34   -243679.34 8.8842238e-12 -3.9195105e-12 -1.6200643e-11    3.4910281    3.4910281    3.4910281    42.546127 
      74            0    -18.09265   -243447.95   -243447.95   -243447.95   -243447.95 -4.8355241e-11 -2.8229006e-11 -1.8819337e-11    3.4906764    3.4906764    3.4906764     42.53327 
      75            0   -18.094602   -243216.03   -243216.03   -243216.03   -243216.03 -3.1897961e-11 -1.9609402e-11 -1.8302109e-12    3.4903248    3.4903248    3.4903248    42.520417 
      76            0   -18.096552   -242983.58   -242983.58   -242983.58   -242983.58 -3.1384529e-12 1.0723048e-11 -1.046151e-12    3.4899731    3.4899731    3.4899731    42.507565 
      77            0   -18.098499    -242750.6    -242750.6    -242750.6    -242750.6 1.9359645e-11 1.0987907e-11 4.447486e-12    3.4896214    3.4896214    3.4896214    42.494717 
      78            0   -18.100445   -242517.09   -242517.09   -242517.09   -242517.09 1.2561405e-11 -7.850878e-13 -5.2339186e-13    3.4892697    3.4892697    3.4892697    42.481871 
      79            0   -18.102388   -242283.04   -242283.04   -242283.04   -242283.04 2.7748158e-11 -1.3088754e-11 -1.7277155e-11    3.4889181    3.4889181    3.4889181    42.469027 
      80            0   -18.104329   -242048.46   -242048.46   -242048.46   -242048.46 2.1733903e-11 -7.5937732e-12 2.6185425e-13    3.4885664    3.4885664    3.4885664    42.456186 
      81            0   -18.106268   -241813.34   -241813.34   -241813.34   -241813.34 -2.2526277e-11 -1.4144407e-11 -1.9383076e-11    3.4882147    3.4882147    3.4882147    42.443348 
      82            0   -18.108204   -241577.68   -241577.68   -241577.68   -241577.68 -7.8603807e-12 6.0262919e-12 -1.8340888e-12    3.4878631    3.4878631    3.4878631    42.430512 
      83            0   -18.110138   -241341.49   -241341.49   -241341.49   -241341.49 -4.1934714e-12 -3.3023587e-11 -1.0483678e-11    3.4875114    3.4875114    3.4875114    42.417679 
      84            0    -18.11207   -241104.77   -241104.77   -241104.77   -241104.77 1.0749022e-11 1.7303303e-11 1.7565475e-11    3.4871597    3.4871597    3.4871597    42.404849 
      85            0   -18.113999    -240867.5    -240867.5    -240867.5    -240867.5 1.2325778e-11 1.5735036e-12 -2.9896568e-11    3.4868081    3.4868081    3.4868081    42.392021 
      86            0   -18.115926   -240629.69   -240629.69   -240629.69   -240629.69 -1.6264458e-11 -1.6789118e-11 2.0986397e-12    3.4864564    3.4864564    3.4864564    42.379195 
      87            0   -18.117851   -240391.35   -240391.35   -240391.35   -240391.35 -8.1346902e-12 -3.1489123e-12 1.3120468e-12    3.4861047    3.4861047    3.4861047    42.366373 
      88            0   -18.119774   -240152.46   -240152.46   -240152.46   -240152.46 -7.0871973e-12 1.4174395e-11 -3.1498655e-12     3.485753     3.485753     3.485753    42.353553 
      89            0   -18.121694   -239913.04   -239913.04   -239913.04   -239913.04 4.4636603e-12 2.4681416e-11 -1.3390981e-11    3.4854014    3.4854014    3.4854014    42.340735 
      90            0   -18.123612   -239673.07   -239673.07   -239673.07   -239673.07 -1.050591e-11 6.0408981e-12 -1.8910638e-11    3.4850497    3.4850497    3.4850497     42.32792 
      91            0   -18.125528   -239432.56   -239432.56   -239432.56   -239432.56 -1.3136364e-11 -2.7849091e-11 -4.4663636e-12     3.484698     3.484698     3.484698    42.315108 
      92            0   -18.127441    -239191.5    -239191.5    -239191.5    -239191.5 -3.4164888e-12 -2.076174e-11 4.9933298e-12    3.4843464    3.4843464    3.4843464    42.302298 
      93            0   -18.129352    -238949.9    -238949.9    -238949.9    -238949.9 -1.393298e-11 1.025257e-11 3.4438121e-11    3.4839947    3.4839947    3.4839947    42.289491 
      94            0   -18.131261   -238707.76   -238707.76   -238707.76   -238707.76 -2.3666944e-12 -1.0518642e-12 -2.4455842e-11     3.483643     3.483643     3.483643    42.276686 
      95            0   -18.133167   -238465.07   -238465.07   -238465.07   -238465.07 -4.2087311e-12 -6.2867921e-11 -4.9978682e-11    3.4832914    3.4832914    3.4832914    42.263884 
      96            0   -18.135071   -238221.83   -238221.83   -238221.83   -238221.83 -5.2625077e-13 2.6049413e-11 1.5787523e-12    3.4829397    3.4829397    3.4829397    42.251084 
      97            0   -18.136973   -237978.04   -237978.04   -237978.04   -237978.04 -1.237064e-11 2.4214869e-11 1.3160255e-12     3.482588     3.482588     3.482588    42.238287 
      98            0   -18.138872   -237733.71   -237733.71   -237733.71   -237733.71 5.0024122e-12 1.3164243e-12 3.4227031e-12    3.4822363    3.4822363    3.4822363    42.225493 
      99            0    -18.14077   -237488.83   -237488.83   -237488.83   -237488.83 8.4276684e-12 1.6591972e-11 7.3742098e-12    3.4818847    3.4818847    3.4818847    42.212701 
     100            0   -18.142664    -237243.4    -237243.4    -237243.4    -237243.4 -6.4280446e-11 -2.6081001e-11 -3.2403668e-11     3.481533     3.481533     3.481533    42.199912 
Loop time of 0.053252 on 1 procs for 100 steps with 4 atoms

5.7% CPU use with 1 MPI tasks x no OpenMP threads

Minimization stats:
  Stopping criterion = max iterations
  Energy initial, next-to-last, final = 
        -17.9421677584     -18.1407695688     -18.1426643102
  Force two-norm initial, final = 12.1863 10.9325
  Force max component initial, final = 7.03574 6.3119
  Final line search alpha, max atom move = 1.58235e-05 9.98765e-05
  Iterations, force evaluations = 100 100

MPI task timing breakdown:
Section |  min time  |  avg time  |  max time  |%varavg| %total
---------------------------------------------------------------
Pair    | 0.00098133 | 0.00098133 | 0.00098133 |   0.0 |  1.84
Neigh   | 0          | 0          | 0          |   0.0 |  0.00
Comm    | 0.00018978 | 0.00018978 | 0.00018978 |   0.0 |  0.36
Output  | 0.051418   | 0.051418   | 0.051418   |   0.0 | 96.56
Modify  | 0          | 0          | 0          |   0.0 |  0.00
Other   |            | 0.0006628  |            |       |  1.24

Nlocal:    4 ave 4 max 4 min
Histogram: 1 0 0 0 0 0 0 0 0 0
Nghost:    360 ave 360 max 360 min
Histogram: 1 0 0 0 0 0 0 0 0 0
Neighs:    156 ave 156 max 156 min
Histogram: 1 0 0 0 0 0 0 0 0 0

Total # of neighbors = 156
Ave neighs/atom = 39
Neighbor list builds = 0
Dangerous builds = 0
System init for write_restart ...
Reading restart file ...
  restart file = 11 Aug 2017, LAMMPS = 11 Aug 2017
  triclinic box = (0.0175835 0.0175835 0.0175835) to (3.49912 3.49912 3.49912) with tilt (0 -0 0)
  1 by 1 by 1 MPI processor grid
  4 atoms
4 atoms in group Ni
Changing box ...
  triclinic box = (0.0175835 0.0175835 0.0175835) to (3.49911 3.49912 3.49912) with tilt (0 -0 0)
Neighbor list info ...
  update every 1 steps, delay 0 steps, check yes
  max neighbors/atom: 2000, page size: 100000
  master list distance cutoff = 5.64464
  ghost atom cutoff = 5.64464
  binsize = 2.82232, bins = 2 2 2
  1 neighbor lists, perpetual/occasional/extra = 1 0 0
  (1) pair eam/alloy, perpetual
      attributes: half, newton on
      pair build: half/bin/newton/tri
      stencil: half/bin/3d/newton/tri
      bin: standard
Setting up cg style minimization ...
  Unit style    : metal
  Current step  : 100
Per MPI rank memory allocation (min/avg/max) = 4.086 | 4.086 | 4.086 Mbytes
Step Temp PotEng Press Pxx Pyy Pzz Pxy Pxz Pyz Lx Ly Lz Volume 
     100            0   -18.142671   -237242.59   -237242.37   -237242.69   -237242.69 6.6388068e-11 6.6914958e-11 3.5828481e-11    3.4815295     3.481533     3.481533     42.19987 
     101            0   -18.142671   -237242.59   -237242.38    -237242.7    -237242.7 1.0801233e-11 -1.8177685e-11 1.6860462e-11    3.4815295     3.481533     3.481533     42.19987 
     102            0   -18.142671   -237242.59   -237242.38    -237242.7    -237242.7 5.2688943e-13 -3.4247813e-12 2.6344472e-13    3.4815295     3.481533     3.481533     42.19987 
Loop time of 9.08375e-05 on 1 procs for 2 steps with 4 atoms

73.8% CPU use with 1 MPI tasks x no OpenMP threads

Minimization stats:
  Stopping criterion = force tolerance
  Energy initial, next-to-last, final = 
        -18.1426705589     -18.1426705901     -18.1426705901
  Force two-norm initial, final = 0.000736149 2.7246e-15
  Force max component initial, final = 0.000212508 1.52656e-15
  Final line search alpha, max atom move = 1 1.52656e-15
  Iterations, force evaluations = 2 4

MPI task timing breakdown:
Section |  min time  |  avg time  |  max time  |%varavg| %total
---------------------------------------------------------------
Pair    | 5.1975e-05 | 5.1975e-05 | 5.1975e-05 |   0.0 | 57.22
Neigh   | 0          | 0          | 0          |   0.0 |  0.00
Comm    | 1.1206e-05 | 1.1206e-05 | 1.1206e-05 |   0.0 | 12.34
Output  | 1.0014e-05 | 1.0014e-05 | 1.0014e-05 |   0.0 | 11.02
Modify  | 0          | 0          | 0          |   0.0 |  0.00
Other   |            | 1.764e-05  |            |       | 19.42

Nlocal:    4 ave 4 max 4 min
Histogram: 1 0 0 0 0 0 0 0 0 0
Nghost:    360 ave 360 max 360 min
Histogram: 1 0 0 0 0 0 0 0 0 0
Neighs:    156 ave 156 max 156 min
Histogram: 1 0 0 0 0 0 0 0 0 0

Total # of neighbors = 156
Ave neighs/atom = 39
Neighbor list builds = 0
Dangerous builds = 0
Reading restart file ...
  restart file = 11 Aug 2017, LAMMPS = 11 Aug 2017
  triclinic box = (0.0175835 0.0175835 0.0175835) to (3.49912 3.49912 3.49912) with tilt (0 -0 0)
  1 by 1 by 1 MPI processor grid
  4 atoms
4 atoms in group Ni
Changing box ...
  triclinic box = (0.0175835 0.0175835 0.0175835) to (3.49912 3.49912 3.49912) with tilt (0 -0 0)
Neighbor list info ...
  update every 1 steps, delay 0 steps, check yes
  max neighbors/atom: 2000, page size: 100000
  master list distance cutoff = 5.64464
  ghost atom cutoff = 5.64464
  binsize = 2.82232, bins = 2 2 2
  1 neighbor lists, perpetual/occasional/extra = 1 0 0
  (1) pair eam/alloy, perpetual
      attributes: half, newton on
      pair build: half/bin/newton/tri
      stencil: half/bin/3d/newton/tri
      bin: standard
Setting up cg style minimization ...
  Unit style    : metal
  Current step  : 100
Per MPI rank memory allocation (min/avg/max) = 4.086 | 4.086 | 4.086 Mbytes
Step Temp PotEng Press Pxx Pyy Pzz Pxy Pxz Pyz Lx Ly Lz Volume 
     100            0   -18.142658   -237244.21   -237244.42    -237244.1    -237244.1 6.6914824e-11 6.981271e-11 3.582841e-11    3.4815365     3.481533     3.481533    42.199954 
     101            0   -18.142658   -237244.21   -237244.43   -237244.11   -237244.11 1.0274323e-11 1.6860428e-11 -4.2677958e-11    3.4815365     3.481533     3.481533    42.199954 
     102            0   -18.142658   -237244.21   -237244.43   -237244.11   -237244.11 -6.8495489e-12 -3.582841e-11 -1.3172209e-11    3.4815365     3.481533     3.481533    42.199954 
Loop time of 9.08375e-05 on 1 procs for 2 steps with 4 atoms

100.2% CPU use with 1 MPI tasks x no OpenMP threads

Minimization stats:
  Stopping criterion = force tolerance
  Energy initial, next-to-last, final = 
        -18.1426580614     -18.1426580926     -18.1426580926
  Force two-norm initial, final = 0.00073614 4.16745e-16
  Force max component initial, final = 0.000212505 3.41741e-16
  Final line search alpha, max atom move = 1 3.41741e-16
  Iterations, force evaluations = 2 4

MPI task timing breakdown:
Section |  min time  |  avg time  |  max time  |%varavg| %total
---------------------------------------------------------------
Pair    | 5.722e-05  | 5.722e-05  | 5.722e-05  |   0.0 | 62.99
Neigh   | 0          | 0          | 0          |   0.0 |  0.00
Comm    | 1.0014e-05 | 1.0014e-05 | 1.0014e-05 |   0.0 | 11.02
Output  | 1.0014e-05 | 1.0014e-05 | 1.0014e-05 |   0.0 | 11.02
Modify  | 0          | 0          | 0          |   0.0 |  0.00
Other   |            | 1.359e-05  |            |       | 14.96

Nlocal:    4 ave 4 max 4 min
Histogram: 1 0 0 0 0 0 0 0 0 0
Nghost:    360 ave 360 max 360 min
Histogram: 1 0 0 0 0 0 0 0 0 0
Neighs:    156 ave 156 max 156 min
Histogram: 1 0 0 0 0 0 0 0 0 0

Total # of neighbors = 156
Ave neighs/atom = 39
Neighbor list builds = 0
Dangerous builds = 0
Reading restart file ...
  restart file = 11 Aug 2017, LAMMPS = 11 Aug 2017
  triclinic box = (0.0175835 0.0175835 0.0175835) to (3.49912 3.49912 3.49912) with tilt (0 -0 0)
  1 by 1 by 1 MPI processor grid
  4 atoms
4 atoms in group Ni
Changing box ...
  triclinic box = (0.0175835 0.0175835 0.0175835) to (3.49912 3.49911 3.49912) with tilt (0 -0 0)
Neighbor list info ...
  update every 1 steps, delay 0 steps, check yes
  max neighbors/atom: 2000, page size: 100000
  master list distance cutoff = 5.64464
  ghost atom cutoff = 5.64464
  binsize = 2.82232, bins = 2 2 2
  1 neighbor lists, perpetual/occasional/extra = 1 0 0
  (1) pair eam/alloy, perpetual
      attributes: half, newton on
      pair build: half/bin/newton/tri
      stencil: half/bin/3d/newton/tri
      bin: standard
Setting up cg style minimization ...
  Unit style    : metal
  Current step  : 100
Per MPI rank memory allocation (min/avg/max) = 4.086 | 4.086 | 4.086 Mbytes
Step Temp PotEng Press Pxx Pyy Pzz Pxy Pxz Pyz Lx Ly Lz Volume 
     100            0   -18.142671   -237242.59   -237242.69   -237242.37   -237242.69 5.7167503e-11 4.1097376e-11 6.032884e-11     3.481533    3.4815295     3.481533     42.19987 
     101            0   -18.142671   -237242.59    -237242.7   -237242.38    -237242.7 9.220565e-12 4.7420049e-12 2.9769253e-11     3.481533    3.4815295     3.481533     42.19987 
     102            0   -18.142671   -237242.59    -237242.7   -237242.38    -237242.7 -1.0010899e-11 -1.844113e-12 -2.2392801e-11     3.481533    3.4815295     3.481533     42.19987 
Loop time of 9.01222e-05 on 1 procs for 2 steps with 4 atoms

101.0% CPU use with 1 MPI tasks x no OpenMP threads

Minimization stats:
  Stopping criterion = force tolerance
  Energy initial, next-to-last, final = 
        -18.1426705589     -18.1426705901     -18.1426705901
  Force two-norm initial, final = 0.000736149 1.66784e-15
  Force max component initial, final = 0.000212508 1.30625e-15
  Final line search alpha, max atom move = 1 1.30625e-15
  Iterations, force evaluations = 2 4

MPI task timing breakdown:
Section |  min time  |  avg time  |  max time  |%varavg| %total
---------------------------------------------------------------
Pair    | 5.4121e-05 | 5.4121e-05 | 5.4121e-05 |   0.0 | 60.05
Neigh   | 0          | 0          | 0          |   0.0 |  0.00
Comm    | 1.0967e-05 | 1.0967e-05 | 1.0967e-05 |   0.0 | 12.17
Output  | 1.0014e-05 | 1.0014e-05 | 1.0014e-05 |   0.0 | 11.11
Modify  | 0          | 0          | 0          |   0.0 |  0.00
Other   |            | 1.502e-05  |            |       | 16.67

Nlocal:    4 ave 4 max 4 min
Histogram: 1 0 0 0 0 0 0 0 0 0
Nghost:    360 ave 360 max 360 min
Histogram: 1 0 0 0 0 0 0 0 0 0
Neighs:    156 ave 156 max 156 min
Histogram: 1 0 0 0 0 0 0 0 0 0

Total # of neighbors = 156
Ave neighs/atom = 39
Neighbor list builds = 0
Dangerous builds = 0
Reading restart file ...
  restart file = 11 Aug 2017, LAMMPS = 11 Aug 2017
  triclinic box = (0.0175835 0.0175835 0.0175835) to (3.49912 3.49912 3.49912) with tilt (0 -0 0)
  1 by 1 by 1 MPI processor grid
  4 atoms
4 atoms in group Ni
Changing box ...
  triclinic box = (0.0175835 0.0175835 0.0175835) to (3.49912 3.49912 3.49912) with tilt (0 -0 0)
Neighbor list info ...
  update every 1 steps, delay 0 steps, check yes
  max neighbors/atom: 2000, page size: 100000
  master list distance cutoff = 5.64464
  ghost atom cutoff = 5.64464
  binsize = 2.82232, bins = 2 2 2
  1 neighbor lists, perpetual/occasional/extra = 1 0 0
  (1) pair eam/alloy, perpetual
      attributes: half, newton on
      pair build: half/bin/newton/tri
      stencil: half/bin/3d/newton/tri
      bin: standard
Setting up cg style minimization ...
  Unit style    : metal
  Current step  : 100
Per MPI rank memory allocation (min/avg/max) = 4.086 | 4.086 | 4.086 Mbytes
Step Temp PotEng Press Pxx Pyy Pzz Pxy Pxz Pyz Lx Ly Lz Volume 
     100            0   -18.142658   -237244.21    -237244.1   -237244.42    -237244.1 5.2425393e-11 4.8210286e-11 6.5070714e-11     3.481533    3.4815365     3.481533    42.199954 
     101            0   -18.142658   -237244.21   -237244.11   -237244.43   -237244.11 2.3709977e-12 -7.3764373e-11 1.2118433e-11     3.481533    3.4815365     3.481533    42.199954 
     102            0   -18.142658   -237244.21   -237244.11   -237244.43   -237244.11 1.0537768e-11 -1.3435654e-11 -2.0548647e-11     3.481533    3.4815365     3.481533    42.199954 
Loop time of 8.79765e-05 on 1 procs for 2 steps with 4 atoms

84.1% CPU use with 1 MPI tasks x no OpenMP threads

Minimization stats:
  Stopping criterion = force tolerance
  Energy initial, next-to-last, final = 
        -18.1426580614     -18.1426580926     -18.1426580926
  Force two-norm initial, final = 0.00073614 1.48108e-15
  Force max component initial, final = 0.000212505 9.0726e-16
  Final line search alpha, max atom move = 1 9.0726e-16
  Iterations, force evaluations = 2 4

MPI task timing breakdown:
Section |  min time  |  avg time  |  max time  |%varavg| %total
---------------------------------------------------------------
Pair    | 5.1022e-05 | 5.1022e-05 | 5.1022e-05 |   0.0 | 57.99
Neigh   | 0          | 0          | 0          |   0.0 |  0.00
Comm    | 9.7752e-06 | 9.7752e-06 | 9.7752e-06 |   0.0 | 11.11
Output  | 1.0014e-05 | 1.0014e-05 | 1.0014e-05 |   0.0 | 11.38
Modify  | 0          | 0          | 0          |   0.0 |  0.00
Other   |            | 1.717e-05  |            |       | 19.51

Nlocal:    4 ave 4 max 4 min
Histogram: 1 0 0 0 0 0 0 0 0 0
Nghost:    360 ave 360 max 360 min
Histogram: 1 0 0 0 0 0 0 0 0 0
Neighs:    156 ave 156 max 156 min
Histogram: 1 0 0 0 0 0 0 0 0 0

Total # of neighbors = 156
Ave neighs/atom = 39
Neighbor list builds = 0
Dangerous builds = 0
Reading restart file ...
  restart file = 11 Aug 2017, LAMMPS = 11 Aug 2017
  triclinic box = (0.0175835 0.0175835 0.0175835) to (3.49912 3.49912 3.49912) with tilt (0 -0 0)
  1 by 1 by 1 MPI processor grid
  4 atoms
4 atoms in group Ni
Changing box ...
  triclinic box = (0.0175835 0.0175835 0.0175835) to (3.49912 3.49912 3.49911) with tilt (0 -0 0)
Neighbor list info ...
  update every 1 steps, delay 0 steps, check yes
  max neighbors/atom: 2000, page size: 100000
  master list distance cutoff = 5.64464
  ghost atom cutoff = 5.64464
  binsize = 2.82232, bins = 2 2 2
  1 neighbor lists, perpetual/occasional/extra = 1 0 0
  (1) pair eam/alloy, perpetual
      attributes: half, newton on
      pair build: half/bin/newton/tri
      stencil: half/bin/3d/newton/tri
      bin: standard
Setting up cg style minimization ...
  Unit style    : metal
  Current step  : 100
Per MPI rank memory allocation (min/avg/max) = 4.086 | 4.086 | 4.086 Mbytes
Step Temp PotEng Press Pxx Pyy Pzz Pxy Pxz Pyz Lx Ly Lz Volume 
     100            0   -18.142671   -237242.59   -237242.69   -237242.69   -237242.37 4.8473828e-11 4.5312491e-11 3.9253263e-11     3.481533     3.481533    3.4815295     42.19987 
     101            0   -18.142671   -237242.59    -237242.7    -237242.7   -237242.38 -1.8704575e-11 5.2688943e-12 4.2151154e-12     3.481533     3.481533    3.4815295     42.19987 
     102            0   -18.142671   -237242.59    -237242.7    -237242.7   -237242.38 -1.1328123e-11 1.2645346e-11 1.0537789e-11     3.481533     3.481533    3.4815295     42.19987 
Loop time of 9.41753e-05 on 1 procs for 2 steps with 4 atoms

100.9% CPU use with 1 MPI tasks x no OpenMP threads

Minimization stats:
  Stopping criterion = force tolerance
  Energy initial, next-to-last, final = 
        -18.1426705589     -18.1426705901     -18.1426705901
  Force two-norm initial, final = 0.000736149 1.685e-15
  Force max component initial, final = 0.000212508 1.334e-15
  Final line search alpha, max atom move = 1 1.334e-15
  Iterations, force evaluations = 2 4

MPI task timing breakdown:
Section |  min time  |  avg time  |  max time  |%varavg| %total
---------------------------------------------------------------
Pair    | 5.0783e-05 | 5.0783e-05 | 5.0783e-05 |   0.0 | 53.92
Neigh   | 0          | 0          | 0          |   0.0 |  0.00
Comm    | 1.7405e-05 | 1.7405e-05 | 1.7405e-05 |   0.0 | 18.48
Output  | 9.0599e-06 | 9.0599e-06 | 9.0599e-06 |   0.0 |  9.62
Modify  | 0          | 0          | 0          |   0.0 |  0.00
Other   |            | 1.693e-05  |            |       | 17.97

Nlocal:    4 ave 4 max 4 min
Histogram: 1 0 0 0 0 0 0 0 0 0
Nghost:    360 ave 360 max 360 min
Histogram: 1 0 0 0 0 0 0 0 0 0
Neighs:    156 ave 156 max 156 min
Histogram: 1 0 0 0 0 0 0 0 0 0

Total # of neighbors = 156
Ave neighs/atom = 39
Neighbor list builds = 0
Dangerous builds = 0
Reading restart file ...
  restart file = 11 Aug 2017, LAMMPS = 11 Aug 2017
  triclinic box = (0.0175835 0.0175835 0.0175835) to (3.49912 3.49912 3.49912) with tilt (0 -0 0)
  1 by 1 by 1 MPI processor grid
  4 atoms
4 atoms in group Ni
Changing box ...
  triclinic box = (0.0175835 0.0175835 0.0175835) to (3.49912 3.49912 3.49912) with tilt (0 -0 0)
Neighbor list info ...
  update every 1 steps, delay 0 steps, check yes
  max neighbors/atom: 2000, page size: 100000
  master list distance cutoff = 5.64464
  ghost atom cutoff = 5.64464
  binsize = 2.82232, bins = 2 2 2
  1 neighbor lists, perpetual/occasional/extra = 1 0 0
  (1) pair eam/alloy, perpetual
      attributes: half, newton on
      pair build: half/bin/newton/tri
      stencil: half/bin/3d/newton/tri
      bin: standard
Setting up cg style minimization ...
  Unit style    : metal
  Current step  : 100
Per MPI rank memory allocation (min/avg/max) = 4.086 | 4.086 | 4.086 Mbytes
Step Temp PotEng Press Pxx Pyy Pzz Pxy Pxz Pyz Lx Ly Lz Volume 
     100            0   -18.142658   -237244.21    -237244.1    -237244.1   -237244.42 5.7430833e-11 7.8769812e-11 5.8221166e-11     3.481533     3.481533    3.4815365    42.199954 
     101            0   -18.142658   -237244.21   -237244.11   -237244.11   -237244.43 -5.1898505e-11 1.1854988e-11 5.532328e-12     3.481533     3.481533    3.4815365    42.199954 
     102            0   -18.142658   -237244.21   -237244.11   -237244.11   -237244.43 -1.3699098e-11 1.0801212e-11  2.26562e-11     3.481533     3.481533    3.4815365    42.199954 
Loop time of 8.91685e-05 on 1 procs for 2 steps with 4 atoms

99.8% CPU use with 1 MPI tasks x no OpenMP threads

Minimization stats:
  Stopping criterion = force tolerance
  Energy initial, next-to-last, final = 
        -18.1426580614     -18.1426580926     -18.1426580926
  Force two-norm initial, final = 0.00073614 2.0052e-15
  Force max component initial, final = 0.000212505 8.88178e-16
  Final line search alpha, max atom move = 1 8.88178e-16
  Iterations, force evaluations = 2 4

MPI task timing breakdown:
Section |  min time  |  avg time  |  max time  |%varavg| %total
---------------------------------------------------------------
Pair    | 5.2929e-05 | 5.2929e-05 | 5.2929e-05 |   0.0 | 59.36
Neigh   | 0          | 0          | 0          |   0.0 |  0.00
Comm    | 9.7752e-06 | 9.7752e-06 | 9.7752e-06 |   0.0 | 10.96
Output  | 1.0014e-05 | 1.0014e-05 | 1.0014e-05 |   0.0 | 11.23
Modify  | 0          | 0          | 0          |   0.0 |  0.00
Other   |            | 1.645e-05  |            |       | 18.45

Nlocal:    4 ave 4 max 4 min
Histogram: 1 0 0 0 0 0 0 0 0 0
Nghost:    360 ave 360 max 360 min
Histogram: 1 0 0 0 0 0 0 0 0 0
Neighs:    156 ave 156 max 156 min
Histogram: 1 0 0 0 0 0 0 0 0 0

Total # of neighbors = 156
Ave neighs/atom = 39
Neighbor list builds = 0
Dangerous builds = 0
Reading restart file ...
  restart file = 11 Aug 2017, LAMMPS = 11 Aug 2017
  triclinic box = (0.0175835 0.0175835 0.0175835) to (3.49912 3.49912 3.49912) with tilt (0 -0 0)
  1 by 1 by 1 MPI processor grid
  4 atoms
4 atoms in group Ni
Changing box ...
  triclinic box = (0.0175835 0.0175835 0.0175835) to (3.49912 3.49912 3.49912) with tilt (0 -0 -3.48153e-06)
Neighbor list info ...
  update every 1 steps, delay 0 steps, check yes
  max neighbors/atom: 2000, page size: 100000
  master list distance cutoff = 5.64464
  ghost atom cutoff = 5.64464
  binsize = 2.82232, bins = 2 2 2
  1 neighbor lists, perpetual/occasional/extra = 1 0 0
  (1) pair eam/alloy, perpetual
      attributes: half, newton on
      pair build: half/bin/newton/tri
      stencil: half/bin/3d/newton/tri
      bin: standard
Setting up cg style minimization ...
  Unit style    : metal
  Current step  : 100
Per MPI rank memory allocation (min/avg/max) = 4.086 | 4.086 | 4.086 Mbytes
Step Temp PotEng Press Pxx Pyy Pzz Pxy Pxz Pyz Lx Ly Lz Volume 
     100            0   -18.142664    -237243.4    -237243.4    -237243.4    -237243.4 6.1119113e-11 1.2118445e-11   0.51118841     3.481533     3.481533     3.481533    42.199912 
     101            0   -18.142664    -237243.4    -237243.4    -237243.4    -237243.4 -5.7957779e-12 -2.5817556e-11   0.51118842     3.481533     3.481533     3.481533    42.199912 
     102            0   -18.142664    -237243.4    -237243.4    -237243.4    -237243.4 8.166778e-12 1.6860445e-11   0.51118842     3.481533     3.481533     3.481533    42.199912 
     103            0   -18.142664    -237243.4    -237243.4    -237243.4    -237243.4 6.8495557e-12 1.2645334e-11   0.51118842     3.481533     3.481533     3.481533    42.199912 
Loop time of 0.000120163 on 1 procs for 3 steps with 4 atoms

100.7% CPU use with 1 MPI tasks x no OpenMP threads

Minimization stats:
  Stopping criterion = force tolerance
  Energy initial, next-to-last, final = 
        -18.1426643102     -18.1426643413     -18.1426643413
  Force two-norm initial, final = 0.000736144 1.63242e-15
  Force max component initial, final = 0.000212507 1.19349e-15
  Final line search alpha, max atom move = 1 1.19349e-15
  Iterations, force evaluations = 3 6

MPI task timing breakdown:
Section |  min time  |  avg time  |  max time  |%varavg| %total
---------------------------------------------------------------
Pair    | 7.0095e-05 | 7.0095e-05 | 7.0095e-05 |   0.0 | 58.33
Neigh   | 0          | 0          | 0          |   0.0 |  0.00
Comm    | 1.502e-05  | 1.502e-05  | 1.502e-05  |   0.0 | 12.50
Output  | 1.9073e-05 | 1.9073e-05 | 1.9073e-05 |   0.0 | 15.87
Modify  | 0          | 0          | 0          |   0.0 |  0.00
Other   |            | 1.597e-05  |            |       | 13.29

Nlocal:    4 ave 4 max 4 min
Histogram: 1 0 0 0 0 0 0 0 0 0
Nghost:    360 ave 360 max 360 min
Histogram: 1 0 0 0 0 0 0 0 0 0
Neighs:    156 ave 156 max 156 min
Histogram: 1 0 0 0 0 0 0 0 0 0

Total # of neighbors = 156
Ave neighs/atom = 39
Neighbor list builds = 0
Dangerous builds = 0
Reading restart file ...
  restart file = 11 Aug 2017, LAMMPS = 11 Aug 2017
  triclinic box = (0.0175835 0.0175835 0.0175835) to (3.49912 3.49912 3.49912) with tilt (0 -0 0)
  1 by 1 by 1 MPI processor grid
  4 atoms
4 atoms in group Ni
Changing box ...
  triclinic box = (0.0175835 0.0175835 0.0175835) to (3.49912 3.49912 3.49912) with tilt (0 -0 3.48153e-06)
Neighbor list info ...
  update every 1 steps, delay 0 steps, check yes
  max neighbors/atom: 2000, page size: 100000
  master list distance cutoff = 5.64464
  ghost atom cutoff = 5.64464
  binsize = 2.82232, bins = 2 2 2
  1 neighbor lists, perpetual/occasional/extra = 1 0 0
  (1) pair eam/alloy, perpetual
      attributes: half, newton on
      pair build: half/bin/newton/tri
      stencil: half/bin/3d/newton/tri
      bin: standard
Setting up cg style minimization ...
  Unit style    : metal
  Current step  : 100
Per MPI rank memory allocation (min/avg/max) = 4.086 | 4.086 | 4.086 Mbytes
Step Temp PotEng Press Pxx Pyy Pzz Pxy Pxz Pyz Lx Ly Lz Volume 
     100            0   -18.142664    -237243.4    -237243.4    -237243.4    -237243.4 7.3237558e-11 -1.5806667e-12  -0.51118841     3.481533     3.481533     3.481533    42.199912 
     101            0   -18.142664    -237243.4    -237243.4    -237243.4    -237243.4 3.0559556e-11 -5.5323335e-12  -0.51118842     3.481533     3.481533     3.481533    42.199912 
     102            0   -18.142664    -237243.4    -237243.4    -237243.4    -237243.4 3.0296112e-11 2.9769223e-11  -0.51118842     3.481533     3.481533     3.481533    42.199912 
     103            0   -18.142664    -237243.4    -237243.4    -237243.4    -237243.4 -3.4511223e-11 -2.4500334e-11  -0.51118842     3.481533     3.481533     3.481533    42.199912 
Loop time of 0.000118017 on 1 procs for 3 steps with 4 atoms

89.0% CPU use with 1 MPI tasks x no OpenMP threads

Minimization stats:
  Stopping criterion = force tolerance
  Energy initial, next-to-last, final = 
        -18.1426643102     -18.1426643413     -18.1426643413
  Force two-norm initial, final = 0.000736144 2.71474e-15
  Force max component initial, final = 0.000212507 1.26635e-15
  Final line search alpha, max atom move = 1 1.26635e-15
  Iterations, force evaluations = 3 6

MPI task timing breakdown:
Section |  min time  |  avg time  |  max time  |%varavg| %total
---------------------------------------------------------------
Pair    | 7.1049e-05 | 7.1049e-05 | 7.1049e-05 |   0.0 | 60.20
Neigh   | 0          | 0          | 0          |   0.0 |  0.00
Comm    | 1.4067e-05 | 1.4067e-05 | 1.4067e-05 |   0.0 | 11.92
Output  | 1.6928e-05 | 1.6928e-05 | 1.6928e-05 |   0.0 | 14.34
Modify  | 0          | 0          | 0          |   0.0 |  0.00
Other   |            | 1.597e-05  |            |       | 13.54

Nlocal:    4 ave 4 max 4 min
Histogram: 1 0 0 0 0 0 0 0 0 0
Nghost:    360 ave 360 max 360 min
Histogram: 1 0 0 0 0 0 0 0 0 0
Neighs:    156 ave 156 max 156 min
Histogram: 1 0 0 0 0 0 0 0 0 0

Total # of neighbors = 156
Ave neighs/atom = 39
Neighbor list builds = 0
Dangerous builds = 0
Reading restart file ...
  restart file = 11 Aug 2017, LAMMPS = 11 Aug 2017
  triclinic box = (0.0175835 0.0175835 0.0175835) to (3.49912 3.49912 3.49912) with tilt (0 -0 0)
  1 by 1 by 1 MPI processor grid
  4 atoms
4 atoms in group Ni
Changing box ...
  triclinic box = (0.0175835 0.0175835 0.0175835) to (3.49912 3.49912 3.49912) with tilt (0 -3.48153e-06 0)
Neighbor list info ...
  update every 1 steps, delay 0 steps, check yes
  max neighbors/atom: 2000, page size: 100000
  master list distance cutoff = 5.64464
  ghost atom cutoff = 5.64464
  binsize = 2.82232, bins = 2 2 2
  1 neighbor lists, perpetual/occasional/extra = 1 0 0
  (1) pair eam/alloy, perpetual
      attributes: half, newton on
      pair build: half/bin/newton/tri
      stencil: half/bin/3d/newton/tri
      bin: standard
Setting up cg style minimization ...
  Unit style    : metal
  Current step  : 100
Per MPI rank memory allocation (min/avg/max) = 4.086 | 4.086 | 4.086 Mbytes
Step Temp PotEng Press Pxx Pyy Pzz Pxy Pxz Pyz Lx Ly Lz Volume 
     100            0   -18.142664    -237243.4    -237243.4    -237243.4    -237243.4 4.320489e-11   0.51118841 -1.0274334e-11     3.481533     3.481533     3.481533    42.199912 
     101            0   -18.142664    -237243.4    -237243.4    -237243.4    -237243.4 5.7957779e-12   0.51118842 3.3194001e-11     3.481533     3.481533     3.481533    42.199912 
     102            0   -18.142664    -237243.4    -237243.4    -237243.4    -237243.4 -3.4774668e-11   0.51118842 8.4302225e-12     3.481533     3.481533     3.481533    42.199912 
     103            0   -18.142664    -237243.4    -237243.4    -237243.4    -237243.4 1.5279778e-11   0.51118842 -1.8968001e-11     3.481533     3.481533     3.481533    42.199912 
Loop time of 0.000121117 on 1 procs for 3 steps with 4 atoms

88.3% CPU use with 1 MPI tasks x no OpenMP threads

Minimization stats:
  Stopping criterion = force tolerance
  Energy initial, next-to-last, final = 
        -18.1426643102     -18.1426643413     -18.1426643413
  Force two-norm initial, final = 0.000736144 2.00313e-15
  Force max component initial, final = 0.000212507 1.47105e-15
  Final line search alpha, max atom move = 1 1.47105e-15
  Iterations, force evaluations = 3 6

MPI task timing breakdown:
Section |  min time  |  avg time  |  max time  |%varavg| %total
---------------------------------------------------------------
Pair    | 7.2002e-05 | 7.2002e-05 | 7.2002e-05 |   0.0 | 59.45
Neigh   | 0          | 0          | 0          |   0.0 |  0.00
Comm    | 1.5736e-05 | 1.5736e-05 | 1.5736e-05 |   0.0 | 12.99
Output  | 1.812e-05  | 1.812e-05  | 1.812e-05  |   0.0 | 14.96
Modify  | 0          | 0          | 0          |   0.0 |  0.00
Other   |            | 1.526e-05  |            |       | 12.60

Nlocal:    4 ave 4 max 4 min
Histogram: 1 0 0 0 0 0 0 0 0 0
Nghost:    360 ave 360 max 360 min
Histogram: 1 0 0 0 0 0 0 0 0 0
Neighs:    156 ave 156 max 156 min
Histogram: 1 0 0 0 0 0 0 0 0 0

Total # of neighbors = 156
Ave neighs/atom = 39
Neighbor list builds = 0
Dangerous builds = 0
Reading restart file ...
  restart file = 11 Aug 2017, LAMMPS = 11 Aug 2017
  triclinic box = (0.0175835 0.0175835 0.0175835) to (3.49912 3.49912 3.49912) with tilt (0 -0 0)
  1 by 1 by 1 MPI processor grid
  4 atoms
4 atoms in group Ni
Changing box ...
  triclinic box = (0.0175835 0.0175835 0.0175835) to (3.49912 3.49912 3.49912) with tilt (0 3.48153e-06 0)
Neighbor list info ...
  update every 1 steps, delay 0 steps, check yes
  max neighbors/atom: 2000, page size: 100000
  master list distance cutoff = 5.64464
  ghost atom cutoff = 5.64464
  binsize = 2.82232, bins = 2 2 2
  1 neighbor lists, perpetual/occasional/extra = 1 0 0
  (1) pair eam/alloy, perpetual
      attributes: half, newton on
      pair build: half/bin/newton/tri
      stencil: half/bin/3d/newton/tri
      bin: standard
Setting up cg style minimization ...
  Unit style    : metal
  Current step  : 100
Per MPI rank memory allocation (min/avg/max) = 4.086 | 4.086 | 4.086 Mbytes
Step Temp PotEng Press Pxx Pyy Pzz Pxy Pxz Pyz Lx Ly Lz Volume 
     100            0   -18.142664    -237243.4    -237243.4    -237243.4    -237243.4 3.6882223e-11  -0.51118841 1.5806667e-11     3.481533     3.481533     3.481533    42.199912 
     101            0   -18.142664    -237243.4    -237243.4    -237243.4    -237243.4 1.7650778e-11  -0.51118842 -1.3962556e-11     3.481533     3.481533     3.481533    42.199912 
     102            0   -18.142664    -237243.4    -237243.4    -237243.4    -237243.4 -3.4247779e-12  -0.51118842 4.4258668e-11     3.481533     3.481533     3.481533    42.199912 
     103            0   -18.142664    -237243.4    -237243.4    -237243.4    -237243.4 -1.2381889e-11  -0.51118842 -1.4752889e-11     3.481533     3.481533     3.481533    42.199912 
Loop time of 0.000120163 on 1 procs for 3 steps with 4 atoms

89.0% CPU use with 1 MPI tasks x no OpenMP threads

Minimization stats:
  Stopping criterion = force tolerance
  Energy initial, next-to-last, final = 
        -18.1426643102     -18.1426643413     -18.1426643413
  Force two-norm initial, final = 0.000736144 2.71836e-15
  Force max component initial, final = 0.000212507 1.30625e-15
  Final line search alpha, max atom move = 1 1.30625e-15
  Iterations, force evaluations = 3 6

MPI task timing breakdown:
Section |  min time  |  avg time  |  max time  |%varavg| %total
---------------------------------------------------------------
Pair    | 7.1049e-05 | 7.1049e-05 | 7.1049e-05 |   0.0 | 59.13
Neigh   | 0          | 0          | 0          |   0.0 |  0.00
Comm    | 1.502e-05  | 1.502e-05  | 1.502e-05  |   0.0 | 12.50
Output  | 1.6928e-05 | 1.6928e-05 | 1.6928e-05 |   0.0 | 14.09
Modify  | 0          | 0          | 0          |   0.0 |  0.00
Other   |            | 1.717e-05  |            |       | 14.29

Nlocal:    4 ave 4 max 4 min
Histogram: 1 0 0 0 0 0 0 0 0 0
Nghost:    360 ave 360 max 360 min
Histogram: 1 0 0 0 0 0 0 0 0 0
Neighs:    156 ave 156 max 156 min
Histogram: 1 0 0 0 0 0 0 0 0 0

Total # of neighbors = 156
Ave neighs/atom = 39
Neighbor list builds = 0
Dangerous builds = 0
Reading restart file ...
  restart file = 11 Aug 2017, LAMMPS = 11 Aug 2017
  triclinic box = (0.0175835 0.0175835 0.0175835) to (3.49912 3.49912 3.49912) with tilt (0 -0 0)
  1 by 1 by 1 MPI processor grid
  4 atoms
4 atoms in group Ni
Changing box ...
  triclinic box = (0.0175835 0.0175835 0.0175835) to (3.49912 3.49912 3.49912) with tilt (-3.48153e-06 -0 0)
Neighbor list info ...
  update every 1 steps, delay 0 steps, check yes
  max neighbors/atom: 2000, page size: 100000
  master list distance cutoff = 5.64464
  ghost atom cutoff = 5.64464
  binsize = 2.82232, bins = 2 2 2
  1 neighbor lists, perpetual/occasional/extra = 1 0 0
  (1) pair eam/alloy, perpetual
      attributes: half, newton on
      pair build: half/bin/newton/tri
      stencil: half/bin/3d/newton/tri
      bin: standard
Setting up cg style minimization ...
  Unit style    : metal
  Current step  : 100
Per MPI rank memory allocation (min/avg/max) = 4.086 | 4.086 | 4.086 Mbytes
Step Temp PotEng Press Pxx Pyy Pzz Pxy Pxz Pyz Lx Ly Lz Volume 
     100            0   -18.142664    -237243.4    -237243.4    -237243.4    -237243.4   0.51118841 2.6081001e-11 2.5290667e-11     3.481533     3.481533     3.481533    42.199912 
     101            0   -18.142664    -237243.4    -237243.4    -237243.4    -237243.4   0.51118842 -1.8177667e-11 3.0296112e-11     3.481533     3.481533     3.481533    42.199912 
     102            0   -18.142664    -237243.4    -237243.4    -237243.4    -237243.4   0.51118842 -1.2908778e-11 9.2205558e-12     3.481533     3.481533     3.481533    42.199912 
     103            0   -18.142664    -237243.4    -237243.4    -237243.4    -237243.4   0.51118842 1.0537778e-12   1.6597e-11     3.481533     3.481533     3.481533    42.199912 
Loop time of 0.000119925 on 1 procs for 3 steps with 4 atoms

88.4% CPU use with 1 MPI tasks x no OpenMP threads

Minimization stats:
  Stopping criterion = force tolerance
  Energy initial, next-to-last, final = 
        -18.1426643102     -18.1426643413     -18.1426643413
  Force two-norm initial, final = 0.000736144 1.68039e-15
  Force max component initial, final = 0.000212507 1.08247e-15
  Final line search alpha, max atom move = 1 1.08247e-15
  Iterations, force evaluations = 3 6

MPI task timing breakdown:
Section |  min time  |  avg time  |  max time  |%varavg| %total
---------------------------------------------------------------
Pair    | 7.081e-05  | 7.081e-05  | 7.081e-05  |   0.0 | 59.05
Neigh   | 0          | 0          | 0          |   0.0 |  0.00
Comm    | 1.4782e-05 | 1.4782e-05 | 1.4782e-05 |   0.0 | 12.33
Output  | 1.8835e-05 | 1.8835e-05 | 1.8835e-05 |   0.0 | 15.71
Modify  | 0          | 0          | 0          |   0.0 |  0.00
Other   |            | 1.55e-05   |            |       | 12.92

Nlocal:    4 ave 4 max 4 min
Histogram: 1 0 0 0 0 0 0 0 0 0
Nghost:    360 ave 360 max 360 min
Histogram: 1 0 0 0 0 0 0 0 0 0
Neighs:    156 ave 156 max 156 min
Histogram: 1 0 0 0 0 0 0 0 0 0

Total # of neighbors = 156
Ave neighs/atom = 39
Neighbor list builds = 0
Dangerous builds = 0
Reading restart file ...
  restart file = 11 Aug 2017, LAMMPS = 11 Aug 2017
  triclinic box = (0.0175835 0.0175835 0.0175835) to (3.49912 3.49912 3.49912) with tilt (0 -0 0)
  1 by 1 by 1 MPI processor grid
  4 atoms
4 atoms in group Ni
Changing box ...
  triclinic box = (0.0175835 0.0175835 0.0175835) to (3.49912 3.49912 3.49912) with tilt (3.48153e-06 -0 0)
Neighbor list info ...
  update every 1 steps, delay 0 steps, check yes
  max neighbors/atom: 2000, page size: 100000
  master list distance cutoff = 5.64464
  ghost atom cutoff = 5.64464
  binsize = 2.82232, bins = 2 2 2
  1 neighbor lists, perpetual/occasional/extra = 1 0 0
  (1) pair eam/alloy, perpetual
      attributes: half, newton on
      pair build: half/bin/newton/tri
      stencil: half/bin/3d/newton/tri
      bin: standard
Setting up cg style minimization ...
  Unit style    : metal
  Current step  : 100
Per MPI rank memory allocation (min/avg/max) = 4.086 | 4.086 | 4.086 Mbytes
Step Temp PotEng Press Pxx Pyy Pzz Pxy Pxz Pyz Lx Ly Lz Volume 
     100            0   -18.142664    -237243.4    -237243.4    -237243.4    -237243.4  -0.51118841 4.0570446e-11 1.3699111e-11     3.481533     3.481533     3.481533    42.199912 
     101            0   -18.142664    -237243.4    -237243.4    -237243.4    -237243.4  -0.51118842 -2.0812112e-11 -3.1613334e-12     3.481533     3.481533     3.481533    42.199912 
     102            0   -18.142664    -237243.4    -237243.4    -237243.4    -237243.4  -0.51118842 -4.7420001e-12 -1.8441112e-12     3.481533     3.481533     3.481533    42.199912 
     103            0   -18.142664    -237243.4    -237243.4    -237243.4    -237243.4  -0.51118842 -1.1064667e-11 -2.2129334e-11     3.481533     3.481533     3.481533    42.199912 
Loop time of 0.000123978 on 1 procs for 3 steps with 4 atoms

100.0% CPU use with 1 MPI tasks x no OpenMP threads

Minimization stats:
  Stopping criterion = force tolerance
  Energy initial, next-to-last, final = 
        -18.1426643102     -18.1426643413     -18.1426643413
  Force two-norm initial, final = 0.000736144 3.0657e-15
  Force max component initial, final = 0.000212507 1.53003e-15
  Final line search alpha, max atom move = 1 1.53003e-15
  Iterations, force evaluations = 3 6

MPI task timing breakdown:
Section |  min time  |  avg time  |  max time  |%varavg| %total
---------------------------------------------------------------
Pair    | 7.4625e-05 | 7.4625e-05 | 7.4625e-05 |   0.0 | 60.19
Neigh   | 0          | 0          | 0          |   0.0 |  0.00
Comm    | 1.5259e-05 | 1.5259e-05 | 1.5259e-05 |   0.0 | 12.31
Output  | 1.7881e-05 | 1.7881e-05 | 1.7881e-05 |   0.0 | 14.42
Modify  | 0          | 0          | 0          |   0.0 |  0.00
Other   |            | 1.621e-05  |            |       | 13.08

Nlocal:    4 ave 4 max 4 min
Histogram: 1 0 0 0 0 0 0 0 0 0
Nghost:    360 ave 360 max 360 min
Histogram: 1 0 0 0 0 0 0 0 0 0
Neighs:    156 ave 156 max 156 min
Histogram: 1 0 0 0 0 0 0 0 0 0

Total # of neighbors = 156
Ave neighs/atom = 39
Neighbor list builds = 0
Dangerous builds = 0
c11 = 102.670212749217 GPa
c22 = 102.670212749217 GPa
c33 = 102.670212749217 GPa
c12 = 70.290072975331 GPa
c13 = 70.2900730000692 GPa
c23 = 70.2900729505927 GPa
c44 = 51.1188419871075 GPa
c55 = 51.1188419844335 GPa
c66 = 51.118841984763 GPa
c14 = 3.35891353185307e-10 GPa
c15 = 8.1009070761619e-10 GPa
c16 = 2.49226669573623e-08 GPa
c24 = -4.61038525818925e-11 GPa
c25 = 2.89788514864552e-10 GPa
c26 = -5.1371666762329e-10 GPa
c34 = -3.02960289593485e-10 GPa
c35 = 4.6103365209655e-11 GPa
c36 = 5.927437594968e-11 GPa
c45 = 8.23263911530448e-10 GPa
c46 = 2.00217783284205e-09 GPa
c56 = 9.9450280512878e-10 GPa
lammps_sim_done
Total wall time: 0:00:00
