# ['Al']

1 atoms
1 atom types

    0.0000     2.6703 xlo xhi
    0.0000     2.6703 ylo yhi
    0.0000     2.6703 zlo zhi

   -0.0000    -0.0000     0.0000 xy xz yz

Atoms

1 1     0.0000     0.0000     0.0000
