    2    2    1    2
  0.1090254E+02  0.2793739E-09  0.2793739E-09  0.2793739E-09  0.5000000E-15
  1.000000000000000E-004
  CAR 
 automatically generated by pyflamestk   
     20      4     16
 
  0.1250000E+00  0.1250000E+00  0.1250000E+00  0.1250000E+00
    1        1.297295      1.277630   1.000000   1.000000
    2        5.406481      5.707997   1.000000   1.000000
    3        5.406481      5.707997   1.000000   1.000000
    4        6.784772      7.359795   1.000000   1.000000
    5        6.784772      7.359795   1.000000   1.000000
    6        7.453880      8.058472   1.000000   1.000000
    7        7.934081      8.529544   1.000000   1.000003
    8        8.303692      8.761691   1.000000   1.001826
    9        8.303692      8.761691   1.000000   1.001826
   10        8.783202      9.431456   1.002836  -0.019631
   11        8.783202      9.431456   1.002836  -0.019631
   12       17.519618     17.610521   0.000000   0.000000
   13       17.519618     17.610521   0.000000   0.000000
   14       18.522919     18.623439   0.000000   0.000000
   15       27.835534     27.874930   0.000000   0.000000
   16       27.835534     27.874930   0.000000   0.000000
 
  0.3750000E+00  0.1250000E+00  0.1250000E+00  0.3750000E+00
    1        3.475983      3.491990   1.000000   1.000000
    2        5.533355      5.754782   1.000000   1.000000
    3        6.076200      6.428227   1.000000   1.000000
    4        6.631411      7.124968   1.000000   1.000000
    5        6.695764      7.246077   1.000000   1.000000
    6        7.052754      7.593887   1.000000   1.000000
    7        7.820460      8.306537   1.000000   1.000000
    8        7.898133      8.476591   1.000000   1.000000
    9        8.216837      8.827804   1.000000   1.006453
   10        8.677504      9.182073   1.000252   0.736711
   11        8.721467      9.305825   1.000745   0.240019
   12       11.491945     11.746852  -0.000000  -0.000000
   13       20.648505     20.772552   0.000000   0.000000
   14       21.149401     21.265650   0.000000   0.000000
   15       25.290176     25.364012   0.000000   0.000000
   16       26.053926     26.143853   0.000000   0.000000
 
  0.3750000E+00  0.3750000E+00  0.1250000E+00  0.3750000E+00
    1        4.576941      4.776755   1.000000   1.000000
    2        5.172947      5.512211   1.000000   1.000000
    3        6.126947      6.663921   1.000000   1.000000
    4        6.276553      6.802920   1.000000   1.000000
    5        7.066944      7.366855   1.000000   1.000000
    6        7.173669      7.495018   1.000000   1.000000
    7        8.121979      8.639146   1.000000   1.000089
    8        8.264319      8.771258   1.000000   1.002229
    9        8.486924      8.956208   1.000001   1.030919
   10        8.858094      9.455743   1.010478  -0.031270
   11        9.526882     10.070417  -0.030592  -0.000000
   12       12.087038     12.285666  -0.000000  -0.000000
   13       15.932893     16.197121   0.000000   0.000000
   14       19.164991     19.333321   0.000000   0.000000
   15       23.101648     23.186918   0.000000   0.000000
   16       26.909915     26.918212   0.000000   0.000000
 
  0.3750000E+00  0.3750000E+00  0.3750000E+00  0.1250000E+00
    1        5.687301      6.161262   1.000000   1.000000
    2        5.934999      6.198646   1.000000   1.000000
    3        6.009645      6.487179   1.000000   1.000000
    4        6.009645      6.487179   1.000000   1.000000
    5        6.333633      6.726463   1.000000   1.000000
    6        6.333633      6.726463   1.000000   1.000000
    7        8.472683      8.959889   1.000000   1.031620
    8        8.472683      8.959889   1.000000   1.031620
    9        8.480337      8.977214   1.000001   1.034293
   10        8.480337      8.977214   1.000001   1.034293
   11       12.006240     12.388336  -0.000000  -0.000000
   12       15.708707     15.904029   0.000000   0.000000
   13       15.708707     15.904029   0.000000   0.000000
   14       17.952725     18.128731   0.000000   0.000000
   15       20.755857     20.876192   0.000000   0.000000
   16       20.755857     20.876192   0.000000   0.000000
