# ['Ni']

28 atoms
1 atom types

    0.0000     2.3733 xlo xhi
    0.0000     4.1106 ylo yhi
    0.0000    27.1289 zlo zhi

    0.0000     0.0000     0.0000 xy xz yz

Atoms

1 1     0.0000     0.0000     0.0000
2 1     1.1866     2.0553     0.0000
3 1     1.1866     0.6851     1.9378
4 1     0.0000     2.7404     1.9378
5 1     0.0000     1.3702     3.8756
6 1     1.1866     3.4255     3.8756
7 1     0.0000     0.0000     5.8133
8 1     1.1866     2.0553     5.8133
9 1     1.1866     0.6851     7.7511
10 1     0.0000     2.7404     7.7511
11 1     0.0000     1.3702     9.6889
12 1     1.1866     3.4255     9.6889
13 1     0.0000     0.0000    11.6267
14 1     1.1866     2.0553    11.6267
15 1     0.0000     1.3702    13.5644
16 1     1.1866     3.4255    13.5644
17 1     0.0000     0.0000    15.5022
18 1     1.1866     2.0553    15.5022
19 1     1.1866     0.6851    17.4400
20 1     0.0000     2.7404    17.4400
21 1     0.0000     1.3702    19.3778
22 1     1.1866     3.4255    19.3778
23 1     0.0000     0.0000    21.3156
24 1     1.1866     2.0553    21.3156
25 1     1.1866     0.6851    23.2533
26 1     0.0000     2.7404    23.2533
27 1     0.0000     1.3702    25.1911
28 1     1.1866     3.4255    25.1911
