LAMMPS (11 Aug 2017)
Reading data file ...
  triclinic box = (0 0 0) to (3.5167 3.5167 3.5167) with tilt (0 -0 0)
  1 by 1 by 1 MPI processor grid
  reading atoms ...
  4 atoms
4 atoms in group Ni
Neighbor list info ...
  update every 1 steps, delay 0 steps, check yes
  max neighbors/atom: 2000, page size: 100000
  master list distance cutoff = 11
  ghost atom cutoff = 11
  binsize = 5.5, bins = 1 1 1
  1 neighbor lists, perpetual/occasional/extra = 1 0 0
  (1) pair eam/alloy, perpetual
      attributes: half, newton on
      pair build: half/bin/newton/tri
      stencil: half/bin/3d/newton/tri
      bin: standard
Setting up cg style minimization ...
  Unit style    : metal
  Current step  : 0
WARNING: Energy due to 3 extra global DOFs will be included in minimizer energies
Per MPI rank memory allocation (min/avg/max) = 4.307 | 4.307 | 4.307 Mbytes
Step PotEng Xhi Xlo Yhi Ylo Zhi Xy Xz Yz Press Pxx Pyy Pzz Pxy Pxz Pyz c_eatoms 
       0   -18.389115       3.5167            0       3.5167            0       3.5167            0           -0            0   -10236.476   -10236.476   -10236.476   -10236.476 -3.167805e-11 -3.1881966e-12 -2.7582672e-11   -18.389115 
      10   -18.389891    3.5134342 0.0032657807    3.5134342 0.0032657807    3.5134342            0           -0            0 8.0775856e-10 8.2027524e-10 9.0694259e-10 6.9605787e-10 -1.0058947e-10 3.4464336e-11 1.3004721e-11   -18.389891 
      18   -18.389891    3.5134342 0.0032657807    3.5134342 0.0032657807    3.5134342            0           -0            0 3.8127638e-10 3.5464008e-10 4.2588728e-10 3.6330179e-10 9.9983212e-11 5.0382326e-11 -1.1100534e-10   -18.389891 
Loop time of 0.00353503 on 1 procs for 18 steps with 4 atoms

96.1% CPU use with 1 MPI tasks x no OpenMP threads

Minimization stats:
  Stopping criterion = energy tolerance
  Energy initial, next-to-last, final = 
        -18.3891145249     -18.3898913678     -18.3898913678
  Force two-norm initial, final = 0.481292 2.00452e-14
  Force max component initial, final = 0.277873 1.1518e-14
  Final line search alpha, max atom move = 1 1.1518e-14
  Iterations, force evaluations = 18 35

MPI task timing breakdown:
Section |  min time  |  avg time  |  max time  |%varavg| %total
---------------------------------------------------------------
Pair    | 0.0024021  | 0.0024021  | 0.0024021  |   0.0 | 67.95
Neigh   | 0          | 0          | 0          |   0.0 |  0.00
Comm    | 0.00028968 | 0.00028968 | 0.00028968 |   0.0 |  8.19
Output  | 1.5974e-05 | 1.5974e-05 | 1.5974e-05 |   0.0 |  0.45
Modify  | 0          | 0          | 0          |   0.0 |  0.00
Other   |            | 0.0008273  |            |       | 23.40

Nlocal:    4 ave 4 max 4 min
Histogram: 1 0 0 0 0 0 0 0 0 0
Nghost:    1684 ave 1684 max 1684 min
Histogram: 1 0 0 0 0 0 0 0 0 0
Neighs:    1060 ave 1060 max 1060 min
Histogram: 1 0 0 0 0 0 0 0 0 0

Total # of neighbors = 1060
Ave neighs/atom = 265
Neighbor list builds = 0
Dangerous builds = 0
pypospack:output_section:begin
tot_energy = -18.3898913677659
num_atoms = 4
a11 = 3.51016843867583
a22 = 3.51016843867583
a33 = 3.51016843867583
a12 = 0
a13 = -0
a23 = 0
tot_press = 3.81276384617663e-10
pxx = 3.54640081762897e-10
pyy = 4.25887282532503e-10
pzz = 3.6330178955759e-10
pxy = 9.99832117351573e-11
pxz = 5.03823261012361e-11
pyz = -1.11005337902552e-10
pypospack:output_section:done
pypospack:lammps_sim:done
Total wall time: 0:00:00
