# ['Ni']

107 atoms
1 atom types

    0.0000    10.5625 xlo xhi
    0.0000    10.5625 ylo yhi
    0.0000    10.5625 zlo zhi

    0.0000    -0.0000    -0.0000 xy xz yz

Atoms

1 1     1.7604     1.7604     0.0000
2 1     1.7604     0.0000     1.7604
3 1     0.0000     1.7604     1.7604
4 1     0.0000     0.0000     3.5208
5 1     1.7604     1.7604     3.5208
6 1     1.7604     0.0000     5.2813
7 1     0.0000     1.7604     5.2813
8 1     0.0000     0.0000     7.0417
9 1     1.7604     1.7604     7.0417
10 1     1.7604     0.0000     8.8021
11 1     0.0000     1.7604     8.8021
12 1     0.0000     3.5208     0.0000
13 1     1.7604     5.2813     0.0000
14 1     1.7604     3.5208     1.7604
15 1     0.0000     5.2813     1.7604
16 1     0.0000     3.5208     3.5208
17 1     1.7604     5.2813     3.5208
18 1     1.7604     3.5208     5.2813
19 1     0.0000     5.2813     5.2813
20 1     0.0000     3.5208     7.0417
21 1     1.7604     5.2813     7.0417
22 1     1.7604     3.5208     8.8021
23 1     0.0000     5.2813     8.8021
24 1     0.0000     7.0417     0.0000
25 1     1.7604     8.8021     0.0000
26 1     1.7604     7.0417     1.7604
27 1     0.0000     8.8021     1.7604
28 1     0.0000     7.0417     3.5208
29 1     1.7604     8.8021     3.5208
30 1     1.7604     7.0417     5.2813
31 1     0.0000     8.8021     5.2813
32 1     0.0000     7.0417     7.0417
33 1     1.7604     8.8021     7.0417
34 1     1.7604     7.0417     8.8021
35 1     0.0000     8.8021     8.8021
36 1     3.5208     0.0000     0.0000
37 1     5.2813     1.7604     0.0000
38 1     5.2813     0.0000     1.7604
39 1     3.5208     1.7604     1.7604
40 1     3.5208     0.0000     3.5208
41 1     5.2813     1.7604     3.5208
42 1     5.2813     0.0000     5.2813
43 1     3.5208     1.7604     5.2813
44 1     3.5208     0.0000     7.0417
45 1     5.2813     1.7604     7.0417
46 1     5.2813     0.0000     8.8021
47 1     3.5208     1.7604     8.8021
48 1     3.5208     3.5208     0.0000
49 1     5.2813     5.2813     0.0000
50 1     5.2813     3.5208     1.7604
51 1     3.5208     5.2813     1.7604
52 1     3.5208     3.5208     3.5208
53 1     5.2813     5.2813     3.5208
54 1     5.2813     3.5208     5.2813
55 1     3.5208     5.2813     5.2813
56 1     3.5208     3.5208     7.0417
57 1     5.2813     5.2813     7.0417
58 1     5.2813     3.5208     8.8021
59 1     3.5208     5.2813     8.8021
60 1     3.5208     7.0417     0.0000
61 1     5.2813     8.8021     0.0000
62 1     5.2813     7.0417     1.7604
63 1     3.5208     8.8021     1.7604
64 1     3.5208     7.0417     3.5208
65 1     5.2813     8.8021     3.5208
66 1     5.2813     7.0417     5.2813
67 1     3.5208     8.8021     5.2813
68 1     3.5208     7.0417     7.0417
69 1     5.2813     8.8021     7.0417
70 1     5.2813     7.0417     8.8021
71 1     3.5208     8.8021     8.8021
72 1     7.0417     0.0000     0.0000
73 1     8.8021     1.7604     0.0000
74 1     8.8021     0.0000     1.7604
75 1     7.0417     1.7604     1.7604
76 1     7.0417     0.0000     3.5208
77 1     8.8021     1.7604     3.5208
78 1     8.8021     0.0000     5.2813
79 1     7.0417     1.7604     5.2813
80 1     7.0417     0.0000     7.0417
81 1     8.8021     1.7604     7.0417
82 1     8.8021     0.0000     8.8021
83 1     7.0417     1.7604     8.8021
84 1     7.0417     3.5208     0.0000
85 1     8.8021     5.2813     0.0000
86 1     8.8021     3.5208     1.7604
87 1     7.0417     5.2813     1.7604
88 1     7.0417     3.5208     3.5208
89 1     8.8021     5.2813     3.5208
90 1     8.8021     3.5208     5.2813
91 1     7.0417     5.2813     5.2813
92 1     7.0417     3.5208     7.0417
93 1     8.8021     5.2813     7.0417
94 1     8.8021     3.5208     8.8021
95 1     7.0417     5.2813     8.8021
96 1     7.0417     7.0417     0.0000
97 1     8.8021     8.8021     0.0000
98 1     8.8021     7.0417     1.7604
99 1     7.0417     8.8021     1.7604
100 1     7.0417     7.0417     3.5208
101 1     8.8021     8.8021     3.5208
102 1     8.8021     7.0417     5.2813
103 1     7.0417     8.8021     5.2813
104 1     7.0417     7.0417     7.0417
105 1     8.8021     8.8021     7.0417
106 1     8.8021     7.0417     8.8021
107 1     7.0417     8.8021     8.8021
