# ['Ni']

18 atoms
1 atom types

    0.0000     2.5663 xlo xhi
    0.0000     4.4450 ylo yhi
    0.0000    37.7106 zlo zhi

    0.0000     0.0000    -0.0004 xy xz yz

Atoms

1 1     0.0000     0.0000     0.0000
2 1     1.2831     0.7408     2.0950
3 1     0.0000     1.4817     4.1901
4 1     1.2831     2.2225     0.0000
5 1     0.0000     2.9633     2.0950
6 1     1.2831     3.7041     4.1901
7 1     0.0000     0.0000     6.2851
8 1     1.2831     0.7408     8.3801
9 1     0.0000     1.4817    10.4752
10 1     1.2831     2.2225     6.2851
11 1     0.0000     2.9633     8.3801
12 1     1.2831     3.7041    10.4752
13 1     0.0000     0.0000    12.5702
14 1     1.2831     0.7408    14.6652
15 1     0.0000     1.4817    16.7602
16 1     1.2831     2.2225    12.5702
17 1     0.0000     2.9633    14.6652
18 1     1.2831     3.7041    16.7602
