   2   2   0   0
  0.9639684E+01  0.3009788E-09  0.3009788E-09  0.3009788E-09  0.5000000E-15
  1.000000000000000E-004
  CAR 
 automatically generated by pyflamestk   
     43.87384576    -16.67318074  301      3.55961728      1.00000000
    -16.673  0.0000E+00  0.0000E+00
    -16.471  0.0000E+00  0.0000E+00
    -16.270  0.0000E+00  0.0000E+00
    -16.068  0.0000E+00  0.0000E+00
    -15.866  0.0000E+00  0.0000E+00
    -15.664  0.0000E+00  0.0000E+00
    -15.462  0.0000E+00  0.0000E+00
    -15.260  0.0000E+00  0.0000E+00
    -15.059  0.0000E+00  0.0000E+00
    -14.857  0.0000E+00  0.0000E+00
    -14.655  0.0000E+00  0.0000E+00
    -14.453  0.0000E+00  0.0000E+00
    -14.251  0.0000E+00  0.0000E+00
    -14.049  0.4344E-04  0.8767E-05
    -13.848  0.3038E+00  0.6132E-01
    -13.646  0.2382E-01  0.6612E-01
    -13.444  0.9110E+00  0.2500E+00
    -13.242  0.8733E+00  0.4262E+00
    -13.040  0.1120E+01  0.6523E+00
    -12.839  0.2869E+01  0.1231E+01
    -12.637  0.3628E+01  0.1963E+01
    -12.435  0.1811E+00  0.2000E+01
    -12.233  0.0000E+00  0.2000E+01
    -12.031  0.0000E+00  0.2000E+01
    -11.829  0.0000E+00  0.2000E+01
    -11.628  0.0000E+00  0.2000E+01
    -11.426  0.0000E+00  0.2000E+01
    -11.224  0.0000E+00  0.2000E+01
    -11.022  0.0000E+00  0.2000E+01
    -10.820  0.0000E+00  0.2000E+01
    -10.618  0.0000E+00  0.2000E+01
    -10.417  0.0000E+00  0.2000E+01
    -10.215  0.0000E+00  0.2000E+01
    -10.013  0.0000E+00  0.2000E+01
     -9.811  0.0000E+00  0.2000E+01
     -9.609  0.0000E+00  0.2000E+01
     -9.408  0.0000E+00  0.2000E+01
     -9.206  0.0000E+00  0.2000E+01
     -9.004  0.0000E+00  0.2000E+01
     -8.802  0.0000E+00  0.2000E+01
     -8.600  0.0000E+00  0.2000E+01
     -8.398  0.0000E+00  0.2000E+01
     -8.197  0.0000E+00  0.2000E+01
     -7.995  0.0000E+00  0.2000E+01
     -7.793  0.0000E+00  0.2000E+01
     -7.591  0.0000E+00  0.2000E+01
     -7.389  0.0000E+00  0.2000E+01
     -7.187  0.0000E+00  0.2000E+01
     -6.986  0.0000E+00  0.2000E+01
     -6.784  0.0000E+00  0.2000E+01
     -6.582  0.0000E+00  0.2000E+01
     -6.380  0.0000E+00  0.2000E+01
     -6.178  0.0000E+00  0.2000E+01
     -5.977  0.0000E+00  0.2000E+01
     -5.775  0.0000E+00  0.2000E+01
     -5.573  0.0000E+00  0.2000E+01
     -5.371  0.0000E+00  0.2000E+01
     -5.169  0.0000E+00  0.2000E+01
     -4.967  0.0000E+00  0.2000E+01
     -4.766  0.0000E+00  0.2000E+01
     -4.564  0.0000E+00  0.2000E+01
     -4.362  0.0000E+00  0.2000E+01
     -4.160  0.0000E+00  0.2000E+01
     -3.958  0.0000E+00  0.2000E+01
     -3.756  0.0000E+00  0.2000E+01
     -3.555  0.0000E+00  0.2000E+01
     -3.353  0.0000E+00  0.2000E+01
     -3.151  0.0000E+00  0.2000E+01
     -2.949  0.0000E+00  0.2000E+01
     -2.747  0.0000E+00  0.2000E+01
     -2.546  0.0000E+00  0.2000E+01
     -2.344  0.0000E+00  0.2000E+01
     -2.142  0.0000E+00  0.2000E+01
     -1.940  0.0000E+00  0.2000E+01
     -1.738  0.0000E+00  0.2000E+01
     -1.536  0.0000E+00  0.2000E+01
     -1.335  0.0000E+00  0.2000E+01
     -1.133  0.0000E+00  0.2000E+01
     -0.931  0.5109E-04  0.2000E+01
     -0.729  0.8985E+00  0.2181E+01
     -0.527  0.2938E+00  0.2241E+01
     -0.325  0.6452E+00  0.2371E+01
     -0.124  0.3063E+01  0.2989E+01
      0.078  0.1962E+01  0.3385E+01
      0.280  0.1177E+01  0.3623E+01
      0.482  0.6314E+00  0.3750E+01
      0.684  0.7391E-07  0.3750E+01
      0.885  0.1070E-02  0.3750E+01
      1.087  0.1973E+01  0.4148E+01
      1.289  0.1741E+01  0.4500E+01
      1.491  0.1727E-02  0.4500E+01
      1.693  0.9363E-01  0.4519E+01
      1.895  0.2693E+01  0.5062E+01
      2.096  0.1333E+01  0.5332E+01
      2.298  0.2529E+01  0.5842E+01
      2.500  0.2274E+01  0.6301E+01
      2.702  0.3731E+01  0.7054E+01
      2.904  0.1520E+01  0.7361E+01
      3.106  0.2547E+01  0.7875E+01
      3.307  0.5349E+00  0.7983E+01
      3.509  0.8626E-01  0.8000E+01
      3.711  0.0000E+00  0.8000E+01
      3.913  0.0000E+00  0.8000E+01
      4.115  0.0000E+00  0.8000E+01
      4.316  0.0000E+00  0.8000E+01
      4.518  0.0000E+00  0.8000E+01
      4.720  0.0000E+00  0.8000E+01
      4.922  0.0000E+00  0.8000E+01
      5.124  0.0000E+00  0.8000E+01
      5.326  0.0000E+00  0.8000E+01
      5.527  0.0000E+00  0.8000E+01
      5.729  0.0000E+00  0.8000E+01
      5.931  0.0000E+00  0.8000E+01
      6.133  0.0000E+00  0.8000E+01
      6.335  0.0000E+00  0.8000E+01
      6.537  0.0000E+00  0.8000E+01
      6.738  0.0000E+00  0.8000E+01
      6.940  0.0000E+00  0.8000E+01
      7.142  0.0000E+00  0.8000E+01
      7.344  0.0000E+00  0.8000E+01
      7.546  0.0000E+00  0.8000E+01
      7.747  0.0000E+00  0.8000E+01
      7.949  0.0000E+00  0.8000E+01
      8.151  0.0000E+00  0.8000E+01
      8.353  0.5689E-12  0.8000E+01
      8.555  0.3324E-01  0.8007E+01
      8.757  0.2764E+00  0.8062E+01
      8.958  0.1224E-05  0.8062E+01
      9.160  0.0000E+00  0.8062E+01
      9.362  0.0000E+00  0.8062E+01
      9.564  0.0000E+00  0.8062E+01
      9.766  0.0000E+00  0.8062E+01
      9.968  0.3610E-15  0.8062E+01
     10.169  0.8666E-02  0.8064E+01
     10.371  0.9200E+00  0.8250E+01
     10.573  0.3672E-03  0.8250E+01
     10.775  0.1049E-02  0.8250E+01
     10.977  0.3086E+00  0.8312E+01
     11.178  0.9209E+00  0.8498E+01
     11.380  0.8123E-02  0.8500E+01
     11.582  0.1964E-02  0.8500E+01
     11.784  0.9250E+00  0.8687E+01
     11.986  0.2044E-02  0.8688E+01
     12.188  0.1031E+00  0.8708E+01
     12.389  0.8259E+00  0.8875E+01
     12.591  0.6511E+00  0.9006E+01
     12.793  0.1229E+01  0.9255E+01
     12.995  0.9100E+00  0.9438E+01
     13.197  0.9246E+00  0.9625E+01
     13.399  0.1439E-02  0.9625E+01
     13.600  0.9185E+00  0.9810E+01
     13.802  0.1066E+01  0.1003E+02
     14.004  0.1694E+01  0.1037E+02
     14.206  0.3769E-01  0.1037E+02
     14.408  0.0000E+00  0.1038E+02
     14.609  0.1449E-12  0.1038E+02
     14.811  0.1131E+00  0.1040E+02
     15.013  0.3603E+01  0.1112E+02
     15.215  0.3288E-02  0.1113E+02
     15.417  0.1590E+01  0.1145E+02
     15.619  0.2168E+01  0.1188E+02
     15.820  0.2123E+01  0.1231E+02
     16.022  0.8887E-05  0.1231E+02
     16.224  0.1595E+01  0.1263E+02
     16.426  0.2627E+00  0.1269E+02
     16.628  0.0000E+00  0.1269E+02
     16.830  0.2603E-04  0.1269E+02
     17.031  0.1739E+01  0.1304E+02
     17.233  0.7790E+00  0.1320E+02
     17.435  0.5787E+00  0.1331E+02
     17.637  0.5183E-03  0.1331E+02
     17.839  0.2137E-02  0.1331E+02
     18.040  0.9250E+00  0.1350E+02
     18.242  0.1879E-02  0.1350E+02
     18.444  0.1496E-09  0.1350E+02
     18.646  0.2612E+00  0.1355E+02
     18.848  0.6678E+00  0.1369E+02
     19.050  0.1352E-06  0.1369E+02
     19.251  0.5616E-02  0.1369E+02
     19.453  0.1103E+01  0.1391E+02
     19.655  0.2908E+01  0.1450E+02
     19.857  0.9418E+00  0.1469E+02
     20.059  0.9251E+00  0.1487E+02
     20.261  0.1897E+01  0.1526E+02
     20.462  0.1114E+01  0.1548E+02
     20.664  0.7057E+00  0.1562E+02
     20.866  0.4435E+00  0.1571E+02
     21.068  0.5818E+00  0.1583E+02
     21.270  0.8563E+00  0.1600E+02
     21.471  0.9072E+00  0.1619E+02
     21.673  0.1766E+01  0.1654E+02
     21.875  0.9042E-01  0.1656E+02
     22.077  0.2859E-01  0.1657E+02
     22.279  0.9004E+00  0.1675E+02
     22.481  0.3463E+00  0.1682E+02
     22.682  0.6559E+00  0.1695E+02
     22.884  0.1785E+01  0.1731E+02
     23.086  0.1400E+01  0.1760E+02
     23.288  0.4582E+00  0.1769E+02
     23.490  0.2385E-01  0.1769E+02
     23.692  0.6658E+00  0.1783E+02
     23.893  0.8587E+00  0.1800E+02
     24.095  0.1364E+00  0.1803E+02
     24.297  0.1787E+00  0.1806E+02
     24.499  0.1173E+01  0.1830E+02
     24.701  0.3701E+00  0.1838E+02
     24.902  0.3785E+00  0.1845E+02
     25.104  0.8602E+00  0.1862E+02
     25.306  0.6755E-02  0.1863E+02
     25.508  0.1867E+01  0.1900E+02
     25.710  0.9130E+00  0.1919E+02
     25.912  0.2126E-03  0.1919E+02
     26.113  0.1792E+01  0.1955E+02
     26.315  0.6556E-01  0.1956E+02
     26.517  0.2419E+01  0.2005E+02
     26.719  0.3679E+00  0.2013E+02
     26.921  0.6186E+00  0.2025E+02
     27.123  0.7631E+00  0.2040E+02
     27.324  0.7242E+00  0.2055E+02
     27.526  0.6180E-01  0.2056E+02
     27.728  0.0000E+00  0.2056E+02
     27.930  0.0000E+00  0.2056E+02
     28.132  0.0000E+00  0.2056E+02
     28.333  0.0000E+00  0.2056E+02
     28.535  0.1299E-08  0.2056E+02
     28.737  0.2684E+00  0.2062E+02
     28.939  0.2889E+01  0.2120E+02
     29.141  0.9488E+00  0.2139E+02
     29.343  0.2320E+00  0.2144E+02
     29.544  0.9248E+00  0.2162E+02
     29.746  0.1422E-02  0.2163E+02
     29.948  0.2451E+00  0.2167E+02
     30.150  0.2704E+01  0.2222E+02
     30.352  0.1667E+01  0.2256E+02
     30.553  0.9573E+00  0.2275E+02
     30.755  0.1218E-02  0.2275E+02
     30.957  0.1592E-03  0.2275E+02
     31.159  0.1684E+01  0.2309E+02
     31.361  0.1735E+00  0.2313E+02
     31.563  0.1791E+01  0.2349E+02
     31.764  0.2306E+01  0.2395E+02
     31.966  0.1144E+01  0.2418E+02
     32.168  0.1060E+01  0.2440E+02
     32.370  0.3812E+01  0.2517E+02
     32.572  0.1344E+01  0.2544E+02
     32.774  0.2735E+01  0.2599E+02
     32.975  0.5200E+00  0.2609E+02
     33.177  0.5482E+00  0.2620E+02
     33.379  0.2287E+01  0.2667E+02
     33.581  0.1042E+00  0.2669E+02
     33.783  0.0000E+00  0.2669E+02
     33.984  0.0000E+00  0.2669E+02
     34.186  0.0000E+00  0.2669E+02
     34.388  0.0000E+00  0.2669E+02
     34.590  0.7163E-13  0.2669E+02
     34.792  0.4395E-01  0.2670E+02
     34.994  0.2713E+01  0.2724E+02
     35.195  0.3062E-01  0.2725E+02
     35.397  0.2659E+00  0.2730E+02
     35.599  0.2914E+01  0.2789E+02
     35.801  0.5463E+00  0.2800E+02
     36.003  0.9190E+00  0.2819E+02
     36.205  0.3317E-03  0.2819E+02
     36.406  0.1710E+01  0.2853E+02
     36.608  0.1075E+01  0.2875E+02
     36.810  0.6454E-01  0.2876E+02
     37.012  0.5562E+00  0.2887E+02
     37.214  0.3859E+00  0.2895E+02
     37.415  0.1472E+01  0.2925E+02
     37.617  0.9156E+00  0.2943E+02
     37.819  0.5646E+00  0.2955E+02
     38.021  0.1307E+01  0.2981E+02
     38.223  0.7642E+00  0.2997E+02
     38.425  0.1650E+00  0.3000E+02
     38.626  0.1186E-14  0.3000E+02
     38.828  0.2711E-01  0.3001E+02
     39.030  0.3170E+01  0.3065E+02
     39.232  0.8284E+00  0.3081E+02
     39.434  0.1083E-06  0.3081E+02
     39.636  0.0000E+00  0.3081E+02
     39.837  0.0000E+00  0.3081E+02
     40.039  0.3085E-02  0.3081E+02
     40.241  0.9247E+00  0.3100E+02
     40.443  0.1279E-02  0.3100E+02
     40.645  0.0000E+00  0.3100E+02
     40.846  0.2805E-03  0.3100E+02
     41.048  0.1764E+01  0.3136E+02
     41.250  0.3191E+01  0.3200E+02
     41.452  0.3172E-03  0.3200E+02
     41.654  0.0000E+00  0.3200E+02
     41.856  0.0000E+00  0.3200E+02
     42.057  0.0000E+00  0.3200E+02
     42.259  0.0000E+00  0.3200E+02
     42.461  0.0000E+00  0.3200E+02
     42.663  0.0000E+00  0.3200E+02
     42.865  0.0000E+00  0.3200E+02
     43.067  0.0000E+00  0.3200E+02
     43.268  0.0000E+00  0.3200E+02
     43.470  0.0000E+00  0.3200E+02
     43.672  0.0000E+00  0.3200E+02
     43.874  0.0000E+00  0.3200E+02
