    2    2    1    1
  0.9639684E+01  0.3009788E-09  0.3009788E-09  0.3009788E-09  0.5000000E-15
  1.000000000000000E-004
  CAR 
 automatically generated by pyflamestk   
      8     10     16
 
  0.1250000E+00  0.1250000E+00  0.1250000E+00  0.3125000E-01
    1      -13.921043   1.000000
    2        2.446279   1.000000
    3        3.269028   1.000000
    4        3.269028   1.000000
    5        8.598614   0.000000
    6       17.331249   0.000000
    7       19.334926   0.000000
    8       19.334929   0.000000
    9       23.552200   0.000000
   10       23.552201   0.000000
   11       24.882048   0.000000
   12       27.294514   0.000000
   13       28.743025   0.000000
   14       28.743026   0.000000
   15       39.035975   0.000000
   16       40.956803   0.000000
 
  0.3750000E+00  0.1250000E+00  0.1250000E+00  0.9375000E-01
    1      -13.297103   1.000000
    2        0.296489   1.000000
    3        2.458871   1.000000
    4        3.003244   1.000000
    5       11.094436   0.000000
    6       15.311927   0.000000
    7       18.666401   0.000000
    8       20.312315   0.000000
    9       22.143013   0.000000
   10       24.386213   0.000000
   11       26.450620   0.000000
   12       31.125223   0.000000
   13       32.466603   0.000000
   14       33.224385   0.000000
   15       35.574309   0.000000
   16       38.911072   0.000000
 
 -0.3750000E+00  0.1250000E+00  0.1250000E+00  0.9375000E-01
    1      -12.883460   1.000000
    2       -0.794220   1.000000
    3        2.294519   1.000000
    4        2.721498   1.000000
    5       11.683234   0.000000
    6       15.635654   0.000000
    7       17.938812   0.000000
    8       19.757137   0.000000
    9       23.742230   0.000000
   10       26.049374   0.000000
   11       26.049502   0.000000
   12       32.267259   0.000000
   13       32.975127   0.000000
   14       33.279738   0.000000
   15       35.882633   0.000000
   16       37.539848   0.000000
 
 -0.1250000E+00  0.1250000E+00  0.1250000E+00  0.9375000E-01
    1      -13.572713   1.000000
    2        1.186522   1.000000
    3        2.920687   1.000000
    4        2.934611   1.000000
    5       10.252502   0.000000
    6       15.524182   0.000000
    7       19.451214   0.000000
    8       19.944985   0.000000
    9       21.112373   0.000000
   10       24.936448   0.000000
   11       26.905525   0.000000
   12       30.005835   0.000000
   13       30.287701   0.000000
   14       31.083795   0.000000
   15       37.240592   0.000000
   16       39.048807   0.000000
 
  0.3750000E+00  0.3750000E+00  0.1250000E+00  0.9375000E-01
    1      -13.072747   1.000000
    2        0.116966   1.000000
    3        2.279703   1.000000
    4        2.511045   1.000000
    5       12.230753   0.000000
    6       13.942316   0.000000
    7       17.213702   0.000000
    8       20.867978   0.000000
    9       21.338649   0.000000
   10       27.123633   0.000000
   11       30.183028   0.000000
   12       30.447117   0.000000
   13       32.362472   0.000000
   14       34.851014   0.000000
   15       36.503117   0.000000
   16       37.892660   0.000000
 
 -0.3750000E+00  0.3750000E+00  0.1250000E+00  0.1875000E+00
    1      -12.683734   1.000000
    2        0.016785   1.000000
    3        1.000387   1.000000
    4        2.076048   1.000000
    5       13.796094   0.000000
    6       14.870521   0.000000
    7       15.646162   0.000000
    8       19.565206   0.000000
    9       23.061808   0.000000
   10       26.485061   0.000000
   11       29.992083   0.000000
   12       31.499010   0.000000
   13       32.702212   0.000000
   14       36.356966   0.000000
   15       38.910778   0.000000
   16       41.121708   0.000000
 
 -0.1250000E+00  0.3750000E+00  0.1250000E+00  0.1875000E+00
    1      -12.925609   1.000000
    2       -0.191745   1.000000
    3        1.755674   1.000000
    4        2.595528   1.000000
    5       12.604801   0.000000
    6       14.888981   0.000000
    7       16.977610   0.000000
    8       20.183700   0.000000
    9       22.744555   0.000000
   10       25.400993   0.000000
   11       28.893695   0.000000
   12       31.741759   0.000000
   13       32.294104   0.000000
   14       34.918206   0.000000
   15       35.565065   0.000000
   16       41.024580   0.000000
 
 -0.3750000E+00 -0.3750000E+00  0.1250000E+00  0.9375000E-01
    1      -12.717468   1.000000
    2       -0.338473   1.000000
    3        1.761648   1.000000
    4        2.249574   1.000000
    5       12.862941   0.000000
    6       13.519312   0.000000
    7       16.174660   0.000000
    8       21.573333   0.000000
    9       21.626928   0.000000
   10       28.885948   0.000000
   11       29.439680   0.000000
   12       31.983553   0.000000
   13       32.695075   0.000000
   14       37.812482   0.000000
   15       38.190102   0.000000
   16       41.114289   0.000000
 
  0.3750000E+00  0.3750000E+00  0.3750000E+00  0.3125000E-01
    1      -13.107918   1.000000
    2       -0.563990   1.000000
    3        2.892746   1.000000
    4        2.892746   1.000000
    5       10.870542   0.000000
    6       15.571906   0.000000
    7       19.546545   0.000000
    8       19.546547   0.000000
    9       24.100460   0.000000
   10       24.507428   0.000000
   11       24.507431   0.000000
   12       31.888179   0.000000
   13       33.344523   0.000000
   14       33.344526   0.000000
   15       36.854935   0.000000
   16       36.854939   0.000000
 
 -0.3750000E+00  0.3750000E+00  0.3750000E+00  0.9375000E-01
    1      -12.762538   1.000000
    2       -0.216825   1.000000
    3        1.126141   1.000000
    4        2.566662   1.000000
    5       13.089643   0.000000
    6       15.396668   0.000000
    7       16.194472   0.000000
    8       20.487257   0.000000
    9       22.492047   0.000000
   10       25.580786   0.000000
   11       29.116518   0.000000
   12       31.711916   0.000000
   13       32.172855   0.000000
   14       35.417218   0.000000
   15       37.244435   0.000000
   16       40.135166   0.000000
