LAMMPS (10 Feb 2015)
Reading data file ...
  triclinic box = (0 0 0) to (4.2565 4.2565 4.2565) with tilt (0 0 0)
  1 by 1 by 1 MPI processor grid
  reading atoms ...
  8 atoms
4 atoms in group Mg
4 atoms in group O
Setting atom values ...
  4 settings made for charge
Setting atom values ...
  4 settings made for charge
PPPM initialization ...
  G vector (1/distance) = 0.352653
  grid = 8 8 8
  stencil order = 5
  estimated absolute RMS force accuracy = 3.87471e-05
  estimated relative force accuracy = 2.69083e-06
  using double precision FFTs
  3d grid and FFT values/proc = 3375 512
Neighbor list info ...
  1 neighbor list requests
  update every 1 steps, delay 0 steps, check yes
  master list distance cutoff = 11
Setting up minimization ...
Memory usage per processor = 4.06549 Mbytes
Step PotEng Lx Ly Lz Xy Xz Yz Press Pxx Pyy Pzz Pxy Pxz Pyz eatoms 
       0   -109.00108       4.2565       4.2565       4.2565            0            0            0    61252.417    61252.417    61252.417    61252.417 -3.6848803e-11 -3.3369169e-11 3.6549969e-10   -109.00108 
      10    -109.0509     4.299065     4.299065     4.299065            0            0            0    8703.9294    8703.9294    8703.9294    8703.9294 1.5032756e-10 -1.0327816e-11 -1.1009458e-10    -109.0509 
      15   -109.05203    4.3066964    4.3066964    4.3066964            0            0            0 0.0034250328 0.0034250327  0.003425033 0.0034250328 -1.8553982e-10 4.3823803e-11 -1.4551403e-10   -109.05203 
Loop time of 0.00749683 on 1 procs for 15 steps with 8 atoms

Minimization stats:
  Stopping criterion = linesearch alpha is zero
  Energy initial, next-to-last, final = 
        -109.001077098     -109.052033723     -109.052033723
  Force two-norm initial, final = 8.84488 3.43431e-05
  Force max component initial, final = 8.84488 7.26821e-06
  Final line search alpha, max atom move = 0.5 3.63411e-06
  Iterations, force evaluations = 15 22

Pair  time (%) = 0.00209951 (28.0053)
Kspce time (%) = 0.00119925 (15.9967)
Neigh time (%) = 0 (0)
Comm  time (%) = 0.000225306 (3.00534)
Outpt time (%) = 1.21593e-05 (0.162193)
Other time (%) = 0.00396061 (52.8304)

Nlocal:    8 ave 8 max 8 min
Histogram: 1 0 0 0 0 0 0 0 0 0
Nghost:    2189 ave 2189 max 2189 min
Histogram: 1 0 0 0 0 0 0 0 0 0
Neighs:    2344 ave 2344 max 2344 min
Histogram: 1 0 0 0 0 0 0 0 0 0

Total # of neighbors = 2344
Ave neighs/atom = 293
Neighbor list builds = 0
Dangerous builds = 0
pypospack:output_section:begin
tot_energy = -109.052033723467
num_atoms = 8
xx = 4.30669636930156
yy = 4.30669636930156
zz = 4.30669636930156
xy = 0
xz = 0
yz = 0
tot_press = 0.00342503281246904
pxx = 0.00342503266517326
pyy = 0.00342503296687446
pzz = 0.00342503280535941
pxy = -1.85539817051957e-10
pxz = 4.38238030577261e-11
pyz = -1.45514027090344e-10
pypospack:output_section:done
pypospack:lammps_sim:done
PPPM initialization ...
  G vector (1/distance) = 0.352152
  grid = 8 8 8
  stencil order = 5
  estimated absolute RMS force accuracy = 3.96483e-05
  estimated relative force accuracy = 2.75342e-06
  using double precision FFTs
  3d grid and FFT values/proc = 3375 512
Setting up run ...
Memory usage per processor = 3.06549 Mbytes
Step Temp PotEng KinEng TotEng Press Lx Ly Lz Press Pxx Pyy Pzz Pxy Pxz Pyz Volume 
       0          400   -109.05204   0.36192841   -108.69011    4838.1402    4.3066964    4.3066964    4.3066964    4838.1402    3755.5942    8763.3394    1995.4869   -2234.4815    875.80528   -788.36615    79.879026 
     100    135.11152   -108.76416   0.12225174   -108.64191    1652.2676    4.3140291    4.3140291    4.3140291    1652.2676    2675.7155    8625.4913    -6344.404     3995.202   -2116.9477    3537.3203    80.287738 
     200    195.56224    -108.7178   0.17694882   -108.54085   -4042.5948    4.3130501    4.3130501    4.3130501   -4042.5948   -7863.8837    1978.0726   -6241.9733    1323.2212   -1413.8254    4212.3872    80.233089 
     300    456.42462   -108.87059   0.41298259    -108.4576    10614.559    4.3080973    4.3080973    4.3080973    10614.559    9058.8726      19246.9    3537.9052    157.89128    536.33775   -2120.6896    79.957006 
     400    268.27441   -108.63951   0.24274032   -108.39677   -14128.933    4.3231755    4.3231755    4.3231755   -14128.933   -13205.818   -14573.569   -14607.413    6856.5081   -3635.4634    5539.3047    80.799489 
     500    301.94178   -108.62523   0.27320327   -108.35203    5013.8289      4.30412      4.30412      4.30412    5013.8289    4521.9374    6050.3473    4469.2019    6752.4418    -4041.244    4379.1293    79.735756 
     600    619.46308    -108.8906   0.56050321    -108.3301   -2742.7046    4.3256272    4.3256272    4.3256272   -2742.7046   -1541.5236    8936.3465   -15622.937    -4808.506    1363.9699   -3264.1646    80.937028 
     700    324.39199   -108.62293   0.29351669   -108.32941   -496.31123    4.3084049    4.3084049    4.3084049   -496.31123   -4859.6286    2692.6622    678.03271    6761.7291   -5981.0987    7806.4712     79.97413 
     800    299.50892   -108.59933   0.27100196   -108.32833   -8192.6627    4.3158655    4.3158655    4.3158655   -8192.6627   -11053.972   -8805.4348   -4718.5813    5511.1677    -693.1897    3109.1292    80.390309 
     900    521.94856    -108.7972   0.47227002   -108.32493    185.36889    4.3191725    4.3191725    4.3191725    185.36889   -2260.9165    10892.845   -8075.8218   -4874.7796    2204.7169   -5418.2304    80.575247 
    1000     296.4766   -108.59705   0.26825826    -108.3288      11412.5    4.3038945    4.3038945    4.3038945      11412.5    6638.6474    21710.979    5887.8726    9265.0643   -4982.4818    6534.0394    79.723224 
    1100    325.34775   -108.62366   0.29438148   -108.32928   -14559.652     4.329057     4.329057     4.329057   -14559.652   -15240.155   -7972.0159   -20466.784    815.87378    639.85935    1055.2163    81.129706 
    1200    633.67575   -108.89701   0.57336314   -108.32364    14334.097    4.3005991    4.3005991    4.3005991    14334.097    15626.695    18504.693    8870.9032    144.62874    266.08294   -5904.7782    79.540235 
    1300    372.82744   -108.66392    0.3373421   -108.32658   -9696.2313    4.3248494    4.3248494    4.3248494   -9696.2313   -11028.568    360.41465   -18420.541     6532.858   -4503.3105    6113.1527    80.893376 
    1400    264.85335   -108.56695   0.23964488   -108.32731     4362.107    4.3108378    4.3108378    4.3108378     4362.107    5487.3925    9752.7056    -2153.777   -1214.0178   -1008.7251   -237.39436     80.10969 
    1500    421.11925   -108.70757   0.38103754   -108.32653    4682.8252    4.3122072    4.3122072    4.3122072    4682.8252    12532.016    7966.5904   -6450.1304   -6687.7702    708.15002   -8978.9264    80.186059 
    1600    436.70785    -108.7224   0.39514244   -108.32725   -6903.9153    4.3201139    4.3201139    4.3201139   -6903.9153   -6002.9676   -2586.9984    -12121.78    6152.2371   -6732.2358    5854.8537    80.627945 
    1700    367.50382   -108.66136   0.33252518   -108.32883    -537.6995    4.3092954    4.3092954    4.3092954    -537.6995    805.21714    366.44215   -2784.7578    3087.8849    3236.3709   -2323.7696    80.023729 
    1800    421.54363   -108.70983   0.38142153   -108.32841    2830.1776    4.3171348    4.3171348    4.3171348    2830.1776    11648.169    11455.739   -14613.375   -6018.7642   -785.90595   -8299.5873    80.461259 
    1900    495.46588   -108.77531   0.44830794     -108.327   -2526.1066     4.316823     4.316823     4.316823   -2526.1066   -1866.7716    4715.0479   -10426.596     5991.433   -3492.5909    5611.5539    80.443828 
    2000    300.42583   -108.60083    0.2718316     -108.329    4626.1569    4.3086949    4.3086949    4.3086949    4626.1569    17983.053   -3021.2622   -1083.3196    677.50852    2045.3773   -6291.5492    79.990279 
    2100    362.82189   -108.65726   0.32828887   -108.32898   -12212.769    4.3225492    4.3225492    4.3225492   -12212.769   -15270.365   -423.93558   -20944.006     -2567.38   -2066.5654   -6747.4587    80.764374 
    2200    452.63438   -108.73583    0.4095531   -108.32627    10595.299    4.3055234    4.3055234    4.3055234    10595.299   -802.32371     29732.26    2855.9611    2583.6244    -6018.012    3508.0668    79.813775 
    2300    338.52807   -108.63552   0.30630731   -108.32922    -8125.683    4.3227606    4.3227606    4.3227606    -8125.683   -2567.9696   -3154.8113   -18654.268    543.39513    2738.5166   -6587.5236    80.776225 
    2400    413.87405   -108.70346   0.37448193   -108.32898    1475.3021    4.3092094    4.3092094    4.3092094    1475.3021    8023.2227    6420.3699   -10017.686   -7076.8626   -4201.0089   -7931.6468    80.018939 
    2500    548.11898   -108.82354   0.49594957   -108.32759    1236.3892    4.3162911    4.3162911    4.3162911    1236.3892    2005.0763    10359.604   -8655.5125    5444.4476   -5899.3297    2985.5022    80.414097 
    2600    309.43584    -108.6102   0.27998405   -108.33022   -4997.1575    4.3162457    4.3162457    4.3162457   -4997.1575   -2615.4868    908.89693   -13284.883    449.66248    4242.2147   -8830.0422    80.411557 
    2700    261.01624    -108.5661   0.23617298   -108.32993   -1073.0779    4.3091152    4.3091152    4.3091152   -1073.0779   -2860.2583    7430.8176   -7789.7929   -9257.6428   -5306.6787   -5118.9287    80.013693 
    2800    518.60851   -108.79509   0.46924788   -108.32584   -2922.9425     4.321288     4.321288     4.321288   -2922.9425     1793.124    3260.5201   -13822.472     5333.842   -1553.3419    2916.3346      80.6937 
    2900    375.26695   -108.66829   0.33954942   -108.32874    1880.7683    4.3090021    4.3090021    4.3090021    1880.7683    10583.779   -584.96945   -4356.5049   -372.36219    1525.6232   -11509.227    80.007394 
    3000    309.58967   -108.61103   0.28012324   -108.33091   -4062.2288    4.3178506    4.3178506    4.3178506   -4062.2288     1001.134    4601.3942   -17789.214   -5820.4653    -4945.938   -1708.0207    80.501291 
    3100    583.56901   -108.85409    0.5280255   -108.32607    4763.1169    4.3139348    4.3139348    4.3139348    4763.1169    7114.7514    15187.558   -8012.9583   -971.20083   -3853.4509    2995.2801    80.282471 
    3200    379.85821   -108.67259   0.34370369   -108.32888    1123.8566    4.3118163    4.3118163    4.3118163    1123.8566    14015.843   -5271.8063   -5372.4667   -2334.2351    1672.1408   -8676.0741    80.164254 
    3300    277.43167   -108.58148     0.251026   -108.33046   -8759.9906    4.3192053    4.3192053    4.3192053   -8759.9906   -5957.9766   -1333.1722   -18988.823   -6534.9774   -8521.8644    9.5324978    80.577081 
    3400    459.07181   -108.74272   0.41537782   -108.32734     8977.385    4.3097088    4.3097088    4.3097088     8977.385    9662.2277    18811.346   -1541.4186    5133.0822   -1507.8073    3233.0945    80.046762 
    3500    394.63178   -108.68564   0.35707113   -108.32857   -2598.2187    4.3167321    4.3167321    4.3167321   -2598.2187   -1173.6867     2698.182   -9319.1514   -2243.9478   -261.94728   -9222.3839    80.438748 
    3600    289.82493    -108.5928   0.26223968   -108.33056   -5252.5492    4.3161019    4.3161019    4.3161019   -5252.5492   -1585.0126    4057.5926   -18230.228   -5957.6988   -7281.1301    2621.6739    80.403521 
    3700     574.2957   -108.84624   0.51963482    -108.3266    6286.4774    4.3101638    4.3101638    4.3101638    6286.4774    15925.461    6534.1992   -3600.2276    2885.2168    705.12108    4249.8627    80.072122 
    3800    479.21811   -108.76188   0.43360662   -108.32827   -5569.3526    4.3197933    4.3197933    4.3197933   -5569.3526   -5763.8021    3248.1964   -14192.452   -1253.8027    314.42754   -6878.8461    80.609994 
    3900    191.32555    -108.5047   0.17311538   -108.33159    2375.4929     4.308888     4.308888     4.308888    2375.4929    3829.4781    13811.925   -10514.924   -5438.6977   -8631.4777    5555.1199    80.001038 
    4000    463.34039   -108.74721   0.41924012   -108.32797    -3884.449    4.3186677    4.3186677    4.3186677    -3884.449   -262.49099    955.73379    -12346.59   -491.97525    1014.0435    5971.7598    80.546998 
    4100     419.6264    -108.7078   0.37968678   -108.32812    2923.1696    4.3130319    4.3130319    4.3130319    2923.1696    5044.9511    6958.9845   -3234.4268    1537.4914   -2367.7135   -5949.7287    80.232074 
    4200    269.53229   -108.57523   0.24387848   -108.33135   -3277.4796    4.3132833    4.3132833    4.3132833   -3277.4796    4321.1295    948.53401   -15102.102   -3501.2346   -8885.3461      8748.93    80.246103 
    4300    526.93038   -108.80487   0.47677768   -108.32809    1677.4002    4.3182146    4.3182146    4.3182146    1677.4002    7085.6294    11523.155   -13576.583    2777.2404    2489.0076    3776.8643    80.521652 
    4400    541.01495   -108.81654    0.4895217   -108.32702    6064.4764    4.3101034    4.3101034    4.3101034    6064.4764    11437.538    9111.0681   -2355.1773   -5551.9751   -3334.7323   -4205.8973    80.068755 
    4500    176.46672   -108.49187    0.1596708    -108.3322   -6215.6771    4.3173463    4.3173463    4.3173463   -6215.6771    8757.6913   -5958.3048   -21446.418   -5800.8087   -6576.7532    9805.8993    80.473086 
    4600    493.31017   -108.77491   0.44635741   -108.32856   -92.251573    4.3135917    4.3135917    4.3135917   -92.251573   -386.00005     6474.554   -6365.3087    1848.1241    3785.4756    3389.6757    80.263315 
    4700    445.93288   -108.73166   0.40348944   -108.32817    2810.2417    4.3144086    4.3144086    4.3144086    2810.2417      4084.67    10204.488   -5858.4327    452.88107   -1756.9081   -1296.4519    80.308929 
    4800    183.43731   -108.49839   0.16597793   -108.33241   -8862.9774     4.315855     4.315855     4.315855   -8862.9774   -2098.3914   -5055.1699   -19435.371   -5562.0355     -7125.69    11109.725    80.389724 
    4900    505.33578   -108.78688   0.45723843   -108.32964    3178.8341    4.3127133    4.3127133    4.3127133    3178.8341    13545.693    6479.0993    -10488.29    657.22118    5681.1972    3921.1233    80.214292 
    5000    553.57353   -108.82952   0.50088496   -108.32864    434.92698    4.3158839    4.3158839    4.3158839    434.92698    6577.6481    4351.9845   -9624.8517    16.459163   -4506.0994   -1093.2779    80.391337 
    5100    226.66596   -108.53747   0.20509212   -108.33238   -4197.6585    4.3135436    4.3135436    4.3135436   -4197.6585   -3855.5905    9441.0615   -18178.446    -3051.537   -4990.8067    13959.036    80.260634 
    5200    490.29308   -108.77198   0.44362748   -108.32835   -130.28976    4.3158883    4.3158883    4.3158883   -130.28976   -4787.9385    15785.717   -11388.648    548.20066    5769.0702   -1536.3755    80.391584 
    5300    437.70386   -108.72367   0.39604365   -108.32763    5522.6705    4.3127093    4.3127093    4.3127093    5522.6705    9431.7183    10121.563   -2985.2694   -3193.0592   -3855.1448     2205.254     80.21407 
    5400    204.98079   -108.51718   0.18547093   -108.33171   -6844.3436    4.3165603    4.3165603    4.3165603   -6844.3436    4887.1519   -4789.3693   -20630.813   -2547.3887   -2946.6585    10415.749    80.429142 
    5500    436.07022   -108.72319    0.3945655   -108.32862    5908.6468    4.3140644    4.3140644    4.3140644    5908.6468    10424.087    17103.943   -9802.0899    1158.8856    6408.8879   -3684.7938    80.289706 
    5600    576.37697   -108.84831     0.521518   -108.32679    2265.2684    4.3134161    4.3134161    4.3134161    2265.2684    4021.9836    10526.998   -7753.1765     1567.589   -2863.1177    2504.4583    80.253516 
    5700    287.58491   -108.59117   0.26021287   -108.33096   -4758.9316    4.3168754    4.3168754    4.3168754   -4758.9316    3840.3208    85.166912   -18202.282    -6971.096   -1768.3874    10724.945    80.446759 
    5800    450.56304   -108.73644   0.40767891   -108.32876    2469.5103    4.3122234    4.3122234    4.3122234    2469.5103    12453.838     5056.514   -10101.821    2973.3446    7047.1018    -5086.453    80.186963 
    5900    462.70626   -108.74594   0.41866635   -108.32727   -753.87588    4.3164327    4.3164327    4.3164327   -753.87588    6875.3949   -388.63207   -8748.3905    465.13675   -1619.2276    3702.8473    80.422008 
    6000    214.67046   -108.52457   0.19423834   -108.33033   -1844.5301    4.3135244    4.3135244    4.3135244   -1844.5301    1670.3925    7828.6074    -15032.59   -4839.2607    174.91496    9188.5287    80.259562 
    6100    414.82129   -108.70422   0.37533902   -108.32888    -7899.614    4.3157406    4.3157406    4.3157406    -7899.614   -6106.0822   -293.90311   -17298.857   -1513.9948    7060.4955   -10123.738    80.383333 
    6200     519.7566   -108.79712   0.47028669   -108.32683    729.19342    4.3146618    4.3146618    4.3146618    729.19342    10317.188   -717.34406   -7412.2636    -468.6666   -1898.8219    4462.3513    80.323066 
    6300    344.09676   -108.64166   0.31134598   -108.33031    696.13993    4.3132324    4.3132324    4.3132324    696.13993    11034.378    6585.3884   -15531.347   -636.31575    558.61097    3515.5331     80.24326 
    6400    335.77006   -108.63388   0.30381181   -108.33007   -1550.5684    4.3183553    4.3183553    4.3183553   -1550.5684    4398.9888    12307.177   -21357.871    3006.4052    6648.4515    -10868.26    80.529518 
    6500     589.2553    -108.8582   0.53317058   -108.32503    6534.3417    4.3110644    4.3110644    4.3110644    6534.3417    8234.6488    13754.362   -2385.9858    901.73638   -1167.4273    4834.6501    80.122323 
    6600    306.44893    -108.6066   0.27728143   -108.32932   -6590.6178    4.3172738    4.3172738    4.3172738   -6590.6178   -6925.7234    5471.7254   -18317.855   -6223.0639    2691.3497    1150.9868    80.469033 
    6700     248.7484   -108.55612   0.22507278   -108.33105    -3006.239    4.3138135    4.3138135    4.3138135    -3006.239    7801.5015    1418.4086   -18238.627    1501.1914    6708.0575   -11237.992    80.275698 
    6800      534.932   -108.81045   0.48401771   -108.32643    9427.5492    4.3146066    4.3146066    4.3146066    9427.5492    15468.805    15849.169   -3035.3268   -982.82692   -1273.3603    4820.0569    80.319985 
    6900    350.64892   -108.64804   0.31727451   -108.33077     462.9833    4.3146566    4.3146566    4.3146566     462.9833    7383.4487    11202.317   -17196.816   -638.31562     4759.052   -3944.6533    80.322775 
    7000    340.86937   -108.64043   0.30842577   -108.33201   -4523.7796    4.3155851    4.3155851    4.3155851   -4523.7796    208.90579    5705.2237   -19485.468   -1838.9814    5401.2628    -11703.63    80.374644 
    7100    686.59326   -108.94694   0.62124401    -108.3257    4470.0261    4.3134121    4.3134121    4.3134121    4470.0261     5751.249    11194.344   -3535.5145    3444.6173   -2350.5283    3454.4492     80.25329 
    7200    242.39516   -108.55121   0.21932423   -108.33188   -3409.6693    4.3160883    4.3160883    4.3160883   -3409.6693    6879.3977    1551.3652   -18659.771   -1925.5481    3847.7833   -6704.3181    80.402759 
    7300      192.205   -108.50697   0.17391112   -108.33306   -3325.6538    4.3150463    4.3150463    4.3150463   -3325.6538    14454.488   -3924.3217   -20507.128    3071.2053    4225.7291   -11257.178    80.344541 
    7400    578.34953   -108.84979   0.52330281   -108.32649    5767.1357    4.3143577    4.3143577    4.3143577    5767.1357    6053.3146    11843.964   -595.87161   -2514.5361   -2685.6291    3916.4159    80.306082 
    7500    371.45629   -108.66699   0.33610146   -108.33089   -7899.6095    4.3153036    4.3153036    4.3153036   -7899.6095   -1745.4846   -6224.1498   -15729.194   -4029.6789    6596.9518   -10447.702    80.358914 
    7600    301.12083   -108.60491   0.27246046   -108.33245   -3116.1786     4.316573     4.316573     4.316573   -3116.1786   -159.44082    11582.872   -20771.966    945.49443    1637.7835   -6249.4657    80.429853 
    7700    627.00342    -108.8932   0.56732587   -108.32587    7731.9216    4.3132072    4.3132072    4.3132072    7731.9216    15195.951    11211.974   -3212.1597    3442.6686     -2207.43    4347.6646    80.241858 
    7800    317.68959   -108.61827   0.28745222   -108.33081   -779.70304    4.3158886    4.3158886    4.3158886   -779.70304    16076.661    177.79304   -18593.563    261.16302    6151.2546   -11253.372    80.391599 
    7900    265.11904     -108.571   0.23988528   -108.33112   -4115.3856    4.3156225    4.3156225    4.3156225   -4115.3856   -2416.3106    6453.7644   -16383.611     239.9715    3964.5306    -4436.953    80.376732 
    8000    552.18277   -108.82643   0.49962657    -108.3268    4199.0569    4.3112841    4.3112841    4.3112841    4199.0569    6391.2713    5166.2201    1039.6793    1718.3934   -5067.8343    4370.3895    80.134576 
    8100    309.36422   -108.60998   0.27991925   -108.33007   -3450.0514    4.3202031    4.3202031    4.3202031   -3450.0514    6853.4947    1113.1565   -18316.805   -1354.9868    6292.6057   -10482.489    80.632941 
    8200    307.58528   -108.60899   0.27830963   -108.33068    3535.9577    4.3092771    4.3092771    4.3092771    3535.9577    15151.117    9408.9181   -13952.162    1656.3503   -881.27358   -2804.1894    80.022712 
    8300    545.60061   -108.82056    0.4936709   -108.32689   -647.66891    4.3196288    4.3196288    4.3196288   -647.66891       4989.6    5337.6882   -12270.295   -1641.4493   -3603.4114    5000.0953    80.600786 
    8400    500.23706   -108.78016   0.45262501   -108.32754   -2266.5417     4.312827     4.312827     4.312827   -2266.5417    4206.5798    1065.8406   -12072.045   -1219.6181    6870.0677   -10445.408    80.220637 
    8500    249.30941   -108.55545   0.22558039   -108.32987   -691.94634    4.3136749    4.3136749    4.3136749   -691.94634    2296.9967    9764.4529   -14137.289    392.86062   -1101.4609    2283.4273    80.267962 
    8600    435.60045   -108.72057   0.39414044   -108.32643   -1752.3096    4.3199748    4.3199748    4.3199748   -1752.3096    14825.422   -7548.9567   -12533.394    6020.0855   -4000.2326    4663.0972    80.620158 
    8700    387.66561    -108.6772   0.35076799   -108.32643    6697.2987    4.3093864    4.3093864    4.3093864    6697.2987    23068.565    2458.9301   -5435.5989   -1187.1096    6667.2464   -8104.4884    80.028799 
    8800    285.31407   -108.58728   0.25815817   -108.32912   -9727.2861    4.3188575    4.3188575    4.3188575   -9727.2861   -8163.9759   -44.676967   -20973.205    722.94451   -987.88108    3329.7754     80.55762 
    8900    538.41012   -108.81434   0.48716479   -108.32717   -1485.7453    4.3147976    4.3147976    4.3147976   -1485.7453    7805.5235   -2676.1064   -9586.6529   -70.270053   -5779.3072    3829.8339    80.330649 
    9000    461.30361   -108.74464    0.4173972   -108.32725    10649.023    4.3116584    4.3116584    4.3116584    10649.023    30181.452    6533.2113   -4767.5954    600.80699    4712.3829    -6019.492    80.155444 
    9100    287.48962   -108.59181   0.26012665   -108.33168   -9467.4139    4.3196119    4.3196119    4.3196119   -9467.4139    583.59409   -4717.8809   -24267.955    1661.5914   -5583.7993     5990.968    80.599839 
    9200    411.45347   -108.70144   0.37229175   -108.32915    4746.7678     4.309948     4.309948     4.309948    4746.7678    12784.782    3434.9977   -1979.4761    5392.7747   -5082.8598    4249.9866    80.060096 
    9300    518.24057   -108.79563   0.46891496   -108.32672   -5382.1169    4.3184657    4.3184657    4.3184657   -5382.1169    396.22206   -5959.6981   -10582.875   -2080.3601    4561.9252   -5301.6747    80.535695 
    9400    174.72782   -108.48874   0.15809741   -108.33064   -6646.7564    4.3153487    4.3153487    4.3153487   -6646.7564   -3076.5141    2886.5467   -19750.302    3203.6879   -4601.1455    8187.0234    80.361433 
    9500    407.37539   -108.69767   0.36860182   -108.32907      6249.64    4.3115443    4.3115443    4.3115443      6249.64    20994.545    2433.9219   -4679.5465    4145.9344   -5156.9017    3168.7685    80.149082 
    9600    601.41796   -108.87084   0.54417561   -108.32666   -2633.5901    4.3196857    4.3196857    4.3196857   -2633.5901   -651.45609    4466.9724   -11716.287   -1178.1324    4193.6819   -1652.9134    80.603975 
    9700    265.15584   -108.57174   0.23991858   -108.33182   -1017.5141    4.3099562    4.3099562    4.3099562   -1017.5141    4494.4206    7991.6721   -15538.635    875.70876   -6539.3982    10156.716    80.060549 
    9800    453.58468   -108.74011   0.41041295    -108.3297   -4175.4025    4.3193081    4.3193081    4.3193081   -4175.4025    12629.788   -11655.933   -13500.062    657.02198   -2068.2456    3020.7925    80.582838 
    9900    506.98574   -108.78572   0.45873135   -108.32699    6850.8307     4.312282     4.312282     4.312282    6850.8307    12713.271    10151.582   -2312.3606    2530.9931    70.142002   -1695.0002    80.190228 
   10000     171.2026   -108.48714   0.15490771   -108.33223   -4965.7923    4.3153492    4.3153492    4.3153492   -4965.7923    5585.5659    270.26683    -20753.21    2930.0821   -6852.5594    10459.566    80.361461 
   10100    400.09666   -108.69155   0.36201587   -108.32953    10.204662    4.3178386    4.3178386    4.3178386    10.204662   -16.610746     6309.484   -6262.2593    2589.8578   -3158.2614    2741.5862     80.50062 
   10200    587.84273   -108.85807   0.53189245   -108.32618    5958.3172    4.3115788    4.3115788    4.3115788    5958.3172    15573.091    6210.3007   -3908.4402   -6773.4025    3307.7271   -321.69883    80.151008 
   10300    255.05031    -108.5626   0.23077488   -108.33182   -4030.3685    4.3171716    4.3171716    4.3171716   -4030.3685    10301.453   -1094.9922   -21297.566    3239.1323   -7828.7071    10817.096    80.463318 
   10400    498.17118   -108.77968   0.45075575   -108.32893   -2085.9743    4.3155012    4.3155012    4.3155012   -2085.9743   -1303.9974    3227.3049   -8181.2304    -357.3957    476.79694   -1249.5328    80.369954 
   10500    513.93604   -108.79162   0.46502013    -108.3266    6273.8485    4.3128998    4.3128998    4.3128998    6273.8485    10789.169     10946.71   -2914.3337    754.00209   -979.23503    2655.9435      80.2247 
   10600    167.40132   -108.48276   0.15146823   -108.33129    -7522.154    4.3177281    4.3177281    4.3177281    -7522.154   -5376.6539     2822.129   -20011.937   -691.69111   -7760.1959    10268.608     80.49444 
   10700    371.98917   -108.66577   0.33658362   -108.32919    806.13728    4.3131884    4.3131884    4.3131884    806.13728    1812.3065    270.02468    336.08062    4266.0493    1622.6373    -723.0312    80.240808 
   10800    536.27536   -108.81189   0.48523322   -108.32666     3312.956    4.3158763    4.3158763    4.3158763     3312.956    11009.076    4864.9017   -5935.1098   -811.33793    -2092.689    1360.3703    80.390914 
   10900     361.0628   -108.65701   0.32669721   -108.33031   -5782.0819    4.3150805    4.3150805    4.3150805   -5782.0819   -2537.4617    3451.4738   -18260.258    4675.2916   -7916.7649    8405.9176    80.346455 
   11000    416.67217    -108.7065   0.37701373   -108.32949    2227.3339    4.3147752    4.3147752    4.3147752    2227.3339    5443.3543    4848.7268   -3610.0795    -390.5672    365.52472   -3285.7216      80.3294 
   11100    506.12338   -108.78424   0.45795107   -108.32629     2296.103    4.3157742    4.3157742    4.3157742     2296.103    13941.814    768.45397   -7821.9586   -6267.6377    1887.8683    3119.6984    80.385206 
   11200    242.90952    -108.5489   0.21978964   -108.32911   -2360.0245    4.3143696    4.3143696    4.3143696   -2360.0245    1021.1247   -839.41486   -7261.7833    5419.8859   -5430.4617    7319.3806    80.306748 
   11300    353.08621   -108.64761   0.31947982   -108.32813   -2085.6941    4.3163541    4.3163541    4.3163541   -2085.6941   -1697.0552    -543.5294   -4016.4977    734.64284    3343.4769   -7096.9519    80.417615 
   11400    502.67264   -108.78088   0.45482877   -108.32605    2824.8833    4.3135235    4.3135235    4.3135235    2824.8833    6612.8585    4259.2893   -2397.4978   -379.18416   -1936.9615    3944.8612    80.259511 
   11500    367.14865   -108.66086   0.33220381   -108.32866   -3821.3259    4.3169387    4.3169387    4.3169387   -3821.3259    10726.152   -6670.2998    -15519.83    160.68732   -6670.8565    7115.4878    80.450294 
   11600     399.6725   -108.69011   0.36163208   -108.32848    1092.2614    4.3142626    4.3142626    4.3142626    1092.2614     7138.016     -644.357   -3216.8748    1567.2208    3416.8723   -4553.2396    80.300774 
   11700    502.79463   -108.78172   0.45493915   -108.32678    955.39023    4.3139098    4.3139098    4.3139098    955.39023    6118.9954   -2035.2246   -1217.6001   -4775.6039   -322.24489    4770.5509    80.281075 
   11800    349.18508   -108.64467      0.31595   -108.32872   -508.53551     4.316707     4.316707     4.316707   -508.53551   -2589.1731    9970.3935   -8906.8269    3698.0842   -3247.8857    5521.6099    80.437341 
   11900    300.15796   -108.60072   0.27158923   -108.32913   -3796.2462    4.3149229    4.3149229    4.3149229   -3796.2462     -7189.18   -3350.0262   -849.53246   -5027.1776     3053.902   -6778.1111    80.337652 
   12000    423.14355   -108.71004   0.38286918   -108.32717    1134.9487    4.3138341    4.3138341    4.3138341    1134.9487    14813.103    -6177.524   -5230.7326   -1203.7598    1863.3888    7516.4917    80.276847 
   12100     438.9594   -108.72414   0.39717969   -108.32696   -1062.0422     4.318226     4.318226     4.318226   -1062.0422    8209.2832    -234.7542   -11160.656    4472.6372   -1190.0559    4018.7222    80.522288 
   12200    386.29549   -108.67767   0.34952828   -108.32814    1637.5999    4.3110436    4.3110436    4.3110436    1637.5999   -3499.3314    5611.8821    2800.2489     1270.355    5405.4721   -6087.5958    80.121161 
   12300    453.09124   -108.73682   0.40996647   -108.32686   -2498.5765    4.3202077    4.3202077    4.3202077   -2498.5765    597.79367    1703.1141   -9796.6373    -2796.472    217.65955    6828.2881    80.633196 
   12400    465.98947   -108.74756   0.42163707   -108.32592    4636.2085    4.3107188    4.3107188    4.3107188    4636.2085    12029.228    3239.1125   -1359.7149    444.36634   -5250.0497    3713.7364    80.103057 
   12500    220.60913   -108.52852   0.19961178   -108.32891   -3485.3773    4.3168392    4.3168392    4.3168392   -3485.3773    195.04176   -5373.1845   -5277.9893    607.48079    5492.2135   -3857.5553    80.444736 
   12600    407.33571   -108.69606   0.36856591   -108.32749   -3097.7803    4.3166581    4.3166581    4.3166581   -3097.7803    10106.252   -9349.8635   -10049.729    -3360.777    346.72357    9244.4423    80.434609 
   12700    506.98311   -108.78454   0.45872898   -108.32581     8105.263    4.3109303    4.3109303    4.3109303     8105.263    8015.0925    14222.348    2078.3489    3473.4178     500.1965     735.9424    80.114844 
   12800    360.68748   -108.65561   0.32635762   -108.32925    -8371.584    4.3197495    4.3197495    4.3197495    -8371.584   -2318.3928   -12767.115   -10029.244   -3727.9082     4741.261   -2984.8562    80.607543 
   12900    393.51496   -108.68497    0.3560606    -108.3289    3013.9865    4.3119707    4.3119707    4.3119707    3013.9865    16298.799   -3511.9443   -3744.8957   -1492.4922     692.5587     11189.94    80.172863 
   13000    506.26349   -108.78379   0.45807785   -108.32571    2247.9033    4.3156445    4.3156445    4.3156445    2247.9033    10043.651    1351.5172   -4651.4586    3112.5624   -481.55911   -646.97916    80.377962 
   13100    273.31255   -108.57675   0.24729894   -108.32945   -8666.0512    4.3174774    4.3174774    4.3174774   -8666.0512   -10084.989   -6404.4868   -9508.6776   -1228.1655     5035.849   -1291.6639    80.480415 
   13200    307.16273   -108.60768    0.2779273   -108.32975     2153.932    4.3113985    4.3113985    4.3113985     2153.932     6402.057   -737.00505    796.74411   -5313.5446      675.686    10636.785    80.140955 
   13300    596.14656   -108.86551   0.53940594    -108.3261   -2040.9771    4.3187637    4.3187637    4.3187637   -2040.9771    5767.9021   -7398.3218   -4492.5115   -308.84353   -4021.1464   -897.82404    80.552368 
   13400    290.98061   -108.59449   0.26328537    -108.3312    730.24491    4.3123799    4.3123799    4.3123799    730.24491    7730.4853   -1752.8424   -3786.9081   -3128.5087    5131.9927    3356.8971    80.195691 
   13500    345.46229   -108.64397   0.31258154   -108.33139    -1651.682    4.3158184    4.3158184    4.3158184    -1651.682    4388.8774   -3939.2135   -5404.7099   -1117.7085   -207.83504    11705.504     80.38768 
   13600     611.8526   -108.87928   0.55361709   -108.32566    489.82616    4.3173004    4.3173004    4.3173004    489.82616   -1351.4813    4349.6633   -1528.7035    1528.0161    2417.4063   -3951.7992    80.470519 
   13700    293.42474   -108.59537   0.26549687   -108.32987    1108.4761    4.3110721    4.3110721    4.3110721    1108.4761   -358.88882    2961.4348     722.8823   -4013.1893    5045.2201    3312.6043    80.122754 
   13800    246.89283   -108.55467   0.22339382   -108.33128   -4623.3812    4.3194945    4.3194945    4.3194945   -4623.3812      2165.06   -14350.232   -1684.9712    1674.9511   -332.09952    9790.9899    80.593268 
   13900    561.03556   -108.83322   0.50763677   -108.32558    8013.6454    4.3120581    4.3120581    4.3120581    8013.6454    17519.856    5631.0765    890.00399    3960.2522   -967.63109   -2236.1462    80.177739 
   14000    325.11085   -108.62487   0.29416713    -108.3307    57.656045    4.3156912    4.3156912    4.3156912    57.656045    3305.8798    3438.6488   -6571.5604   -637.98053    2902.4766    6197.1653    80.380572 
   14100    381.26379   -108.67539   0.34497549   -108.33042   -6807.1994    4.3168958    4.3168958    4.3168958   -6807.1994   -4259.2292   -15132.509   -1029.8599   -3516.9929    231.75938    9186.7627    80.447896 
   14200    585.08886   -108.85537   0.52940069   -108.32597    7888.5174    4.3129085    4.3129085    4.3129085    7888.5174    5239.3467    17395.132     1031.073    33.455898     976.4779    -3340.388    80.225187 
   14300    310.61059   -108.61067   0.28104699   -108.32962   -2104.5913    4.3167518    4.3167518    4.3167518   -2104.5913    2845.7782   -5651.0461   -3508.5058    -1575.635    3847.2197    7635.9306    80.439848 
   14400    197.79372   -108.50975   0.17896792   -108.33078   -1523.5429    4.3149748    4.3149748    4.3149748   -1523.5429    6953.3952   -10829.696   -694.32763   -583.01933   -1740.4943    6172.6271    80.340547 
   14500    575.03735   -108.84615   0.52030588   -108.32584    1055.0855    4.3143214    4.3143214    4.3143214    1055.0855    8111.6869   -1090.7107   -3855.7198    1924.3995    3290.3743   -4387.2249    80.304058 
   14600    382.05086   -108.67505   0.34568765   -108.32936   -2377.2459    4.3157789    4.3157789    4.3157789   -2377.2459   -850.07544    943.68585   -7225.3482   -5221.7199     2555.355    7500.3792    80.385471 
   14700    345.87209   -108.64303   0.31295234   -108.33008   -3850.1066    4.3159751    4.3159751    4.3159751   -3850.1066    833.31393    -8824.518   -3559.1158    2335.0577   -141.89539    3874.9208    80.396436 
   14800    522.91475   -108.79931   0.47314426   -108.32617    6188.7462    4.3135067    4.3135067    4.3135067    6188.7462    11618.968    8431.1196   -1483.8489    3251.0421    1765.1061   -1987.7883    80.258571 
   14900    341.43987   -108.63725   0.30894197   -108.32831   -3267.2869    4.3170137    4.3170137    4.3170137   -3267.2869    9413.9638    -12636.58   -6579.2449   -1749.2073   -240.60651    8852.8699    80.454489 
   15000    303.53091   -108.60342   0.27464115   -108.32878   -4827.9539    4.3145387    4.3145387    4.3145387   -4827.9539    3443.5086   -15193.546   -2733.8239   -539.86431   -1585.9149    762.51873    80.316189 
   15100    471.44669   -108.75295   0.42657487   -108.32637    2626.6491    4.3146804    4.3146804    4.3146804    2626.6491     4708.093    10446.958   -7275.1035    2722.8332    3655.2818   -4649.3991    80.324103 
   15200    414.15667   -108.70237   0.37473766   -108.32763   -594.43666    4.3167329    4.3167329    4.3167329   -594.43666    10205.521   -1411.6332   -10577.197   -282.76196    1980.0065    8628.7768    80.438788 
   15300    339.07214   -108.63595    0.3067996   -108.32915   -182.09305    4.3136858    4.3136858    4.3136858   -182.09305    9341.8683   -9210.2878   -677.85971    3054.8101   -657.15215   -932.08941    80.268568 
   15400    483.39482    -108.7646   0.43738579   -108.32722    1727.7213    4.3150795    4.3150795    4.3150795    1727.7213    4882.4424     377.9974    -77.27586   -324.75784    1750.3125   -2654.6144    80.346398 
   15500    463.65236   -108.74654    0.4195224   -108.32702   -4078.8449    4.3172182    4.3172182    4.3172182   -4078.8449   -1253.6855   -3298.7228   -7684.1265   -1727.7754   -211.89967    5218.3006    80.465922 
   15600    239.76076   -108.54593   0.21694057   -108.32899    2714.5506    4.3116645    4.3116645    4.3116645    2714.5506    1664.3125    2156.5316    4322.8079    2377.3296   -149.43146   -4638.3386    80.155785 
   15700    430.29156   -108.71609   0.38933685   -108.32675   -4900.6843    4.3196936    4.3196936    4.3196936   -4900.6843    5547.0747   -8284.5061   -11964.621    1491.9277    3474.1908    -3585.615    80.604413 
   15800    454.17321   -108.73686   0.41094546   -108.32591    5590.4195     4.311579     4.311579     4.311579    5590.4195    17979.596    2112.8931    -3321.231   -2883.9806    141.21088    7264.4585    80.151019 
   15900    310.35484   -108.61016   0.28081558   -108.32934   -3939.0234    4.3165195    4.3165195    4.3165195   -3939.0234   -6787.2824   -6970.3912    1940.6033   -2405.1047   -1691.4524   -4085.7404    80.426862 
   16000     514.5192   -108.79271   0.46554778   -108.32716   -2267.5589    4.3160593    4.3160593    4.3160593   -2267.5589     73.64091   -3213.8128   -3662.5049    3411.0868    4061.6401   -3827.8196    80.401143 
   16100    470.22481   -108.75185   0.42546929   -108.32638    6754.7557    4.3132976    4.3132976    4.3132976    6754.7557    9561.4501     8754.436    1948.3809   -1777.4837   -1221.7543    4800.7594    80.246904 
   16200    235.83102    -108.5436   0.21338487   -108.33022     -6337.37    4.3163106    4.3163106    4.3163106     -6337.37    4114.6705   -20196.297   -2930.4837    3473.9222    757.32864   -6258.6862    80.415187 
   16300    340.01227   -108.63686   0.30765024   -108.32921    2630.7439    4.3151609    4.3151609    4.3151609    2630.7439    10547.376    5245.9281   -7901.0726   -497.36294    1979.4272   -3811.1141    80.350945 
   16400    561.99125   -108.83471   0.50850149   -108.32621    1578.2744    4.3144134    4.3144134    4.3144134    1578.2744    1557.7775    3929.6877   -752.64212   -641.42744   -1965.3076    1595.9027    80.309195 
   16500    289.69284   -108.59224   0.26212017   -108.33012   -6637.9316    4.3168896    4.3168896    4.3168896   -6637.9316   -5906.6958   -12107.125   -1899.9738     4695.831   -666.34423   -7527.6852    80.447552 
   16600    487.04876   -108.76914   0.44069196   -108.32845    3101.2827    4.3142093    4.3142093    4.3142093    3101.2827    9775.6701    1627.6806   -2099.5024    482.95476    4451.8277   -3043.8346    80.297795 
   16700    480.39937   -108.76132   0.43467545   -108.32664    5724.7669    4.3148697    4.3148697    4.3148697    5724.7669    10817.117    6904.1172   -546.93411   -3013.0605   -54.464753    4049.9017    80.334675 
   16800    155.27707   -108.47123   0.14049795   -108.33073   -7795.5819    4.3173037    4.3173037    4.3173037   -7795.5819    2882.5265   -17623.413    -8645.859    1966.6653     822.5614   -8312.1845    80.470705 
   16900    458.02712   -108.74219   0.41443256   -108.32775   -1253.5381    4.3135646    4.3135646    4.3135646   -1253.5381    2653.5435   -295.40425   -6118.7535    2375.0581    2367.5995   -2775.5573    80.261805 
   17000    547.80605   -108.82211   0.49566643   -108.32644    1251.3758    4.3157697    4.3157697    4.3157697    1251.3758    3800.7704    5762.0666   -5808.7095    838.90813   -5462.7743   -304.05496    80.384958 
   17100    254.26835   -108.56117   0.23006734    -108.3311   -4297.6454    4.3164402    4.3164402    4.3164402   -4297.6454    2685.2001   -9296.8854    -6281.251    2354.8557    2114.9431   -8246.4863    80.422426 
   17200    465.26593    -108.7498   0.42098239   -108.32882    4616.9285     4.313182     4.313182     4.313182    4616.9285     7406.646    7110.5711   -666.43174   -3263.3759     -314.126    622.58242    80.240449 
   17300    498.80002   -108.77828   0.45132474   -108.32695   -675.10221    4.3169315    4.3169315    4.3169315   -675.10221    4121.5475   -3056.8902   -3089.9639    747.52318   -2142.0581    1007.1145    80.449893 
   17400    269.57702   -108.57435   0.24391895   -108.33043    -8551.792    4.3145494    4.3145494    4.3145494    -8551.792   -3255.9084   -19469.791   -2929.6769      1329.89    603.34938   -11095.374    80.316791 
   17500    362.90748   -108.65766   0.32836631    -108.3293    4715.7811    4.3149073    4.3149073    4.3149073    4715.7811    4941.8777    10346.044   -1140.5785     279.4092    214.64082    361.48033    80.336778 
   17600    502.51993   -108.78108   0.45469059   -108.32639    702.14477    4.3170375    4.3170375    4.3170375    702.14477    8719.7347    2903.0751   -9516.3756   -3983.0816   -1445.8254   -82.272998     80.45582 
   17700    294.43597   -108.59661   0.26641186   -108.33019    432.98726     4.312926     4.312926     4.312926    432.98726    5677.9405   -9047.9731    4668.9945    4875.9694    2753.1108   -9449.2647    80.226162 
   17800    444.24667   -108.73003   0.40196372   -108.32807   -2892.3027    4.3175639    4.3175639    4.3175639   -2892.3027    -1010.197   -5816.3932   -1850.3179    1685.8811   -672.06496    3797.0757    80.485253 
   17900    558.68963   -108.83102   0.50551411   -108.32551    138.52137    4.3139673    4.3139673    4.3139673    138.52137    1473.2696   -708.87292   -348.83255    2626.9853   -5402.5026   -408.80714    80.284287 
   18000    219.17452   -108.52765   0.19831371   -108.32934    2655.0192    4.3159574    4.3159574    4.3159574    2655.0192    3920.1462    1483.3219    2561.5895    2208.5902    2176.1219   -8826.1876    80.395447 
   18100    378.77976   -108.67104   0.34272789   -108.32831   -3228.2528    4.3159039    4.3159039    4.3159039   -3228.2528    7278.2611   -6826.8579   -10136.162   -3392.5092   -3229.8373    5935.6045    80.392455 
   18200    478.33152   -108.75898   0.43280441   -108.32618    5270.7159    4.3133049    4.3133049    4.3133049    5270.7159    10248.203    4488.9968    1074.9476    360.94063   -114.40278   -1394.5228    80.247307 
   18300    391.29934   -108.68224   0.35405587   -108.32819   -4245.5545    4.3175291    4.3175291    4.3175291   -4245.5545   -1601.3386   -10330.857   -804.46767    1715.5799    2564.9882   -11389.105    80.483307 
   18400    354.54736    -108.6491   0.32080191    -108.3283   -2049.5952    4.3143243    4.3143243    4.3143243   -2049.5952   -8061.9497    4756.9239   -2843.7599   -1171.2484   -2208.8228    7114.3368     80.30422 
   18500    499.81485   -108.77883   0.45224298   -108.32659    4292.5322    4.3146648    4.3146648    4.3146648    4292.5322    6814.2574    7785.7586   -1722.4195   -3106.9441   -2921.6405   -1409.2355    80.323234 
   18600    357.60303   -108.65229   0.32356674   -108.32872   -3159.0477     4.316666     4.316666     4.316666   -3159.0477     10206.21   -12011.292   -7672.0615    2242.2147     2131.689    -5657.085    80.435049 
   18700    290.70815   -108.59237   0.26303884   -108.32933   -2779.3777    4.3136785    4.3136785    4.3136785   -2779.3777    4062.8053   -3708.7801   -8692.1582   -254.17689   -3282.1686    7813.4588    80.268162 
   18800    519.15859   -108.79593   0.46974561   -108.32619    55.204671    4.3176863    4.3176863    4.3176863    55.204671    2085.4291    6247.4643   -8167.2794    3138.9856   -3588.0843   -4481.0651    80.492101 
   18900    389.51915   -108.68057   0.35244511   -108.32812    420.81524    4.3131596    4.3131596    4.3131596    420.81524   -680.88679    3981.6035    -2038.271   -2346.1461     1580.499   -7670.5099      80.2392 
   19000    308.02644   -108.60831    0.2787088    -108.3296   -5574.2839    4.3170626    4.3170626    4.3170626   -5574.2839   -7588.2229    430.69017   -9565.3189   -634.01604   -6401.1027    8930.3733    80.457226 
   19100    504.24852   -108.78201   0.45625466   -108.32575    3191.1134     4.315106     4.315106     4.315106    3191.1134    14395.118    701.37547   -5523.1532   -907.19235     828.2524   -5245.0538     80.34788 
   19200    365.13238   -108.65735   0.33037945   -108.32697    2400.8478    4.3138774    4.3138774    4.3138774    2400.8478    11760.821    1661.2651   -6219.5428    3436.6523    1718.1444   -4767.6986    80.279268 
   19300    330.64837   -108.62857    0.2991776   -108.32939   -7270.1107    4.3183334    4.3183334    4.3183334   -7270.1107   -3510.5557   -7196.3251   -11103.451   -721.49993   -4087.8666    7761.9825    80.528295 
   19400    496.68552   -108.77599    0.4494115   -108.32658    5176.1621    4.3115108    4.3115108    4.3115108    5176.1621    7843.7706    8212.0553   -527.33957   -1861.3116   -2080.7788   -6196.7418    80.147215 
   19500    431.71804   -108.71796   0.39062756   -108.32733   -5159.1691    4.3184734    4.3184734    4.3184734   -5159.1691   -1704.6252   -5364.5305   -8408.3516    1636.3389   -1636.9562   -812.12397    80.536125 
   19600    231.80506   -108.53945   0.20974209   -108.32971    502.72832     4.314166     4.314166     4.314166    502.72832    606.43929      4580.08   -3678.3343    -1535.486   -5560.2061    6626.1005    80.295379 
   19700    456.10387   -108.73926   0.41269237   -108.32657    3124.6557    4.3145808    4.3145808    4.3145808    3124.6557    8209.4676    6456.9961   -5292.4965    1595.9106    1164.2122   -8197.4852     80.31854 
   19800     509.2347   -108.78741   0.46076626   -108.32665   -2975.6957    4.3173362    4.3173362    4.3173362   -2975.6957    2767.4177   -7318.7175   -4375.7873   -4258.8472   -417.76376   -856.89092    80.472522 
   19900    331.04336   -108.62893   0.29953499    -108.3294    -1394.051    4.3126306    4.3126306    4.3126306    -1394.051   -3855.2086     924.3129   -1251.2572    -1442.859    -5399.791    7584.0597    80.209678 
   20000    444.68769   -108.72959   0.40236277   -108.32723   -1154.7123    4.3178043    4.3178043    4.3178043   -1154.7123     1121.748    4819.3336   -9405.2185   -365.26907    2378.6184   -7572.1719      80.4987 
   20100    388.83834   -108.67817    0.3518291   -108.32634    3981.4229    4.3145094    4.3145094    4.3145094    3981.4229    4530.0931    6891.8445    522.33108    3231.5503    166.83298    1362.9325    80.314553 
   20200    242.84733   -108.54893   0.21973337    -108.3292   -115.87953    4.3137737    4.3137737    4.3137737   -115.87953   -893.63294    1444.7662   -898.77189   -887.65028   -4339.8543    3695.7112    80.273479 
   20300    489.62938   -108.77014   0.44302695   -108.32711    -3662.276     4.318087     4.318087     4.318087    -3662.276   -2031.8131   -3162.3301   -5792.6849    355.70505    2789.8491     -6834.58    80.514511 
   20400    534.13965   -108.80943   0.48330078   -108.32613    4510.5777    4.3131911    4.3131911    4.3131911    4510.5777    9249.8249    3883.9139    397.99411   -1133.3565   -3475.9235     3657.926    80.240959 
   20500    297.15528   -108.59841   0.26887235   -108.32954   -2376.1414    4.3158464    4.3158464    4.3158464   -2376.1414    154.47253    1640.6199   -8923.5168    311.98592   -6927.1363    5558.2631    80.389241 
   20600    416.47646   -108.70484   0.37683665   -108.32801   -953.05361    4.3154817    4.3154817    4.3154817   -953.05361     3575.103    2428.2377   -8862.5015   -91.641775    5202.9498   -9041.8511    80.368863 
   20700    421.28767   -108.70741   0.38118993   -108.32622    3794.0399    4.3153583    4.3153583    4.3153583    3794.0399    10665.798    617.33889    98.982777     -2270.11    992.16275    2131.8584    80.361971 
   20800    316.37442   -108.61442   0.28626222   -108.32816   -6672.5776    4.3150299    4.3150299    4.3150299   -6672.5776   -9654.5538   -5795.5846   -4567.5944   -659.54314    -4706.478    2763.1328    80.343627 
   20900    383.12101   -108.67508   0.34665594   -108.32842   -577.92474     4.317055     4.317055     4.317055   -577.92474    6177.8505    4615.5454    -12527.17    351.03142    5259.5083   -6886.7429    80.456799 
   21000    537.69354   -108.81262   0.48651641    -108.3261    5329.6051    4.3129831    4.3129831    4.3129831    5329.6051    19037.657      2882.74   -5931.5811    5270.6785    260.80303    3848.3547    80.229348 
   21100    349.23457   -108.64508   0.31599477   -108.32908   -5816.8112    4.3171197    4.3171197    4.3171197   -5816.8112   -4263.7096   -1580.6912   -11606.033   -3953.4051   -6260.1265   -420.45408    80.460413 
   21200    370.99721    -108.6636   0.33568607   -108.32791   -2555.5837     4.315137     4.315137     4.315137   -2555.5837    4878.6568   -1109.2476    -11436.16     792.2434    8992.2146   -7176.3527    80.349607 
   21300    476.35393   -108.75649   0.43101504   -108.32547    187.17015    4.3143358    4.3143358    4.3143358    187.17015   -1273.4255    3417.4531   -1582.5171   -4190.5833   -2833.7537    4515.8073     80.30486 
   21400    251.02727   -108.55582   0.22713475   -108.32868   -4855.4309     4.317114     4.317114     4.317114   -4855.4309   -6864.4367    1174.1194   -8875.9754    30.157903   -3921.4051    197.36102    80.460095 
   21500    366.17508   -108.66033   0.33132291   -108.32901    -760.7044    4.3144014    4.3144014    4.3144014    -760.7044     8191.077     8194.763   -18667.953   -329.66332    10510.328   -7138.1245    80.308526 
   21600    626.63688   -108.89199   0.56699421     -108.325    3449.6757    4.3145503    4.3145503    4.3145503    3449.6757    9160.4073    2531.4759   -1342.8562   -1414.3413     1849.412    1824.7191    80.316842 
   21700    358.65716    -108.6539   0.32452054   -108.32938   -3933.8704     4.317024     4.317024     4.317024   -3933.8704    6104.4564    -5279.506   -12626.562   -1695.6117   -1859.0058   -3080.6609    80.455065 
   21800    256.84882   -108.56327   0.23240221   -108.33087   -739.47598     4.313199     4.313199     4.313199   -739.47598    586.90141    9360.3944   -12165.724    1918.0798    10070.461   -5578.4625    80.241401 
   21900    526.65364   -108.80217   0.47652728   -108.32565    1128.8028    4.3174547    4.3174547    4.3174547    1128.8028    759.17172    3480.7435   -853.50692    2750.7595    -2072.469    3926.2604    80.479146 
   22000    301.17737   -108.60242   0.27251162    -108.3299   -1559.8831    4.3145429    4.3145429    4.3145429   -1559.8831   -2046.0284    11765.703   -14399.324   -2381.0514    1727.5146   -2860.8542    80.316424 
   22100    324.08097   -108.62454   0.29323527    -108.3313   -2059.3943    4.3142467    4.3142467    4.3142467   -2059.3943    5569.6966    1240.8017   -12988.681    174.28999    11275.448   -7552.8987    80.299883 
   22200    633.30534   -108.89891   0.57302798   -108.32589    4194.6558    4.3183827    4.3183827    4.3183827    4194.6558    21655.231   -4341.6075   -4729.6562   -3786.5964   -4599.5946    1873.1808    80.531053 
   22300    307.41081    -108.6089   0.27815177   -108.33074    -1082.556    4.3120415    4.3120415    4.3120415    -1082.556    2407.0286    1590.1536   -7244.8504    1900.4463    5909.6854    -3209.389    80.176815 
   22400    253.38737    -108.5607   0.22927022   -108.33143   -9036.3881    4.3187179    4.3187179    4.3187179   -9036.3881   -8274.3144    83.755539   -18918.605    14.615084    8206.2461   -5136.3735    80.549809 
   22500    634.33519   -108.89882   0.57395981   -108.32486    7006.6718    4.3138768    4.3138768    4.3138768    7006.6718    10568.789    10700.758   -249.53167    867.32986    248.30681    1815.6153    80.279235 
   22600    256.76566   -108.56388   0.23232696   -108.33155    701.05455     4.315191     4.315191     4.315191    701.05455    16057.998    1294.1501   -15248.984   -4478.3092     6197.525   -5948.0848    80.352627 
   22700    289.99908    -108.5948   0.26239726    -108.3324   -4721.9323    4.3171453    4.3171453    4.3171453   -4721.9323    6360.7228     -4861.25    -15665.27    2154.5293    5829.8605   -6347.0829    80.461847 
   22800    687.97475    -108.9483   0.62249401    -108.3258     4999.277    4.3125851    4.3125851    4.3125851     4999.277     14898.24   -2732.8669    2832.4576    322.97352   -3683.9839    3190.0424    80.207142 
   22900    242.94455    -108.5522   0.21982133   -108.33238   -5236.2093    4.3179649    4.3179649    4.3179649   -5236.2093    8138.9688   -3510.8561   -20336.741   -1653.1199    10955.282   -5294.9861    80.507684 
   23000    282.14084   -108.58835   0.25528696   -108.33306   -1569.1286    4.3140262    4.3140262    4.3140262   -1569.1286    4355.5905    5977.6865   -15040.663   -1873.8337    1917.1487   -4970.4438    80.287577 
   23100    602.72539    -108.8716    0.5453586   -108.32624    6861.6567    4.3153613    4.3153613    4.3153613    6861.6567    16434.811    6653.0657    -2502.907    977.95279   -3054.1581    729.89889    80.362138 
   23200    327.00662    -108.6263   0.29588246   -108.33042   -9197.8506    4.3184115    4.3184115    4.3184115   -9197.8506   -8384.0202   -1510.6619    -17698.87   -260.77913    9560.7342   -7471.8292    80.532666 
   23300    331.78973    -108.6302   0.30021032   -108.32999   -1273.9227    4.3118711    4.3118711    4.3118711   -1273.9227    4174.3494    1227.8312   -9223.9486    2791.3956    3971.2231    -1349.258    80.167308 
   23400    488.85928   -108.76765   0.44233015   -108.32532   -872.11802    4.3203913    4.3203913    4.3203913   -872.11802    17618.224   -11229.833   -9004.7449     45.30981   -1666.1836    3625.8916    80.643477 
   23500    343.96358   -108.63911   0.31122548   -108.32788   -1966.3582     4.311662     4.311662     4.311662   -1966.3582    4013.7684    4716.9856   -14629.829   -3350.3645    11171.508   -6143.7537    80.155648 
   23600    330.97445   -108.62847   0.29947264     -108.329    -2597.741     4.318646     4.318646     4.318646    -2597.741    2597.7916    2046.2759   -12437.291    2648.0639   -2694.8015   -225.87169    80.545784 
   23700     548.3761   -108.82227   0.49618222   -108.32608    3471.1147    4.3134569    4.3134569    4.3134569    3471.1147    11116.069    1173.8183   -1876.5429    1650.3319   -814.58093    1471.9545    80.255794 
   23800    385.27855   -108.67785   0.34860813   -108.32924   -2003.6697    4.3161553    4.3161553    4.3161553   -2003.6697    7187.1188    444.47034   -13642.598    296.61461     9692.384   -7913.4184    80.406504 
   23900    299.59289    -108.5998   0.27107794   -108.32872   -2154.8983    4.3165377    4.3165377    4.3165377   -2154.8983    11406.643   -9230.7616   -8640.5759   -562.43725   -3461.1947    3281.8182     80.42788 
   24000    491.61224   -108.77088   0.44482109   -108.32606   -857.36269    4.3126411    4.3126411    4.3126411   -857.36269    8265.6834   -5813.1299   -5024.6415    3448.9614   -2904.6852    3196.7676    80.210264 
   24100    335.55905   -108.63153   0.30362088   -108.32791   -14.629595    4.3195635    4.3195635    4.3195635   -14.629595    15237.104   -3112.7462   -12168.246    369.26437    8588.2792    -8513.576     80.59713 
   24200    336.09261   -108.63287   0.30410366   -108.32877    1642.0081    4.3114928    4.3114928    4.3114928    1642.0081    7117.3436    2319.8359   -4511.1553    4623.4969   -274.15478    4354.7388    80.146211 
   24300    518.18005   -108.79603    0.4688602   -108.32717   -3412.5818    4.3189248    4.3189248    4.3189248   -3412.5818   -559.82899   -5861.2127   -3816.7036   -3648.8555   -2239.6129     1225.812    80.561383 
   24400    468.68106   -108.75036   0.42407247   -108.32629   -754.14594    4.3152704    4.3152704    4.3152704   -754.14594    7287.6144   -2197.5161   -7352.5361   -1228.9927    7757.1288   -6383.9961    80.357059 
   24500    312.43187      -108.61   0.28269492   -108.32731   -3314.1402    4.3131536    4.3131536    4.3131536   -3314.1402    1145.1441   -3960.1128    -7127.452    1014.3997    -8741.575    5536.0924    80.238865 
   24600    315.55756    -108.6121   0.28552311   -108.32658   -578.28267    4.3207204    4.3207204    4.3207204   -578.28267    17904.581    -14158.83   -5480.5985     5403.972    72.086513   -914.83746    80.661905 
   24700    433.49898   -108.71814   0.39223899    -108.3259    7471.0636    4.3096792    4.3096792    4.3096792    7471.0636     15597.77    7194.2462   -378.82532    361.93447    3729.6438   -9172.6917    80.045117 
   24800    408.08325   -108.69717    0.3692423   -108.32793   -6728.1684    4.3194079    4.3194079    4.3194079   -6728.1684   -7022.5811   -7216.0185   -5945.9057    3449.5636   -3585.1262    5486.0753     80.58842 
   24900    462.51067   -108.74566   0.41848937   -108.32717    3458.8353     4.315004     4.315004     4.315004    3458.8353    15763.313   -2230.0581   -3156.7489    510.95117   -3849.2786     258.9827    80.342178 
   25000    480.11925   -108.76051   0.43442199   -108.32608    2971.6393    4.3125625    4.3125625    4.3125625    2971.6393    14969.204    670.85482   -6725.1411   -1027.4226    6081.3887   -7597.4833    80.205878 
   25100    266.39087   -108.56992   0.24103606   -108.32889    -5676.678    4.3196713    4.3196713    4.3196713    -5676.678    4155.4019   -12478.225   -8707.2111    4324.4469   -4903.0653    6056.2898    80.603169 
   25200    340.44457   -108.63649    0.3080414   -108.32845    3152.9845    4.3109195    4.3109195    4.3109195    3152.9845    6574.4375   -500.38809     3384.904   -2127.5045   -769.27024   -3772.5201    80.114244 
   25300    492.07152   -108.77136   0.44523666   -108.32612   -4791.8444    4.3192597    4.3192597    4.3192597   -4791.8444    4152.5636    -10318.65   -8209.4465   -264.37373    1467.2888   -5256.5757    80.580129 
   25400    370.89163   -108.66312   0.33559054   -108.32753   -2163.8381    4.3157606    4.3157606    4.3157606   -2163.8381    5213.1596   -3580.7695   -8123.9043    4101.9358   -8214.8548    7027.8876    80.384449 
   25500    427.83495   -108.71433   0.38711405   -108.32722    1490.2032    4.3120215    4.3120215    4.3120215    1490.2032    12397.108   -670.08854   -7256.4099    4926.6641   -1469.7754   -2821.2821    80.175697 
   25600    464.68644   -108.74591   0.42045806   -108.32545    -4934.689    4.3216708    4.3216708    4.3216708    -4934.689     5105.661   -5558.2385   -14351.489   -1117.9827    3389.8589   -5848.7976    80.715147 
   25700    332.69886   -108.62745   0.30103292   -108.32642   -602.65349    4.3106206    4.3106206    4.3106206   -602.65349    -1294.362    491.11338   -1004.7119    5158.7284   -3600.6048    5631.5569     80.09758 
   25800    302.38598   -108.60164   0.27360519   -108.32804   -4390.4305    4.3175124    4.3175124    4.3175124   -4390.4305    10976.757   -17383.925   -6764.1231   -5244.7523   -2546.5037   -5720.7225    80.482375 
   25900    450.72328   -108.73452    0.4078239    -108.3267    473.07867    4.3162997    4.3162997    4.3162997    473.07867    14408.018   -9198.8526   -3789.9292   -187.40913     3264.308   -2507.1159    80.414577 
   26000    446.38051   -108.73207   0.40389447   -108.32818    1379.2478     4.312258     4.312258     4.312258    1379.2478    5918.7584    6150.9784   -7931.9933    2707.8566   -7525.3278    5782.9129    80.188893 
   26100    373.77382   -108.66671   0.33819841   -108.32851   -2099.4059    4.3195237    4.3195237    4.3195237   -2099.4059    7416.0331   -5629.9539   -8084.2968    -2705.914    968.74612   -7396.1887    80.594903 
   26200    528.94448   -108.80427   0.47860008   -108.32567    4063.2641    4.3121157    4.3121157    4.3121157    4063.2641     8776.641    2108.1117    1305.0397   -2977.9083   -1769.3368   -2036.0494    80.180951 
   26300    307.04356    -108.6057   0.27781947   -108.32788    2050.5982    4.3164115    4.3164115    4.3164115    2050.5982    13712.605   -2377.4007   -5183.4102     4632.776   -5892.4782    4265.2877    80.420826 
   26400    260.21391    -108.5641   0.23544702   -108.32866   -3586.3019    4.3160809    4.3160809    4.3160809   -3586.3019    6999.0774   -19477.592    1719.6088   -520.94417   -1442.0071   -4922.1231    80.402348 
   26500    477.34458   -108.75824   0.43191141   -108.32633    1031.6271    4.3147942    4.3147942    4.3147942    1031.6271    2444.1016    6205.8284   -5555.0487   -1929.8861    2837.9468   -1758.4856    80.330459 
   26600    467.19923   -108.74953   0.42273168    -108.3268   -766.42542    4.3165595    4.3165595    4.3165595   -766.42542    1123.7394    5703.9793   -9126.9949    1108.5044   -5031.6535    1585.0485    80.429099 
   26700    414.78058   -108.70324   0.37530219   -108.32794    -3676.796    4.3152951    4.3152951    4.3152951    -3676.796     3406.443   -13167.148   -1269.6827   -7758.4997    1285.2031   -8648.5253    80.358441 
   26800    439.93376   -108.72398   0.39806131   -108.32592    1599.1557     4.316349     4.316349     4.316349    1599.1557    7312.1087    3371.7031   -5886.3449    32.586696   -4068.3465   -115.29681    80.417332 
   26900    348.28867   -108.64189   0.31513891   -108.32675   -541.51097    4.3140663    4.3140663    4.3140663   -541.51097    1857.8202    -2975.918   -506.43509    2454.1705   -7471.6986    2829.6626    80.289812 
   27000    270.11902   -108.57291   0.24440937    -108.3285   -7865.5673    4.3177225    4.3177225    4.3177225   -7865.5673   -667.65374   -20026.295   -2902.7533    -5121.205    2315.1784    -5299.366    80.494124 
   27100    438.58573    -108.7234   0.39684159   -108.32656    4418.7199     4.313921     4.313921     4.313921    4418.7199    12103.976     5583.496    -4431.312   -3447.4722   -4007.8907   -733.35545    80.281701 
   27200    536.72193   -108.81224   0.48563728    -108.3266   -2547.3633    4.3153517    4.3153517    4.3153517   -2547.3633    2738.8956   -1679.5825   -8701.4031    4593.2068   -2505.8402    145.31263      80.3616 
   27300    336.25242   -108.63325   0.30424826     -108.329    437.97347    4.3166048    4.3166048    4.3166048    437.97347    9674.0231   -4369.5779   -3990.5248   -5466.5196    7.5031144   -5696.8364     80.43163 
   27400    437.40805    -108.7228   0.39577599   -108.32702     1575.527    4.3148292    4.3148292    4.3148292     1575.527    1738.9161     6203.796   -3216.1312    -1432.804   -959.36017    2008.8979    80.332416 
   27500    380.17085   -108.67042   0.34398657   -108.32643   -314.12862    4.3159048    4.3159048    4.3159048   -314.12862    13362.082    -9140.017   -5164.4506   -3260.3961   -4578.0576   -828.65463    80.392507 
   27600    272.36006    -108.5745    0.2464371   -108.32806   -2283.6035    4.3164015    4.3164015    4.3164015   -2283.6035    14149.565   -16824.422   -4175.9541    -7951.433    2864.0959   -6894.0284    80.420265 
   27700    466.27249   -108.74876   0.42189315   -108.32687   -1644.7704    4.3132822    4.3132822    4.3132822   -1644.7704   -700.49182    2611.1469   -6844.9664    2259.0929   -8313.0668    -33.60233    80.246039 
   27800    462.01569   -108.74509   0.41804151   -108.32705   -556.94746    4.3182372    4.3182372    4.3182372   -556.94746    3452.9927    5453.6949    -10577.53   -993.33934   -2411.9672   -1380.3975    80.522913 
   27900    422.25889   -108.70982   0.38206872   -108.32775   -1252.5903    4.3137238    4.3137238    4.3137238   -1252.5903    1660.6109   -3379.0601   -2039.3219   -6863.8252    1380.3118   -2103.2541    80.270692 
   28000    349.46648   -108.64343   0.31620461   -108.32723    -1616.567    4.3166007    4.3166007    4.3166007    -1616.567    1578.0574   -1906.1367   -4521.6215    726.22908   -3525.4654    2036.1833    80.431402 
   28100    432.36379   -108.71698   0.39121185   -108.32576   -2366.2641    4.3158767    4.3158767    4.3158767   -2366.2641      6186.96    -5367.017   -7918.7352    1691.9293    1078.8678   -2745.2381    80.390938 
   28200    340.00688   -108.63447   0.30764537   -108.32683   -1676.8376    4.3142952    4.3142952    4.3142952   -1676.8376     934.6132   -5071.9441   -893.18202   -5247.1673   -747.55517   -5080.2039    80.302596 
   28300    326.31174   -108.62317   0.29525372   -108.32792   -2591.8232    4.3174368    4.3174368    4.3174368   -2591.8232   -2884.5482    3010.8933   -7901.8148    1639.2725   -5084.7871     2702.992    80.478146 
   28400    515.27362   -108.79265    0.4662304   -108.32642    2294.6512    4.3138348    4.3138348    4.3138348    2294.6512    10351.377    5079.4112   -8546.8343   -5575.1961   -725.99633   -2885.7582    80.276886 
   28500    436.08534   -108.72212   0.39457918   -108.32754    5546.6171    4.3148278    4.3148278    4.3148278    5546.6171    15300.039   -4673.1428    6012.9548   -3776.3163     1235.876   -2649.3885    80.332339 
   28600    390.11214   -108.68101   0.35298166   -108.32803   -8387.5582    4.3193046    4.3193046    4.3193046   -8387.5582   -7128.9256   -3531.3307   -14502.418    4264.9622   -9554.9862   -334.10296    80.582639 
   28700    397.91844   -108.68628   0.36004496   -108.32624     8667.336    4.3103865    4.3103865    4.3103865     8667.336    13936.489    13018.783   -953.26436   -500.95918    1737.5358   -3958.6704     80.08453 
   28800    366.11125   -108.65733   0.33126515   -108.32606   -3617.2934     4.320841     4.320841     4.320841   -3617.2934    11280.121   -15190.051   -6941.9508   -2695.0466   -2144.2519   -1805.9716    80.668661 
   28900    283.19802   -108.58488   0.25624352   -108.32863   -2240.1128    4.3117148    4.3117148    4.3117148   -2240.1128   -4042.0568    3967.3889   -6645.6705    2891.7441   -4063.3917    3550.5953     80.15859 
   29000    471.40274   -108.75458    0.4265351   -108.32804    1577.5653    4.3163342    4.3163342    4.3163342    1577.5653    6507.4794    1237.4725   -3012.2559    1956.1442    4573.2475   -3297.8343    80.416504 
   29100    607.33464   -108.87565   0.54952915   -108.32612   -5126.4808    4.3179271    4.3179271    4.3179271   -5126.4808   -1343.7619   -5867.6578   -8168.0226    -3730.766    -3733.744   -3161.1419    80.505567 
   29200    222.15689   -108.53071   0.20101222   -108.32969    2814.8707    4.3115867    4.3115867    4.3115867    2814.8707    371.81225    16849.974   -8777.1744    4058.7379   -6521.0013    329.35217    80.151449 
   29300    401.85781   -108.69063   0.36360939   -108.32702   -5373.0996    4.3201383    4.3201383    4.3201383   -5373.0996    8518.7345   -6943.4168   -17694.616   -4796.4648     5459.044   -4257.3942    80.629309 
   29400    430.24812   -108.71461   0.38929754   -108.32532    3931.2081    4.3116816    4.3116816    4.3116816    3931.2081    11282.795   -1863.2379    2374.0674    -593.8686   -4412.4372    1251.3818     80.15674 
   29500    253.79484   -108.55968   0.22963891   -108.33004   -7899.7938    4.3182345    4.3182345    4.3182345   -7899.7938    -6923.049   -2972.8113   -13803.521    5642.4853   -4376.3333   -268.88693    80.522765 
   29600    481.77176   -108.76461   0.43591721   -108.32869    2015.2878    4.3146329    4.3146329    4.3146329    2015.2878    12134.348    3653.4129   -9741.8973    1013.7098    5438.9834   -4293.2652    80.321452 
   29700    579.81703    -108.8508   0.52463064   -108.32617     5963.235    4.3140744    4.3140744    4.3140744     5963.235    15941.915    8959.0089   -7011.2188   -57.932989   -4659.0468   -1918.0211    80.290268 
   29800    274.71031   -108.57915   0.24856366   -108.33058   -6981.8517     4.318669     4.318669     4.318669   -6981.8517   -6846.4005     7342.728   -21441.883    3283.6206     1061.754    470.48023    80.547075 
   29900    364.68837    -108.6585    0.3299777   -108.32852    1611.6471    4.3116426    4.3116426    4.3116426    1611.6471    8600.5431   -993.16994    -2772.432    2686.7464    7910.7031   -3328.4397    80.154564 
   30000    483.40706   -108.76359   0.43739687   -108.32619   -1741.5469    4.3190612    4.3190612    4.3190612   -1741.5469    12651.715   -12921.737   -4954.6183   -1627.1199   -7640.0795     2565.861    80.569016 
   30100    209.35791   -108.52019   0.18943143   -108.33076   -2937.0386    4.3139435    4.3139435    4.3139435   -2937.0386   -3241.6938    7776.0436   -13345.466    4014.0947    1078.7441   -2693.4983    80.282956 
   30200    454.52668   -108.74069   0.41126529   -108.32943   -2825.2305    4.3146298    4.3146298    4.3146298   -2825.2305    2891.0655   -628.86458   -10737.893   -5898.3374    6965.7102   -4860.7462    80.321282 
   30300    607.38566   -108.87523   0.54957531   -108.32565   -2365.5645     4.319853     4.319853     4.319853   -2365.5645   -3342.7469    7298.1974   -11052.144   -1066.6835   -4878.3862     2194.145    80.613338 
   30400    265.43269   -108.56975   0.24016908   -108.32958    717.53849    4.3097446    4.3097446    4.3097446    717.53849   -1248.9619    13872.639   -10471.062    5820.2145    5380.1775    -2115.961    80.048757 
   30500      352.273   -108.64686   0.31874401   -108.32811   -6677.9324     4.321182     4.321182     4.321182   -6677.9324     4473.208   -19416.258   -5090.7467    1576.3511    2595.5607   -2421.5365    80.687766 
   30600    487.86504   -108.76665   0.44143055   -108.32522     7285.762    4.3119434    4.3119434    4.3119434     7285.762    12952.987    7523.9859    1380.3125   -1332.7213   -2626.1038    613.76599    80.171341 
   30700    293.37143   -108.59471   0.26544864   -108.32926   -4081.9919    4.3156317    4.3156317    4.3156317   -4081.9919   -788.97637    767.58162   -12224.581    3065.6418    6492.0469   -3817.6877    80.377248 
   30800    380.80434   -108.67373   0.34455977   -108.32917   -2674.6803     4.319429     4.319429     4.319429   -2674.6803    4281.0646   -4722.9092   -7582.1963   -1262.6246    5057.1325   -1733.5869    80.589605 
   30900    593.96387    -108.8628   0.53743099   -108.32537    12214.704    4.3083487    4.3083487    4.3083487    12214.704    20081.032    12733.766    3829.3122   -4701.5693    -5504.769    5617.2285    79.971002 
   31000    308.45409   -108.60842   0.27909574   -108.32933   -6060.3803    4.3225661    4.3225661    4.3225661   -6060.3803   -878.26541   -7751.6072   -9551.2682    3668.7242    6153.9696   -3559.6854     80.76532 
   31100    373.65549   -108.66569   0.33809134    -108.3276    747.64005    4.3115282    4.3115282    4.3115282    747.64005    313.87837   -337.18193    2266.2237   -7609.5139    2160.8871   -1791.4269    80.148186 
   31200    471.81208   -108.75176   0.42690549   -108.32485    4133.9618    4.3163603    4.3163603    4.3163603    4133.9618    11070.793    2465.8556   -1134.7633    -559.1664    508.08265     192.3822    80.417966 
   31300    283.35814   -108.58488    0.2563884   -108.32849    -6548.439    4.3180811    4.3180811    4.3180811    -6548.439     512.5243   -5629.8071   -14528.034    6898.4079    8246.7785   -3117.5157     80.51418 
   31400    337.66905   -108.63521   0.30553006   -108.32968   -224.99872    4.3111503    4.3111503    4.3111503   -224.99872     3500.058   -7813.9272     3638.873   -4877.6188   -390.60912   -1081.0749    80.127114 
   31500    609.90286   -108.87729   0.55185293   -108.32543   -1312.4801    4.3201449    4.3201449    4.3201449   -1312.4801   -1006.5282    60.776243   -2991.6884   -3373.1515    1318.5497    2516.7361    80.629683 
   31600    395.88079   -108.68659   0.35820126   -108.32839   -4963.7148    4.3139802    4.3139802    4.3139802   -4963.7148   -5234.0392    -1366.507   -8290.5981    1086.6844    7199.1914   -5864.2073    80.285007 
   31700    234.30931   -108.54256   0.21200799   -108.33056    1966.1117    4.3133772    4.3133772    4.3133772    1966.1117    5070.9404    1038.2668     -210.872   -6594.7123    1983.9339   -484.59181    80.251344 
   31800    499.85999   -108.77819   0.45228383    -108.3259   -3461.7751    4.3198348    4.3198348    4.3198348   -3461.7751    11850.001   -11204.763   -11030.564    -1723.973   -1969.9981    1751.5838    80.612317 
   31900    357.02522   -108.65106   0.32304392   -108.32802   -1083.7056    4.3109977    4.3109977    4.3109977   -1083.7056    6271.5359   -7746.5092   -1776.1435    1340.4263    4590.2765   -3690.7518    80.118605 
   32000    337.72174   -108.63516   0.30557773   -108.32958   -6517.6916    4.3203954    4.3203954    4.3203954   -6517.6916   -5307.6934    -9877.553   -4367.8284   -12315.637   -2472.3051    1259.4044    80.643705 
   32100    593.50667   -108.86246   0.53701731   -108.32545    7454.8012    4.3129125    4.3129125    4.3129125    7454.8012     12214.11    9732.6413    417.65243     2929.295    1173.9282   -2830.1798    80.225411 
   32200     319.3162   -108.61823   0.28892401   -108.32931    5415.9934    4.3156439    4.3156439    4.3156439    5415.9934    16053.125    8311.4448     -8116.59     1833.414    7245.2882   -4123.6681    80.377929 
   32300    291.22287   -108.59256   0.26350457   -108.32906   -9178.8034    4.3181051    4.3181051    4.3181051   -9178.8034   -5816.4551   -16635.051   -5084.9042   -8134.2192   -2707.3132    813.39013    80.515524 
   32400    528.16036   -108.80283    0.4778906   -108.32494    940.06748    4.3113472    4.3113472    4.3113472    940.06748    11333.646   -6171.4101    -2342.033   -1716.5669   -1119.4559   -571.22551    80.138093 
   32500    391.27686   -108.68147   0.35403552   -108.32744   -6471.8921    4.3207383    4.3207383    4.3207383   -6471.8921   -1829.7715   -7942.3459   -9643.5589   -2431.8874    2818.4503   -3997.5959    80.662911 
   32600    263.45917   -108.56837   0.23838339   -108.32998    3315.5597    4.3108499    4.3108499    4.3108499    3315.5597    468.86585    5121.4225    4356.3907   -8139.3453   -2559.6974    2333.3589    80.110365 
   32700    521.58033   -108.79883   0.47193684   -108.32689    1194.3633    4.3185885    4.3185885    4.3185885    1194.3633    6216.2978    6285.6044   -8918.8124    1142.1829   -2830.5104   -4908.2907    80.542566 
   32800    469.55241   -108.75254   0.42486089   -108.32768   -2327.8809    4.3142562    4.3142562    4.3142562   -2327.8809    -1904.847   -4772.0378   -306.75787   -2870.2349     2231.712   -1437.8741    80.300415 
   32900     278.0956   -108.58072   0.25162675   -108.32909   -8081.6145    4.3154768    4.3154768    4.3154768   -8081.6145   -8948.4285   -11683.145   -3613.2704   -10677.622   -6618.2468    2713.8322    80.368591 
   33000    447.21695   -108.73129   0.40465129   -108.32664    4412.2852    4.3174665    4.3174665    4.3174665    4412.2852    15726.472    3920.5912   -6410.2072    7288.0406   -4769.8275   -3286.1895    80.479808 
   33100     385.1954   -108.67578   0.34853289   -108.32724    5717.1877    4.3132868    4.3132868    4.3132868    5717.1877    13945.007    1202.7875     2003.769    -5604.611    5296.1783    -2907.536      80.2463 
   33200    291.23461   -108.59292   0.26351519    -108.3294   -4102.8287    4.3166315    4.3166315    4.3166315   -4102.8287   -6064.6607   -6974.6796    730.85432   -8564.6889   -4978.6411    941.41129    80.433124 
   33300    570.90373   -108.84194   0.51656569   -108.32537   -2916.8485    4.3178688    4.3178688    4.3178688   -2916.8485   -2194.3048   -938.95555   -5617.2853   -107.84514   -1677.1692   -3526.9506    80.502305 
   33400    429.94876   -108.71518   0.38902668   -108.32616    5190.9819    4.3114243    4.3114243    4.3114243    5190.9819    14318.286   -821.88484    2076.5449   -6742.5318   -174.42383    -821.2725    80.142389 
   33500    269.40186     -108.573   0.24376047   -108.32924    -7720.186    4.3203799    4.3203799    4.3203799    -7720.186   -3547.0656   -10596.413   -9017.0795    -4020.721   -6495.8347    1911.4428    80.642842 
   33600    390.84481   -108.68009    0.3536446   -108.32644    8130.9045    4.3119396    4.3119396    4.3119396    8130.9045    14823.649    12090.985   -2521.9206    4829.1586   -3031.1707   -6352.6179    80.171128 
   33700    498.77127   -108.77705   0.45129873   -108.32575   -5382.6338     4.316332     4.316332     4.316332   -5382.6338   -1080.4462    -15920.37    852.91451   -6014.7371    624.74021    117.95007    80.416382 
   33800    293.37795    -108.5948   0.26545453   -108.32935   -6681.8243    4.3177049    4.3177049    4.3177049   -6681.8243   -13812.697   -2005.9902   -4226.7855   -5184.6199   -8008.1562     807.2636    80.493142 
   33900    412.74098    -108.7017   0.37345671   -108.32824    7987.3506    4.3108975    4.3108975    4.3108975    7987.3506    19013.785    11462.402    -6514.136    8137.2711   -3861.2349   -4047.1853    80.113016 
   34000    517.17318   -108.79432   0.46794916   -108.32637    -3585.134    4.3206902    4.3206902    4.3206902    -3585.134    3405.4042   -6219.1239   -7941.6824   -7246.7497    2315.7092   -226.68117    80.660218 
   34100    296.49499   -108.59618    0.2682749    -108.3279    1478.1395    4.3129415    4.3129415    4.3129415    1478.1395   -688.76133    9651.2736   -4528.0939   -3183.9695   -6768.2325    -1781.064    80.227027 
   34200    443.31614   -108.72756   0.40112176   -108.32643   -5392.0146    4.3164365    4.3164365    4.3164365   -5392.0146    3270.2088   -8561.8525     -10884.4    527.57247    2896.3778   -6756.1686    80.422224 
   34300    420.28247    -108.7054   0.38028041   -108.32512     466.4499    4.3179815    4.3179815    4.3179815     466.4499    7257.7783     -4830.93   -1027.4985   -3382.1633   -2674.6203    2483.2492    80.508611 
   34400    283.29156   -108.58473   0.25632816    -108.3284    3549.6811    4.3122596    4.3122596    4.3122596    3549.6811    10864.354    7461.5926   -7676.9035   -26.204413   -9342.3089     251.4269     80.18898 
   34500    412.73733   -108.70087   0.37345341   -108.32742   -1537.2444    4.3184205    4.3184205    4.3184205   -1537.2444   -324.35496    8220.3111   -12507.689    5673.7568    1211.6335   -3903.6577    80.533168 
   34600    588.74064   -108.85777    0.5327049   -108.32507    661.00852    4.3150033    4.3150033    4.3150033    661.00852    2595.5321    3332.8402   -3945.3468   -2444.4709   -916.86047    3425.4815    80.342139 
   34700    310.02193   -108.60931   0.28051436    -108.3288   -2231.7044    4.3138044    4.3138044    4.3138044   -2231.7044   -301.21002    3905.4053   -10299.308   -2560.6407    -5948.657    -2433.319    80.275191 
   34800    275.85884   -108.57887   0.24960287   -108.32927   -5267.2225    4.3184682    4.3184682    4.3184682   -5267.2225    5404.5881   -11609.788   -9596.4671    8660.8714    3568.3731   -3968.0469    80.535839 
   34900    478.53854   -108.75893   0.43299172   -108.32594     2249.022    4.3138188    4.3138188    4.3138188     2249.022    11474.998   -2292.0582   -2435.8742    -4277.539   -2214.9379    4995.9281    80.275996 
   35000      323.784   -108.62162   0.29296657   -108.32866   -1771.9978    4.3151955    4.3151955    4.3151955   -1771.9978   -6583.9033    10601.813   -9333.9035   -920.60396    -5714.371   -3379.1052    80.352876 
[...]
   91200    387.69928   -108.67634   0.35079845   -108.32554    852.55558    4.3163227    4.3163227    4.3163227    852.55558    1346.7188    5067.2764   -3856.3284   -3682.7489   -149.29297    1370.7735    80.415862 
   91300    476.16244   -108.75577   0.43084178   -108.32493   -4841.5306    4.3202727    4.3202727    4.3202727   -4841.5306   -13178.572   -1923.8473    577.82745    459.78379    6615.7787   -1724.6952    80.636835 
   91400    318.66324   -108.61447    0.2883332   -108.32614    8987.3738    4.3126095    4.3126095    4.3126095    8987.3738     17905.93    -164.6758    9220.8667    9152.1845    -5247.006   -499.60845    80.208501 
   91500     368.2371   -108.65968   0.33318866   -108.32649   -7902.7973    4.3209777    4.3209777    4.3209777   -7902.7973   -4708.9199   -12186.365   -6813.1072   -1779.9276    3721.2693    3281.4754    80.676317 
   91600    437.42099   -108.72104    0.3957877   -108.32525   -443.28708    4.3158127    4.3158127    4.3158127   -443.28708   -1678.3316    2586.9118   -2238.4415   -3265.5537    6876.6079   -1322.0887    80.387357 
   91700    386.32107   -108.67566   0.34955142   -108.32611    1090.2558    4.3160581    4.3160581    4.3160581    1090.2558    2268.7451      4326.23   -3324.2077    8148.9115   -8006.6434    268.32746    80.401076 
   91800    420.23386   -108.70652   0.38023643   -108.32628   -4407.7714    4.3202453    4.3202453    4.3202453   -4407.7714    -3868.554    -2870.269   -6484.4913   -1837.5547    5866.1472    459.46275    80.635304 
   91900    397.60136   -108.68494   0.35975807   -108.32518    9860.6647    4.3139508    4.3139508    4.3139508    9860.6647    15058.438    4309.7473    10213.809    136.55545     8943.469   -1114.6785    80.283362 
   92000    448.08691   -108.73167   0.40543845   -108.32623    -7839.729    4.3181006    4.3181006    4.3181006    -7839.729   -11404.317   -12397.961    283.09102    5415.3739   -9654.3837    4345.5545    80.515272 
   92100    352.24362   -108.64524   0.31871743   -108.32652   -6993.1802    4.3192172    4.3192172    4.3192172   -6993.1802   -9484.7437   -2180.8842   -9313.9126   -2911.5652    4646.3902    3741.8915     80.57775 
   92200    413.28353   -108.69906   0.37394762   -108.32511    3980.4754    4.3141062    4.3141062    4.3141062    3980.4754    8145.1897    5170.9247   -1374.6882      2419.58    4653.2502   -661.86924    80.292042 
   92300    339.38902   -108.63311   0.30708632   -108.32603   -2424.7766    4.3205271    4.3205271    4.3205271   -2424.7766    1331.8826   -938.92891   -7667.2836    8283.8967   -5165.4305   -1035.5938    80.651084 
   92400    368.77516   -108.65962   0.33367551   -108.32594     3296.248    4.3160338    4.3160338    4.3160338     3296.248     4716.692     6008.648   -836.59611   -876.73951     10366.34    445.23604    80.399718 
   92500    564.81147   -108.83497   0.51105329   -108.32392   -1559.1945    4.3157216    4.3157216    4.3157216   -1559.1945   -9315.8313   -4080.2305    8718.4782    -3516.046    2145.4497   -1941.7206    80.382271 
   92600    368.39386   -108.65989    0.3333305   -108.32656   -7504.6841    4.3204623    4.3204623    4.3204623   -7504.6841    -7831.797   -7518.9084    -7163.347    5535.8306   -7326.5707    3474.3866    80.647452 
   92700    352.29964   -108.64575   0.31876812   -108.32698    2514.7265    4.3129578    4.3129578    4.3129578    2514.7265     5695.875    2447.0929   -598.78845   -3530.5525    9173.0347    1841.1742    80.227936 
   92800    354.41979   -108.64656   0.32068648   -108.32588    1041.0305    4.3200544    4.3200544    4.3200544    1041.0305    1983.8669    102.39121    1036.8334    2269.3604    2046.0906   -2594.9014    80.624616 
   92900    360.70939   -108.65267   0.32637743   -108.32629   -1014.1424     4.316474     4.316474     4.316474   -1014.1424   -2360.9962    3088.6527   -3770.0838    4042.1475   -8754.7991    1320.9509    80.424318 
   93000    457.16541   -108.73949   0.41365287   -108.32584   -64.467878    4.3158862    4.3158862    4.3158862   -64.467878   -2488.1771   -496.39851     2791.172   -4042.2843    5665.4941    2542.4893    80.391466 
   93100    495.88659   -108.77389   0.44868861   -108.32521   -1444.0231    4.3192153    4.3192153    4.3192153   -1444.0231     338.4807   -8983.9581    4313.4081   -942.06937   -590.95343    567.75853    80.577644 
   93200    397.81403   -108.68648    0.3599505   -108.32653    135.20449    4.3149199    4.3149199    4.3149199    135.20449   -4456.3784   -4326.4076    9188.3995    5750.6717   -1804.6471    1929.0171     80.33748 
   93300    289.11674   -108.58841    0.2615989   -108.32681    1835.8804     4.318339     4.318339     4.318339    1835.8804    2910.9459   -1072.9121    3669.6075    -2790.298    8661.5223    232.65952    80.528612 
   93400    424.85899   -108.70889   0.38442134   -108.32447   -2615.8063    4.3175987    4.3175987    4.3175987   -2615.8063   -6148.4157    1174.5269     -2873.53   -1795.9328   -1941.2734   -2953.6557    80.487201 
   93500    350.30115    -108.6431   0.31695984   -108.32614     2286.767     4.316045     4.316045     4.316045     2286.767     2252.243    792.79238    3815.2658    3081.3596   -4955.7891    3449.3866    80.400341 
   93600    429.80755   -108.71505    0.3888989   -108.32615   -3767.9786    4.3184219    4.3184219    4.3184219   -3767.9786   -2995.5334   -6783.5842   -1524.8183   -6459.4487    8564.7259    2528.7516    80.533249 
   93700    500.89906   -108.77866     0.453224   -108.32544     1196.927     4.315187     4.315187     4.315187     1196.927    -10671.96   -5820.2084    20082.949    3765.4749   -3108.9223   -2298.3484      80.3524 
   93800    373.65643   -108.66481   0.33809219   -108.32672   -791.18387    4.3184013    4.3184013    4.3184013   -791.18387    650.53165   -4131.8244    1107.7412    2235.5898   -6148.7156    983.84103    80.532096 
   93900    359.80324   -108.65196   0.32555753    -108.3264   -3488.1606      4.31619      4.31619      4.31619   -3488.1606   -6357.6102    5311.9083   -9418.7798   -5301.2814    7587.0846   -1580.1842    80.408444 
   94000     366.8926   -108.65754   0.33197213   -108.32557     558.0253    4.3185485    4.3185485    4.3185485     558.0253    1108.3139   -3549.2372    4114.9992   -897.83387   -1695.1834    905.26763    80.540327 
   94100    388.30992   -108.67699   0.35135098   -108.32564   -390.91479    4.3162393    4.3162393    4.3162393   -390.91479    -3428.169    236.93199    2018.4927    2347.3269    2726.9812    4264.0595    80.411201 
   94200    394.10964   -108.68204   0.35659869   -108.32544   -3255.6492    4.3186482    4.3186482    4.3186482   -3255.6492   -11205.968   -6444.4568     7883.477    -5539.419    6013.6757    -87.86845    80.545909 
   94300    508.11291   -108.78414   0.45975124   -108.32439    2483.5309    4.3160537    4.3160537    4.3160537    2483.5309    7307.0953   -5768.0503    5911.5476    2081.9225   -4287.6265   -3000.5295     80.40083 
   94400    412.63949   -108.70006   0.37336488    -108.3267   -1456.6987    4.3159202    4.3159202    4.3159202   -1456.6987   -4563.1855    7843.3317   -7650.2424   -444.63852   -3329.5116     1698.301    80.393366 
   94500    290.09833    -108.5903   0.26248706   -108.32781   -31.707903    4.3192922    4.3192922    4.3192922   -31.707903   -3562.5409   -1589.1162    5056.5333   -8576.7846    7492.2092    78.789939    80.581945 
   94600    428.66515   -108.71331   0.38786523   -108.32545    2241.4436    4.3149931    4.3149931    4.3149931    2241.4436   -2433.4349   -1728.3468    10886.112    4075.8577   -7230.7537   -1801.1654     80.34157 
   94700    375.19585   -108.66576   0.33948509   -108.32627   -209.80984      4.31669      4.31669      4.31669   -209.80984    2230.3717   -1733.5645   -1126.2367    163.78181   -2006.1557    1853.1781    80.436394 
   94800    425.55756   -108.71166   0.38505342   -108.32661   -5559.1855     4.320342     4.320342     4.320342   -5559.1855   -2582.2368   -11914.877    -2180.443   -7380.4315    4951.3078    -4963.188    80.640715 
   94900    486.13234    -108.7645   0.43986276   -108.32463    6040.2068    4.3126753    4.3126753    4.3126753    6040.2068    6892.2294    3280.6664    7947.7248    1333.1348   -2693.3876   -595.99945    80.212172 
   95000    348.01693   -108.64089   0.31489303   -108.32599   -3653.4618    4.3214987    4.3214987    4.3214987   -3653.4618   -18655.052   -282.89045    7977.5567   -837.07965    2338.5789    4501.0918    80.705508 
   95100    323.57936   -108.61898   0.29278141    -108.3262    712.44908    4.3146079    4.3146079    4.3146079    712.44908   -9412.2408   -2792.7256    14342.314   -8749.9014    3258.6978    1844.9675    80.320055 
   95200    430.37601   -108.71406   0.38941326   -108.32464    1805.6623    4.3168305    4.3168305    4.3168305    1805.6623     10547.94   -5163.1553     32.20176    6749.2113   -5319.9513   -2773.9781    80.444248 
   95300     461.7073   -108.74298   0.41776247   -108.32522   -10884.073    4.3208881    4.3208881    4.3208881   -10884.073   -11480.708   -11937.578   -9233.9332   -4798.7008   -1367.5751    751.00551    80.671301 
   95400    340.95617   -108.63492   0.30850431   -108.32642    5255.2099    4.3119786    4.3119786    4.3119786    5255.2099    9766.9417   -3083.8687    9082.5567   -9817.8848     7692.966   -5426.0948    80.173307 
   95500    460.66698   -108.74196   0.41682117   -108.32514   -5245.1198    4.3218927    4.3218927    4.3218927   -5245.1198   -16686.571   -6549.3763    7500.5883    5881.6972   -7897.6928   -1784.6647    80.727582 
   95600    328.14798   -108.62409   0.29691519   -108.32717     2289.755    4.3131884    4.3131884    4.3131884     2289.755   -9071.0492    3298.5396    12641.775   -3545.0445    2195.6012    3751.1376    80.240806 
   95700    348.78894   -108.64312   0.31559156   -108.32752   -2268.7009    4.3186811    4.3186811    4.3186811   -2268.7009    4431.3138   -6845.6281   -4391.7883   -6013.2562     3651.131   -4169.7134     80.54775 
   95800    575.14995   -108.84491   0.52040776   -108.32451   -3090.8265    4.3180673    4.3180673    4.3180673   -3090.8265    2656.7738   -7717.8968   -4211.3565    4952.1251   -585.56421   -817.95581    80.513409 
   95900    353.78525   -108.64681   0.32011233    -108.3267    3432.0178    4.3146513    4.3146513    4.3146513    3432.0178    4265.7632     756.9607    5273.3295   -5607.1048    2207.1116     238.0267     80.32248 
   96000    318.09379   -108.61485   0.28781795   -108.32703   -2092.6968    4.3198431    4.3198431    4.3198431   -2092.6968   -4855.5389   -7903.3338    6480.7823   -5371.0405    2404.5493   -548.27488    80.612782 
   96100    411.90084   -108.69725   0.37269654   -108.32456    3683.6708    4.3153364    4.3153364    4.3153364    3683.6708   -2917.7629    3061.9496    10906.825    8203.0541   -7955.8325   -1328.8298     80.36075 
   96200    362.80319   -108.65547   0.32827196   -108.32719    216.13214    4.3164069    4.3164069    4.3164069    216.13214   -5639.3222    4720.4982    1567.2204   -7300.2691    1644.2503    871.23978    80.420566 
   96300    443.96256   -108.72859   0.40170666   -108.32688   -6529.0022    4.3201388    4.3201388    4.3201388   -6529.0022     329.5068   -11493.107   -8423.4061   -5713.9361    6341.5795   -9050.6522    80.629341 
   96400    536.46813   -108.80984   0.48540763   -108.32443     6996.908    4.3134129    4.3134129    4.3134129     6996.908    8844.5608    3754.9936    8391.1697    3432.3705   -5645.8093   -255.80429    80.253339 
   96500    319.02301   -108.61556   0.28865873    -108.3269    -2647.909    4.3205658    4.3205658    4.3205658    -2647.909   -5970.4469   -5981.0887    4007.8085   -5330.8827    4197.9371    1350.1831    80.653249 
   96600    269.88202   -108.57104   0.24419492   -108.32685    150.04743    4.3147701    4.3147701    4.3147701    150.04743    -5327.181    113.50428     5663.819   -1820.1701    1720.8603   -813.36914    80.329113 
   96700    500.73296   -108.77814    0.4530737   -108.32507   -365.90595    4.3175812    4.3175812    4.3175812   -365.90595   -11394.989    5891.6389    4405.6324    4141.6111   -199.78068    1373.5734    80.486223 
   96800    354.35431   -108.64847   0.32062723   -108.32785   -3618.4675     4.317527     4.317527     4.317527   -3618.4675   -3283.8997   -3950.7262   -3620.7765   -9657.0033    4862.3034    -2034.527    80.483192 
   96900    413.47989   -108.70174    0.3741253   -108.32762     541.3861    4.3155225    4.3155225    4.3155225     541.3861    710.78436   -3851.5418    4764.9158   -1953.9168    2418.0069   -5605.1195    80.371144 
   97000    521.58187   -108.79621   0.47193824   -108.32427    1215.4378    4.3200861    4.3200861    4.3200861    1215.4378    2720.7162   -4997.6454    5923.2427    3523.7429   -7047.4808    254.97696    80.626386 
   97100     269.8153   -108.57156   0.24413455   -108.32742    622.57575    4.3126382    4.3126382    4.3126382    622.57575   -8387.6895    408.23335    9847.1834   -8018.5515    5977.0925    848.82962    80.210105 
   97200    380.35938   -108.67071   0.34415716   -108.32655   -9177.1609     4.321759     4.321759     4.321759   -9177.1609   -14291.278   -7787.1233   -5453.0812   -709.92176    3240.8216   -8387.7285    80.720088 
   97300    491.91103   -108.76939   0.44509143    -108.3243    6302.0335       4.3131       4.3131       4.3131    6302.0335    8235.3866    894.52251    9776.1914   -781.42398    -1077.921    1336.0159    80.235875 
   97400    290.54454   -108.59119    0.2628908    -108.3283   -4031.0251    4.3179297    4.3179297    4.3179297   -4031.0251   -11880.218   -8103.3562    7890.4991   -5561.1867    6640.0835    -2785.538    80.505715 
   97500    406.44059   -108.69558   0.36775599   -108.32782    17.429147    4.3190427    4.3190427    4.3190427    17.429147    1432.1031   -2573.8602    1194.0445    2204.8859    800.30245   -684.88428    80.567981 
   97600    531.10795   -108.80512   0.48055763   -108.32456    5552.0272    4.3139325    4.3139325    4.3139325    5552.0272   -1708.8077    5351.6454    13013.244    1683.1113    1251.3922    3224.0604    80.282344 
   97700    317.71288   -108.61444   0.28747329   -108.32696   -7075.0834    4.3199464    4.3199464    4.3199464   -7075.0834   -11018.674   -5186.8209   -5019.7554   -8524.7656    7378.6772   -3513.2351    80.618567 
   97800    398.00285   -108.68522   0.36012135    -108.3251   -228.39422    4.3174386    4.3174386    4.3174386   -228.39422    969.42724   -6504.2183    4849.6084     1593.341   -16.516523   -9177.0976    80.478246 
   97900    413.12785   -108.69798   0.37380676   -108.32418    7568.6222    4.3135574    4.3135574    4.3135574    7568.6222    3882.6968   -1959.3088    20782.479   -373.95444   -4195.0905    2570.9401    80.261403 
   98000    308.01368   -108.60666   0.27869725   -108.32797   -8876.1807    4.3215384    4.3215384    4.3215384   -8876.1807   -18253.793   -1899.8358   -6474.9136   -4400.7397    6119.1085   -4065.9612    80.707729 
   98100    442.96822   -108.72739   0.40080696   -108.32658    5394.4207    4.3125227    4.3125227    4.3125227    5394.4207    3071.1872    5765.6514    7346.4235    3201.6042     515.3237   -4952.2899    80.203662 
   98200    540.85485   -108.81457   0.48937683   -108.32519   -1382.3786    4.3190279    4.3190279    4.3190279   -1382.3786   -4490.2668   -3078.2996    3421.4306   -3905.3726    1980.6381    2027.1391    80.567154 
   98300    312.80249   -108.61066   0.28303027   -108.32763    -4138.667    4.3184372    4.3184372    4.3184372    -4138.667   -10509.531   -8778.7512     6872.281   -5773.7563    7594.7819   -5967.9302    80.534101 
   98400    358.89462   -108.65093    0.3247354   -108.32619    5262.2117    4.3137931    4.3137931    4.3137931    5262.2117    12546.283   -3955.5262    7195.8788    3283.3846    -2239.296    252.10691    80.274561 
   98500    463.53045    -108.7441   0.41941209   -108.32469    -6031.182    4.3205635    4.3205635    4.3205635    -6031.182   -17548.493    2650.0816   -3195.1345   -47.559941    3400.2875    3998.5256     80.65312 
   98600    281.55294    -108.5821   0.25475502   -108.32735    1962.3105     4.314185     4.314185     4.314185    1962.3105   -10834.498    7304.7537    9416.6763   -4484.0042    7010.3854   -9571.7951    80.296441 
   98700    473.62796   -108.75449   0.42854853   -108.32594   -1539.4623    4.3184772    4.3184772    4.3184772   -1539.4623   -1354.7973    -6015.157    2751.5674    3060.1321    -3224.174   -7204.7321    80.536343 
   98800    458.77352   -108.74004   0.41510793   -108.32493     543.5292    4.3179577    4.3179577    4.3179577     543.5292   -3198.6896   -9512.8826     14342.16   -5744.3048   -187.42943    4472.6952    80.507278 
   98900    361.75665   -108.65361   0.32732502   -108.32629   -1461.2209    4.3145326    4.3145326    4.3145326   -1461.2209    2669.9969   -7283.4629    229.80321   -1454.4564    3848.9693   -9356.1877    80.315851 
   99000     390.8974   -108.67931   0.35369218   -108.32562   -3168.0941     4.320186     4.320186     4.320186   -3168.0941    207.90764   -7191.7683   -2520.4218    2704.9623    218.49946    863.41529    80.631981 
   99100    349.38029   -108.64158   0.31612663   -108.32545    5310.8834    4.3141094    4.3141094    4.3141094    5310.8834   -14658.016    4124.9033    26465.763   -4410.0399    1898.3468    868.84343     80.29222 
   99200    392.74226   -108.68272   0.35536145   -108.32736   -5716.7866    4.3177653    4.3177653    4.3177653   -5716.7866   -8187.2583   -7154.7724   -1808.3292   -2697.8131    5275.9277   -10047.992    80.496518 
   99300    436.87925   -108.72154   0.39529752   -108.32625   -2639.6244    4.3181807    4.3181807    4.3181807   -2639.6244    5701.8766   -11890.835   -1729.9149   -388.88115   -4829.8158    2519.9651    80.519754 
   99400    512.83297   -108.78865   0.46402205   -108.32463   -424.55138    4.3143778    4.3143778    4.3143778   -424.55138   -903.07351   -9177.0594    8806.4788   -2304.6518    4679.8242    4380.2185    80.307205 
   99500     297.6004   -108.59586   0.26927509   -108.32658   -293.66544    4.3208086    4.3208086    4.3208086   -293.66544    3391.5172   -9199.7637    4927.2501    797.37386    4064.6799   -15310.226    80.666846 
   99600    333.85822   -108.62732   0.30208193   -108.32524    5150.8126    4.3140137    4.3140137    4.3140137    5150.8126   -4975.8429    2644.6101    17783.671    3418.8197    -945.1222    1040.7001    80.286876 
   99700    446.79259   -108.72864   0.40426732   -108.32438   -4972.8713    4.3186446    4.3186446    4.3186446   -4972.8713   -13414.526    116.30824   -1620.3966   -4409.7896    1121.3527    1617.5846    80.545708 
   99800    407.68192   -108.69462   0.36887917   -108.32574   -4481.8856    4.3172002    4.3172002    4.3172002   -4481.8856   -1597.8455   -6585.7923   -5262.0191     1612.267   -192.36452   -9970.8067    80.464919 
   99900    424.60137   -108.71035   0.38418824   -108.32616    1892.3492    4.3150359    4.3150359    4.3150359    1892.3492     6587.279   -9173.2815      8263.05   -1102.7227   -421.13921    7883.1438    80.343962 
  100000     412.1285   -108.69856   0.37290253   -108.32565    870.56001    4.3198426    4.3198426    4.3198426    870.56001   -1249.1147   -5536.6634    9397.4582   -1380.0247   -493.20116   -2418.4055    80.612759 
Loop time of 22.2891 on 1 procs for 100000 steps with 8 atoms

Pair  time (%) = 7.25163 (32.5345)
Kspce time (%) = 5.30737 (23.8115)
Neigh time (%) = 0 (0)
Comm  time (%) = 1.05667 (4.74077)
Outpt time (%) = 0.0210049 (0.0942387)
Other time (%) = 8.65239 (38.819)

Nlocal:    8 ave 8 max 8 min
Histogram: 1 0 0 0 0 0 0 0 0 0
Nghost:    2189 ave 2189 max 2189 min
Histogram: 1 0 0 0 0 0 0 0 0 0
Neighs:    2344 ave 2344 max 2344 min
Histogram: 1 0 0 0 0 0 0 0 0 0

Total # of neighbors = 2344
Ave neighs/atom = 293
Neighbor list builds = 0
Dangerous builds = 0
seeds:664596
