    2    2    1    1
  0.9563318E+01  0.3001819E-09  0.3001820E-09  0.3001819E-09  0.5000000E-15
  1.000000000000000E-004
  CAR 
 automatically generated by pyflamestk   
      8     10     16
 
  0.1250000E+00  0.1250000E+00  0.1250000E+00  0.3125000E-01
    1      -13.574160   1.000000
    2        2.469363   1.000000
    3        3.315768   1.000000
    4        3.315769   1.000000
    5        8.833719   0.000000
    6       17.413190   0.000000
    7       19.429534   0.000000
    8       19.429537   0.000000
    9       23.679394   0.000000
   10       23.679398   0.000000
   11       25.018612   0.000000
   12       27.455716   0.000000
   13       28.886771   0.000000
   14       28.886775   0.000000
   15       39.151952   0.000000
   16       41.054820   0.000000
 
  0.3750000E+00  0.1250000E+00  0.1250000E+00  0.9375000E-01
    1      -12.915257   1.000000
    2        0.295980   1.000000
    3        2.453819   1.000000
    4        3.017149   1.000000
    5       11.250022   0.000000
    6       15.351477   0.000000
    7       18.763218   0.000000
    8       20.430898   0.000000
    9       22.251670   0.000000
   10       24.482470   0.000000
   11       26.600883   0.000000
   12       31.261803   0.000000
   13       32.535876   0.000000
   14       33.410811   0.000000
   15       35.780937   0.000000
   16       39.074677   0.000000
 
 -0.3750000E+00  0.1250000E+00  0.1250000E+00  0.9375000E-01
    1      -12.474294   1.000000
    2       -0.837904   1.000000
    3        2.302420   1.000000
    4        2.677473   1.000000
    5       11.837537   0.000000
    6       15.561924   0.000000
    7       18.052539   0.000000
    8       19.868798   0.000000
    9       23.858952   0.000000
   10       26.109085   0.000000
   11       26.204700   0.000000
   12       32.487537   0.000000
   13       33.084273   0.000000
   14       33.429391   0.000000
   15       36.011129   0.000000
   16       37.721755   0.000000
 
 -0.1250000E+00  0.1250000E+00  0.1250000E+00  0.9375000E-01
    1      -13.207306   1.000000
    2        1.185121   1.000000
    3        2.945310   1.000000
    4        2.949089   1.000000
    5       10.422443   0.000000
    6       15.592323   0.000000
    7       19.557403   0.000000
    8       20.038379   0.000000
    9       21.213405   0.000000
   10       25.058948   0.000000
   11       27.058603   0.000000
   12       30.156482   0.000000
   13       30.441516   0.000000
   14       31.194563   0.000000
   15       37.416033   0.000000
   16       39.179150   0.000000
 
  0.3750000E+00  0.3750000E+00  0.1250000E+00  0.9375000E-01
    1      -12.677311   1.000000
    2        0.109880   1.000000
    3        2.253393   1.000000
    4        2.486476   1.000000
    5       12.353343   0.000000
    6       13.995823   0.000000
    7       17.307032   0.000000
    8       20.937257   0.000000
    9       21.394320   0.000000
   10       27.239610   0.000000
   11       30.345666   0.000000
   12       30.613947   0.000000
   13       32.528026   0.000000
   14       35.019926   0.000000
   15       36.672469   0.000000
   16       38.088682   0.000000
 
 -0.3750000E+00  0.3750000E+00  0.1250000E+00  0.1875000E+00
    1      -12.261206   1.000000
    2       -0.008750   1.000000
    3        0.991952   1.000000
    4        2.074452   1.000000
    5       13.867802   0.000000
    6       14.906261   0.000000
    7       15.698343   0.000000
    8       19.711380   0.000000
    9       23.157435   0.000000
   10       26.610559   0.000000
   11       30.172922   0.000000
   12       31.595763   0.000000
   13       32.864551   0.000000
   14       36.538151   0.000000
   15       39.109727   0.000000
   16       41.329178   0.000000
 
 -0.1250000E+00  0.3750000E+00  0.1250000E+00  0.1875000E+00
    1      -12.520091   1.000000
    2       -0.211997   1.000000
    3        1.735059   1.000000
    4        2.575815   1.000000
    5       12.711358   0.000000
    6       14.905681   0.000000
    7       17.079314   0.000000
    8       20.274745   0.000000
    9       22.844370   0.000000
   10       25.518745   0.000000
   11       29.053586   0.000000
   12       31.844977   0.000000
   13       32.426660   0.000000
   14       35.091337   0.000000
   15       35.734682   0.000000
   16       41.236102   0.000000
 
 -0.3750000E+00 -0.3750000E+00  0.1250000E+00  0.9375000E-01
    1      -12.297925   1.000000
    2       -0.373396   1.000000
    3        1.734799   1.000000
    4        2.191654   1.000000
    5       12.942177   0.000000
    6       13.624311   0.000000
    7       16.149006   0.000000
    8       21.648047   0.000000
    9       21.659242   0.000000
   10       29.126259   0.000000
   11       29.558769   0.000000
   12       32.142035   0.000000
   13       32.856892   0.000000
   14       38.005084   0.000000
   15       38.386998   0.000000
   16       41.317980   0.000000
 
  0.3750000E+00  0.3750000E+00  0.3750000E+00  0.3125000E-01
    1      -12.713565   1.000000
    2       -0.567242   1.000000
    3        2.872799   1.000000
    4        2.872799   1.000000
    5       11.047533   0.000000
    6       15.567525   0.000000
    7       19.664326   0.000000
    8       19.664329   0.000000
    9       24.253837   0.000000
   10       24.594091   0.000000
   11       24.594094   0.000000
   12       32.107975   0.000000
   13       33.428276   0.000000
   14       33.428279   0.000000
   15       37.041832   0.000000
   16       37.041838   0.000000
 
 -0.3750000E+00  0.3750000E+00  0.3750000E+00  0.9375000E-01
    1      -12.345549   1.000000
    2       -0.250836   1.000000
    3        1.097979   1.000000
    4        2.545223   1.000000
    5       13.190442   0.000000
    6       15.364764   0.000000
    7       16.270507   0.000000
    8       20.586555   0.000000
    9       22.670055   0.000000
   10       25.695123   0.000000
   11       29.273762   0.000000
   12       31.815093   0.000000
   13       32.238040   0.000000
   14       35.576977   0.000000
   15       37.461425   0.000000
   16       40.335365   0.000000
