LAMMPS (11 Aug 2017)
Reading data file ...
  triclinic box = (0 0 0) to (2.8005 2.8005 2.8005) with tilt (0 0 0)
  1 by 1 by 1 MPI processor grid
  reading atoms ...
  2 atoms
2 atoms in group Ni
Neighbor list info ...
  update every 1 steps, delay 0 steps, check yes
  max neighbors/atom: 2000, page size: 100000
  master list distance cutoff = 5.64464
  ghost atom cutoff = 5.64464
  binsize = 2.82232, bins = 1 1 1
  1 neighbor lists, perpetual/occasional/extra = 1 0 0
  (1) pair eam/alloy, perpetual
      attributes: half, newton on
      pair build: half/bin/newton/tri
      stencil: half/bin/3d/newton/tri
      bin: standard
Setting up cg style minimization ...
  Unit style    : metal
  Current step  : 0
WARNING: Energy due to 3 extra global DOFs will be included in minimizer energies
Per MPI rank memory allocation (min/avg/max) = 4.24 | 4.24 | 4.24 Mbytes
Step PotEng Xhi Xlo Yhi Ylo Zhi Xy Xz Yz Press Pxx Pyy Pzz Pxy Pxz Pyz c_eatoms 
       0   -4.1036145       2.8005            0       2.8005            0       2.8005            0            0            0    53437.483    53437.483    53437.483    53437.483  0.014890575  0.014890575  0.014890575   -4.1036145 
      10   -4.1192947    2.8145025   -0.0140025    2.8145025   -0.0140025    2.8145025            0            0            0    22966.364    22966.364    22966.364    22966.364 0.0019454718 0.0019454718 0.0019454718   -4.1192947 
      20   -4.1234391    2.8267717 -0.026271663    2.8267717 -0.026271663    2.8267717            0            0            0    -2.780777    -2.780777    -2.780777    -2.780777 2.7286659e-11 2.4414379e-11 9.2391669e-11   -4.1234391 
      25   -4.1234391    2.8267701 -0.026270067    2.8267701 -0.026270067    2.8267701            0            0            0 2.6608571e-10 2.6999521e-10 2.5922413e-10 2.6903778e-10 7.1807238e-13 3.111647e-12 6.9413663e-12   -4.1234391 
Loop time of 0.000424147 on 1 procs for 25 steps with 2 atoms

100.0% CPU use with 1 MPI tasks x no OpenMP threads

Minimization stats:
  Stopping criterion = energy tolerance
  Energy initial, next-to-last, final = 
        -4.10361453274     -4.12343906494     -4.12343906494
  Force two-norm initial, final = 1.26883 6.55955e-15
  Force max component initial, final = 0.732559 3.84147e-15
  Final line search alpha, max atom move = 1 3.84147e-15
  Iterations, force evaluations = 25 32

MPI task timing breakdown:
Section |  min time  |  avg time  |  max time  |%varavg| %total
---------------------------------------------------------------
Pair    | 0.00016451 | 0.00016451 | 0.00016451 |   0.0 | 38.79
Neigh   | 0          | 0          | 0          |   0.0 |  0.00
Comm    | 6.0081e-05 | 6.0081e-05 | 6.0081e-05 |   0.0 | 14.17
Output  | 1.9789e-05 | 1.9789e-05 | 1.9789e-05 |   0.0 |  4.67
Modify  | 0          | 0          | 0          |   0.0 |  0.00
Other   |            | 0.0001798  |            |       | 42.38

Nlocal:    2 ave 2 max 2 min
Histogram: 1 0 0 0 0 0 0 0 0 0
Nghost:    339 ave 339 max 339 min
Histogram: 1 0 0 0 0 0 0 0 0 0
Neighs:    64 ave 64 max 64 min
Histogram: 1 0 0 0 0 0 0 0 0 0

Total # of neighbors = 64
Ave neighs/atom = 32
Neighbor list builds = 0
Dangerous builds = 0
pypospack:output_section:begin
tot_energy = -4.12343906494365
num_atoms = 2
a11 = 2.85304013403047
a22 = 2.85304013403047
a33 = 2.85304013403047
a12 = 0
a13 = 0
a23 = 0
tot_press = 2.66085708725112e-10
pxx = 2.69995213890788e-10
pyy = 2.59224128230251e-10
pzz = 2.69037784054296e-10
pxy = 7.18072377369117e-13
pxz = 3.11164696859951e-12
pyz = 6.94136631456813e-12
pypospack:output_section:done
pypospack:lammps_sim:done
Total wall time: 0:00:00
