LAMMPS (10 Feb 2015)
# ---- initialize simulations
clear
units metal
dimension 3
boundary p p p
atom_style charge
atom_modify map array
# ---- create atoms
read_data /Users/eugeneragasa/pyflamestk_git/pypospack/tests/tests_integration/workflow/WorkflowLammpsThermalExpansion/param_7521/MgO_NaCl_unit.npt.T700/lammps.structure
  triclinic box = (0 0 0) to (4.2565 4.2565 4.2565) with tilt (0 0 0)
  1 by 1 by 1 MPI processor grid
  reading atoms ...
  8 atoms
# ---- define interatomic potential
include potential.mod
mass 1 24.305
mass 2 15.999

group Mg type 1
4 atoms in group Mg
group O type 2
4 atoms in group O

set group Mg charge 1.63791250839
  4 settings made for charge
set group O charge -1.63791250839
  4 settings made for charge

variable R_cut equal 10.0

pair_style buck/coul/long ${R_cut}
pair_style buck/coul/long 10
pair_coeff 1 1 0.0 0.5 0.0 ${R_cut}
pair_coeff 1 1 0.0 0.5 0.0 10
pair_coeff 1 2 1465.92328509 0.282476486176 0.0 ${R_cut}
pair_coeff 1 2 1465.92328509 0.282476486176 0.0 10
pair_coeff 2 2 5816.20442115 0.096233749689 18.932341092 ${R_cut}
pair_coeff 2 2 5816.20442115 0.096233749689 18.932341092 10

kspace_style pppm 1.0e-5

neighbor 1.0 bin
neigh_modify every 1 delay 0 check yes
# ---- define settings
compute eng all pe/atom
compute eatoms all reduce sum c_eng
# ---- run minimization
reset_timestep 0
fix 1 all box/relax iso 0.0 vmax 0.001
thermo 10
thermo_style custom step pe lx ly lz xy xz yz press pxx pyy pzz pxy pxz pyz c_eatoms
min_style cg
minimize 1e-25 1e-25 5000 10000
PPPM initialization ...
  G vector (1/distance) = 0.35267
  grid = 8 8 8
  stencil order = 5
  estimated absolute RMS force accuracy = 3.88211e-05
  estimated relative force accuracy = 2.69597e-06
  using double precision FFTs
  3d grid and FFT values/proc = 3375 512
Neighbor list info ...
  1 neighbor list requests
  update every 1 steps, delay 0 steps, check yes
  master list distance cutoff = 11
Memory usage per processor = 4.06549 Mbytes
Step PotEng Lx Ly Lz Xy Xz Yz Press Pxx Pyy Pzz Pxy Pxz Pyz eatoms 
       0   -108.70031       4.2565       4.2565       4.2565            0            0            0    82041.316    82041.316    82041.316    82041.316 -4.6499549e-11 -1.1702618e-10 1.7098221e-10   -108.70031 
      10   -108.77917     4.299065     4.299065     4.299065            0            0            0    28384.418    28384.418    28384.418    28384.418 -2.893711e-10 1.1285336e-10 8.1895601e-11   -108.77917 
      19   -108.79132    4.3240425    4.3240425    4.3240425            0            0            0 -0.024351241 -0.024351241 -0.024351241 -0.024351241 1.5580285e-11 -3.1606067e-12 1.2588801e-10   -108.79132 
Loop time of 0.00964594 on 1 procs for 19 steps with 8 atoms

Minimization stats:
  Stopping criterion = linesearch alpha is zero
  Energy initial, next-to-last, final = 
        -108.700309346      -108.79131697      -108.79131697
  Force two-norm initial, final = 11.8468 7.13952e-05
  Force max component initial, final = 11.8468 1.5084e-05
  Final line search alpha, max atom move = 0.5 7.54202e-06
  Iterations, force evaluations = 19 24

Pair  time (%) = 0.00269103 (27.8981)
Kspce time (%) = 0.00193667 (20.0776)
Neigh time (%) = 0 (0)
Comm  time (%) = 0.000350952 (3.63834)
Outpt time (%) = 1.3113e-05 (0.135943)
Other time (%) = 0.00465417 (48.25)

Nlocal:    8 ave 8 max 8 min
Histogram: 1 0 0 0 0 0 0 0 0 0
Nghost:    2189 ave 2189 max 2189 min
Histogram: 1 0 0 0 0 0 0 0 0 0
Neighs:    2344 ave 2344 max 2344 min
Histogram: 1 0 0 0 0 0 0 0 0 0

Total # of neighbors = 2344
Ave neighs/atom = 293
Neighbor list builds = 0
Dangerous builds = 0
unfix 1
# ---- define output variables ----
variable natoms equal "count(all)"
variable tot_energy equal "c_eatoms"
variable length_x equal "lx"
variable length_y equal "ly"
variable length_z equal "lz"
variable tilt_xy equal "xy"
variable tilt_xz equal "xz"
variable tilt_yz equal "yz"
variable tot_press equal "press"
variable press_xx equal "pxx"
variable press_yy equal "pyy"
variable press_zz equal "pzz"
variable press_xy equal "pxy"
variable press_xz equal "pxz"
variable press_yz equal "pyz"

# ---- output ----
print "pypospack:output_section:begin"
pypospack:output_section:begin
print "tot_energy = ${tot_energy}"
tot_energy = -108.791316969709
print "num_atoms = ${natoms}"
num_atoms = 8
print "xx = ${length_x}"
xx = 4.32404254484564
print "yy = ${length_y}"
yy = 4.32404254484564
print "zz = ${length_z}"
zz = 4.32404254484564
print "xy = ${tilt_xy}"
xy = 0
print "xz = ${tilt_xz}"
xz = 0
print "yz = ${tilt_yz}"
yz = 0
print "tot_press = ${tot_press}"
tot_press = -0.0243512411551094
print "pxx = ${press_xx}"
pxx = -0.0243512413415371
print "pyy = ${press_yy}"
pyy = -0.0243512409516822
print "pzz = ${press_zz}"
pzz = -0.024351241172109
print "pxy = ${press_xy}"
pxy = 1.55802849425254e-11
print "pxz = ${press_xz}"
pxz = -3.16060668162342e-12
print "pyz = ${press_yz}"
pyz = 1.25888006757422e-10
print "pypospack:output_section:done"
pypospack:output_section:done
print "pypospack:lammps_sim:done"
pypospack:lammps_sim:done
#------------------------------------------------------------------------------
# RUN THERMOSTAT
# running using an NPT Nose-Hoover style thermostat
#------------------------------------------------------------------------------
variable tempdamp equal 0.1
variable pressdamp equal 1.0
# set initial velocities
velocity all create 700 4732401 mom yes dist gaussian loop all
# fix for Nose-Hoover style thermostat
fix 20 all npt temp 700 700 0.1 aniso 0.0 0.0 1.0 drag 1.0 couple xyz
variable boxx equal lx
variable boxy equal ly
variable boxz equal lz
variable boxp equal press
variable boxt equal temp
# calculate averages every 10000 steps
reset_timestep 0
fix 21 all ave/time 10 10 100 v_boxx v_boxy v_boxz v_boxp v_boxt file lattice.out
thermo_style custom step temp pe ke etotal press lx ly lz press pxx pyy pzz pxy pxz pyz vol
thermo_modify flush yes
thermo 100
run 100000
PPPM initialization ...
  G vector (1/distance) = 0.351996
  grid = 8 8 8
  stencil order = 5
  estimated absolute RMS force accuracy = 4.00454e-05
  estimated relative force accuracy = 2.781e-06
  using double precision FFTs
  3d grid and FFT values/proc = 3375 512
Memory usage per processor = 3.06549 Mbytes
Step Temp PotEng KinEng TotEng Press Lx Ly Lz Press Pxx Pyy Pzz Pxy Pxz Pyz Volume 
       0          700   -108.79133   0.63337471   -108.15795    8365.9749    4.3240425    4.3240425    4.3240425    8365.9749    8968.5126    3134.1002    12995.312   -102.73532    2986.5178    2663.6407    80.848111 
     100    156.46913   -108.21463   0.14157656   -108.07306    522.05847    4.3479883    4.3479883    4.3479883    522.05847   -12645.004   -11308.276    25519.456   -241.34322    9358.6253   -3240.1619    82.198726 
     200    581.39707   -108.42341   0.52606029   -107.89735   -17143.574    4.3488802    4.3488802    4.3488802   -17143.574   -31138.379   -8097.7031   -12194.639   -2588.4286    7309.5549    2695.3828    82.249322 
     300    474.65249   -108.18153   0.42947555   -107.75206    17406.548    4.3409564    4.3409564    4.3409564    17406.548   -6469.3863   -3753.3824    62442.412    1408.4751   -2092.9815    -1439.947    81.800556 
     400    637.00342   -108.21047   0.57637408   -107.63409   -19982.042    4.3589631    4.3589631    4.3589631   -19982.042   -39761.834    4469.6888    -24653.98   -1342.3921    16408.726     3042.535    82.822737 
     500    758.11991   -108.23993   0.68596283   -107.55396    11316.002      4.35223      4.35223      4.35223    11316.002   -9605.1063   -11474.017    55027.129   -756.63342   -2311.1468    -359.3091    82.439529 
     600    554.83233   -108.02402   0.50202395   -107.52199   -12046.316    4.3569739    4.3569739    4.3569739   -12046.316   -45864.688    5102.9296    4622.8103    568.07563    16170.045   -3856.2005    82.709401 
     700    596.67712   -108.05122     0.539886   -107.51133    6525.5366    4.3516595    4.3516595    4.3516595    6525.5366   -6628.3377    3589.8042    22615.143   -1908.1939    14800.937    4942.7736    82.407119 
     800    937.26059   -108.35842   0.84805307   -107.51036    108.35162    4.3601257    4.3601257    4.3601257    108.35162    -22453.03   -18804.738    41582.823     2843.806   -461.29676    1739.6525    82.889024 
     900     500.3109   -107.97058   0.45269182   -107.51789    5482.7875    4.3510176    4.3510176    4.3510176    5482.7875   -11637.199    5250.6212    22834.941   -2226.3674    21999.382    5295.2451    82.370654 
    1000    867.39608    -108.3028    0.7848382   -107.51796   -3186.1884    4.3520137    4.3520137    4.3520137   -3186.1884   -24396.266    -8961.133    23798.834    3052.5704   -2802.5351   -4010.9074    82.427243 
    1100    591.16459   -108.05704   0.53489815   -107.52214   -13303.542    4.3642394    4.3642394    4.3642394   -13303.542   -33678.631   -25389.218    19157.225   -467.67351    8681.1488   -1414.5063    83.123861 
    1200    632.37631   -108.09378   0.57218737    -107.5216     8753.455    4.3449642    4.3449642    4.3449642     8753.455   -11972.478    2138.8675    36093.975   -2430.1489    16338.871    4524.1197    82.027335 
    1300     1020.929   -108.44229   0.92375799   -107.51853   -9362.6307    4.3557301    4.3557301    4.3557301   -9362.6307    -20538.07   -10884.037    3334.2149    1498.7333   -5500.8148    953.28385    82.638586 
    1400    447.82354   -107.92755   0.40520015   -107.52235   -16703.995    4.3663773    4.3663773    4.3663773   -16703.995   -53403.348   -14732.205    18023.566   -3663.8334    19970.581   -2951.0439    83.246079 
    1500    651.93957   -108.10786   0.58988863   -107.51797    20565.765    4.3405798    4.3405798    4.3405798    20565.765    5548.8129    25072.819    31075.663   -3283.0444    2973.3511    336.20836    81.779272 
    1600    886.48746   -108.32621   0.80211248    -107.5241   -10182.065    4.3584891    4.3584891    4.3584891   -10182.065   -21749.097   -13302.962    4505.8653   -305.98441    4530.6188    6386.5606    82.795719 
    1700    521.64833   -107.99411   0.47199838   -107.52211   -7965.2969    4.3640416    4.3640416    4.3640416   -7965.2969    -32264.16    4849.1926    3519.0767   -3585.5102    15448.396    401.07168    83.112557 
    1800    648.27676   -108.09727   0.58657443   -107.51069    32730.623    4.3380942    4.3380942    4.3380942    32730.623    12885.051    16665.237    68641.581   -4148.3168   -7239.5276    8597.2646     81.63886 
    1900    773.79434   -108.21715   0.70014538   -107.51701    -29225.85    4.3687236    4.3687236    4.3687236    -29225.85    -41241.26   -16353.211    -30083.08    497.06861    9697.8193   -5325.6541    83.380351 
    2000    563.41004   -108.01956   0.50978525   -107.50978    25260.584      4.35139      4.35139      4.35139    25260.584    5708.6428    6484.9499    63588.159   -3618.1349    4304.0628    4899.9132    82.391804 
    2100    908.53645   -108.33138   0.82206287   -107.50931   -12970.387    4.3504591    4.3504591    4.3504591   -12970.387   -28713.232    1752.6044   -11950.535    676.41627    3358.8822    671.02821    82.338938 
    2200    425.12491   -107.90087   0.38466195   -107.51621   -6561.8585    4.3622958    4.3622958    4.3622958   -6561.8585   -39742.384   -13560.954    33617.763   -1623.2668    15673.482     1287.784    83.012853 
    2300     935.3543   -108.35655   0.84632823   -107.51022    6068.5601    4.3498987    4.3498987    4.3498987    6068.5601   -8250.1837    19985.853    6470.0106    2286.9525   -39.814626    1885.0271    82.307122 
    2400    577.51736   -108.03935   0.52254984    -107.5168   -7834.8455    4.3570891    4.3570891    4.3570891   -7834.8455    -19839.68   -12648.196    8983.3402   -538.09468    11428.287     -3316.56    82.715964 
    2500    816.04079   -108.25257   0.73837085    -107.5142   -10850.432    4.3582678    4.3582678    4.3582678   -10850.432   -31259.284    14942.341   -16234.353    1455.0055    1238.4944   -1170.7385    82.783108 
    2600    413.24793    -107.8931   0.37391541   -107.51919    16630.151    4.3502775    4.3502775    4.3502775    16630.151    9031.8411   -2976.5854    43835.198    434.99318   -3392.7065    9982.1308    82.328632 
    2700    872.99168   -108.31288   0.78990121   -107.52298   -13612.796     4.353371     4.353371     4.353371   -13612.796   -25968.241   -10205.804   -4664.3437    2241.3773    3331.8837   -1002.6404    82.504386 
    2800    695.42677    -108.1486   0.62923676   -107.51936    7711.4274    4.3619767    4.3619767    4.3619767    7711.4274    6440.9507   -5406.4146    22099.746   -173.41562   -993.63295   -227.99853    82.994636 
    2900     699.1515   -108.14807   0.63260697   -107.51546   -8335.8277    4.3467144    4.3467144    4.3467144   -8335.8277   -28611.855     4594.958   -990.58594   -408.56233    3596.7379    4663.2284    82.126503 
    3000    519.43814   -107.98949   0.46999855   -107.51949   -633.59464    4.3580236    4.3580236    4.3580236   -633.59464   -28827.792   -2070.0941    28997.102   -458.00056    9582.9493   -489.74333    82.769198 
    3100    954.20472   -108.37379   0.86338449    -107.5104   -10758.955    4.3608975    4.3608975    4.3608975   -10758.955   -23465.719    5522.2431   -14333.391   -2600.6533    -46.57981    6695.1434    82.933048 
    3200    574.15808   -108.03062    0.5195103   -107.51111    9460.8517    4.3429833    4.3429833    4.3429833    9460.8517   -3937.6312    3330.6436    28989.543   -1147.0833    13044.266    869.05801    81.915197 
    3300    746.39551   -108.18908   0.67535434   -107.51372   -14206.757     4.364862     4.364862     4.364862   -14206.757    -42849.92    5761.4573   -5531.8079   -7932.7489    942.21448    -1033.861    83.159437 
    3400    488.42362   -107.95634   0.44193596    -107.5144    16839.393    4.3494601    4.3494601    4.3494601    16839.393    12441.365    17196.314    20880.501    3386.3596   -2894.2247    769.40721     82.28223 
    3500    929.56569   -108.35648   0.84109057   -107.51539   -9077.8531    4.3528784    4.3528784    4.3528784   -9077.8531   -14358.422   -224.53822   -12650.599   -6952.8624     13447.03     5217.979    82.476384 
    3600     647.5889   -108.09836   0.58595204    -107.5124    6561.0014    4.3619968    4.3619968    4.3619968    6561.0014    6835.3679    15998.912   -3151.2757    4513.1564   -11112.308   -4289.4649    82.995784 
    3700    608.87196   -108.06032   0.55092014    -107.5094   -1008.4462    4.3482087    4.3482087    4.3482087   -1008.4462   -15549.205    5661.0383    6862.8277    1680.7189    8563.3036    438.69708    82.211227 
    3800    580.98631   -108.03791   0.52568862   -107.51222   -4088.3728    4.3612948    4.3612948    4.3612948   -4088.3728   -21299.455    4008.3833    5025.9534    3061.5051    282.84237   -4589.8564    82.955719 
    3900    942.28897   -108.36212   0.85260286   -107.50952    -6834.495    4.3542818    4.3542818    4.3542818    -6834.495    -10055.31    5820.1027   -16268.278    6353.4844   -2901.2097   -3819.8625     82.55618 
    4000    621.17449   -108.07731   0.56205173   -107.51525    -2220.389    4.3510993    4.3510993    4.3510993    -2220.389   -14143.831    1515.0512    5967.6125    349.93307    13013.233    7869.1129    82.375293 
    4100    722.79608   -108.16937   0.65400108   -107.51537    -15411.76    4.3597873    4.3597873    4.3597873    -15411.76   -37584.801     7121.152   -15771.631   -228.28533   -8880.9525   -6906.5457    82.869725 
    4200    528.39116   -107.99351   0.47809943   -107.51541    239.74969    4.3568514    4.3568514    4.3568514    239.74969    -4313.683    134.73017    4898.2019    1108.2425    10102.947    4144.0946    82.702426 
    4300     829.3963   -108.26042   0.75045521   -107.50996    2334.2537    4.3512019    4.3512019    4.3512019    2334.2537    1112.2489    14240.468    -8349.956   -1240.1752    178.82475    597.14555    82.381122 
    4400    711.67141   -108.15591   0.64393525   -107.51197    1082.9006    4.3555009    4.3555009    4.3555009    1082.9006    7545.2325    -5265.419     968.8882    5605.8076   -5784.6038   -601.00931    82.625542 
    4500    523.55438   -107.98676     0.473723   -107.51304   -5467.3277    4.3608473    4.3608473    4.3608473   -5467.3277   -14324.499    21860.257    -23937.74   -5938.2052    13271.301    6753.4972    82.930189 
    4600    834.01024   -108.26458   0.75462999   -107.50995    4133.6051    4.3473629    4.3473629    4.3473629    4133.6051   -2237.4731   -1573.9139    16212.202    1701.4093   -7139.0623   -2622.3243    82.163265 
    4700     655.4898   -108.11305   0.59310095   -107.51995   -470.40475    4.3589564    4.3589564    4.3589564   -470.40475   -13534.322    14807.128   -2684.0202    923.41696     10134.59   -3810.5185    82.822356 
    4800    784.43579   -108.22237   0.70977399    -107.5126   -11594.437    4.3605946    4.3605946    4.3605946   -11594.437   -26447.897    4048.7612   -12384.176   -7641.2257    10769.368   -5937.7896    82.915767 
    4900    662.87886   -108.10649   0.59978673   -107.50671    3000.2124     4.345148     4.345148     4.345148    3000.2124   -15764.397    9572.6986    15192.336    4261.2262   -5252.3806   -841.16256    82.037746 
    5000    573.57572   -108.03423   0.51898337   -107.51524   -7332.0006    4.3627417    4.3627417    4.3627417   -7332.0006   -16464.067    17943.025    -23474.96   -2428.8186    13847.521   -2279.3004    83.038308 
    5100    995.82469   -108.41339   0.90104311   -107.51235    1126.9706    4.3542552    4.3542552    4.3542552    1126.9706    2164.5087    -20074.34    21290.743    -984.5589   -1876.7084    1638.7374    82.554666 
    5200    455.55094   -107.93168   0.41219206   -107.51948    19713.558    4.3479873    4.3479873    4.3479873    19713.558    7685.5555     29617.97     21837.15   -1881.4173   -3653.3537   -8107.9396    82.198674 
    5300     697.9206   -108.14605   0.63149323   -107.51456   -16143.206    4.3647367    4.3647367    4.3647367   -16143.206   -28414.264   -3545.3201   -16470.034    5723.7364    14496.862   -1106.3963    83.152277 
    5400    755.93235   -108.19284   0.68398347   -107.50886    9178.9088    4.3476379    4.3476379    4.3476379    9178.9088     6464.815    13308.464    7763.4475   -7838.6736   -9115.4537    2625.4681    82.178859 
    5500    686.83397   -108.13822   0.62146181   -107.51676   -2269.6209    4.3535728    4.3535728    4.3535728   -2269.6209   -21410.055    26640.369   -12039.176    1789.4365    11213.682   -1474.7991    82.515861 
    5600    819.81361   -108.25159   0.74178458    -107.5098   -9809.3361    4.3642052    4.3642052    4.3642052   -9809.3361   -13928.809   -8450.3207    -7048.879    1908.2145    8841.2417     5223.103    83.121907 
    5700    578.13656   -108.03323   0.52311011   -107.51012    9543.2743    4.3457859    4.3457859    4.3457859    9543.2743   -17131.778    40469.567    5292.0344   -5572.4824   -5131.7608   -5783.6495    82.073883 
    5800     583.9578   -108.04623   0.52837729   -107.51785   -5084.7931    4.3577774    4.3577774    4.3577774   -5084.7931   -6807.8187    3721.3817   -12167.942    1163.3964    13909.125   -1443.9617    82.755169 
    5900    1003.6227   -108.41789   0.90809888   -107.50979     3919.944    4.3548633    4.3548633    4.3548633     3919.944    -4153.314    28065.324   -12152.178   -930.33425     -3726.01    1365.2024    82.589262 
    6000     471.9457   -107.94249   0.42702638   -107.51547   -1386.9018    4.3526449    4.3526449    4.3526449   -1386.9018    -12976.88    13218.404   -4402.2295   -866.29729    7146.3681   -5736.2543    82.463111 
    6100    672.09313   -108.11883   0.60812399   -107.51071   -4355.4037     4.354071     4.354071     4.354071   -4355.4037   -32492.835    33335.139   -13908.515   -2102.4303    7173.6443    2262.4827    82.544191 
    6200    788.78821   -108.22846   0.71371215   -107.51475   -11207.622    4.3588766    4.3588766    4.3588766   -11207.622   -24441.692   -5983.4094   -3197.7632    6068.2678   -5891.0402   -1438.1099    82.817805 
    6300    615.66297   -108.07819   0.55706479   -107.52112   -8698.7259    4.3519578    4.3519578    4.3519578   -8698.7259   -15829.015    14575.475   -24842.637   -805.64643    15774.506   -10666.123    82.424065 
    6400    824.23056   -108.26067   0.74578113   -107.51489     6971.684    4.3491009    4.3491009    4.3491009     6971.684   -13484.497     26199.15    8200.3981    2520.6068   -1829.0767    4485.8881    82.261847 
    6500    565.43426   -108.02851   0.51161681   -107.51689   -28139.161    4.3692038    4.3692038    4.3692038   -28139.161   -50174.915    34.168026   -34276.736   -1279.2278    10265.308   -42.882522    83.407846 
    6600    633.84608   -108.08339   0.57351725   -107.50987    22916.612    4.3405574    4.3405574    4.3405574    22916.612    5992.3375    50902.714    11854.785   -7132.4974    10452.565    107.92276    81.778006 
    6700    898.17674   -108.32894   0.81268919   -107.51625   -11079.929    4.3575566    4.3575566    4.3575566   -11079.929   -19924.754    1406.3573   -14721.391   -463.49075    4037.0186    3787.5547     82.74259 
    6800    360.37827   -107.84131   0.32607783   -107.51523   -11086.623    4.3640408    4.3640408    4.3640408   -11086.623   -36556.987    26731.853   -23434.735   -4031.9123    18461.422   -243.54676     83.11251 
    6900    883.58982   -108.30141   0.79949064   -107.50192     14269.15    4.3339615    4.3339615    4.3339615     14269.15   -197.35481    24158.934    18845.871   -145.31777   -3675.1866   -7604.7503    81.405762 
    7000    631.96071   -108.09132   0.57181133   -107.51951   -31517.858    4.3679213    4.3679213    4.3679213   -31517.858   -47365.783   -3510.4774   -43677.313   -5.1137274    17228.076    6551.1347     83.33442 
    7100    756.95321   -108.19659   0.68490717   -107.51168   -252.28002    4.3534681    4.3534681    4.3534681   -252.28002   -11038.187       7958.3    2323.0474    1174.7659    5004.2068   -7924.8242    82.509905 
    7200    725.51125   -108.16273   0.65645783   -107.50627    6008.2301    4.3410829    4.3410829    4.3410829    6008.2301   -16843.377    40289.027   -5420.9599    8370.6029    -654.4898   -5168.0643     81.80771 
    7300    441.71354   -107.91444   0.39967169   -107.51477   -17579.575    4.3668751    4.3668751    4.3668751   -17579.575   -49317.962     12733.52   -16154.283    411.65411    15672.441    -2155.567    83.274551 
    7400    831.45901   -108.25963   0.75232159   -107.50731     12661.98    4.3487213    4.3487213    4.3487213     12661.98    9798.4157    35250.176   -7062.6522    7532.8296   -7114.1934   -8736.9305    82.240306 
    7500    744.48551   -108.19055   0.67362613   -107.51692   -19924.674    4.3537228    4.3537228    4.3537228   -19924.674   -27859.533    4531.5004   -36445.988   -3289.1391     17114.16    4636.1431    82.524388 
    7600    740.48561   -108.18761   0.67000694   -107.51761   -4004.0377    4.3553921    4.3553921    4.3553921   -4004.0377   -9433.3326     7082.601   -9661.3814   -5219.1266    179.27688   -1481.5337    82.619349 
    7700    662.05662    -108.1149   0.59904274   -107.51586    8993.2189    4.3455497    4.3455497    4.3455497    8993.2189   -15124.625    54459.295   -12355.013   -4290.0464    5512.9913    996.43457      82.0605 
    7800    561.73831   -108.02697   0.50827263    -107.5187   -15329.438    4.3621424    4.3621424    4.3621424   -15329.438    -35572.44    12394.841   -22810.713    3115.5971    10757.135   -1464.0439    83.004095 
    7900     956.3831   -108.37195   0.86535553    -107.5066    12703.503     4.344517     4.344517     4.344517    12703.503    11600.051    21332.627    5177.8325    875.56325   -3324.7491    7903.9358    82.002012 
    8000    568.35841   -108.02953   0.51426263   -107.51527   -17193.292    4.3544181    4.3544181    4.3544181   -17193.292    -38459.95    15835.192   -28955.116    583.99123    22791.411   -5905.3761    82.563936 
    8100    631.14556   -108.08387   0.57107377    -107.5128   -7446.6783    4.3570256    4.3570256    4.3570256   -7446.6783    -20297.29    11056.652   -13099.397   -424.03254   -2547.4948    9814.6111    82.712347 
    8200    800.58726   -108.23186   0.72438818   -107.50747    12655.406    4.3424019    4.3424019    4.3424019    12655.406    15723.276     36725.02   -14482.076    2407.6298    11318.578    814.81788    81.882305 
    8300    565.63384   -108.02727   0.51179738   -107.51547   -21611.638    4.3640721    4.3640721    4.3640721   -21611.638   -33652.683     16453.66   -47635.891   -4694.7448    14455.591   -552.48699    83.114298 
    8400    824.19599   -108.25233   0.74574985   -107.50658    10910.493    4.3467569    4.3467569    4.3467569    10910.493    16558.258    8234.5633    7938.6591    7812.9614   -7099.8088    6750.7522     82.12891 
    8500     663.5361   -108.11303   0.60038141   -107.51265    -15660.78     4.351406     4.351406     4.351406    -15660.78   -35272.427    17508.817   -29218.729    -2401.182    21981.597   -3079.8243    82.392718 
    8600    611.20036   -108.06608   0.55302693   -107.51305   -7823.1821    4.3569825    4.3569825    4.3569825   -7823.1821    -15654.07    5329.3321   -13144.808    787.44719   -1304.5788    4457.7243    82.709893 
    8700    847.66634   -108.27517   0.76698631   -107.50818    1635.6386    4.3466437    4.3466437    4.3466437    1635.6386    2031.1769    17665.112   -14789.373    -5832.529     4783.062    1782.5619     82.12249 
    8800    451.57386   -107.92294   0.40859352   -107.51435   -11127.684    4.3570423    4.3570423    4.3570423   -11127.684   -35747.806    33935.145   -31570.391    4550.1851    11386.745    1544.8254    82.713297 
    8900    885.83216   -108.31015   0.80151956   -107.50863   -1584.9286    4.3495978    4.3495978    4.3495978   -1584.9286    10104.368   -9082.1151    -5777.039   -9219.1219   -7465.6047    8268.0031    82.290047 
    9000    630.69156   -108.08541   0.57066297   -107.51475   -6205.9145     4.355312     4.355312     4.355312   -6205.9145   -19281.199    27716.466    -27053.01    4151.1337    15619.152   -2802.6747    82.614792 
    9100    777.54436   -108.21734   0.70353848    -107.5138   -7962.9763    4.3497775    4.3497775    4.3497775   -7962.9763    132.16239   -3943.3458   -20077.745   -3099.0076   -6734.2043    9262.7431    82.300242 
    9200    633.80303   -108.08819    0.5734783   -107.51471    7450.2445    4.3480067    4.3480067    4.3480067    7450.2445   -8094.2941    28381.658    2063.3692     1418.606    5534.1027    1284.9243    82.199774 
    9300    577.74308   -108.03746   0.52275408   -107.51471    -19403.72    4.3617659    4.3617659    4.3617659    -19403.72   -38564.848    16182.247   -35828.559   -2031.6373    13247.008     6553.875    82.982602 
    9400    783.42185   -108.21932   0.70885655   -107.51046    11337.359    4.3420827    4.3420827    4.3420827    11337.359    14416.107    8452.9289     11143.04    3264.9589   -11957.337    863.65306    81.864248 
    9500    742.48509    -108.1896   0.67181611   -107.51778   -12341.997    4.3586447    4.3586447    4.3586447   -12341.997   -10184.068    10539.279   -37381.203    1175.6024    23677.564     184.4323    82.804588 
    9600    776.00845   -108.21569   0.70214876   -107.51354   -3454.5836    4.3525006    4.3525006    4.3525006   -3454.5836    3037.0846    1727.1102   -15127.946    3670.9494    -1638.631   -3228.8765    82.454911 
    9700    528.87963   -107.99187    0.4785414   -107.51333    10875.196    4.3458069    4.3458069    4.3458069    10875.196   -329.75276     38406.75   -5451.4109    2622.3448      31.3146    4284.6551    82.075075 
    9800    750.39096   -108.19204   0.67896951   -107.51307   -14869.087    4.3585951    4.3585951    4.3585951   -14869.087   -19527.656    8293.0794   -33372.684   -2649.7648    16040.946   -4767.2826     82.80176 
    9900    696.44466   -108.14112   0.63015776   -107.51096    5251.5757     4.348566     4.348566     4.348566    5251.5757      5575.97    12710.703   -2531.9458    2574.6205   -11202.178   -937.39432    82.231499 
   10000    781.55071   -108.21965   0.70716351   -107.51248   -10330.841    4.3506059    4.3506059    4.3506059   -10330.841   -8338.0617   -5555.1927   -17099.269   -5166.9605    8462.4639   -874.22217    82.347275 
   10100    677.79588   -108.12807   0.61328396   -107.51479   -3300.3528    4.3563364    4.3563364    4.3563364   -3300.3528   -21540.931    20956.964   -9317.0917    5425.5174   -4207.2159     754.6086      82.6731 
   10200    596.57503   -108.05376   0.53979362   -107.51397    7846.8178    4.3506568    4.3506568    4.3506568    7846.8178    12455.726    23184.465   -12099.738   -4856.6582   -4076.2164    6412.8815    82.350167 
   10300    817.75171   -108.25247   0.73991893   -107.51255     312.4581    4.3468158    4.3468158    4.3468158     312.4581   -1130.2091    21043.197   -18975.614    663.57247    8090.6074    4882.7725    82.132249 
   10400     673.4971   -108.12429   0.60939433   -107.51489   -2707.2886    4.3575717    4.3575717    4.3575717   -2707.2886    10948.828   -2589.3096   -16481.385   -1691.3881   -11384.052    912.25841     82.74345 
   10500    675.43391   -108.12762    0.6111468   -107.51647   -10619.058    4.3511094    4.3511094    4.3511094   -10619.058   -16319.332    -468.9415   -15068.902    5909.3394    9194.0049    5854.4228     82.37587 
   10600    722.00724   -108.16891   0.65328732   -107.51562   -76.322248     4.351197     4.351197     4.351197   -76.322248   -10329.047    18165.616   -8065.5354     83.72209   -3694.9911   -6536.3423    82.380844 
   10700    744.23006   -108.18847     0.673395   -107.51508   -8205.6145     4.358053     4.358053     4.358053   -8205.6145   -12461.706    8995.6143   -21150.752    4108.9538   -8148.7674    7481.7069    82.770871 
   10800    622.45586   -108.07406   0.56321114   -107.51085    14731.439    4.3424197    4.3424197    4.3424197    14731.439    16354.499    30999.335    -3159.517   -8290.7235    16000.916    469.65766    81.883311 
   10900       724.99    -108.1691   0.65598619   -107.51311   -6556.7736    4.3579753    4.3579753    4.3579753   -6556.7736   -2609.4606   -1454.5636   -15606.297   -1980.4582   -12963.286   -3210.9949    82.766443 
   11000    626.82583   -108.07997   0.56716518    -107.5128   -7323.0595    4.3561459    4.3561459    4.3561459   -7323.0595    2367.4335   -4100.6674   -20235.945   -5816.1653    6768.2313    4779.4199    82.662258 
   11100    698.12191   -108.14434   0.63167538   -107.51267    9837.4513    4.3453096    4.3453096    4.3453096    9837.4513    6196.9531    26258.445   -2943.0445    1691.7843    1648.8856   -3238.9258    82.046897 
   11200    918.46812   -108.34783   0.83104926   -107.51678   -15271.638    4.3545409    4.3545409    4.3545409   -15271.638   -15662.196   -5590.1204   -24562.599    350.80166   -15851.906     3075.051    82.570922 
   11300    469.52321   -107.94326   0.42483447   -107.51843    12435.454    4.3519516    4.3519516    4.3519516    12435.454   -5455.5475    36836.554    5925.3565    3991.1107    11389.582    5215.9585     82.42371 
   11400    743.56461   -108.18623   0.67279289   -107.51344   -5686.4249    4.3560288    4.3560288    4.3560288   -5686.4249   -7475.4837    6190.4643   -15774.255   -3461.7454   -8143.4253    4137.0978    82.655591 
   11500    612.91797   -108.06627   0.55458106   -107.51169    8771.0423    4.3497838    4.3497838    4.3497838    8771.0423    24685.714    9114.1531   -7486.7404    8553.2278   -1267.3139     22.77948    82.300604 
   11600     885.9031   -108.31079   0.80158374   -107.50921   -1970.1658    4.3530688    4.3530688    4.3530688   -1970.1658   -7916.7599    6227.8182   -4221.5557    5296.5431     5314.593    6397.2506    82.487205 
   11700    640.46447   -108.09104   0.57950571   -107.51153   -7139.4427    4.3572751    4.3572751    4.3572751   -7139.4427    7408.0207   -5870.1312   -22956.218   -249.36534   -15870.141   -5488.4256    82.726556 
   11800     663.7734   -108.11193   0.60059612   -107.51133     6933.413     4.343502     4.343502     4.343502     6933.413   -3861.3909    23277.388    1384.2415    6921.8848    6602.6561    6644.6611    81.944549 
   11900    720.14185   -108.16888   0.65159948   -107.51728   -13049.502    4.3627886    4.3627886    4.3627886   -13049.502    -12677.78    4233.9027    -30704.63     -10207.1   -10637.945   -1834.9236     83.04099 
   12000    751.06695   -108.19775   0.67958116   -107.51817    5731.8024    4.3462361    4.3462361    4.3462361    5731.8024    18198.969    9317.8952   -10321.457    3496.2999   -6988.6886    3179.6765    82.099391 
   12100    885.50309   -108.32056   0.80122181   -107.51933    180.98758    4.3499346    4.3499346    4.3499346    180.98758    6408.1337   -4911.8634   -953.30758   -1780.4034     5355.794    2306.9898     82.30916 
   12200    508.23635   -107.97949   0.45986293   -107.51963   -8270.0159    4.3613412    4.3613412    4.3613412   -8270.0159   -8572.7791     3075.316   -19312.585     4498.962    -21789.69   -1989.6889    82.958365 
   12300    717.12403   -108.15919   0.64886889   -107.51032    15581.127    4.3389225    4.3389225    4.3389225    15581.127    37723.272    2809.4427    6210.6654   -6380.9881     4193.998    1743.3661    81.685635 
   12400    755.03986   -108.19696   0.68317593   -107.51378   -17693.434    4.3636853    4.3636853    4.3636853   -17693.434   -20641.361   -2787.8646   -29651.077    5000.9964   -9325.9836     628.3283    83.092204 
   12500    757.94679    -108.1965   0.68580618   -107.51069   -1460.7962    4.3460659    4.3460659    4.3460659   -1460.7962    3706.4179    10425.295   -18514.102   -6257.1235   -12225.569    1523.4994    82.089751 
   12600    657.09245   -108.10861   0.59455106   -107.51406    499.94034    4.3532535    4.3532535    4.3532535    499.94034    663.51283     8905.261   -8068.9528     276.3411     3873.969    3927.7638    82.497708 
   12700    565.62444    -108.0254   0.51178888   -107.51361   -20946.086    4.3595853    4.3595853    4.3595853   -20946.086   -21386.067   -44.009692   -41408.182     1771.175   -24039.677    4526.4259    82.858209 
   12800    846.86987   -108.27153   0.76626566   -107.50526     26636.75     4.334668     4.334668     4.334668     26636.75    41929.494    20074.845    17905.913   -9904.3787    2635.8019   -366.12232    81.445581 
   12900    727.58859   -108.16879   0.65833745   -107.51045   -28600.488     4.370046     4.370046     4.370046   -28600.488   -25521.204   -20146.152   -40134.108    4830.2529   -11390.815    4954.1911    83.456087 
   13000    473.12093   -107.93957   0.42808976   -107.51148    7837.5729    4.3379735    4.3379735    4.3379735    7837.5729    2033.9682     22382.67   -903.91988   -3276.0182    -20006.75   -957.85966    81.632049 
   13100      941.787     -108.368   0.85214867   -107.51585   -7488.5503    4.3491544    4.3491544    4.3491544   -7488.5503   -5070.4826   -1737.3387    -15657.83    7576.2848    5874.9975    3996.9071    82.264884 
   13200    352.82832   -107.83601   0.31924647   -107.51676   -12821.591    4.3683046    4.3683046    4.3683046   -12821.591   -3759.4724    4963.3042   -39668.604    1582.6073   -20821.793     1751.704     83.35636 
   13300    1051.4273   -108.45476   0.95135352    -107.5034    16068.426    4.3304943    4.3304943    4.3304943    16068.426    35321.818    16364.975   -3481.5168    10603.012   -10200.171    609.29776    81.210546 
   13400    544.65502    -108.0128   0.49281531   -107.51999    737.44661     4.356552     4.356552     4.356552    737.44661    7381.3556    8446.6581   -13615.674   -479.93918   -2745.6862    5959.1459    82.685375 
   13500    498.30597   -107.96605   0.45087771   -107.51517   -24670.623    4.3632822    4.3632822    4.3632822   -24670.623   -33762.145    -8705.406   -31544.318   -136.56602   -24402.394    2264.9699    83.069177 
   13600    1005.0105   -108.41308   0.90935461   -107.50373      21626.1    4.3354489    4.3354489    4.3354489      21626.1    41472.011    5739.5155    17666.773   -2461.2765    9417.7411   -52.669733    81.489606 
   13700     670.9502    -108.1253   0.60708984   -107.51821   -14756.135    4.3570367    4.3570367    4.3570367   -14756.135   -11187.088   -5379.2389   -27702.077   -2543.4032     -20083.1    1211.2052    82.712975 
   13800    646.79095   -108.10035   0.58523005   -107.51512   -5224.3394    4.3550586    4.3550586    4.3550586   -5224.3394    15221.107   -8002.5993   -22891.526    2439.1988   -10229.344    -5274.182    82.600375 
   13900    784.38216   -108.22058   0.70972546   -107.51085    6692.0851    4.3426586    4.3426586    4.3426586    6692.0851    6120.2044    16152.391   -2196.3396   -3593.1693    1863.3526    2052.5656    81.896825 
   14000    484.52129   -107.96034   0.43840504   -107.52194   -11651.474    4.3559493    4.3559493    4.3559493   -11651.474    2322.8146   -2834.7319   -34442.504   -2576.8682   -26694.228    1623.4197    82.651063 
   14100    990.04368   -108.40667   0.89581233   -107.51086    2979.9839      4.35246      4.35246      4.35246    2979.9839    8952.9575    1305.3567   -1318.3626   -692.62052    10454.598   -1762.4412      82.4526 
   14200    485.04969   -107.95366   0.43888315   -107.51477   -5446.8301    4.3509042    4.3509042    4.3509042   -5446.8301   -7477.6783    18475.906   -27338.717   -6182.4499   -25965.878    2001.8428    82.364214 
   14300    655.37854   -108.10771   0.59300028   -107.51471   -1417.1554    4.3484149    4.3484149    4.3484149   -1417.1554    13749.631   -3304.1291   -14696.968    3251.1245    -9304.446   -1857.3127    82.222926 
   14400    813.65567   -108.24894   0.73621275   -107.51273   -4140.2693    4.3586036    4.3586036    4.3586036   -4140.2693    9454.3512    1796.7444   -23671.903    350.71042    -1078.368    645.69734    82.802246 
   14500    595.19371   -108.05474   0.53854377    -107.5162    676.40379    4.3441186    4.3441186    4.3441186    676.40379    11002.822    12456.609    -21430.22   -1709.8785   -33955.152   -3714.7887    81.979456 
   14600    945.90818   -108.36768    0.8558776   -107.51181   -601.79624    4.3487789    4.3487789    4.3487789   -601.79624   -415.43412    1458.7704    -2848.725    1638.8872    9286.1777    4271.4375    82.243576 
   14700    355.13389   -107.83549   0.32133261   -107.51416   -16709.761     4.364076     4.364076     4.364076   -16709.761   -22712.015    14215.832   -41633.099   -1847.6073   -22015.599    1254.1441    83.114522 
   14800     789.1016    -108.2241   0.71399571    -107.5101    3595.4129    4.3358797    4.3358797    4.3358797    3595.4129    615.41812    10244.068    -73.24721    4546.4427   -18414.228    857.58386    81.513899 
   14900    795.70507   -108.23397   0.71997067     -107.514    1702.0496    4.3550106    4.3550106    4.3550106    1702.0496    10177.702    5239.8598   -10311.413   -3612.7024    7041.9087   -1374.2236    82.597642 
   15000    595.04477   -108.05155   0.53840901   -107.51314   -24824.126    4.3625626    4.3625626    4.3625626   -24824.126   -28053.453   -1249.4841    -45169.44     1932.196   -24030.777    4225.1196    83.028083 
   15100    795.52366   -108.22368   0.71980653   -107.50387    24630.547    4.3324339    4.3324339    4.3324339    24630.547    31983.513    18856.472    23051.655   -5792.0971     2484.544   -332.52363    81.319714 
   15200    596.74652   -108.05749   0.53994879   -107.51754   -16118.694    4.3592979    4.3592979    4.3592979   -16118.694    -13675.22    2949.0429   -37629.903    828.79116   -12434.241   -4587.6381    82.841823 
   15300    738.75327    -108.1796   0.66843948   -107.51116   -9763.5771    4.3565569    4.3565569    4.3565569   -9763.5771   -3758.0166   -3673.2265   -21859.488    2292.8994   -16253.148    5215.6183    82.685653 
   15400    890.48572   -108.30716   0.80573019   -107.50143    16624.052    4.3328358    4.3328358    4.3328358    16624.052    8852.1776    25456.836    15563.142   -5773.7935    988.65402    -4036.552    81.342343 
   15500    361.86615   -107.84761    0.3274241   -107.52019   -18135.693    4.3634692    4.3634692    4.3634692   -18135.693   -22360.727    10244.012   -42290.365     1779.692   -24452.314   -699.51984    83.079859 
   15600    882.62579   -108.30878   0.79861836   -107.51017     3684.895    4.3509943    4.3509943    4.3509943     3684.895    12128.593   -5166.4259    4092.5181   -12587.458    2151.8864    1822.7195    82.369333 
   15700    660.68878   -108.10669   0.59780509   -107.50889    16662.853     4.336572     4.336572     4.336572    16662.853    36769.835    24001.541   -10782.818    10887.553   -14955.672   -1283.0035    81.552951 
   15800    692.62914   -108.14046    0.6267054   -107.51376   -22751.945    4.3639329    4.3639329    4.3639329   -22751.945   -24383.379    -12598.46   -31273.997   -2473.4656   -21061.052    -4455.653    83.106345 
   15900    821.37493   -108.25006    0.7431973   -107.50686    14381.918    4.3418993    4.3418993    4.3418993    14381.918    25921.987    13916.843    3306.9253   -758.31791    8755.1499     2506.271    81.853875 
   16000    505.11645   -107.97506   0.45703998   -107.51802   -16472.512    4.3517564    4.3517564    4.3517564   -16472.512   -35523.564     17613.85   -31507.821    6373.4744   -29531.802    1100.2787    82.412622 
   16100    759.45098   -108.19731   0.68716721   -107.51014    7932.7764    4.3545797    4.3545797    4.3545797    7932.7764    26630.572    4841.4234   -7673.6664   -2704.6299   -2166.7925    1501.9782    82.573128 
   16200    887.74926   -108.31552   0.80325418   -107.51226   -2721.3928    4.3436855    4.3436855    4.3436855   -2721.3928   -2600.3977    14435.722   -19999.503    3298.5343   -12960.008    1591.5259    81.954935 
   16300    365.77063   -107.85291   0.33095695   -107.52195   -3239.2313    4.3516803    4.3516803    4.3516803   -3239.2313   -8270.2761    16644.286   -18091.704    3569.7811   -22808.752   -1368.8707    82.408296 
   16400    927.93314   -108.35295   0.83961341   -107.51334    -5871.584    4.3517288    4.3517288    4.3517288    -5871.584   -5674.8481   -6089.4918    -5850.412     3318.806    9169.3056    2704.1218    82.411056 
   16500    522.85393   -107.99157   0.47308922   -107.51848   -17204.937    4.3509774    4.3509774    4.3509774   -17204.937   -19276.775    5720.0609   -38058.098   -3267.5585   -32673.099   -3621.1325     82.36837 
   16600    926.36774   -108.34888     0.838197   -107.51068    11323.954    4.3372625    4.3372625    4.3372625    11323.954    14793.788    5179.8155    13998.257    3201.3477   -841.04276    5905.1886    81.591915 
   16700    623.02694   -108.08011   0.56372787   -107.51638   -18903.362    4.3643448    4.3643448    4.3643448   -18903.362   -16073.741   -4076.1622   -36560.182   -3034.5971   -13127.254    -5748.083    83.129884 
   16800    531.25498   -107.99793   0.48069067   -107.51724   -2384.1043    4.3449362    4.3449362    4.3449362   -2384.1043   -12438.382    15512.508    -10226.44    8696.6447   -25589.567   -164.76498    82.025752 
   16900    943.52275   -108.36654   0.85371921   -107.51282     14288.62     4.337795     4.337795     4.337795     14288.62    19344.317     14161.25    9360.2927   -5315.6867    5255.5008   -2983.5264     81.62197 
   17000    519.56063   -107.98447   0.47010938   -107.51436    -24983.57    4.3660092    4.3660092    4.3660092    -24983.57   -36652.846   -584.95902   -37712.904    539.55456   -36467.203    790.06332    83.225026 
   17100    797.03387   -108.22371     0.721173   -107.50254    15459.458    4.3347911    4.3347911    4.3347911    15459.458    18279.192    10623.662     17475.52   -1399.5053    8550.8638   -2078.1007    81.452518 
   17200    575.81778   -108.03386   0.52101203   -107.51285   -9771.0802    4.3523736    4.3523736    4.3523736   -9771.0802   -21738.378    11381.178    -18956.04     864.4762   -18767.318   -1548.8023    82.447693 
   17300    661.99265   -108.11153   0.59898486   -107.51255   -8995.7432    4.3518792    4.3518792    4.3518792   -8995.7432    -14606.51   -2008.8511   -10371.869    813.02599   -21001.458    621.29317    82.419597 
   17400    1017.2886   -108.42755   0.92046406   -107.50708    6402.6943    4.3449958    4.3449958    4.3449958    6402.6943    15622.772    6426.8569   -2841.5457   -1374.3035    14526.862   -5035.2189    82.029127 
   17500    410.92147   -107.88621   0.37181038    -107.5144   -14221.461    4.3530833    4.3530833    4.3530833   -14221.461   -32715.127    1178.5331    -11127.79    376.01223   -34014.561   -1008.9357    82.488031 
   17600    836.27416   -108.26554   0.75667843   -107.50886    4113.7148    4.3430884    4.3430884    4.3430884    4113.7148     2987.954    11398.883   -2045.6928   -1158.9221    3216.6679    741.77403    81.921147 
   17700    568.56303   -108.02879   0.51444778   -107.51434   -9963.0998    4.3570372    4.3570372    4.3570372   -9963.0998   -22674.484   -5253.4221   -1961.3936    6871.0142   -13980.651   -3654.2455    82.713003 
   17800    738.93026   -108.18147   0.66859962   -107.51287    5015.1709    4.3377698    4.3377698    4.3377698    5015.1709   -220.33507    22604.803   -7338.9551    1213.4059   -27754.102   -1942.8939    81.620549 
   17900    822.14531   -108.25619   0.74389435   -107.51229    -792.8786    4.3567637    4.3567637    4.3567637    -792.8786   -3352.3036   -14033.558    15007.225   -747.46388    805.38966    5770.3316    82.697432 
   18000    350.95087   -107.83624   0.31754772   -107.51869   -9170.7755     4.346835     4.346835     4.346835   -9170.7755   -41239.142    27112.732   -13385.916    2870.5294   -28747.386   -3034.9274    82.133336 
   18100    860.05027   -108.29037   0.77819156   -107.51218    14456.697    4.3385359    4.3385359    4.3385359    14456.697    2299.2565    6490.4327    34580.402    923.13261   -5273.5745    6922.7842    81.663801 
   18200    742.35545   -108.18438   0.67169882   -107.51268   -17579.392    4.3633004    4.3633004    4.3633004   -17579.392   -25508.252   -7163.2212   -20066.702   -1544.1609   -10879.153   -7099.8739    83.070218 
   18300    722.76886   -108.16299   0.65397646   -107.50901    14490.289    4.3287615    4.3287615    4.3287615    14490.289   -3358.8635    21312.245    25517.485     4832.329   -18157.453    6094.3241    81.113097 
   18400     761.3165   -108.19997   0.68885517   -107.51111    -8205.382    4.3599129    4.3599129    4.3599129    -8205.382   -6428.6668   -15063.945   -3123.5343   -1838.7637    5533.0401   -3389.8483    82.876887 
   18500    486.25291   -107.95844   0.43997185   -107.51847   -5215.1127    4.3449295    4.3449295    4.3449295   -5215.1127   -37482.204    28265.086   -6428.2205   -1467.5561   -23773.525   -4200.8195    82.025369 
   18600    889.39934   -108.31866   0.80474721   -107.51391    21224.163    4.3389085    4.3389085    4.3389085    21224.163      35087.1    13557.261    15028.127   -916.84308   -4397.0723   -2472.7315    81.684844 
   18700    755.67833   -108.19613   0.68375363   -107.51238   -17549.546    4.3605616    4.3605616    4.3605616   -17549.546   -29800.291    3804.9561   -26653.302    121.46246   -10409.662   -1929.9602    82.913889 
   18800    476.30001   -107.93802   0.43096626   -107.50705    26280.136    4.3285656    4.3285656    4.3285656    26280.136    20384.017    33662.586    24793.805   -644.59723   -25654.352    1047.0781    81.102083 
   18900    865.22085   -108.28875   0.78287001   -107.50588   -23451.545    4.3647781    4.3647781    4.3647781   -23451.545   -15645.679   -26700.331   -28008.624   -2122.9194    7234.9713   -1364.0891    83.154645 
   19000    613.13145   -108.06869   0.55477422   -107.51391    8388.7981    4.3359211    4.3359211    4.3359211    8388.7981    12744.882    21381.375    -8959.862    1140.7599   -29146.225    4890.8451    81.516237 
   19100    937.31112   -108.36461    0.8480988   -107.51651     14321.83    4.3428089    4.3428089    4.3428089     14321.83    31288.189    3610.4279    8066.8714   -6944.6556    1280.1714   -3369.4126    81.905331 
   19200     628.9918   -108.08483     0.569125    -107.5157   -21649.612    4.3592541    4.3592541    4.3592541   -21649.612   -25302.296   -7290.8951   -32355.646   -3153.7395   -7769.3072    3692.1212    82.839325 
   19300    424.77932   -107.89168   0.38434925   -107.50733    31596.758    4.3248252    4.3248252    4.3248252    31596.758    19460.136    51202.319    24127.819     631.8132   -24071.877   -1644.5389     80.89202 
   19400    919.02203   -108.33763   0.83155044   -107.50608   -18608.251     4.364255     4.364255     4.364255   -18608.251   -10300.697   -19508.318   -26015.739    2997.3925    9926.3672    5001.5979     83.12475 
   19500    560.89694   -108.02317   0.50751133   -107.51566    6772.9932    4.3368428    4.3368428    4.3368428    6772.9932    13075.326    26081.376   -18837.722   -33.427562   -31740.639   -358.81104     81.56823 
   19600    962.04304   -108.38533   0.87047676   -107.51485    8629.1106    4.3416638    4.3416638    4.3416638    8629.1106    18480.168   -1941.9348    9349.0988    5936.7382   -746.77819    6414.1788    81.840554 
   19700    485.47703   -107.95315   0.43926982   -107.51388   -21074.763    4.3608251    4.3608251    4.3608251   -21074.763   -17892.507   -7846.4721   -37485.309    -1793.164    -9670.786    5196.0174    82.928922 
   19800    612.05979   -108.06263   0.55380456   -107.50882    13409.942    4.3297908    4.3297908    4.3297908    13409.942     4319.567    31016.641    4893.6177    3475.6245   -22361.075   -504.16991    81.170971 
   19900     909.9065   -108.33243   0.82330253   -107.50913    4117.4341    4.3552132    4.3552132    4.3552132    4117.4341    8042.1758    18499.726     -14189.6    1979.7994    12799.962    -3474.855    82.609168 
   20000     559.3121   -108.02476   0.50607734   -107.51869   -8913.2208    4.3464251    4.3464251    4.3464251   -8913.2208   -24192.869    19487.816    -22034.61   -8440.1544    -26991.77    1079.1897    82.110101 
   20100    713.99506   -108.16072   0.64603774   -107.51468    16017.352    4.3417932    4.3417932    4.3417932    16017.352    26296.377    11969.434    9786.2442   -7521.7916    2092.6056   -2758.5445    81.847873 
   20200    723.86075   -108.17208   0.65496442   -107.51712   -17342.645    4.3527692    4.3527692    4.3527692   -17342.645   -16373.141   -3463.2083   -32191.586    197.46904   -12931.714   -477.07437    82.470178 
   20300    583.53841   -108.04707   0.52799782   -107.51907    5536.0469    4.3382497    4.3382497    4.3382497    5536.0469    15160.404    7781.0103   -6333.2735   -8559.9211   -21731.632    1946.9859     81.64764 
   20400    932.67044   -108.35483   0.84389982   -107.51093    1075.9163    4.3530109    4.3530109    4.3530109    1075.9163   -6083.3529    22350.676   -13039.574    852.84692    2870.9464   -2784.0734    82.483915 
   20500    497.92731   -107.96865    0.4505351   -107.51812   -7900.9869    4.3443144    4.3443144    4.3443144   -7900.9869   -24388.192    14441.446   -13756.215    4141.0485   -30701.715    26.026197    81.990538 
   20600    626.99849   -108.08325   0.56732141   -107.51593    13165.716    4.3434739    4.3434739    4.3434739    13165.716    11855.361    23068.334     4573.452   -4769.4312    1816.1592    1382.6488     81.94296 
   20700    834.34658   -108.26884   0.75493432    -107.5139   -18827.097    4.3543957    4.3543957    4.3543957   -18827.097    -18471.38   -10023.482   -27986.429    7098.6582   -15855.047   -1260.0833     82.56266 
   20800    566.65765   -108.02644   0.51272375   -107.51371    12701.995    4.3365877    4.3365877    4.3365877    12701.995    6615.4388    31295.425    195.12013    5091.4525   -17444.081    7216.0344    81.553836 
   20900    945.62028   -108.36443    0.8556171   -107.50882   -13009.641    4.3533205    4.3533205    4.3533205   -13009.641   -24381.451    1655.4374   -16302.909   -7834.6154    10572.654   -4723.5786    82.501514 
   21000    360.84455   -107.84293   0.32649973   -107.51643   -5413.3683    4.3462417    4.3462417    4.3462417   -5413.3683   -22062.689    29867.626   -24045.042    7997.1863   -30220.074    1217.5679    82.099712 
   21100    910.87563    -108.3356   0.82417941   -107.51142    6941.6455    4.3389024    4.3389024    4.3389024    6941.6455     3368.164    22409.661   -4952.8886   -4965.9808    5466.5663    2733.5984    81.684498 
   21200    720.07851   -108.16565   0.65154217   -107.51411   -14531.345    4.3555324    4.3555324    4.3555324   -14531.345   -24560.633     1330.623   -20364.026   -6619.0688   -12348.198   -10145.941    82.627333 
   21300    590.75167   -108.04629   0.53452453   -107.51177    12016.283    4.3386535    4.3386535    4.3386535    12016.283   -10913.921    47783.211   -820.44195    6195.9213   -23096.007    8507.2918    81.670439 
   21400    882.82541   -108.30751   0.79879898   -107.50871   -1968.7972    4.3459994    4.3459994    4.3459994   -1968.7972   -11868.362    12715.077   -6753.1072   -11412.133    4311.1288    -4456.481    82.085977 
   21500     345.0344    -107.8312   0.31219438   -107.51901   -7848.1219    4.3494687    4.3494687    4.3494687   -7848.1219   -30549.582    39295.792   -32290.576    1535.5075   -31992.076   -4081.9729    82.282719 
   21600    1015.1484   -108.43478   0.91852759   -107.51626     13748.03    4.3389012    4.3389012    4.3389012     13748.03    7331.0904    34411.615   -498.61564   -1786.3979    1566.5163   -116.45264     81.68443 
   21700    655.74647   -108.11608   0.59333319   -107.52274   -25679.654    4.3599942    4.3599942    4.3599942   -25679.654    -45358.63     1108.852   -32789.185    3448.2114   -22223.266   -490.16937    82.881525 
   21800    553.72762   -108.01918   0.50102439   -107.51816     3888.151    4.3421215    4.3421215    4.3421215     3888.151   -17838.864    39548.547   -10045.229   -6377.6216   -10109.699   -7075.3673    81.866443 
   21900    821.58203   -108.25726   0.74338468   -107.51388     2879.761    4.3453453    4.3453453    4.3453453     2879.761   -1530.9494    26643.938   -16473.706    6031.1994   -1827.2616    12819.114    82.048921 
   22000    457.92022   -107.93397   0.41433584   -107.51963   -23157.646    4.3591169    4.3591169    4.3591169   -23157.646   -41210.923     7414.519   -35676.533   -8437.9134   -27772.595   -8520.2929    82.831507 
   22100    1006.7682   -108.42039   0.91094506   -107.50944    20206.422    4.3342445    4.3342445    4.3342445    20206.422    29612.884    20590.447    10415.936     5942.115    8863.0299    3641.2741    81.421711 
   22200    515.37721   -107.98448   0.46632413   -107.51816   -18939.028    4.3549511    4.3549511    4.3549511   -18939.028   -43910.696    26776.449   -39682.838   -6495.4061    -26037.77   -862.45936    82.594258 
   22300    541.55514   -108.00469   0.49001047   -107.51468   -9.9978538    4.3478404    4.3478404    4.3478404   -9.9978538   -7203.6528    29577.512   -22403.853     180.4152   -4474.5474   -5798.4946     82.19034 
   22400    956.57225   -108.37505   0.86552667   -107.50952   -1932.9436    4.3430281    4.3430281    4.3430281   -1932.9436   -1215.7414    15134.042   -19717.132   -1419.4977   -7572.0766   -2828.2309    81.917731 
   22500    609.15953   -108.06535   0.55118034   -107.51417   -17087.846    4.3552322    4.3552322    4.3552322   -17087.846   -36919.628    19100.263   -33444.173   -1976.9815   -21358.691   -1678.1701    82.610254 
   22600    786.69771   -108.22175   0.71182062   -107.50993    8212.4832    4.3430709    4.3430709    4.3430709    8212.4832    11034.321    24316.359   -10713.231   -6073.1239    5075.6587   -12819.375    81.920153 
   22700    550.34269   -108.01841   0.49796163   -107.52045   -15053.779    4.3509675    4.3509675    4.3509675   -15053.779   -28692.674     25269.17   -41737.833    1893.8041   -22968.979    2428.5135    82.367811 
   22800    757.74613   -108.20341   0.68562462   -107.51778    9654.4534    4.3416069    4.3416069    4.3416069    9654.4534    1377.8032    34097.367   -6511.8101   -5294.7128   -253.69078    967.05464     81.83734 
   22900    823.11483   -108.26291   0.74477159   -107.51814   -11225.682    4.3557116    4.3557116    4.3557116   -11225.682   -12498.797    4816.4368   -25994.685    5008.6866   -9656.7845    -1034.151    82.637533 
   23000     619.8976   -108.07829   0.56089638    -107.5174   -9002.7906    4.3444946    4.3444946    4.3444946   -9002.7906   -33968.347    25904.489   -18944.514    3921.5987   -15202.613    1925.6735    82.000744 
   23100    640.30165   -108.09196   0.57935838    -107.5126    15119.941    4.3355562    4.3355562    4.3355562    15119.941     11870.84    45116.821   -11627.838    200.97138    4569.5986    -4981.189    81.495659 
   23200    567.93492   -108.02582   0.51387945   -107.51194   -33664.963    4.3684446    4.3684446    4.3684446   -33664.963   -44987.151   -2344.8296   -53662.908    3917.1643   -21611.284   -5369.2338    83.364375 
   23300    1014.4374    -108.4235   0.91788425   -107.50562    20594.759    4.3250545    4.3250545    4.3250545    20594.759    10894.707    39983.065    10906.504   -84.481241    577.45731    3210.9856    80.904886 
   23400    569.30332   -108.03789   0.51511761   -107.52277   -5990.9772    4.3508269    4.3508269    4.3508269   -5990.9772   -4493.8284    13056.719   -26535.822   -2054.8027   -9283.1288   -17998.716    82.359827 
   23500    487.92939   -107.95621   0.44148877   -107.51472   -21171.427    4.3588104    4.3588104    4.3588104   -21171.427   -31760.441    14536.182   -46290.021    583.70623   -21074.939    2187.0981    82.814034 
   23600    921.98006   -108.33318   0.83422693   -107.49896    26360.354    4.3204778    4.3204778    4.3204778    26360.354    26317.517    33929.896     18833.65   -1156.7735     6738.133   -8752.8961     80.64832 
   23700    573.57789   -108.03425   0.51898532   -107.51526   -35930.127    4.3627668    4.3627668    4.3627668   -35930.127   -39115.324   -18278.184   -50396.874   -3038.5359   -26923.525   -9025.4223    83.039744 
   23800     922.4766   -108.34434   0.83467621   -107.50966     4371.377    4.3393789    4.3393789    4.3393789     4371.377    3611.2187    17275.265   -7772.3531   -3322.7788   -1393.5548    3911.3962     81.71141 
   23900    573.97777   -108.03424   0.51934715   -107.51489     -3142.71    4.3419044    4.3419044    4.3419044     -3142.71   -6218.3059    22171.775   -25381.599    8876.9196   -8623.2857   -7643.3516    81.854163 
   24000    376.61334   -107.85847   0.34076766    -107.5177   -8946.0563    4.3543328    4.3543328    4.3543328   -8946.0563   -10290.187    25486.994   -42034.976    82.112743   -19081.861   -5945.4006    82.559085 
   24100    1181.5601   -108.57568    1.0691004   -107.50658    5980.2134    4.3406224    4.3406224    4.3406224    5980.2134    7016.4649    7254.1563     3670.019    11299.555    10139.353    2502.2118     81.78168 
   24200    417.01389   -107.89824   0.37732293   -107.52092   -18748.509     4.348863     4.348863     4.348863   -18748.509   -10458.427    -8071.594   -37715.507   -1763.9237   -25966.805   -13662.183    82.248347 
   24300    798.26586   -108.23937   0.72228772   -107.51708    2710.6216    4.3391689    4.3391689    4.3391689    2710.6216    6676.9915    17116.167   -15661.293    3131.8209   -1147.9953    5493.8796    81.699548 
   24400    711.55879   -108.16043   0.64383335    -107.5166    -18351.82    4.3593568    4.3593568    4.3593568    -18351.82   -23334.298   -3706.7635   -28014.399   -2251.2598   -5712.3727   -12263.566    82.845179 
   24500     488.8043   -107.96571    0.4422804   -107.52342    6970.1748    4.3318712    4.3318712    4.3318712    6970.1748    5869.1198    27920.545   -12879.141    4817.5849   -19924.586   -8843.8557    81.288034 
   24600    1031.6078    -108.4522   0.93342045   -107.51878    10532.909    4.3469364    4.3469364    4.3469364    10532.909    4567.6658    11233.022    15798.039   -7891.9016   -251.66187   -5230.2859    82.139086 
   24700    410.17651   -107.89404   0.37113633    -107.5229   -21946.203    4.3583533    4.3583533    4.3583533   -21946.203   -13694.377   -13021.778   -39122.455    3955.0295   -12724.691   -7970.1744    82.787984 
   24800    694.42087   -108.13807    0.6283266   -107.50974    19942.607    4.3218931    4.3218931    4.3218931    19942.607    25752.415    19384.429    14690.979   -4291.3808   -14520.622   -8980.6138    80.727602 
   24900     983.8117   -108.40011    0.8901735   -107.50994   -13968.565    4.3638658    4.3638658    4.3638658   -13968.565   -17801.506   -12279.269   -11824.921   -2260.4084     4006.959    4144.3279    83.102512 
   25000    604.09604   -108.06609    0.5465988   -107.51949   -6839.4992    4.3395134    4.3395134    4.3395134   -6839.4992    1825.8546   -5207.7093   -17136.643    4845.8668   -16657.683   -9652.4166    81.719013 
   25100    688.05067   -108.13739   0.62256271   -107.51482    27515.777    4.3334051    4.3334051    4.3334051    27515.777    21398.836    36221.577    24926.918    5448.4102    2020.4501   -7461.3059    81.374416 
   25200    737.89243   -108.17961   0.66766057   -107.51195   -18447.403    4.3606505    4.3606505    4.3606505   -18447.403   -11994.387   -12146.602   -31201.218    3251.0261   -323.28577    2647.8418    82.918958 
   25300    460.77493   -107.93027   0.41691884   -107.51336    21965.593    4.3348713    4.3348713    4.3348713    21965.593    22841.721    19661.357    23393.701    4564.4602   -20479.202   -15707.571    81.457038 
   25400    1129.9053    -108.5324     1.022362   -107.51003   -3802.2502      4.34992      4.34992      4.34992   -3802.2502   -1773.0302   -6459.1942   -3174.5262    5402.7734    8488.6887    9505.6653    82.308335 
   25500    524.77095   -107.99019   0.47482378   -107.51536    5653.9665    4.3445234    4.3445234    4.3445234    5653.9665    16602.164    -8211.139    8570.8751   -4948.4984   -19702.572   -3524.0996    82.002371 
   25600    548.17628   -108.01334   0.49600142   -107.51734   -2005.3478    4.3493035    4.3493035    4.3493035   -2005.3478    4974.7677    5805.3037   -16796.115    6998.8469   -728.92928    -9437.289    82.273341 
   25700    971.90924   -108.39265    0.8794039   -107.51325    7359.3771    4.3408689    4.3408689    4.3408689    7359.3771    3678.1105    7030.8228    11369.198   -3685.9364   -1389.7578    6821.9794     81.79561 
   25800    484.39671   -107.96324   0.43829232   -107.52494     16026.85    4.3417002    4.3417002    4.3417002     16026.85    13880.023    29251.366    4949.1623   -488.68006   -14201.486   -18000.688    81.842617 
   25900    914.16213   -108.34007   0.82715311   -107.51291   -20512.449    4.3591595    4.3591595    4.3591595   -20512.449   -13792.023   -16839.952   -30905.373   -7937.4725    703.54309   -6175.0788    82.833932 
   26000     504.2769   -107.96637   0.45628034   -107.51009    27726.989    4.3281548    4.3281548    4.3281548    27726.989     45690.16    18825.005    18665.803    -3282.354   -9528.5736    4191.4958    81.078993 
   26100    669.00791   -108.12489   0.60533241   -107.51956   -21251.432    4.3558921    4.3558921    4.3558921   -21251.432   -7876.6165   -20143.436   -35734.243   -1711.7514   -6527.0788   -19919.664    82.647806 
   26200    914.86522   -108.33921   0.82778928   -107.51142    4061.9335    4.3486015    4.3486015    4.3486015    4061.9335     11630.11    1016.1878   -460.49734     7657.969    3910.0894     6912.392    82.233511 
   26300    584.97886   -108.04031   0.52930117   -107.51101    12730.027    4.3305641    4.3305641    4.3305641    12730.027    13559.635    22525.016    2105.4289     645.8178   -12748.886   -11926.334    81.214471 
   26400    604.44254   -108.06022   0.54691231   -107.51331   -20681.127    4.3579892    4.3579892    4.3579892   -20681.127   -13087.645   -7679.1203   -41276.616    6524.6136   -3505.5799   -5831.4044    82.767234 
   26500    738.42491   -108.17848   0.66814238   -107.51034     16405.83     4.338704     4.338704     4.338704     16405.83    29494.403     5012.166    14710.922     2336.795   -2104.4787    6953.9313    81.673295 
   26600    746.57394   -108.19332   0.67551579   -107.51781   -17359.631    4.3461625    4.3461625    4.3461625   -17359.631   -10322.048   -12428.584   -29328.262    3102.0236    -14048.68   -13636.098     82.09522 
   26700    780.60068   -108.22066    0.7063039   -107.51436    2239.0437    4.3462343    4.3462343    4.3462343    2239.0437    19687.726   -7233.4854   -5737.1093    5445.5156    4860.1692    7746.3812    82.099292 
   26800    676.05156   -108.12662   0.61170566   -107.51491   -3307.4425    4.3454447    4.3454447    4.3454447   -3307.4425    3825.2084    -3731.834   -10015.702   -5457.1163    -11702.47   -6071.5225    82.054555 
   26900    514.97224   -107.98324    0.4659577   -107.51728   -7794.6556    4.3488981    4.3488981    4.3488981   -7794.6556   -1662.5535     10019.92   -31741.333    806.17124    -3727.168   -13640.048    82.250337 
   27000    894.08546   -108.31951   0.80898732   -107.51052    19845.849    4.3376543    4.3376543    4.3376543    19845.849    37512.988    4322.6268    17701.932   -7605.6999    -438.7154    6392.6018    81.614028 
   27100     596.2611   -108.05529   0.53950957   -107.51578   -13935.161    4.3566539    4.3566539    4.3566539   -13935.161   -5053.3357   -1690.5915   -35061.557   -3183.3037   -14292.549   -18981.504    82.691181 
   27200    659.27249    -108.1079    0.5965236   -107.51137    8723.4787    4.3375034    4.3375034    4.3375034    8723.4787    43315.262   -9126.4275   -8018.3982   -859.74757   -1094.8971   -3945.3743    81.605512 
   27300    783.77776   -108.22478   0.70917859    -107.5156   -3064.9652    4.3425561    4.3425561    4.3425561   -3064.9652    434.02773   -14082.863    4453.9397    7822.2863   -314.63939    1257.0728    81.891029 
   27400    644.74248   -108.09906   0.58337654   -107.51569   -17116.908    4.3573675    4.3573675    4.3573675   -17116.908    6262.7521   -21853.382   -35760.095   -1070.2782   -12263.665   -20255.639    82.731818 
   27500    954.21954   -108.37315   0.86339789   -107.50975    17422.628    4.3292383    4.3292383    4.3292383    17422.628    19978.477    16999.264    15290.143    8050.0986    12764.446     8864.141    81.139901 
   27600     466.4794   -107.94233   0.42208036   -107.52025   -2375.6425    4.3478335    4.3478335    4.3478335   -2375.6425    19661.926   -3475.1552   -23313.698     3554.642   -15051.076   -14475.083    82.189949 
   27700    613.63549   -108.06873   0.55523028    -107.5135   -9239.5344    4.3542368    4.3542368    4.3542368   -9239.5344    11900.851   -7633.0945   -31986.359    2399.0819    -1183.245   -4801.0356    82.553619 
   27800    902.31594   -108.32312   0.81643442   -107.50668    15702.099    4.3309893    4.3309893    4.3309893    15702.099    24186.882    1829.8105    21089.603     6568.567    167.17904    3710.5995    81.238395 
   27900    598.26328   -108.05913   0.54132119    -107.5178   -12399.964    4.3518044    4.3518044    4.3518044   -12399.964    12043.181   -16055.496   -33187.577    1747.2918   -13518.515   -14705.067    82.415347 
   28000    895.07104   -108.32032   0.80987908   -107.51044   -12253.927    4.3464298    4.3464298    4.3464298   -12253.927   -4527.1985   -15975.573   -16259.011    1149.1431   -37.895885    12578.912    82.110368 
   28100    418.20406   -107.89104   0.37839982   -107.51264    13794.309    4.3342654    4.3342654    4.3342654    13794.309    45287.393    -8266.245    4361.7784    1404.6114   -5689.1867   -11937.404    81.422889 
   28200    812.45519   -108.25044   0.73512653   -107.51531   -17938.661    4.3542404    4.3542404    4.3542404   -17938.661   -8627.2892   -10831.606   -34357.089   -7879.2894   -15017.273   -3275.3844    82.553824 
   28300    756.09596   -108.19677   0.68413151   -107.51264    10363.345    4.3450162    4.3450162    4.3450162    10363.345    24698.405     1655.928    4735.7013    3856.5773    6932.6327     4715.829    82.030284 
   28400    522.21886   -107.98896    0.4725146   -107.51644    845.98586    4.3380212    4.3380212    4.3380212    845.98586     16458.96    4015.5628   -17936.566   -2995.6369   -8829.6916   -21784.771    81.634742 
   28500    764.50823    -108.2066   0.69174311   -107.51486   -7189.8899    4.3484033    4.3484033    4.3484033   -7189.8899    8323.8432   -8962.9511   -20930.562    8837.0634    3597.3305    7535.7275    82.222268 
   28600    617.32498   -108.07669   0.55856862   -107.51812   -1571.1971     4.347704     4.347704     4.347704   -1571.1971    24775.475   -25789.721   -3699.3456    -1138.849    5917.0671   -10490.657    82.182606 
   28700    855.77504   -108.28944   0.77432324   -107.51511   -4423.2167    4.3383611    4.3383611    4.3383611   -4423.2167    12156.151   -5407.6175   -20018.184    7691.4801   -11460.662   -14510.296    81.653929 
   28800    754.46351   -108.19766   0.68265444     -107.515    6466.5318      4.34405      4.34405      4.34405    6466.5318    22335.838   -2207.4805   -728.76244    -130.3664    2904.1379    8421.2693    81.975573 
   28900     508.1959   -107.97766   0.45982633   -107.51783   -12501.944    4.3513307    4.3513307    4.3513307   -12501.944    26368.458   -34600.078   -29274.211    3534.6853   -4329.0804   -24304.234     82.38844 
   29000     824.0536   -108.25877   0.74562102   -107.51315    13419.245    4.3345397    4.3345397    4.3345397    13419.245    27494.993    14659.734   -1896.9941   -4073.5319   -11978.821    3898.4845     81.43835 
   29100    670.46837   -108.12554   0.60665388   -107.51889    1305.6047    4.3497287    4.3497287    4.3497287    1305.6047     32010.05   -15623.624   -12469.612    186.28934    3088.1031   -5978.0838    82.297474 
   29200    746.37614   -108.19075   0.67533681   -107.51542   -10056.254    4.3482627    4.3482627    4.3482627   -10056.254    16949.952   -12677.251   -34441.462    -5714.392   -4856.8467   -14728.477     82.21429 
   29300    687.21139   -108.13359   0.62180331   -107.51179    15537.683    4.3333696    4.3333696    4.3333696    15537.683    37422.582    12950.251   -3759.7854    4185.6041    2174.2206    15426.498    81.372411 
   29400    540.48123   -108.00696   0.48903878   -107.51792   -14878.294    4.3520229    4.3520229    4.3520229   -14878.294    25036.979   -39702.121   -29969.741   -2391.0562    3661.7468   -24188.759    82.427764 
   29500    1023.3591   -108.43841   0.92595679   -107.51245   -473.23199    4.3419727    4.3419727    4.3419727   -473.23199    8015.6706    1532.7725   -10968.139    7903.1021   -443.87184    6593.3394    81.858028 
   29600    439.74037   -107.91867   0.39788633   -107.52078    8656.1107    4.3405802    4.3405802    4.3405802    8656.1107    43814.419   -82.473707   -17763.614    3426.3261    2881.6755   -9007.3056    81.779291 
   29700    605.49137   -108.07179   0.54786131   -107.52393   -12560.709    4.3515554    4.3515554    4.3515554   -12560.709    18107.391   -20871.084   -34918.435    4894.3845     2183.225   -19865.354    82.401204 
   29800     851.8218   -108.29023   0.77074626   -107.51948    3663.0315    4.3429249    4.3429249    4.3429249    3663.0315    15433.434    10029.068   -14473.407   -10014.799   -13751.673    10683.801     81.91189 
   29900    506.66924   -107.98513   0.45844498   -107.52668    247.37907    4.3460141    4.3460141    4.3460141    247.37907    54072.601   -23561.319   -29769.145   -2020.2948    5480.4829   -26380.331    82.086815 
   30000    978.58612   -108.40535   0.88544529   -107.51991   -6202.5099    4.3520732    4.3520732    4.3520732   -6202.5099    4307.6407     3475.442   -26390.612   -5866.8911   -6169.9524    1030.6458    82.430624 
   30100    681.29872   -108.13984    0.6164534   -107.52339   -6801.4189    4.3463443    4.3463443    4.3463443   -6801.4189    29910.925   -15839.138   -34476.044    6594.0239     3659.827   -7218.6975    82.105527 
   30200    425.77337   -107.91248   0.38524869   -107.52723    4419.8235    4.3489538    4.3489538    4.3489538    4419.8235     43529.15   -7699.7444   -22569.935    954.96414    5402.3506   -16444.392    82.253497 
   30300    1134.7182   -108.54175    1.0267169   -107.51503   -2570.0529    4.3513917    4.3513917    4.3513917   -2570.0529   -6236.2084    14055.276   -15529.226    16124.139    4057.3334    1588.3647    82.391903 
   30400    331.60342   -107.82194   0.30004174   -107.52189   -1722.1543    4.3516841    4.3516841    4.3516841   -1722.1543    41738.474   -17017.697   -29887.241   -6881.7752   -178.79986   -19447.892    82.408513 
   30500    755.65378    -108.1988   0.68373142   -107.51507    3061.0392    4.3408496    4.3408496    4.3408496    3061.0392   -2593.2852    23415.173    -11638.77    13433.577    10778.018   -2657.4994    81.794522 
   30600    777.37659   -108.22101   0.70338668   -107.51762   -4578.7401    4.3557256    4.3557256    4.3557256   -4578.7401    18816.591   -12473.543   -20079.269   -8990.5996   -5259.9978   -3357.5522    82.638333 
   30700    598.20266   -108.06182   0.54126633   -107.52055   -13981.741    4.3506535    4.3506535    4.3506535   -13981.741   -2021.3213   -11148.216   -28775.685    4123.7772    7433.7286   -12326.363    82.349977 
   30800    919.41549   -108.34519   0.83190646   -107.51329    8479.5535    4.3371195    4.3371195    4.3371195    8479.5535    11413.105    21640.296   -7614.7404   -5752.8001    6614.8244    8363.9279    81.583846 
   30900     587.7756   -108.04862   0.53183171   -107.51679   -11026.448    4.3626987    4.3626987    4.3626987   -11026.448    6726.7625   -10514.999   -29291.108   -2517.2831   -2653.5331   -17880.425    83.035853 
   31000    649.63069   -108.10475    0.5877995   -107.51695   -1993.5707    4.3436881    4.3436881    4.3436881   -1993.5707    8585.7243    4101.3814   -18667.818    376.68912     8363.207   -2939.0412    81.955086 
   31100    734.95783   -108.18231   0.66500529   -107.51731    16426.721    4.3435531    4.3435531    4.3435531    16426.721    22653.295     20738.97    5887.8977    740.01325   -4352.7364   -1057.1603    81.947444 
   31200     819.3713   -108.25748   0.74138437    -107.5161   -5337.9782    4.3557385    4.3557385    4.3557385   -5337.9782    2191.6822   -2214.7212   -15990.896    9038.3828   -4451.1022   -11912.704    82.639066 
   31300    459.64438   -107.93532    0.4158959   -107.51942    3166.1372    4.3460029    4.3460029    4.3460029    3166.1372    13832.834    21448.182   -25782.605    1004.7549     7893.405    8938.1557     82.08618 
   31400    790.96823   -108.23382   0.71568468   -107.51813     2149.099    4.3477203    4.3477203    4.3477203     2149.099   -6126.1532    19611.738   -7038.2874    10868.171    -3528.819   -4457.2008    82.183529 
   31500    905.34476   -108.33819   0.81917497   -107.51902   -1880.8123    4.3476936    4.3476936    4.3476936   -1880.8123    9429.5603    3761.0251   -18833.022   -10894.813    6846.2959   -44.846481    82.182017 
   31600    416.01542   -107.89988    0.3764195   -107.52346   -9877.2268    4.3563765    4.3563765    4.3563765   -9877.2268    -17011.27    13702.436   -26322.847    10091.449    3321.3154    4741.5476    82.675386 
   31700    911.62632   -108.34144   0.82485866   -107.51658    16981.479    4.3384346    4.3384346    4.3384346    16981.479    17980.063     25115.89    7848.4844   -10753.795   -1571.5068   -2881.6876    81.658081 
   31800    597.00726   -108.06708   0.54018472   -107.52689   -5103.3435    4.3477621    4.3477621    4.3477621   -5103.3435   -1755.6351    11927.121   -25481.517    10897.149    7998.4707    6630.0133    82.185901 
   31900    491.40302   -107.97032   0.44463178   -107.52568    6907.4833    4.3576246    4.3576246    4.3576246    6907.4833   -1332.1479    37656.971   -15602.373   -768.14013   -5572.4906    4451.5965    82.746464 
   32000    1180.9693     -108.584    1.0685659   -107.51543    5786.4792    4.3381142    4.3381142    4.3381142    5786.4792     8617.262    11358.324   -2616.1487    5820.0129    10180.649    685.56444    81.639988 
   32100    264.29669   -107.76922    0.2391412   -107.53008    1612.4747    4.3467502    4.3467502    4.3467502    1612.4747   -2639.7411    40458.478   -32981.312    2407.6342    2469.4269    7289.2719    82.128528 
   32200    802.69991   -108.24996   0.72629975   -107.52366   -13295.248    4.3581837    4.3581837    4.3581837   -13295.248   -16451.741    -2267.852   -21166.152    6740.7885    1156.3002    2073.8484     82.77832 
   32300    990.49643   -108.41313   0.89622199   -107.51691    14746.908    4.3336518    4.3336518    4.3336518    14746.908    18845.513    23956.695    1438.5163   -7212.4908    6067.5591   -3762.3356    81.388311 
   32400    281.65634   -107.78427   0.25484858   -107.52942   -9559.0243    4.3591838    4.3591838    4.3591838   -9559.0243   -22769.669    13330.922   -19238.326    8386.6084   -4400.9197    9905.0163     82.83532 
   32500     991.2059   -108.41196   0.89686393   -107.51509    1672.4608      4.34625      4.34625      4.34625    1672.4608     12023.91   -1818.3887   -5188.1386   -9047.7883   -2032.4174    -1859.685    82.100179 
   32600    600.87922   -108.06571   0.54368814   -107.52202   -3107.1452    4.3437499    4.3437499    4.3437499   -3107.1452   -5251.8013    22404.375   -26474.009     6844.069    5376.5577    3606.0654     81.95858 
   32700    582.86878   -108.05443   0.52739192   -107.52704    6021.5708    4.3505479    4.3505479    4.3505479    6021.5708   -6062.5453    42435.148    -18307.89   -1292.0136   -8338.3887    5773.1502    82.343979 
   32800    1021.7347   -108.44565   0.92448707   -107.52117   -14507.006    4.3543195    4.3543195    4.3543195   -14507.006   -4974.3163   -14163.667   -24383.034     11354.48    1244.8691   -10393.853    82.558325 
   32900    437.31974   -107.91648   0.39569609   -107.52078    13665.927    4.3378432    4.3378432    4.3378432    13665.927   -3468.0865      54964.6   -10498.732   -6173.9847   -1468.1558    6757.9292     81.62469 
   33000    681.71416   -108.13999   0.61682929   -107.52316   -955.78601    4.3493408    4.3493408    4.3493408   -955.78601    9302.6443   -2419.8509   -9750.1515    13140.979   -4716.3235   -1635.9422    82.275458 
   33100    736.04019   -108.18577   0.66598463   -107.51979   -10220.652    4.3555126    4.3555126    4.3555126   -10220.652   -7887.5059    3406.0837   -26180.533   -11343.095    2608.9415   -6738.1257    82.626211 
   33200    622.96602   -108.08051   0.56367275   -107.51684    22816.019    4.3342628    4.3342628    4.3342628    22816.019    16159.063    40866.621    11422.371    5571.1444   -3242.6609     7596.419    81.422741 
   33300    848.12151   -108.28707   0.76739817   -107.51968    -23489.64    4.3554423    4.3554423    4.3554423    -23489.64    -8425.436   -27005.338   -35038.146   -10078.083    5714.9116   -17530.018     82.62221 
   33400    466.21066   -107.93843    0.4218372   -107.51659    6105.1544    4.3534417    4.3534417    4.3534417    6105.1544   -7873.1346    44791.938    -18603.34    2379.8503    -2291.614   -1440.9393    82.508405 
   33500    953.25378   -108.37448   0.86252405   -107.51195      311.831    4.3386958    4.3386958    4.3386958      311.831    2904.6425     4572.273   -6541.4225   -2319.9602    1103.7517   -2671.9002    81.672831 
   33600    541.66451   -108.01016   0.49010944   -107.52005    2632.6845    4.3518295    4.3518295    4.3518295    2632.6845    4532.6513    16260.659   -12895.257    5596.8752    3128.1889    -14640.57    82.416772 
[...]
   91300    488.78919   -107.96574   0.44226673   -107.52347    1441.6326    4.3390226    4.3390226    4.3390226    1441.6326    17163.033    13953.396   -26791.531    5559.6714   -1875.8084   -560.41821    81.691284 
   91400    818.13761   -108.25782   0.74026811   -107.51755   -14021.322    4.3476401    4.3476401    4.3476401   -14021.322   -5849.2914   -21228.567   -14986.107     6537.485    1950.6339    1942.6494    82.178984 
   91500    725.00276   -108.17249   0.65599773   -107.51649    21701.698     4.325649     4.325649     4.325649    21701.698    31233.368     31144.57    2727.1556   -6390.7325   -10894.094   -6379.4231    80.938254 
   91600    808.37022   -108.24924   0.73143036   -107.51781   -18818.554    4.3485061    4.3485061    4.3485061   -18818.554   -16559.796   -23952.107    -15943.76    18031.727    7781.0099    3791.2203    82.228098 
   91700    516.12914   -107.98466   0.46700449   -107.51765    5758.1453    4.3380424    4.3380424    4.3380424    5758.1453    16994.006   -6876.5148    7156.9448   -10327.682   -4143.7233   -4374.1316    81.635937 
   91800    736.52353    -108.1837   0.66642196   -107.51728   -3132.2631     4.334675     4.334675     4.334675   -3132.2631    10185.587    3422.3808   -23004.757    5111.5025   -4212.7582   -717.76049    81.445972 
   91900    641.55843   -108.09909   0.58049555    -107.5186    1951.2827    4.3427047    4.3427047    4.3427047    1951.2827    3747.6339    1187.7344    918.47989    1836.9606    9642.7532    836.56192    81.899436 
   92000    859.64271    -108.2952   0.77782279   -107.51738   -3522.0813    4.3395437    4.3395437    4.3395437   -3522.0813     7474.445   -14696.487   -3344.2019   -17283.475   -10767.853   -5067.8733    81.720723 
   92100    634.54061     -108.092   0.57414568   -107.51786   -962.70894    4.3391671    4.3391671    4.3391671   -962.70894    3155.6733    21109.601   -27153.401    6436.3253    9606.3417   -432.25871    81.699448 
   92200    598.10221   -108.06155   0.54117545   -107.52037    1214.8412    4.3345704    4.3345704    4.3345704    1214.8412    15850.793   -9352.8477   -2853.4219   -14646.939    942.75864     1996.076    81.440079 
   92300    731.98174   -108.18342   0.66231246   -107.52111   -13172.331    4.3471244    4.3471244    4.3471244   -13172.331   -8140.2935   -13609.815   -17766.885   -6552.7632   -2190.4022   -6557.1211    82.149743 
   92400     802.0724   -108.24653   0.72573196    -107.5208    5513.4128    4.3331444    4.3331444    4.3331444    5513.4128    7801.7806    15753.066   -7014.6086    1676.7827    14991.661    5718.3713    81.359726 
   92500    778.95288   -108.22702   0.70481294   -107.52221   -3942.2575    4.3367039    4.3367039    4.3367039   -3942.2575   -595.68081   -26347.587    15116.495   -9387.0236   -1438.0254   -9283.4113    81.560394 
   92600    438.94614   -107.91916   0.39716769   -107.52199   -11572.975    4.3480343    4.3480343    4.3480343   -11572.975   -8986.9498    13865.803    -39597.78    86.027191    12117.182   -7.3763916    82.201338 
   92700    835.34384   -108.27094   0.75583666    -107.5151    7075.0978    4.3270754    4.3270754    4.3270754    7075.0978    17710.499    7186.5162    -3671.722    3289.2682    10682.502   -880.93162    81.018348 
   92800      618.143   -108.08172   0.55930878   -107.52242   -5479.1259     4.345971     4.345971     4.345971   -5479.1259   -4847.3847   -3505.6888   -8084.3042   -13990.019   -513.43723   -3425.4088    82.084372 
   92900    770.67605   -108.21951   0.69732389   -107.52218   -13834.694    4.3407248    4.3407248    4.3407248   -13834.694   -10526.866   -4243.4596   -26733.757    3947.9837    13459.963    3508.1338    81.787468 
   93000     767.3252   -108.21062   0.69429196   -107.51633    12813.178    4.3305778    4.3305778    4.3305778    12813.178     22882.78    8177.8538     7378.901   -9725.3201   -4465.4251   -217.26834    81.215243 
   93100    544.75679   -108.01415   0.49290739   -107.52124   -11634.912    4.3441558    4.3441558    4.3441558   -11634.912   -4667.2632   -13743.254    -16494.22   -12088.634    5938.6247   -4293.4473    81.981557 
   93200    621.44792   -108.08333   0.56229914   -107.52103    11260.896     4.336125     4.336125     4.336125    11260.896    20126.248    24821.623   -11165.185    4593.4698    9271.0358    2558.4772    81.527735 
   93300    1012.4368   -108.43131   0.91607405   -107.51524    2709.6251    4.3401758    4.3401758    4.3401758    2709.6251    4587.6159   -3056.9823    6598.2417   -14295.331   -105.90323   -2638.9723    81.756441 
   93400     460.4972   -107.94024   0.41666754   -107.52357    4846.3846    4.3346167    4.3346167    4.3346167    4846.3846    18273.777    12328.729   -16063.353    953.78617    12730.608   -6999.8667     81.44269 
   93500    731.01864   -108.18283   0.66144103   -107.52139   -9188.9526    4.3439381    4.3439381    4.3439381   -9188.9526   -2289.8386   -2208.7231   -23068.296    1586.1145    4141.8542    6287.6497    81.969234 
   93600     828.9335   -108.26811   0.75003645   -107.51807     9732.051    4.3355506    4.3355506    4.3355506     9732.051    23736.868   -4231.4748    9690.7601    1501.9601    1448.2969   -12090.704     81.49534 
   93700    529.95896   -108.00474     0.479518   -107.52522    2370.9666    4.3357609    4.3357609    4.3357609    2370.9666    2057.0638    12368.342   -7312.5059     2110.847    14088.449    1892.6806      81.5072 
   93800     849.3584   -108.28717   0.76851733   -107.51865   -4615.5199    4.3461954    4.3461954    4.3461954   -4615.5199   -10504.867   -10894.988    7553.2956    13821.377   -1895.1089   -2929.9596    82.097086 
   93900    722.83609   -108.17274   0.65403728   -107.51871    13940.604    4.3294082    4.3294082    4.3294082    13940.604    25513.973    17077.029   -769.18932    1170.0063     5811.136   -4707.0095    81.149457 
   94000    507.17161   -107.98265   0.45889953   -107.52375   -19374.252    4.3439253    4.3439253    4.3439253   -19374.252   -30391.137   -3838.2906   -23893.329    7182.7142    15549.574    382.29169    81.968511 
   94100    857.33828   -108.29367    0.7757377   -107.51794   -1761.0985    4.3375712    4.3375712    4.3375712   -1761.0985   -4827.0133   -7494.3416    7038.0593    12633.718   -10026.661   -3492.7195    81.609337 
   94200    735.89546   -108.18544   0.66585368   -107.51959   -616.20887    4.3357019    4.3357019    4.3357019   -616.20887    1216.3537    2380.1394   -5445.1197   -7364.0471    18709.307   -5875.1464    81.503874 
   94300    576.21302   -108.04241   0.52136965   -107.52104   -13674.712    4.3443471    4.3443471    4.3443471   -13674.712   -21870.827    -12230.51   -6922.7993    14968.178    8541.9865    2413.4219     81.99239 
   94400    767.64403   -108.21044   0.69458045   -107.51586    9570.3802    4.3324468    4.3324468    4.3324468    9570.3802    18312.429   -12815.652    23214.363   -4061.8879   -3072.9275   -6305.0899    81.320437 
   94500    570.76415   -108.03629   0.51643939   -107.51985   -10399.306    4.3429047    4.3429047    4.3429047   -10399.306   -13999.808    8887.6187    -26085.73    2888.8749    22903.182   -1779.9384    81.910747 
   94600    785.07319   -108.22957   0.71035072   -107.51922   -4619.7043     4.335452     4.335452     4.335452   -4619.7043   -18109.401   -15665.649    19915.938     10354.71   -4431.5611    6015.5404    81.489778 
   94700    781.60682   -108.22574   0.70721427   -107.51853   -1400.0659     4.340407     4.340407     4.340407   -1400.0659    5299.9368    4043.5172   -13543.651   -6403.5797    7387.6191   -10608.243    81.769504 
   94800    618.66294   -108.08082   0.55977923   -107.52104   -14447.606    4.3385301    4.3385301    4.3385301   -14447.606   -7444.8966   -16681.052    -19216.87    13244.346    12445.433    9581.3127    81.663474 
   94900    560.73624    -108.0278   0.50736593   -107.52043    8987.2622     4.333379     4.333379     4.333379    8987.2622    4416.3918   -14713.521    37258.916    5912.8594    931.26466   -6112.9168    81.372942 
   95000    850.91602   -108.28901    0.7699267   -107.51909     -12772.9    4.3454505    4.3454505    4.3454505     -12772.9   -8653.3413   -16315.562   -13349.797   -3963.0246    1538.7981   -651.48101    82.054879 
   95100    554.46036   -108.02424   0.50168739   -107.52256    9044.9051    4.3334083    4.3334083    4.3334083    9044.9051   -3301.8493   -1985.5626    32422.127    18382.761    9423.4024    6311.8579    81.374596 
   95200     947.4372   -108.37645   0.85726109   -107.51919   -4359.5923     4.339833     4.339833     4.339833   -4359.5923   -1599.6705   -14759.355    3280.2486   -4672.0926   -9296.8015   -3893.6945    81.737067 
   95300    575.72787   -108.04136   0.52093067   -107.52043    3289.3881    4.3387909    4.3387909    4.3387909    3289.3881    -296.7832    5322.5461    4842.4014    407.35611    6791.6788    3965.8684      81.6782 
   95400    539.70586   -108.01082    0.4883372   -107.52248   -3626.9109    4.3364135    4.3364135    4.3364135   -3626.9109   -3760.0186   -23977.207    16856.493    14325.553    7388.4652    7304.6491    81.544012 
   95500    844.73017   -108.28056   0.76432961   -107.51623    7434.2593    4.3427789    4.3427789    4.3427789    7434.2593   -2162.2091   -5379.5579    29844.545   -14500.346   -943.81573   -1897.5542    81.903629 
   95600    764.46162   -108.21241   0.69170094   -107.52071    187.30342    4.3333633    4.3333633    4.3333633    187.30342    5780.2653   -8744.8463    3526.4913    12097.282    13934.552    9181.3366    81.372061 
   95700    551.59819   -108.02364   0.49909764   -107.52455   -3562.9608    4.3405855    4.3405855    4.3405855   -3562.9608   -8206.4648   -25005.048     22522.63    3594.8547   -883.24686    5050.2149    81.779594 
   95800    903.42827   -108.33403   0.81744088   -107.51659    -3001.136    4.3391613    4.3391613    4.3391613    -3001.136   -9398.5521   -654.10434    1049.2483   -11223.936    4720.5759   -1283.6356    81.699122 
   95900    420.30918   -107.90346   0.38030458   -107.52315   -2490.5406     4.336245     4.336245     4.336245   -2490.5406   -7177.9891   -373.92642    80.293897    18024.907    1014.1873    8994.7705    81.534505 
   96000    837.22586   -108.27729   0.75753956   -107.51975   -1447.7422    4.3408611    4.3408611    4.3408611   -1447.7422   -6565.0486   -14203.019    16424.841   -5922.9691    3182.8822    1619.5152     81.79517 
   96100    864.73224   -108.30062   0.78242791    -107.5182    7195.0164    4.3362875    4.3362875    4.3362875    7195.0164    9932.5825    8689.4276    2963.0392    1987.5199   -8807.0582   -1877.0666    81.536904 
   96200    473.28124   -107.95081   0.42823481   -107.52257   -9666.2673     4.340099     4.340099     4.340099   -9666.2673   -8039.7828   -25380.837    4421.8178    15945.641    5507.6848    11052.785    81.752099 
   96300    801.58211    -108.2415   0.72528833   -107.51622   -927.14778    4.3378505    4.3378505    4.3378505   -927.14778   -7745.0182   -9862.0018    14825.577   -7874.1883   -7308.9425   -4858.5338    81.625104 
   96400    616.17668   -108.07764   0.55752961   -107.52011   -4344.3221    4.3388754    4.3388754    4.3388754   -4344.3221   -9737.0233    4638.5485   -7934.4915    9040.1018   -859.95021    296.29018    81.682975 
   96500    739.45017   -108.18998   0.66907006   -107.52091   -2169.8049    4.3379988    4.3379988    4.3379988   -2169.8049    3646.8125   -14237.613    4081.3863    9703.7963    8450.2706    7850.0199    81.633473 
   96600     831.2886   -108.26993    0.7521674   -107.51776    9631.8092    4.3375585    4.3375585    4.3375585    9631.8092     13134.29    7704.8121    8056.3259   -9086.3732   -6531.1431   -11204.148    81.608618 
   96700    550.20227   -108.01853   0.49783458   -107.52069    -6824.938     4.341332     4.341332     4.341332    -6824.938   -9741.1687   -568.22486    -10165.42    14273.851    4460.9964     3432.555    81.821797 
   96800    673.81633   -108.12795   0.60968317   -107.51826    6571.1372    4.3355762    4.3355762    4.3355762    6571.1372    3237.7758   -3986.6022    20462.238    1503.7568   -727.52678   -574.01749    81.496786 
   96900    778.04914   -108.22342   0.70399521   -107.51943   -3712.4308    4.3393555    4.3393555    4.3393555   -3712.4308   -5525.8011    2743.2545   -8354.7457   -3200.1944   -2505.9721   -10889.514    81.710089 
   97000    650.40618   -108.11071   0.58850118   -107.52221    -67.00889    4.3392828    4.3392828    4.3392828    -67.00889   -1006.5985   -7659.5765    8465.1483    15043.766    3249.8051    5987.6168    81.705986 
   97100    867.50237   -108.30163   0.78493438    -107.5167     3326.833    4.3378229    4.3378229    4.3378229     3326.833    12746.713   -9173.0258    6406.8115   -919.71485    2218.8027   -4819.2257    81.623545 
   97200    549.57933   -108.01701   0.49727093   -107.51974   -3254.6122    4.3390763    4.3390763    4.3390763   -3254.6122   -8276.4108    11794.347   -13281.773    2924.7418   -1029.0668   -7386.2154    81.694318 
   97300    608.75902   -108.07117   0.55081796   -107.52036    -2003.614    4.3369452    4.3369452    4.3369452    -2003.614   -2712.5383   -2549.8171   -748.48643    18968.296      6345.23    9032.2987    81.574008 
   97400    865.09028   -108.30079   0.78275187   -107.51804    5288.3953    4.3408565    4.3408565    4.3408565    5288.3953    5266.6005    6582.3003     4016.285   -5704.0039   -1089.4225   -12208.478    81.794913 
   97500    736.42456   -108.18789   0.66633242   -107.52156   -4287.7523    4.3380926    4.3380926    4.3380926   -4287.7523   -7608.0194   -6221.3198    966.08215    14384.596    6716.6641    635.46715    81.638769 
   97600    569.44328   -108.03679   0.51524424   -107.52155    6892.3126    4.3365505    4.3365505    4.3365505    6892.3126   -3266.5878    1164.4033    22779.122    11387.224    3137.0752    848.25857     81.55174 
   97700    832.62993   -108.26987   0.75338106   -107.51649   -6496.0832    4.3423054    4.3423054    4.3423054   -6496.0832   -5402.0962   -7443.0857   -6643.0676   -3423.0043    188.95967    -13741.12    81.876844 
   97800    426.75454   -107.90832   0.38613647   -107.52218    3673.8398    4.3355416    4.3355416    4.3355416    3673.8398   -9775.3562     13270.35    7526.5259    19139.998    3233.0864    4963.9354    81.494832 
   97900    911.75766   -108.34599   0.82497749   -107.52101   -3964.4641    4.3381185    4.3381185    4.3381185   -3964.4641    2589.7919   -11026.589   -3456.5953   -1315.0175   -3522.6038   -7882.4949    81.640235 
   98000    860.30179   -108.29667   0.77841914   -107.51825    3335.8904    4.3426019    4.3426019    4.3426019    3335.8904    3996.8181     3575.252    2435.6011    2873.9379    324.14912   -4673.0425    81.893617 
   98100    504.72534   -107.97887   0.45668609   -107.52219   -10811.701    4.3346846    4.3346846    4.3346846   -10811.701    -22962.98   -9789.2376    317.11558    17666.702    1403.1777    3694.8614    81.446516 
   98200    575.87454   -108.04231   0.52106338   -107.52125    778.80695    4.3386252    4.3386252    4.3386252    778.80695    1633.1321   -1695.9461    2399.2349   -5325.6114    -2697.899   -11947.604    81.668845 
   98300    922.95566   -108.35188   0.83510967   -107.51677   -5398.3034    4.3413609    4.3413609    4.3413609   -5398.3034   -15818.224   -13160.353    12783.667    14307.655    1542.5513   -1450.2228    81.823428 
   98400     567.8057   -108.03472   0.51376253   -107.52096    1372.2279    4.3361355    4.3361355    4.3361355    1372.2279   -5390.4114   -2564.5771    12071.672    9368.6916    1140.2246   -1502.8662    81.528327 
   98500    872.29476    -108.3069   0.78927063   -107.51763    -3431.775     4.338869     4.338869     4.338869    -3431.775    8259.4448   -9535.6278    -9019.142   -5262.0076   -3886.0724   -13932.562    81.682611 
   98600    572.43283   -108.03712   0.51794925   -107.51917   -2078.8938    4.3398636    4.3398636    4.3398636   -2078.8938   -14330.884   -1642.9409    9737.1435    23191.132    4833.7103    4821.7355    81.738797 
   98700    586.42012   -108.05119   0.53060524   -107.52058   -8936.8789    4.3355015    4.3355015    4.3355015   -8936.8789   -4172.1397   -12760.288   -9878.2088   -5199.8684    2085.4472   -14423.051    81.492573 
   98800    797.88526   -108.24002   0.72194335   -107.51808   -1514.0452      4.34149      4.34149      4.34149   -1514.0452   -12829.844   -8652.8706    16940.579    9875.3215   -1457.4598   -5736.5015    81.830729 
   98900    846.90432   -108.28279   0.76629683   -107.51649   -7190.6465    4.3396755    4.3396755    4.3396755   -7190.6465   -15037.716   -18738.435    12204.212    15575.661    5285.3595   -2124.4295    81.728168 
   99000    516.89706   -107.98595   0.46769932   -107.51825      2666.48    4.3340701    4.3340701    4.3340701      2666.48   -880.46568   -546.47256    9426.3782   -11433.716   -2657.5128    -13635.16    81.411884 
   99100    637.09309   -108.09462   0.57645521   -107.51816   -6374.3219    4.3419484    4.3419484    4.3419484   -6374.3219   -5983.9045    -12994.13   -144.93151     20511.54   -1848.2592    3057.0035    81.856653 
   99200    829.59324   -108.26771    0.7506334   -107.51707   -587.27473    4.3379076    4.3379076    4.3379076   -587.27473   -5021.2142   -8606.2697     11865.66   -897.93846   -229.85298   -3638.4724    81.628327 
   99300     709.7061   -108.16238   0.64215699   -107.52022   -1308.1274    4.3350526    4.3350526    4.3350526   -1308.1274    4983.5045   -4925.5973   -3982.2893   -1160.1346   -2672.7139   -9597.4713    81.467258 
   99400     697.6762    -108.1504   0.63127209   -107.51912   -9692.3297    4.3421986    4.3421986    4.3421986   -9692.3297    -23577.83   -9394.6259    3895.4663    19079.229   -5891.4886    5017.6107    81.870804 
   99500    650.99719   -108.10747   0.58903593   -107.51844   -2797.3591     4.336748     4.336748     4.336748   -2797.3591   -1639.7568   -6066.6703   -685.65034    -10499.18    155.49893   -7721.9722    81.562884 
   99600     596.3121   -108.06036   0.53955572   -107.52081    4008.3484    4.3359472    4.3359472    4.3359472    4008.3484     10616.65   -8028.7563    9437.1511    8350.8857   -4458.3592    -9260.349    81.517707 
   99700    934.66954   -108.36202   0.84570864   -107.51631   -3318.6467    4.3443788    4.3443788    4.3443788   -3318.6467   -6229.6079   -8576.6766    4850.3443    13461.666    -227.2391    7720.6248    81.994188 
   99800    641.73937   -108.09862   0.58065927   -107.51796    7491.1418    4.3338356    4.3338356    4.3338356    7491.1418    17333.055    -1485.473    6625.8437   -14027.794    2799.3236   -19209.291     81.39867 
   99900    597.69856   -108.05941   0.54081022    -107.5186     663.2968    4.3356059    4.3356059    4.3356059     663.2968    -6172.647    15057.916   -6895.3783    18993.759   -1260.3237   -1843.2925    81.498461 
  100000    729.60671   -108.17687   0.66016348   -107.51671    -8707.655    4.3465006    4.3465006    4.3465006    -8707.655    -3947.918   -13616.538   -8558.5093   -5536.3195    2365.4097   -3104.5534    82.114383 
Loop time of 21.8944 on 1 procs for 100000 steps with 8 atoms

Pair  time (%) = 6.72332 (30.708)
Kspce time (%) = 5.40282 (24.6768)
Neigh time (%) = 0 (0)
Comm  time (%) = 1.08113 (4.93795)
Outpt time (%) = 0.0231662 (0.105809)
Other time (%) = 8.66394 (39.5715)

Nlocal:    8 ave 8 max 8 min
Histogram: 1 0 0 0 0 0 0 0 0 0
Nghost:    2189 ave 2189 max 2189 min
Histogram: 1 0 0 0 0 0 0 0 0 0
Neighs:    2056 ave 2056 max 2056 min
Histogram: 1 0 0 0 0 0 0 0 0 0

Total # of neighbors = 2056
Ave neighs/atom = 257
Neighbor list builds = 0
Dangerous builds = 0
unfix 20
unfix 21
print "seeds:4732401"
seeds:4732401
