    2    2    1    2
  0.1090254E+02  0.2793739E-09  0.2793739E-09  0.2793739E-09  0.5000000E-15
  1.000000000000000E-004
  CAR 
 automatically generated by pyflamestk   
     20      4     16
 
  0.1250000E+00  0.1250000E+00  0.1250000E+00  0.1250000E+00
    1        1.279005      1.298392   1.000000   1.000000
    2        5.713153      5.412543   1.000000   1.000000
    3        5.713153      5.412543   1.000000   1.000000
    4        7.365423      6.789895   1.000000   1.000000
    5        7.365423      6.789895   1.000000   1.000000
    6        8.063198      7.458060   1.000000   1.000000
    7        8.536991      7.941497   1.000003   1.000000
    8        8.766239      8.308578   1.001664   1.000000
    9        8.766239      8.308578   1.001664   1.000000
   10        9.440754      8.792404  -0.019879   1.002852
   11        9.440754      8.792404  -0.019879   1.002852
   12       17.611173     17.519343   0.000000   0.000000
   13       17.611173     17.519343   0.000000   0.000000
   14       18.622922     18.521653   0.000000   0.000000
   15       27.832057     27.789215   0.000000   0.000000
   16       27.832057     27.789215   0.000000   0.000000
 
  0.3750000E+00  0.1250000E+00  0.1250000E+00  0.3750000E+00
    1        3.493633      3.477526   1.000000   1.000000
    2        5.758419      5.537491   1.000000   1.000000
    3        6.434437      6.083259   1.000000   1.000000
    4        7.132981      6.639754   1.000000   1.000000
    5        7.254312      6.703881   1.000000   1.000000
    6        7.601353      7.060325   1.000000   1.000000
    7        8.315141      7.829490   1.000000   1.000000
    8        8.485194      7.906784   1.000000   1.000000
    9        8.836569      8.225347   1.006436   1.000000
   10        9.190562      8.686653   0.738310   1.000253
   11        9.314911      8.730283   0.239455   1.000743
   12       11.750670     11.494948  -0.000000  -0.000000
   13       20.765964     20.640259   0.000000   0.000000
   14       21.261603     21.144240   0.000000   0.000000
   15       25.339525     25.263072   0.000000   0.000000
   16       26.127107     26.035702   0.000000   0.000000
 
  0.3750000E+00  0.3750000E+00  0.1250000E+00  0.3750000E+00
    1        4.780080      4.580785   1.000000   1.000000
    2        5.516478      5.177650   1.000000   1.000000
    3        6.671370      6.134273   1.000000   1.000000
    4        6.808428      6.281785   1.000000   1.000000
    5        7.370055      7.070330   1.000000   1.000000
    6        7.500272      7.179100   1.000000   1.000000
    7        8.645179      8.128109   1.000082   1.000000
    8        8.780121      8.273436   1.002226   1.000000
    9        8.963616      8.494564   1.030620   1.000001
   10        9.463461      8.865880  -0.030891   1.010300
   11       10.078707      9.534275  -0.000000  -0.030895
   12       12.285814     12.085891  -0.000000  -0.000000
   13       16.191589     15.925834   0.000000   0.000000
   14       19.326766     19.157061   0.000000   0.000000
   15       23.167183     23.080279   0.000000   0.000000
   16       26.887115     26.876215   0.000000   0.000000
 
  0.3750000E+00  0.3750000E+00  0.3750000E+00  0.1250000E+00
    1        6.167456      5.693519   1.000000   1.000000
    2        6.202277      5.939032   1.000000   1.000000
    3        6.493877      6.016494   1.000000   1.000000
    4        6.493877      6.016494   1.000000   1.000000
    5        6.731586      6.339014   1.000000   1.000000
    6        6.731586      6.339014   1.000000   1.000000
    7        8.966907      8.480506   1.031261   1.000000
    8        8.966907      8.480506   1.031261   1.000000
    9        8.984863      8.487626   1.034139   1.000000
   10        8.984863      8.487626   1.034139   1.000000
   11       12.392544     12.009124  -0.000000  -0.000000
   12       15.899482     15.702502   0.000000   0.000000
   13       15.899482     15.702502   0.000000   0.000000
   14       18.123648     17.946903   0.000000   0.000000
   15       20.862608     20.740214   0.000000   0.000000
   16       20.862608     20.740214   0.000000   0.000000
