    2    2    1    1
  0.9639684E+01  0.3009788E-09  0.3009788E-09  0.3009788E-09  0.5000000E-15
  1.000000000000000E-004
  CAR 
 automatically generated by pyflamestk   
      8     10     16
 
  0.1250000E+00  0.1250000E+00  0.1250000E+00  0.3125000E-01
    1      -13.607752   1.000000
    2        2.409232   1.000000
    3        3.253311   1.000000
    4        3.253311   1.000000
    5        8.694300   0.000000
    6       17.309330   0.000000
    7       19.317410   0.000000
    8       19.317413   0.000000
    9       23.529069   0.000000
   10       23.529069   0.000000
   11       24.864986   0.000000
   12       27.258924   0.000000
   13       28.680144   0.000000
   14       28.680145   0.000000
   15       38.895484   0.000000
   16       40.802474   0.000000
 
  0.3750000E+00  0.1250000E+00  0.1250000E+00  0.9375000E-01
    1      -12.959490   1.000000
    2        0.255941   1.000000
    3        2.404533   1.000000
    4        2.961751   1.000000
    5       11.116282   0.000000
    6       15.242973   0.000000
    7       18.617660   0.000000
    8       20.290552   0.000000
    9       22.114070   0.000000
   10       24.330568   0.000000
   11       26.409347   0.000000
   12       31.060957   0.000000
   13       32.315658   0.000000
   14       33.207535   0.000000
   15       35.573523   0.000000
   16       38.848191   0.000000
 
 -0.3750000E+00  0.1250000E+00  0.1250000E+00  0.9375000E-01
    1      -12.526577   1.000000
    2       -0.865473   1.000000
    3        2.254322   1.000000
    4        2.626591   1.000000
    5       11.721584   0.000000
    6       15.422728   0.000000
    7       17.910346   0.000000
    8       19.721186   0.000000
    9       23.697968   0.000000
   10       25.948509   0.000000
   11       26.024651   0.000000
   12       32.283673   0.000000
   13       32.872759   0.000000
   14       33.239092   0.000000
   15       35.794669   0.000000
   16       37.501938   0.000000
 
 -0.1250000E+00  0.1250000E+00  0.1250000E+00  0.9375000E-01
    1      -13.246608   1.000000
    2        1.136617   1.000000
    3        2.888499   1.000000
    4        2.893909   1.000000
    5       10.283725   0.000000
    6       15.497309   0.000000
    7       19.417902   0.000000
    8       19.905417   0.000000
    9       21.070312   0.000000
   10       24.910146   0.000000
   11       26.870499   0.000000
   12       29.951262   0.000000
   13       30.259635   0.000000
   14       30.982887   0.000000
   15       37.179389   0.000000
   16       38.953326   0.000000
 
  0.3750000E+00  0.3750000E+00  0.1250000E+00  0.9375000E-01
    1      -12.725299   1.000000
    2        0.073500   1.000000
    3        2.203474   1.000000
    4        2.436412   1.000000
    5       12.214048   0.000000
    6       13.908640   0.000000
    7       17.161359   0.000000
    8       20.781204   0.000000
    9       21.236587   0.000000
   10       27.083127   0.000000
   11       30.145926   0.000000
   12       30.398723   0.000000
   13       32.328419   0.000000
   14       34.820098   0.000000
   15       36.465764   0.000000
   16       37.869257   0.000000
 
 -0.3750000E+00  0.3750000E+00  0.1250000E+00  0.1875000E+00
    1      -12.316708   1.000000
    2       -0.041161   1.000000
    3        0.952230   1.000000
    4        2.026987   1.000000
    5       13.758729   0.000000
    6       14.768393   0.000000
    7       15.563039   0.000000
    8       19.545316   0.000000
    9       22.991234   0.000000
   10       26.444417   0.000000
   11       29.972647   0.000000
   12       31.400902   0.000000
   13       32.668862   0.000000
   14       36.333938   0.000000
   15       38.880612   0.000000
   16       41.085810   0.000000
 
 -0.1250000E+00  0.3750000E+00  0.1250000E+00  0.1875000E+00
    1      -12.571149   1.000000
    2       -0.244950   1.000000
    3        1.691037   1.000000
    4        2.525355   1.000000
    5       12.583309   0.000000
    6       14.792076   0.000000
    7       16.931927   0.000000
    8       20.118208   0.000000
    9       22.696481   0.000000
   10       25.354781   0.000000
   11       28.863587   0.000000
   12       31.631152   0.000000
   13       32.233735   0.000000
   14       34.881137   0.000000
   15       35.525179   0.000000
   16       41.006932   0.000000
 
 -0.3750000E+00 -0.3750000E+00  0.1250000E+00  0.9375000E-01
    1      -12.352477   1.000000
    2       -0.403553   1.000000
    3        1.689091   1.000000
    4        2.142483   1.000000
    5       12.853712   0.000000
    6       13.485375   0.000000
    7       16.011378   0.000000
    8       21.473514   0.000000
    9       21.486692   0.000000
   10       28.910165   0.000000
   11       29.390951   0.000000
   12       31.963394   0.000000
   13       32.661142   0.000000
   14       37.793657   0.000000
   15       38.168468   0.000000
   16       41.095762   0.000000
 
  0.3750000E+00  0.3750000E+00  0.3750000E+00  0.3125000E-01
    1      -12.761574   1.000000
    2       -0.599891   1.000000
    3        2.819561   1.000000
    4        2.819561   1.000000
    5       10.926865   0.000000
    6       15.434300   0.000000
    7       19.524123   0.000000
    8       19.524125   0.000000
    9       24.071218   0.000000
   10       24.441920   0.000000
   11       24.441924   0.000000
   12       31.898250   0.000000
   13       33.211621   0.000000
   14       33.211624   0.000000
   15       36.838983   0.000000
   16       36.838987   0.000000
 
 -0.3750000E+00  0.3750000E+00  0.3750000E+00  0.9375000E-01
    1      -12.399805   1.000000
    2       -0.281796   1.000000
    3        1.058564   1.000000
    4        2.495372   1.000000
    5       13.073430   0.000000
    6       15.235370   0.000000
    7       16.122658   0.000000
    8       20.427016   0.000000
    9       22.508198   0.000000
   10       25.548879   0.000000
   11       29.076202   0.000000
   12       31.615287   0.000000
   13       32.038657   0.000000
   14       35.364919   0.000000
   15       37.236998   0.000000
   16       40.110160   0.000000
