# ['Ni']

10 atoms
1 atom types

    0.0000     7.8398 xlo xhi
    0.0000     5.6121 ylo yhi
    0.0000    56.1206 zlo zhi

    0.0000     0.0000     0.0000 xy xz yz

Atoms

1 1     0.0000     0.0000     0.0000
2 1     3.9199     2.8060     2.8060
3 1     0.0000     0.0000     5.6121
4 1     3.9199     2.8060     8.4181
5 1     0.0000     0.0000    11.2241
6 1     3.9199     2.8060    14.0301
7 1     0.0000     0.0000    16.8362
8 1     3.9199     2.8060    19.6422
9 1     0.0000     0.0000    22.4482
10 1     3.9199     2.8060    25.2543
