# ['Ni']

20 atoms
1 atom types

    0.0000     3.5906 xlo xhi
    0.0000     3.5906 ylo yhi
    0.0000    35.9064 zlo zhi

    0.0000    -0.0000     0.0000 xy xz yz

Atoms

1 1     0.0000     0.0000     0.0000
2 1     1.7953     1.7953     0.0000
3 1     1.7953     0.0000     1.7953
4 1     0.0000     1.7953     1.7953
5 1     0.0000     0.0000     3.5906
6 1     1.7953     1.7953     3.5906
7 1     1.7953     0.0000     5.3860
8 1     0.0000     1.7953     5.3860
9 1     0.0000     0.0000     7.1813
10 1     1.7953     1.7953     7.1813
11 1     1.7953     0.0000     8.9766
12 1     0.0000     1.7953     8.9766
13 1     0.0000     0.0000    10.7719
14 1     1.7953     1.7953    10.7719
15 1     1.7953     0.0000    12.5672
16 1     0.0000     1.7953    12.5672
17 1     0.0000     0.0000    14.3626
18 1     1.7953     1.7953    14.3626
19 1     1.7953     0.0000    16.1579
20 1     0.0000     1.7953    16.1579
