# ['Ni']

20 atoms
1 atom types

    0.0000     3.0431 xlo xhi
    0.0000     3.0431 ylo yhi
    0.0000    30.4308 zlo zhi

    0.0000    -0.0000     0.0000 xy xz yz

Atoms

1 1     0.0000     0.0000     0.0000
2 1     1.5215     1.5215     0.0000
3 1     1.5215     0.0000     1.5215
4 1     0.0000     1.5215     1.5215
5 1     0.0000     0.0000     3.0431
6 1     1.5215     1.5215     3.0431
7 1     1.5215     0.0000     4.5646
8 1     0.0000     1.5215     4.5646
9 1     0.0000     0.0000     6.0862
10 1     1.5215     1.5215     6.0862
11 1     1.5215     0.0000     7.6077
12 1     0.0000     1.5215     7.6077
13 1     0.0000     0.0000     9.1292
14 1     1.5215     1.5215     9.1292
15 1     1.5215     0.0000    10.6508
16 1     0.0000     1.5215    10.6508
17 1     0.0000     0.0000    12.1723
18 1     1.5215     1.5215    12.1723
19 1     1.5215     0.0000    13.6938
20 1     0.0000     1.5215    13.6938
