    2    2    1    1
  0.9563318E+01  0.3001819E-09  0.3001820E-09  0.3001819E-09  0.5000000E-15
  1.000000000000000E-004
  CAR 
 automatically generated by pyflamestk   
      8     10     16
 
  0.1250000E+00  0.1250000E+00  0.1250000E+00  0.3125000E-01
    1      -13.573377   1.000000
    2        2.468533   1.000000
    3        3.315643   1.000000
    4        3.315644   1.000000
    5        8.833748   0.000000
    6       17.412853   0.000000
    7       19.429407   0.000000
    8       19.429410   0.000000
    9       23.679391   0.000000
   10       23.679394   0.000000
   11       25.018174   0.000000
   12       27.455497   0.000000
   13       28.886620   0.000000
   14       28.886623   0.000000
   15       39.150866   0.000000
   16       41.054081   0.000000
 
  0.3750000E+00  0.1250000E+00  0.1250000E+00  0.9375000E-01
    1      -12.914404   1.000000
    2        0.296389   1.000000
    3        2.453908   1.000000
    4        3.016978   1.000000
    5       11.250265   0.000000
    6       15.351359   0.000000
    7       18.763151   0.000000
    8       20.430813   0.000000
    9       22.251559   0.000000
   10       24.482451   0.000000
   11       26.600716   0.000000
   12       31.261765   0.000000
   13       32.535687   0.000000
   14       33.410744   0.000000
   15       35.781006   0.000000
   16       39.074665   0.000000
 
 -0.3750000E+00  0.1250000E+00  0.1250000E+00  0.9375000E-01
    1      -12.473386   1.000000
    2       -0.837696   1.000000
    3        2.302582   1.000000
    4        2.677445   1.000000
    5       11.837521   0.000000
    6       15.561895   0.000000
    7       18.052437   0.000000
    8       19.868694   0.000000
    9       23.858899   0.000000
   10       26.108871   0.000000
   11       26.204516   0.000000
   12       32.487738   0.000000
   13       33.084312   0.000000
   14       33.429447   0.000000
   15       36.011104   0.000000
   16       37.721858   0.000000
 
 -0.1250000E+00  0.1250000E+00  0.1250000E+00  0.9375000E-01
    1      -13.206487   1.000000
    2        1.185371   1.000000
    3        2.944630   1.000000
    4        2.948748   1.000000
    5       10.422628   0.000000
    6       15.592015   0.000000
    7       19.557246   0.000000
    8       20.038040   0.000000
    9       21.213291   0.000000
   10       25.058945   0.000000
   11       27.058369   0.000000
   12       30.156372   0.000000
   13       30.441205   0.000000
   14       31.194389   0.000000
   15       37.416125   0.000000
   16       39.178697   0.000000
 
  0.3750000E+00  0.3750000E+00  0.1250000E+00  0.9375000E-01
    1      -12.676429   1.000000
    2        0.109906   1.000000
    3        2.253300   1.000000
    4        2.486509   1.000000
    5       12.353342   0.000000
    6       13.995542   0.000000
    7       17.306857   0.000000
    8       20.937042   0.000000
    9       21.393983   0.000000
   10       27.239627   0.000000
   11       30.345571   0.000000
   12       30.614078   0.000000
   13       32.527846   0.000000
   14       35.019671   0.000000
   15       36.672456   0.000000
   16       38.088595   0.000000
 
 -0.3750000E+00  0.3750000E+00  0.1250000E+00  0.1875000E+00
    1      -12.260268   1.000000
    2       -0.008552   1.000000
    3        0.992026   1.000000
    4        2.074762   1.000000
    5       13.867688   0.000000
    6       14.906219   0.000000
    7       15.698308   0.000000
    8       19.711492   0.000000
    9       23.157282   0.000000
   10       26.610468   0.000000
   11       30.173138   0.000000
   12       31.595909   0.000000
   13       32.864324   0.000000
   14       36.538134   0.000000
   15       39.109687   0.000000
   16       41.329089   0.000000
 
 -0.1250000E+00  0.3750000E+00  0.1250000E+00  0.1875000E+00
    1      -12.519188   1.000000
    2       -0.211867   1.000000
    3        1.734965   1.000000
    4        2.575634   1.000000
    5       12.711321   0.000000
    6       14.905435   0.000000
    7       17.079175   0.000000
    8       20.274629   0.000000
    9       22.844175   0.000000
   10       25.518603   0.000000
   11       29.053407   0.000000
   12       31.844995   0.000000
   13       32.426650   0.000000
   14       35.091369   0.000000
   15       35.734507   0.000000
   16       41.236002   0.000000
 
 -0.3750000E+00 -0.3750000E+00  0.1250000E+00  0.9375000E-01
    1      -12.296990   1.000000
    2       -0.373263   1.000000
    3        1.734768   1.000000
    4        2.191783   1.000000
    5       12.941973   0.000000
    6       13.624331   0.000000
    7       16.148901   0.000000
    8       21.647849   0.000000
    9       21.658954   0.000000
   10       29.126608   0.000000
   11       29.558830   0.000000
   12       32.141901   0.000000
   13       32.856634   0.000000
   14       38.005075   0.000000
   15       38.386971   0.000000
   16       41.317972   0.000000
 
  0.3750000E+00  0.3750000E+00  0.3750000E+00  0.3125000E-01
    1      -12.712689   1.000000
    2       -0.567158   1.000000
    3        2.872647   1.000000
    4        2.872648   1.000000
    5       11.047572   0.000000
    6       15.567342   0.000000
    7       19.664251   0.000000
    8       19.664254   0.000000
    9       24.253642   0.000000
   10       24.593848   0.000000
   11       24.593851   0.000000
   12       32.107894   0.000000
   13       33.428110   0.000000
   14       33.428112   0.000000
   15       37.041853   0.000000
   16       37.041859   0.000000
 
 -0.3750000E+00  0.3750000E+00  0.3750000E+00  0.9375000E-01
    1      -12.344624   1.000000
    2       -0.250824   1.000000
    3        1.098053   1.000000
    4        2.545193   1.000000
    5       13.190401   0.000000
    6       15.364400   0.000000
    7       16.270441   0.000000
    8       20.586462   0.000000
    9       22.670093   0.000000
   10       25.694921   0.000000
   11       29.273567   0.000000
   12       31.815164   0.000000
   13       32.238048   0.000000
   14       35.576857   0.000000
   15       37.461453   0.000000
   16       40.335323   0.000000
