<?xml version="1.0" encoding="ISO-8859-1"?>
<modeling>
 <generator>
  <i name="program" type="string">vasp </i>
  <i name="version" type="string">5.4.1  </i>
  <i name="subversion" type="string">24Jun15 (build Jun 05 2017 10:38:15) complex                          parallel </i>
  <i name="platform" type="string">IFC91_ompi </i>
  <i name="date" type="string">2017 08 29 </i>
  <i name="time" type="string">20:22:04 </i>
 </generator>
 <incar>
  <i type="string" name="SYSTEM"> automatically generated by pyflamestk</i>
  <i type="int" name="ISTART">     0</i>
  <i type="string" name="PREC">high                   ! avoid wrap aro</i>
  <i type="string" name="ALGO"> Normal                 ! blocked Davids</i>
  <i type="int" name="ISPIN">     1</i>
  <i type="int" name="ICHARG">     0</i>
  <i type="int" name="NELM">    40</i>
  <i name="EDIFF">      0.00000100</i>
  <i name="ENCUT">    875.00000000</i>
  <i type="logical" name="LREAL"> F  </i>
  <i type="int" name="ISMEAR">     0</i>
  <i name="SIGMA">      0.05000000</i>
  <i type="logical" name="LWAVE"> F  </i>
  <i type="logical" name="LCHARG"> F  </i>
  <i type="logical" name="LVTOT"> F  </i>
  <v type="int" name="KPOINT_BSE">    -1     0     0     0</v>
  <i type="int" name="NELM">    40</i>
 </incar>
 <kpoints>
  <generation param="Monkhorst-Pack">
   <v type="int" name="divisions">       4        4        4 </v>
   <v name="usershift">      0.00000000       0.00000000       0.00000000 </v>
   <v name="genvec1">      0.25000000      -0.00000000       0.00000000 </v>
   <v name="genvec2">      0.00000000       0.25000000      -0.00000000 </v>
   <v name="genvec3">      0.00000000       0.00000000       0.25000000 </v>
   <v name="shift">      0.50000000       0.50000000       0.50000000 </v>
  </generation>
  <varray name="kpointlist" >
   <v>       0.12500000       0.12500000       0.12500000 </v>
   <v>       0.37500000       0.12500000       0.12500000 </v>
   <v>      -0.37500000       0.12500000       0.12500000 </v>
   <v>      -0.12500000       0.12500000       0.12500000 </v>
   <v>       0.37500000       0.37500000       0.12500000 </v>
   <v>      -0.37500000       0.37500000       0.12500000 </v>
   <v>      -0.12500000       0.37500000       0.12500000 </v>
   <v>      -0.37500000      -0.37500000       0.12500000 </v>
   <v>       0.37500000       0.37500000       0.37500000 </v>
   <v>      -0.37500000       0.37500000       0.37500000 </v>
  </varray>
  <varray name="weights" >
   <v>       0.03125000 </v>
   <v>       0.09375000 </v>
   <v>       0.09375000 </v>
   <v>       0.09375000 </v>
   <v>       0.09375000 </v>
   <v>       0.18750000 </v>
   <v>       0.18750000 </v>
   <v>       0.09375000 </v>
   <v>       0.03125000 </v>
   <v>       0.09375000 </v>
  </varray>
 </kpoints>
 <parameters>
  <separator name="general" >
   <i type="string" name="SYSTEM">automatically generated by pyflamestk</i>
   <i type="logical" name="LCOMPAT"> F  </i>
  </separator>
  <separator name="electronic" >
   <i type="string" name="PREC">high</i>
   <i name="ENMAX">    875.00000000</i>
   <i name="ENAUG">    888.80400000</i>
   <i name="EDIFF">      0.00000100</i>
   <i type="int" name="IALGO">    38</i>
   <i type="int" name="IWAVPR">    10</i>
   <i type="int" name="NBANDS">    16</i>
   <i name="NELECT">      8.00000000</i>
   <i type="int" name="TURBO">     0</i>
   <i type="int" name="IRESTART">     0</i>
   <i type="int" name="NREBOOT">     0</i>
   <i type="int" name="NMIN">     0</i>
   <i name="EREF">      0.00000000</i>
   <separator name="electronic smearing" >
    <i type="int" name="ISMEAR">     0</i>
    <i name="SIGMA">      0.05000000</i>
    <i name="KSPACING">      0.50000000</i>
    <i type="logical" name="KGAMMA"> T  </i>
   </separator>
   <separator name="electronic projectors" >
    <i type="logical" name="LREAL"> F  </i>
    <v name="ROPT">      0.00000000      0.00000000</v>
    <i type="int" name="LMAXPAW">  -100</i>
    <i type="int" name="LMAXMIX">     2</i>
    <i type="logical" name="NLSPLINE"> F  </i>
   </separator>
   <separator name="electronic startup" >
    <i type="int" name="ISTART">     0</i>
    <i type="int" name="ICHARG">     0</i>
    <i type="int" name="INIWAV">     1</i>
   </separator>
   <separator name="electronic spin" >
    <i type="int" name="ISPIN">     1</i>
    <i type="logical" name="LNONCOLLINEAR"> F  </i>
    <v name="MAGMOM">      1.00000000      1.00000000</v>
    <i name="NUPDOWN">     -1.00000000</i>
    <i type="logical" name="LSORBIT"> F  </i>
    <v name="SAXIS">      0.00000000      0.00000000      1.00000000</v>
    <i type="logical" name="LSPIRAL"> F  </i>
    <v name="QSPIRAL">      0.00000000      0.00000000      0.00000000</v>
    <i type="logical" name="LZEROZ"> F  </i>
   </separator>
   <separator name="electronic exchange-correlation" >
    <i type="logical" name="LASPH"> F  </i>
    <i type="logical" name="LMETAGGA"> F  </i>
   </separator>
   <separator name="electronic convergence" >
    <i type="int" name="NELM">    40</i>
    <i type="int" name="NELMDL">    -5</i>
    <i type="int" name="NELMIN">     2</i>
    <i name="ENINI">    875.00000000</i>
    <separator name="electronic convergence detail" >
     <i type="logical" name="LDIAG"> T  </i>
     <i type="logical" name="LSUBROT"> F  </i>
     <i name="WEIMIN">      0.00000000</i>
     <i name="EBREAK">      0.00000002</i>
     <i name="DEPER">      0.30000000</i>
     <i type="int" name="NRMM">     4</i>
     <i name="TIME">      0.40000000</i>
    </separator>
   </separator>
   <separator name="electronic mixer" >
    <i name="AMIX">      0.40000000</i>
    <i name="BMIX">      1.00000000</i>
    <i name="AMIN">      0.10000000</i>
    <i name="AMIX_MAG">      1.60000000</i>
    <i name="BMIX_MAG">      1.00000000</i>
    <separator name="electronic mixer details" >
     <i type="int" name="IMIX">     4</i>
     <i type="logical" name="MIXFIRST"> F  </i>
     <i type="int" name="MAXMIX">   -45</i>
     <i name="WC">    100.00000000</i>
     <i type="int" name="INIMIX">     1</i>
     <i type="int" name="MIXPRE">     1</i>
     <i type="int" name="MREMOVE">     5</i>
    </separator>
   </separator>
   <separator name="electronic dipolcorrection" >
    <i type="logical" name="LDIPOL"> F  </i>
    <i type="logical" name="LMONO"> F  </i>
    <i type="int" name="IDIPOL">     0</i>
    <i name="EPSILON">      1.00000000</i>
    <v name="DIPOL">   -100.00000000   -100.00000000   -100.00000000</v>
    <i name="EFIELD">      0.00000000</i>
   </separator>
  </separator>
  <separator name="grids" >
   <i type="int" name="NGX">    30</i>
   <i type="int" name="NGY">    30</i>
   <i type="int" name="NGZ">    30</i>
   <i type="int" name="NGXF">    40</i>
   <i type="int" name="NGYF">    40</i>
   <i type="int" name="NGZF">    40</i>
   <i type="logical" name="ADDGRID"> F  </i>
  </separator>
  <separator name="ionic" >
   <i type="int" name="NSW">     0</i>
   <i type="int" name="IBRION">    -1</i>
   <i type="int" name="ISIF">     2</i>
   <i name="PSTRESS">      0.00000000</i>
   <i name="EDIFFG">      0.00001000</i>
   <i type="int" name="NFREE">     0</i>
   <i name="POTIM">      0.50000000</i>
   <i name="SMASS">     -3.00000000</i>
   <i name="SCALEE">      1.00000000</i>
  </separator>
  <separator name="ionic md" >
   <i name="TEBEG">      0.00010000</i>
   <i name="TEEND">      0.00010000</i>
   <i type="int" name="NBLOCK">     1</i>
   <i type="int" name="KBLOCK">     1</i>
   <i type="int" name="NPACO">   256</i>
   <i name="APACO">     16.00000000</i>
  </separator>
  <separator name="symmetry" >
   <i type="int" name="ISYM">     2</i>
   <i name="SYMPREC">      0.00001000</i>
  </separator>
  <separator name="dos" >
   <i type="logical" name="LORBIT"> F  </i>
   <v name="RWIGS">     -1.00000000     -1.00000000</v>
   <i type="int" name="NEDOS">   301</i>
   <i name="EMIN">     10.00000000</i>
   <i name="EMAX">    -10.00000000</i>
   <i name="EFERMI">      0.00000000</i>
  </separator>
  <separator name="writing" >
   <i type="int" name="NWRITE">     2</i>
   <i type="logical" name="LWAVE"> F  </i>
   <i type="logical" name="LCHARG"> F  </i>
   <i type="logical" name="LPARD"> F  </i>
   <i type="logical" name="LVTOT"> F  </i>
   <i type="logical" name="LVHAR"> F  </i>
   <i type="logical" name="LELF"> F  </i>
   <i type="logical" name="LOPTICS"> F  </i>
   <v name="STM">      0.00000000      0.00000000      0.00000000      0.00000000      0.00000000      0.00000000      0.00000000</v>
  </separator>
  <separator name="performance" >
   <i type="int" name="NPAR">    16</i>
   <i type="int" name="NSIM">     4</i>
   <i type="int" name="NBLK">    -1</i>
   <i type="logical" name="LPLANE"> T  </i>
   <i type="logical" name="LSCALAPACK"> T  </i>
   <i type="logical" name="LSCAAWARE"> F  </i>
   <i type="logical" name="LSCALU"> F  </i>
   <i type="logical" name="LASYNC"> F  </i>
   <i type="logical" name="LORBITALREAL"> F  </i>
  </separator>
  <separator name="miscellaneous" >
   <i type="int" name="IDIOT">     3</i>
   <i type="logical" name="LMUSIC"> F  </i>
   <v name="POMASS">     16.00000000     24.30500000</v>
   <v name="DARWINR">      0.00000000      0.00000000</v>
   <v name="DARWINV">      1.00000000      1.00000000</v>
   <i type="logical" name="LCORR"> T  </i>
  </separator>
  <i type="logical" name="GGA_COMPAT"> T  </i>
  <i type="logical" name="LBERRY"> F  </i>
  <i type="int" name="ICORELEVEL">     0</i>
  <i type="logical" name="LDAU"> F  </i>
  <i type="int" name="I_CONSTRAINED_M">     0</i>
  <separator name="electronic exchange-correlation" >
   <i type="string" name="GGA">--</i>
   <i type="int" name="VOSKOWN">     0</i>
   <i type="logical" name="LHFCALC"> F  </i>
   <i type="string" name="PRECFOCK"></i>
   <i type="logical" name="LSYMGRAD"> F  </i>
   <i type="logical" name="LHFONE"> F  </i>
   <i type="logical" name="LRHFCALC"> F  </i>
   <i type="logical" name="LTHOMAS"> F  </i>
   <i type="logical" name="LMODELHF"> F  </i>
   <i name="ENCUT4O">     -1.00000000</i>
   <i type="int" name="EXXOEP">     0</i>
   <i type="int" name="FOURORBIT">     0</i>
   <i name="AEXX">      0.00000000</i>
   <i name="HFALPHA">      0.00000000</i>
   <i name="MCALPHA">      0.00000000</i>
   <i name="ALDAX">      1.00000000</i>
   <i name="AGGAX">      1.00000000</i>
   <i name="ALDAC">      1.00000000</i>
   <i name="AGGAC">      1.00000000</i>
   <i type="int" name="NKREDX">     1</i>
   <i type="int" name="NKREDY">     1</i>
   <i type="int" name="NKREDZ">     1</i>
   <i type="logical" name="SHIFTRED"> F  </i>
   <i type="logical" name="ODDONLY"> F  </i>
   <i type="logical" name="EVENONLY"> F  </i>
   <i type="int" name="LMAXFOCK">     0</i>
   <i type="int" name="NMAXFOCKAE">     0</i>
   <i type="logical" name="LFOCKAEDFT"> F  </i>
   <i name="HFSCREEN">      0.00000000</i>
   <i name="HFSCREENC">      0.00000000</i>
   <i type="int" name="NBANDSGWLOW">     0</i>
  </separator>
  <separator name="vdW DFT" >
   <i type="logical" name="LUSE_VDW"> F  </i>
   <i name="Zab_VDW">     -0.84910000</i>
   <i name="PARAM1">      0.12340000</i>
   <i name="PARAM2">      1.00000000</i>
   <i name="PARAM3">      0.00000000</i>
  </separator>
  <separator name="model GW" >
   <i type="int" name="MODEL_GW">     0</i>
   <i name="MODEL_EPS0">      5.73799088</i>
   <i name="MODEL_ALPHA">      1.00000000</i>
  </separator>
  <separator name="linear response parameters" >
   <i type="logical" name="LEPSILON"> F  </i>
   <i type="logical" name="LRPA"> F  </i>
   <i type="logical" name="LNABLA"> F  </i>
   <i type="logical" name="LVEL"> F  </i>
   <i type="int" name="KINTER">     0</i>
   <i name="CSHIFT">      0.10000000</i>
   <i name="OMEGAMAX">     -1.00000000</i>
   <i name="DEG_THRESHOLD">      0.00200000</i>
  </separator>
  <separator name="orbital magnetization" >
   <i type="logical" name="NUCIND"> F  </i>
   <v name="MAGPOS">      0.00000000      0.00000000      0.00000000</v>
   <i type="logical" name="LNICSALL"> T  </i>
   <i type="logical" name="ORBITALMAG"> F  </i>
   <i type="logical" name="LMAGBLOCH"> F  </i>
   <i type="logical" name="LCHIMAG"> F  </i>
   <i type="logical" name="LGAUGE"> T  </i>
   <i type="int" name="MAGATOM">     0</i>
   <v name="MAGDIPOL">      0.00000000      0.00000000      0.00000000</v>
   <v name="AVECCONST">      0.00000000      0.00000000      0.00000000</v>
  </separator>
  <separator name="response functions" >
   <i type="logical" name="LADDER"> F  </i>
   <i type="logical" name="LFXC"> F  </i>
   <i type="logical" name="LHARTREE"> T  </i>
   <i type="int" name="IBSE">     0</i>
   <v type="int" name="KPOINT">    -1     0     0     0</v>
   <i type="logical" name="LTCTE"> F  </i>
   <i type="logical" name="LTETE"> F  </i>
   <i type="logical" name="LTRIPLET"> F  </i>
   <i type="logical" name="LFXCEPS"> F  </i>
   <i type="logical" name="LFXHEG"> F  </i>
   <i type="int" name="NATURALO">     0</i>
   <i type="logical" name="L2ORDER"> F  </i>
   <i type="logical" name="LUSEW"> F  </i>
   <i name="ENCUTGW">     -2.00000000</i>
   <i name="ENCUTGWSOFT">     -2.00000000</i>
   <i name="ENCUTLF">     -1.00000000</i>
   <i type="int" name="LMAXMP2">    -1</i>
   <i name="SCISSOR">      0.00000000</i>
   <i type="int" name="NOMEGA">     0</i>
   <i type="int" name="NOMEGAR">     0</i>
   <i type="int" name="NBANDSGW">    -1</i>
   <i type="int" name="NBANDSO">    -1</i>
   <i type="int" name="NBANDSV">    -1</i>
   <i type="int" name="NELM">    40</i>
   <i type="int" name="NELMHF">     1</i>
   <i type="int" name="DIM">     3</i>
   <i type="int" name="ANTIRES">     0</i>
   <i name="OMEGAMAX">    -30.00000000</i>
   <i name="OMEGAMIN">    -30.00000000</i>
   <i name="OMEGATL">   -200.00000000</i>
   <i type="int" name="OMEGAGRID">     0</i>
   <i name="CSHIFT">     -0.10000000</i>
   <i type="logical" name="SELFENERGY"> F  </i>
   <i type="logical" name="LSPECTRAL"> F  </i>
   <i type="logical" name="LSPECTRALGW"> F  </i>
   <i type="logical" name="LSINGLES"> F  </i>
   <i type="logical" name="LFERMIGW"> F  </i>
   <i type="logical" name="ODDONLYGW"> F  </i>
   <i type="logical" name="EVENONLYGW"> F  </i>
   <i type="int" name="NKREDLFX">     1</i>
   <i type="int" name="NKREDLFY">     1</i>
   <i type="int" name="NKREDLFZ">     1</i>
   <i type="int" name="MAXMEM">  1800</i>
   <i type="int" name="TELESCOPE">     0</i>
   <i type="int" name="TAUPAR">     1</i>
   <i type="int" name="OMEGAPAR">    -1</i>
   <i name="LAMBDA">      1.00000000</i>
  </separator>
  <separator name="External order field" >
   <i name="OFIELD_KAPPA">      0.00000000</i>
   <v name="OFIELD_K">      0.00000000      0.00000000      0.00000000</v>
   <i name="OFIELD_Q6_NEAR">      0.00000000</i>
   <i name="OFIELD_Q6_FAR">      0.00000000</i>
   <i name="OFIELD_A">      0.00000000</i>
  </separator>
 </parameters>
 <atominfo>
  <atoms>       2 </atoms>
  <types>       2 </types>
  <array name="atoms" >
   <dimension dim="1">ion</dimension>
   <field type="string">element</field>
   <field type="int">atomtype</field>
   <set>
    <rc><c>O </c><c>   1</c></rc>
    <rc><c>Mg</c><c>   2</c></rc>
   </set>
  </array>
  <array name="atomtypes" >
   <dimension dim="1">type</dimension>
   <field type="int">atomspertype</field>
   <field type="string">element</field>
   <field>mass</field>
   <field>valence</field>
   <field type="string">pseudopotential</field>
   <set>
    <rc><c>   1</c><c>O </c><c>     16.00000000</c><c>      6.00000000</c><c>  PAW_PBE O_h 06Feb2004                 </c></rc>
    <rc><c>   1</c><c>Mg</c><c>     24.30500000</c><c>      2.00000000</c><c>  PAW_PBE Mg 13Apr2007                  </c></rc>
   </set>
  </array>
 </atominfo>
 <structure name="initialpos" >
  <crystal>
   <varray name="basis" >
    <v>       3.00181900       0.00000000       0.00000000 </v>
    <v>       1.50091000       2.59965200       0.00000000 </v>
    <v>       1.50091000       0.86655100       2.45097500 </v>
   </varray>
   <i name="volume">     19.12663627 </i>
   <varray name="rec_basis" >
    <v>       0.33313134      -0.19233350      -0.13600032 </v>
    <v>       0.00000000       0.38466687      -0.13600035 </v>
    <v>       0.00000000       0.00000000       0.40800090 </v>
   </varray>
  </crystal>
  <varray name="positions" >
   <v>       0.50000000       0.50000000       0.50000000 </v>
   <v>       0.00000000       0.00000000       0.00000000 </v>
  </varray>
 </structure>
 <calculation>
  <scstep>
   <time name="dav">    0.06    0.06</time>
   <time name="total">    0.07    0.08</time>
   <energy>
    <i name="alphaZ">     15.91937336 </i>
    <i name="ewald">   -355.39410472 </i>
    <i name="hartreedc">    -34.17368695 </i>
    <i name="XCdc">    -29.47565597 </i>
    <i name="pawpsdc"> 150387.29812847 </i>
    <i name="pawaedc">-150333.48006820 </i>
    <i name="eentropy">     -0.00000000 </i>
    <i name="bandstr">   -359.20358099 </i>
    <i name="atom">    455.39254114 </i>
    <i name="e_fr_energy">   -253.11705386 </i>
    <i name="e_wo_entrp">   -253.11705386 </i>
    <i name="e_0_energy">   -253.11705386 </i>
   </energy>
  </scstep>
  <scstep>
   <time name="dav">    0.07    0.08</time>
   <time name="total">    0.08    0.08</time>
   <energy>
    <i name="e_fr_energy">   -307.25168603 </i>
    <i name="e_wo_entrp">   -307.25168603 </i>
    <i name="e_0_energy">   -307.25168603 </i>
   </energy>
  </scstep>
  <scstep>
   <time name="dav">    0.06    0.06</time>
   <time name="total">    0.06    0.06</time>
   <energy>
    <i name="e_fr_energy">   -307.51110813 </i>
    <i name="e_wo_entrp">   -307.51110813 </i>
    <i name="e_0_energy">   -307.51110813 </i>
   </energy>
  </scstep>
  <scstep>
   <time name="dav">    0.09    0.09</time>
   <time name="total">    0.09    0.09</time>
   <energy>
    <i name="e_fr_energy">   -307.51201921 </i>
    <i name="e_wo_entrp">   -307.51201921 </i>
    <i name="e_0_energy">   -307.51201921 </i>
   </energy>
  </scstep>
  <scstep>
   <time name="dav">    0.07    0.07</time>
   <time name="total">    0.08    0.08</time>
   <energy>
    <i name="e_fr_energy">   -307.51201961 </i>
    <i name="e_wo_entrp">   -307.51201961 </i>
    <i name="e_0_energy">   -307.51201961 </i>
   </energy>
  </scstep>
  <scstep>
   <time name="dav">    0.05    0.05</time>
   <time name="total">    0.07    0.07</time>
   <energy>
    <i name="e_fr_energy">    -68.00474089 </i>
    <i name="e_wo_entrp">    -68.00474089 </i>
    <i name="e_0_energy">    -68.00474089 </i>
   </energy>
  </scstep>
  <scstep>
   <time name="dav">    0.08    0.08</time>
   <time name="total">    0.09    0.10</time>
   <energy>
    <i name="e_fr_energy">    -22.82827115 </i>
    <i name="e_wo_entrp">    -22.82827115 </i>
    <i name="e_0_energy">    -22.82827115 </i>
   </energy>
  </scstep>
  <scstep>
   <time name="dav">    0.05    0.05</time>
   <time name="total">    0.07    0.07</time>
   <energy>
    <i name="e_fr_energy">    -20.85226795 </i>
    <i name="e_wo_entrp">    -20.85226795 </i>
    <i name="e_0_energy">    -20.85226795 </i>
   </energy>
  </scstep>
  <scstep>
   <time name="dav">    0.05    0.05</time>
   <time name="total">    0.07    0.07</time>
   <energy>
    <i name="e_fr_energy">    -11.97135899 </i>
    <i name="e_wo_entrp">    -11.97135899 </i>
    <i name="e_0_energy">    -11.97135899 </i>
   </energy>
  </scstep>
  <scstep>
   <time name="dav">    0.07    0.07</time>
   <time name="total">    0.08    0.09</time>
   <energy>
    <i name="e_fr_energy">    -11.98309065 </i>
    <i name="e_wo_entrp">    -11.98309065 </i>
    <i name="e_0_energy">    -11.98309065 </i>
   </energy>
  </scstep>
  <scstep>
   <time name="dav">    0.06    0.06</time>
   <time name="total">    0.07    0.08</time>
   <energy>
    <i name="e_fr_energy">    -11.92263409 </i>
    <i name="e_wo_entrp">    -11.92263409 </i>
    <i name="e_0_energy">    -11.92263409 </i>
   </energy>
  </scstep>
  <scstep>
   <time name="dav">    0.06    0.06</time>
   <time name="total">    0.08    0.08</time>
   <energy>
    <i name="e_fr_energy">    -11.91951482 </i>
    <i name="e_wo_entrp">    -11.91951482 </i>
    <i name="e_0_energy">    -11.91951482 </i>
   </energy>
  </scstep>
  <scstep>
   <time name="dav">    0.07    0.07</time>
   <time name="total">    0.09    0.09</time>
   <energy>
    <i name="e_fr_energy">    -11.91956957 </i>
    <i name="e_wo_entrp">    -11.91956957 </i>
    <i name="e_0_energy">    -11.91956957 </i>
   </energy>
  </scstep>
  <scstep>
   <time name="dav">    0.07    0.07</time>
   <time name="total">    0.08    0.09</time>
   <energy>
    <i name="e_fr_energy">    -11.91953736 </i>
    <i name="e_wo_entrp">    -11.91953736 </i>
    <i name="e_0_energy">    -11.91953736 </i>
   </energy>
  </scstep>
  <scstep>
   <time name="dav">    0.05    0.05</time>
   <time name="total">    0.07    0.07</time>
   <energy>
    <i name="e_fr_energy">    -11.91953591 </i>
    <i name="e_wo_entrp">    -11.91953591 </i>
    <i name="e_0_energy">    -11.91953591 </i>
   </energy>
  </scstep>
  <scstep>
   <time name="dav">    0.03    0.03</time>
   <time name="total">    0.04    0.04</time>
   <energy>
    <i name="alphaZ">     15.91937336 </i>
    <i name="ewald">   -355.39410472 </i>
    <i name="hartreedc">   -141.37008912 </i>
    <i name="XCdc">    -20.65010739 </i>
    <i name="pawpsdc">    649.12615041 </i>
    <i name="pawaedc">   -598.74775807 </i>
    <i name="eentropy">     -0.00000000 </i>
    <i name="bandstr">    -16.19554148 </i>
    <i name="atom">    455.39254114 </i>
    <i name="e_fr_energy">    -11.91953586 </i>
    <i name="e_wo_entrp">    -11.91953586 </i>
    <i name="e_0_energy">    -11.91953586 </i>
   </energy>
  </scstep>
  <structure>
   <crystal>
    <varray name="basis" >
     <v>       3.00181900       0.00000000       0.00000000 </v>
     <v>       1.50091000       2.59965200       0.00000000 </v>
     <v>       1.50091000       0.86655100       2.45097500 </v>
    </varray>
    <i name="volume">     19.12663627 </i>
    <varray name="rec_basis" >
     <v>       0.33313134      -0.19233350      -0.13600032 </v>
     <v>       0.00000000       0.38466687      -0.13600035 </v>
     <v>       0.00000000       0.00000000       0.40800090 </v>
    </varray>
   </crystal>
   <varray name="positions" >
    <v>       0.50000000       0.50000000       0.50000000 </v>
    <v>       0.00000000       0.00000000       0.00000000 </v>
   </varray>
  </structure>
  <varray name="forces" >
   <v>      -0.00000000      -0.00000000       0.00000000 </v>
   <v>       0.00000000       0.00000000      -0.00000000 </v>
  </varray>
  <varray name="stress" >
   <v>      -6.01897234      -0.00000116      -0.00000082 </v>
   <v>      -0.00000116      -6.01897460      -0.00000082 </v>
   <v>      -0.00000082      -0.00000082      -6.01897259 </v>
  </varray>
  <energy>
   <i name="e_fr_energy">    -11.91953586 </i>
   <i name="e_wo_entrp">    -11.91953586 </i>
   <i name="e_0_energy">     -0.00000000 </i>
  </energy>
  <time name="totalsc">    1.28    1.34</time>
  <eigenvalues>
   <array>
    <dimension dim="1">band</dimension>
    <dimension dim="2">kpoint</dimension>
    <dimension dim="3">spin</dimension>
    <field>eigene</field>
    <field>occ</field>
    <set>
     <set comment="spin 1">
      <set comment="kpoint 1">
       <r>  -13.5734    1.0000 </r>
       <r>    2.4685    1.0000 </r>
       <r>    3.3156    1.0000 </r>
       <r>    3.3156    1.0000 </r>
       <r>    8.8337    0.0000 </r>
       <r>   17.4129    0.0000 </r>
       <r>   19.4294    0.0000 </r>
       <r>   19.4294    0.0000 </r>
       <r>   23.6794    0.0000 </r>
       <r>   23.6794    0.0000 </r>
       <r>   25.0182    0.0000 </r>
       <r>   27.4555    0.0000 </r>
       <r>   28.8866    0.0000 </r>
       <r>   28.8866    0.0000 </r>
       <r>   39.1509    0.0000 </r>
       <r>   41.0541    0.0000 </r>
      </set>
      <set comment="kpoint 2">
       <r>  -12.9144    1.0000 </r>
       <r>    0.2964    1.0000 </r>
       <r>    2.4539    1.0000 </r>
       <r>    3.0170    1.0000 </r>
       <r>   11.2503    0.0000 </r>
       <r>   15.3514    0.0000 </r>
       <r>   18.7632    0.0000 </r>
       <r>   20.4308    0.0000 </r>
       <r>   22.2516    0.0000 </r>
       <r>   24.4825    0.0000 </r>
       <r>   26.6007    0.0000 </r>
       <r>   31.2618    0.0000 </r>
       <r>   32.5357    0.0000 </r>
       <r>   33.4107    0.0000 </r>
       <r>   35.7810    0.0000 </r>
       <r>   39.0747    0.0000 </r>
      </set>
      <set comment="kpoint 3">
       <r>  -12.4734    1.0000 </r>
       <r>   -0.8377    1.0000 </r>
       <r>    2.3026    1.0000 </r>
       <r>    2.6774    1.0000 </r>
       <r>   11.8375    0.0000 </r>
       <r>   15.5619    0.0000 </r>
       <r>   18.0524    0.0000 </r>
       <r>   19.8687    0.0000 </r>
       <r>   23.8589    0.0000 </r>
       <r>   26.1089    0.0000 </r>
       <r>   26.2045    0.0000 </r>
       <r>   32.4877    0.0000 </r>
       <r>   33.0843    0.0000 </r>
       <r>   33.4294    0.0000 </r>
       <r>   36.0111    0.0000 </r>
       <r>   37.7219    0.0000 </r>
      </set>
      <set comment="kpoint 4">
       <r>  -13.2065    1.0000 </r>
       <r>    1.1854    1.0000 </r>
       <r>    2.9446    1.0000 </r>
       <r>    2.9487    1.0000 </r>
       <r>   10.4226    0.0000 </r>
       <r>   15.5920    0.0000 </r>
       <r>   19.5572    0.0000 </r>
       <r>   20.0380    0.0000 </r>
       <r>   21.2133    0.0000 </r>
       <r>   25.0589    0.0000 </r>
       <r>   27.0584    0.0000 </r>
       <r>   30.1564    0.0000 </r>
       <r>   30.4412    0.0000 </r>
       <r>   31.1944    0.0000 </r>
       <r>   37.4161    0.0000 </r>
       <r>   39.1787    0.0000 </r>
      </set>
      <set comment="kpoint 5">
       <r>  -12.6764    1.0000 </r>
       <r>    0.1099    1.0000 </r>
       <r>    2.2533    1.0000 </r>
       <r>    2.4865    1.0000 </r>
       <r>   12.3533    0.0000 </r>
       <r>   13.9955    0.0000 </r>
       <r>   17.3069    0.0000 </r>
       <r>   20.9370    0.0000 </r>
       <r>   21.3940    0.0000 </r>
       <r>   27.2396    0.0000 </r>
       <r>   30.3456    0.0000 </r>
       <r>   30.6141    0.0000 </r>
       <r>   32.5278    0.0000 </r>
       <r>   35.0197    0.0000 </r>
       <r>   36.6725    0.0000 </r>
       <r>   38.0886    0.0000 </r>
      </set>
      <set comment="kpoint 6">
       <r>  -12.2603    1.0000 </r>
       <r>   -0.0086    1.0000 </r>
       <r>    0.9920    1.0000 </r>
       <r>    2.0748    1.0000 </r>
       <r>   13.8677    0.0000 </r>
       <r>   14.9062    0.0000 </r>
       <r>   15.6983    0.0000 </r>
       <r>   19.7115    0.0000 </r>
       <r>   23.1573    0.0000 </r>
       <r>   26.6105    0.0000 </r>
       <r>   30.1731    0.0000 </r>
       <r>   31.5959    0.0000 </r>
       <r>   32.8643    0.0000 </r>
       <r>   36.5381    0.0000 </r>
       <r>   39.1097    0.0000 </r>
       <r>   41.3291    0.0000 </r>
      </set>
      <set comment="kpoint 7">
       <r>  -12.5192    1.0000 </r>
       <r>   -0.2119    1.0000 </r>
       <r>    1.7350    1.0000 </r>
       <r>    2.5756    1.0000 </r>
       <r>   12.7113    0.0000 </r>
       <r>   14.9054    0.0000 </r>
       <r>   17.0792    0.0000 </r>
       <r>   20.2746    0.0000 </r>
       <r>   22.8442    0.0000 </r>
       <r>   25.5186    0.0000 </r>
       <r>   29.0534    0.0000 </r>
       <r>   31.8450    0.0000 </r>
       <r>   32.4267    0.0000 </r>
       <r>   35.0914    0.0000 </r>
       <r>   35.7345    0.0000 </r>
       <r>   41.2360    0.0000 </r>
      </set>
      <set comment="kpoint 8">
       <r>  -12.2970    1.0000 </r>
       <r>   -0.3733    1.0000 </r>
       <r>    1.7348    1.0000 </r>
       <r>    2.1918    1.0000 </r>
       <r>   12.9420    0.0000 </r>
       <r>   13.6243    0.0000 </r>
       <r>   16.1489    0.0000 </r>
       <r>   21.6478    0.0000 </r>
       <r>   21.6590    0.0000 </r>
       <r>   29.1266    0.0000 </r>
       <r>   29.5588    0.0000 </r>
       <r>   32.1419    0.0000 </r>
       <r>   32.8566    0.0000 </r>
       <r>   38.0051    0.0000 </r>
       <r>   38.3870    0.0000 </r>
       <r>   41.3180    0.0000 </r>
      </set>
      <set comment="kpoint 9">
       <r>  -12.7127    1.0000 </r>
       <r>   -0.5672    1.0000 </r>
       <r>    2.8726    1.0000 </r>
       <r>    2.8726    1.0000 </r>
       <r>   11.0476    0.0000 </r>
       <r>   15.5673    0.0000 </r>
       <r>   19.6643    0.0000 </r>
       <r>   19.6643    0.0000 </r>
       <r>   24.2536    0.0000 </r>
       <r>   24.5938    0.0000 </r>
       <r>   24.5939    0.0000 </r>
       <r>   32.1079    0.0000 </r>
       <r>   33.4281    0.0000 </r>
       <r>   33.4281    0.0000 </r>
       <r>   37.0419    0.0000 </r>
       <r>   37.0419    0.0000 </r>
      </set>
      <set comment="kpoint 10">
       <r>  -12.3446    1.0000 </r>
       <r>   -0.2508    1.0000 </r>
       <r>    1.0981    1.0000 </r>
       <r>    2.5452    1.0000 </r>
       <r>   13.1904    0.0000 </r>
       <r>   15.3644    0.0000 </r>
       <r>   16.2704    0.0000 </r>
       <r>   20.5865    0.0000 </r>
       <r>   22.6701    0.0000 </r>
       <r>   25.6949    0.0000 </r>
       <r>   29.2736    0.0000 </r>
       <r>   31.8152    0.0000 </r>
       <r>   32.2380    0.0000 </r>
       <r>   35.5769    0.0000 </r>
       <r>   37.4615    0.0000 </r>
       <r>   40.3353    0.0000 </r>
      </set>
     </set>
    </set>
   </array>
  </eigenvalues>
  <separator name="orbital magnetization" >
   <v name="MAGDIPOLOUT">      0.00000000      0.00000000      0.00000000</v>
  </separator>
  <dos>
   <i name="efermi">      3.63625857 </i>
   <total>
    <array>
     <dimension dim="1">gridpoints</dimension>
     <dimension dim="2">spin</dimension>
     <field>energy</field>
     <field>total</field>
     <field>integrated</field>
     <set>
      <set comment="spin 1">
       <r>   -16.3185     0.0000     0.0000 </r>
       <r>   -16.1172     0.0000     0.0000 </r>
       <r>   -15.9159     0.0000     0.0000 </r>
       <r>   -15.7146     0.0000     0.0000 </r>
       <r>   -15.5133     0.0000     0.0000 </r>
       <r>   -15.3120     0.0000     0.0000 </r>
       <r>   -15.1106     0.0000     0.0000 </r>
       <r>   -14.9093     0.0000     0.0000 </r>
       <r>   -14.7080     0.0000     0.0000 </r>
       <r>   -14.5067     0.0000     0.0000 </r>
       <r>   -14.3054     0.0000     0.0000 </r>
       <r>   -14.1041     0.0000     0.0000 </r>
       <r>   -13.9028     0.0000     0.0000 </r>
       <r>   -13.7015     0.0000     0.0000 </r>
       <r>   -13.5002     0.3045     0.0613 </r>
       <r>   -13.2989     0.0101     0.0633 </r>
       <r>   -13.0976     0.9263     0.2498 </r>
       <r>   -12.8962     0.6494     0.3805 </r>
       <r>   -12.6949     0.7776     0.5371 </r>
       <r>   -12.4936     2.4366     1.0276 </r>
       <r>   -12.2923     2.8258     1.5964 </r>
       <r>   -12.0910     2.0047     2.0000 </r>
       <r>   -11.8897     0.0000     2.0000 </r>
       <r>   -11.6884     0.0000     2.0000 </r>
       <r>   -11.4871     0.0000     2.0000 </r>
       <r>   -11.2858     0.0000     2.0000 </r>
       <r>   -11.0845     0.0000     2.0000 </r>
       <r>   -10.8832     0.0000     2.0000 </r>
       <r>   -10.6818     0.0000     2.0000 </r>
       <r>   -10.4805     0.0000     2.0000 </r>
       <r>   -10.2792     0.0000     2.0000 </r>
       <r>   -10.0779     0.0000     2.0000 </r>
       <r>    -9.8766     0.0000     2.0000 </r>
       <r>    -9.6753     0.0000     2.0000 </r>
       <r>    -9.4740     0.0000     2.0000 </r>
       <r>    -9.2727     0.0000     2.0000 </r>
       <r>    -9.0714     0.0000     2.0000 </r>
       <r>    -8.8701     0.0000     2.0000 </r>
       <r>    -8.6688     0.0000     2.0000 </r>
       <r>    -8.4674     0.0000     2.0000 </r>
       <r>    -8.2661     0.0000     2.0000 </r>
       <r>    -8.0648     0.0000     2.0000 </r>
       <r>    -7.8635     0.0000     2.0000 </r>
       <r>    -7.6622     0.0000     2.0000 </r>
       <r>    -7.4609     0.0000     2.0000 </r>
       <r>    -7.2596     0.0000     2.0000 </r>
       <r>    -7.0583     0.0000     2.0000 </r>
       <r>    -6.8570     0.0000     2.0000 </r>
       <r>    -6.6557     0.0000     2.0000 </r>
       <r>    -6.4544     0.0000     2.0000 </r>
       <r>    -6.2530     0.0000     2.0000 </r>
       <r>    -6.0517     0.0000     2.0000 </r>
       <r>    -5.8504     0.0000     2.0000 </r>
       <r>    -5.6491     0.0000     2.0000 </r>
       <r>    -5.4478     0.0000     2.0000 </r>
       <r>    -5.2465     0.0000     2.0000 </r>
       <r>    -5.0452     0.0000     2.0000 </r>
       <r>    -4.8439     0.0000     2.0000 </r>
       <r>    -4.6426     0.0000     2.0000 </r>
       <r>    -4.4413     0.0000     2.0000 </r>
       <r>    -4.2400     0.0000     2.0000 </r>
       <r>    -4.0386     0.0000     2.0000 </r>
       <r>    -3.8373     0.0000     2.0000 </r>
       <r>    -3.6360     0.0000     2.0000 </r>
       <r>    -3.4347     0.0000     2.0000 </r>
       <r>    -3.2334     0.0000     2.0000 </r>
       <r>    -3.0321     0.0000     2.0000 </r>
       <r>    -2.8308     0.0000     2.0000 </r>
       <r>    -2.6295     0.0000     2.0000 </r>
       <r>    -2.4282     0.0000     2.0000 </r>
       <r>    -2.2269     0.0000     2.0000 </r>
       <r>    -2.0256     0.0000     2.0000 </r>
       <r>    -1.8242     0.0000     2.0000 </r>
       <r>    -1.6229     0.0000     2.0000 </r>
       <r>    -1.4216     0.0000     2.0000 </r>
       <r>    -1.2203     0.0000     2.0000 </r>
       <r>    -1.0190     0.0000     2.0000 </r>
       <r>    -0.8177     0.6651     2.1339 </r>
       <r>    -0.6164     0.2917     2.1926 </r>
       <r>    -0.4151     0.3953     2.2722 </r>
       <r>    -0.2138     2.5065     2.7768 </r>
       <r>    -0.0125     1.9583     3.1710 </r>
       <r>     0.1888     1.9339     3.5603 </r>
       <r>     0.3902     0.9385     3.7492 </r>
       <r>     0.5915     0.0037     3.7500 </r>
       <r>     0.7928     0.0000     3.7500 </r>
       <r>     0.9941     0.9760     3.9465 </r>
       <r>     1.1954     2.3850     4.4266 </r>
       <r>     1.3967     0.3646     4.5000 </r>
       <r>     1.5980     0.0002     4.5000 </r>
       <r>     1.7993     2.6984     5.0432 </r>
       <r>     2.0006     0.1292     5.0692 </r>
       <r>     2.2019     2.4701     5.5665 </r>
       <r>     2.4032     2.2408     6.0176 </r>
       <r>     2.6045     4.4695     6.9173 </r>
       <r>     2.8059     1.3602     7.1912 </r>
       <r>     3.0072     2.7477     7.7443 </r>
       <r>     3.2085     0.6500     7.8752 </r>
       <r>     3.4098     0.6178     7.9995 </r>
       <r>     3.6111     0.0024     8.0000 </r>
       <r>     3.8124     0.0000     8.0000 </r>
       <r>     4.0137     0.0000     8.0000 </r>
       <r>     4.2150     0.0000     8.0000 </r>
       <r>     4.4163     0.0000     8.0000 </r>
       <r>     4.6176     0.0000     8.0000 </r>
       <r>     4.8189     0.0000     8.0000 </r>
       <r>     5.0203     0.0000     8.0000 </r>
       <r>     5.2216     0.0000     8.0000 </r>
       <r>     5.4229     0.0000     8.0000 </r>
       <r>     5.6242     0.0000     8.0000 </r>
       <r>     5.8255     0.0000     8.0000 </r>
       <r>     6.0268     0.0000     8.0000 </r>
       <r>     6.2281     0.0000     8.0000 </r>
       <r>     6.4294     0.0000     8.0000 </r>
       <r>     6.6307     0.0000     8.0000 </r>
       <r>     6.8320     0.0000     8.0000 </r>
       <r>     7.0333     0.0000     8.0000 </r>
       <r>     7.2347     0.0000     8.0000 </r>
       <r>     7.4360     0.0000     8.0000 </r>
       <r>     7.6373     0.0000     8.0000 </r>
       <r>     7.8386     0.0000     8.0000 </r>
       <r>     8.0399     0.0000     8.0000 </r>
       <r>     8.2412     0.0000     8.0000 </r>
       <r>     8.4425     0.0000     8.0000 </r>
       <r>     8.6438     0.0000     8.0000 </r>
       <r>     8.8451     0.1944     8.0391 </r>
       <r>     9.0464     0.1160     8.0625 </r>
       <r>     9.2477     0.0000     8.0625 </r>
       <r>     9.4491     0.0000     8.0625 </r>
       <r>     9.6504     0.0000     8.0625 </r>
       <r>     9.8517     0.0000     8.0625 </r>
       <r>    10.0530     0.0000     8.0625 </r>
       <r>    10.2543     0.0000     8.0625 </r>
       <r>    10.4556     0.7679     8.2171 </r>
       <r>    10.6569     0.1635     8.2500 </r>
       <r>    10.8582     0.0000     8.2500 </r>
       <r>    11.0595     0.1963     8.2895 </r>
       <r>    11.2608     0.6893     8.4283 </r>
       <r>    11.4621     0.3562     8.5000 </r>
       <r>    11.6635     0.0000     8.5000 </r>
       <r>    11.8648     0.7261     8.6462 </r>
       <r>    12.0661     0.2054     8.6875 </r>
       <r>    12.2674     0.0070     8.6889 </r>
       <r>    12.4687     0.9239     8.8749 </r>
       <r>    12.6700     0.2264     8.9205 </r>
       <r>    12.8713     1.6582     9.2543 </r>
       <r>    13.0726     0.9105     9.4376 </r>
       <r>    13.2739     0.9227     9.6233 </r>
       <r>    13.4752     0.0085     9.6250 </r>
       <r>    13.6765     0.8663     9.7994 </r>
       <r>    13.8779     1.2077    10.0425 </r>
       <r>    14.0792     1.6432    10.3733 </r>
       <r>    14.2805     0.0084    10.3750 </r>
       <r>    14.4818     0.0000    10.3750 </r>
       <r>    14.6831     0.0000    10.3750 </r>
       <r>    14.8844     1.0144    10.5792 </r>
       <r>    15.0857     2.7112    11.1250 </r>
       <r>    15.2870     0.0454    11.1341 </r>
       <r>    15.4883     1.8401    11.5046 </r>
       <r>    15.6896     2.8986    12.0881 </r>
       <r>    15.8909     1.1148    12.3125 </r>
       <r>    16.0923     0.0508    12.3227 </r>
       <r>    16.2936     1.5730    12.6394 </r>
       <r>    16.4949     0.2390    12.6875 </r>
       <r>    16.6962     0.0000    12.6875 </r>
       <r>    16.8975     0.0000    12.6875 </r>
       <r>    17.0988     1.3237    12.9540 </r>
       <r>    17.3001     0.9346    13.1421 </r>
       <r>    17.5014     0.8445    13.3121 </r>
       <r>    17.7027     0.0019    13.3125 </r>
       <r>    17.9040     0.0000    13.3125 </r>
       <r>    18.1053     0.8687    13.4874 </r>
       <r>    18.3067     0.0626    13.5000 </r>
       <r>    18.5080     0.0000    13.5000 </r>
       <r>    18.7093     0.0594    13.5120 </r>
       <r>    18.9106     0.8720    13.6875 </r>
       <r>    19.1119     0.0000    13.6875 </r>
       <r>    19.3132     0.0003    13.6876 </r>
       <r>    19.5145     0.7212    13.8328 </r>
       <r>    19.7158     2.4289    14.3217 </r>
       <r>    19.9171     1.7378    14.6716 </r>
       <r>    20.1184     0.9999    14.8728 </r>
       <r>    20.3197     1.6862    15.2123 </r>
       <r>    20.5211     1.1437    15.4425 </r>
       <r>    20.7224     0.9064    15.6250 </r>
       <r>    20.9237     0.3285    15.6911 </r>
       <r>    21.1250     0.6088    15.8137 </r>
       <r>    21.3263     0.9508    16.0051 </r>
       <r>    21.5276     0.9065    16.1876 </r>
       <r>    21.7289     1.8300    16.5560 </r>
       <r>    21.9302     0.0325    16.5625 </r>
       <r>    22.1315     0.0003    16.5626 </r>
       <r>    22.3328     0.9211    16.7480 </r>
       <r>    22.5341     0.0101    16.7500 </r>
       <r>    22.7355     0.9033    16.9318 </r>
       <r>    22.9368     1.8827    17.3108 </r>
       <r>    23.1381     0.5549    17.4225 </r>
       <r>    23.3394     1.3162    17.6875 </r>
       <r>    23.5407     0.0000    17.6875 </r>
       <r>    23.7420     0.5976    17.8078 </r>
       <r>    23.9433     0.9468    17.9984 </r>
       <r>    24.1446     0.0082    18.0001 </r>
       <r>    24.3459     0.3088    18.0622 </r>
       <r>    24.5472     0.9598    18.2554 </r>
       <r>    24.7485     0.5939    18.3750 </r>
       <r>    24.9499     0.0092    18.3769 </r>
       <r>    25.1512     1.2284    18.6241 </r>
       <r>    25.3525     0.0043    18.6250 </r>
       <r>    25.5538     1.5650    18.9401 </r>
       <r>    25.7551     1.1878    19.1792 </r>
       <r>    25.9564     0.0414    19.1875 </r>
       <r>    26.1577     0.9399    19.3767 </r>
       <r>    26.3590     0.9229    19.5625 </r>
       <r>    26.5603     0.2634    19.6155 </r>
       <r>    26.7616     2.5308    20.1250 </r>
       <r>    26.9629     0.0033    20.1257 </r>
       <r>    27.1643     0.9423    20.3153 </r>
       <r>    27.3656     0.9188    20.5003 </r>
       <r>    27.5669     0.3087    20.5624 </r>
       <r>    27.7682     0.0003    20.5625 </r>
       <r>    27.9695     0.0000    20.5625 </r>
       <r>    28.1708     0.0000    20.5625 </r>
       <r>    28.3721     0.0000    20.5625 </r>
       <r>    28.5734     0.0000    20.5625 </r>
       <r>    28.7747     0.0005    20.5626 </r>
       <r>    28.9760     0.6436    20.6922 </r>
       <r>    29.1773     2.7032    21.2363 </r>
       <r>    29.3787     0.9979    21.4372 </r>
       <r>    29.5800     0.6766    21.5734 </r>
       <r>    29.7813     0.2562    21.6250 </r>
       <r>    29.9826     0.0000    21.6250 </r>
       <r>    30.1839     1.8821    22.0039 </r>
       <r>    30.3852     1.7740    22.3610 </r>
       <r>    30.5865     1.2037    22.6033 </r>
       <r>    30.7878     0.7286    22.7500 </r>
       <r>    30.9891     0.0000    22.7500 </r>
       <r>    31.1904     0.4445    22.8395 </r>
       <r>    31.3917     1.4182    23.1250 </r>
       <r>    31.5931     0.8715    23.3004 </r>
       <r>    31.7944     1.3921    23.5807 </r>
       <r>    31.9957     2.3937    24.0625 </r>
       <r>    32.1970     1.2986    24.3240 </r>
       <r>    32.3983     1.2734    24.5803 </r>
       <r>    32.5996     4.2047    25.4268 </r>
       <r>    32.8009     0.1748    25.4619 </r>
       <r>    33.0022     2.6821    26.0019 </r>
       <r>    33.2035     0.9217    26.1874 </r>
       <r>    33.4048     0.7891    26.3463 </r>
       <r>    33.6061     1.6950    26.6875 </r>
       <r>    33.8075     0.0000    26.6875 </r>
       <r>    34.0088     0.0000    26.6875 </r>
       <r>    34.2101     0.0000    26.6875 </r>
       <r>    34.4114     0.0000    26.6875 </r>
       <r>    34.6127     0.0000    26.6875 </r>
       <r>    34.8140     0.0000    26.6875 </r>
       <r>    35.0153     0.4492    26.7779 </r>
       <r>    35.2166     2.3446    27.2499 </r>
       <r>    35.4179     0.0004    27.2500 </r>
       <r>    35.6192     0.8250    27.4161 </r>
       <r>    35.8205     2.7640    27.9725 </r>
       <r>    36.0219     0.7136    28.1161 </r>
       <r>    36.2232     0.3545    28.1875 </r>
       <r>    36.4245     0.0012    28.1877 </r>
       <r>    36.6258     1.9363    28.5775 </r>
       <r>    36.8271     0.8567    28.7500 </r>
       <r>    37.0284     0.2184    28.7940 </r>
       <r>    37.2297     0.4025    28.8750 </r>
       <r>    37.4310     0.7990    29.0358 </r>
       <r>    37.6323     1.0691    29.2511 </r>
       <r>    37.8336     0.9254    29.4374 </r>
       <r>    38.0349     0.8068    29.5998 </r>
       <r>    38.2363     1.0567    29.8125 </r>
       <r>    38.4376     0.8604    29.9857 </r>
       <r>    38.6389     0.0710    30.0000 </r>
       <r>    38.8402     0.0000    30.0000 </r>
       <r>    39.0415     0.2125    30.0428 </r>
       <r>    39.2428     3.7895    30.8056 </r>
       <r>    39.4441     0.0341    30.8125 </r>
       <r>    39.6454     0.0000    30.8125 </r>
       <r>    39.8467     0.0000    30.8125 </r>
       <r>    40.0480     0.0000    30.8125 </r>
       <r>    40.2493     0.0070    30.8139 </r>
       <r>    40.4506     0.9239    30.9999 </r>
       <r>    40.6520     0.0005    31.0000 </r>
       <r>    40.8533     0.0000    31.0000 </r>
       <r>    41.0546     0.1570    31.0316 </r>
       <r>    41.2559     1.5544    31.3445 </r>
       <r>    41.4572     3.2558    31.9999 </r>
       <r>    41.6585     0.0003    32.0000 </r>
       <r>    41.8598     0.0000    32.0000 </r>
       <r>    42.0611     0.0000    32.0000 </r>
       <r>    42.2624     0.0000    32.0000 </r>
       <r>    42.4637     0.0000    32.0000 </r>
       <r>    42.6650     0.0000    32.0000 </r>
       <r>    42.8664     0.0000    32.0000 </r>
       <r>    43.0677     0.0000    32.0000 </r>
       <r>    43.2690     0.0000    32.0000 </r>
       <r>    43.4703     0.0000    32.0000 </r>
       <r>    43.6716     0.0000    32.0000 </r>
       <r>    43.8729     0.0000    32.0000 </r>
       <r>    44.0742     0.0000    32.0000 </r>
      </set>
     </set>
    </array>
   </total>
  </dos>
 </calculation>
 <structure name="finalpos" >
  <crystal>
   <varray name="basis" >
    <v>       3.00181900       0.00000000       0.00000000 </v>
    <v>       1.50091000       2.59965200       0.00000000 </v>
    <v>       1.50091000       0.86655100       2.45097500 </v>
   </varray>
   <i name="volume">     19.12663627 </i>
   <varray name="rec_basis" >
    <v>       0.33313134      -0.19233350      -0.13600032 </v>
    <v>       0.00000000       0.38466687      -0.13600035 </v>
    <v>       0.00000000       0.00000000       0.40800090 </v>
   </varray>
  </crystal>
  <varray name="positions" >
   <v>       0.50000000       0.50000000       0.50000000 </v>
   <v>       0.00000000       0.00000000       0.00000000 </v>
  </varray>
 </structure>
</modeling>
