LAMMPS (11 Aug 2017)
Reading data file ...
  triclinic box = (0 0 0) to (5.43 5.43 5.43) with tilt (0 0 0)
  1 by 1 by 1 MPI processor grid
  reading atoms ...
  8 atoms
8 atoms in group Si
Neighbor list info ...
  update every 1 steps, delay 0 steps, check yes
  max neighbors/atom: 2000, page size: 100000
  master list distance cutoff = 3.78429
  ghost atom cutoff = 3.78429
  binsize = 1.89215, bins = 3 3 3
  1 neighbor lists, perpetual/occasional/extra = 1 0 0
  (1) pair sw, perpetual
      attributes: full, newton on
      pair build: full/bin/atomonly
      stencil: full/bin/3d
      bin: standard
Setting up cg style minimization ...
  Unit style    : metal
  Current step  : 0
WARNING: Energy due to 3 extra global DOFs will be included in minimizer energies
Per MPI rank memory allocation (min/avg/max) = 3.812 | 3.812 | 3.812 Mbytes
Step Temp PotEng Press Pxx Pyy Pzz Pxy Pxz Pyz Lx Ly Lz Volume 
       0            0  -0.11473865    46033.307    46033.307    46033.307    46033.307 1.111018e-12 1.111018e-12 1.111018e-12         5.43         5.43         5.43    160.10301 
       1            0  -0.11611363    45688.325    45688.325    45688.325    45688.325 -3.6652597e-11 -3.5541913e-11 -3.7763282e-11     5.430543     5.430543     5.430543    160.15104 
       2            0  -0.11747855    45344.611    45344.611    45344.611    45344.611 1.0881446e-10  1.01042e-10 1.032627e-10     5.431086     5.431086     5.431086    160.19909 
       3            0  -0.11883345    45002.163    45002.163    45002.163    45002.163 -2.6640449e-11 -3.2190542e-11 -2.7750467e-11     5.431629     5.431629     5.431629    160.24714 
       4            0  -0.12017838    44660.978    44660.978    44660.978    44660.978 1.1096858e-12 1.1096859e-12 1.6645288e-12     5.432172     5.432172     5.432172    160.29521 
       5            0  -0.12151335    44321.054    44321.054    44321.054    44321.054 -4.4374126e-11 -1.2202885e-10 -1.2202885e-10     5.432715     5.432715     5.432715    160.34328 
       6            0  -0.12283841    43982.389    43982.389    43982.389    43982.389 2.0960489e-10 1.2753737e-10 1.2698286e-10     5.433258     5.433258     5.433258    160.39137 
       7            0  -0.12415358     43644.98     43644.98     43644.98     43644.98 -6.54126e-11 -2.2173763e-12 5.5434407e-13     5.433801     5.433801     5.433801    160.43946 
       8            0  -0.12545891    43308.825    43308.825    43308.825    43308.825 1.5516982e-10 1.5406146e-10 1.5627817e-10     5.434344     5.434344     5.434344    160.48756 
       9            0  -0.12675442    42973.922    42973.922    42973.922    42973.922 3.5456757e-11 3.4348733e-11 3.2132686e-11     5.434887     5.434887     5.434887    160.53567 
      10            0  -0.12804015    42640.269    42640.269    42640.269    42640.269 2.503383e-10 2.4812292e-10 2.4812292e-10      5.43543      5.43543      5.43543     160.5838 
      11            0  -0.12931613    42307.863    42307.863    42307.863    42307.863 6.7548942e-11 6.6441582e-11 7.0871021e-11     5.435973     5.435973     5.435973    160.63193 
      12            0   -0.1305824    41976.702    41976.702    41976.702    41976.702 -4.4281117e-12 -4.4281117e-12 -4.4281117e-12     5.436516     5.436516     5.436516    160.68007 
      13            0  -0.13183899    41646.783    41646.783    41646.783    41646.783 1.1177632e-10 1.781781e-10 1.7651806e-10     5.437059     5.437059     5.437059    160.72822 
      14            0  -0.13308593    41318.105    41318.105    41318.105    41318.105  9.73601e-11 1.6042289e-10 1.5986971e-10     5.437602     5.437602     5.437602    160.77638 
      15            0  -0.13432325    40990.665    40990.665    40990.665    40990.665 3.4729448e-10 3.4840052e-10 3.4618845e-10     5.438145     5.438145     5.438145    160.82455 
      16            0    -0.135551    40664.461    40664.461    40664.461    40664.461 1.1388732e-10 1.1499302e-10 1.1499302e-10     5.438688     5.438688     5.438688    160.87273 
      17            0  -0.13676919     40339.49     40339.49     40339.49     40339.49 2.7302664e-10 3.4045428e-10 3.4045428e-10     5.439231     5.439231     5.439231    160.92092 
      18            0  -0.13797788    40015.751    40015.751    40015.751    40015.751 2.6520961e-10 2.6631465e-10 2.6631465e-10     5.439774     5.439774     5.439774    160.96912 
      19            0  -0.13917708     39693.24     39693.24     39693.24     39693.24 4.3746484e-10 4.3525542e-10 4.3497925e-10     5.440317     5.440317     5.440317    161.01733 
      20            0  -0.14036683    39371.956    39371.956    39371.956    39371.956 2.1424942e-10 2.1314505e-10 2.1231676e-10      5.44086      5.44086      5.44086    161.06555 
      21            0  -0.14154717    39051.896    39051.896    39051.896    39051.896 3.7427223e-10 3.7868843e-10 3.7730837e-10     5.441403     5.441403     5.441403    161.11378 
      22            0  -0.14271812    38733.059    38733.059    38733.059    38733.059 3.3221895e-10 3.3221895e-10 3.3359859e-10     5.441946     5.441946     5.441946    161.16201 
      23            0  -0.14387973    38415.441    38415.441    38415.441    38415.441 1.8978258e-10 2.5929597e-10 2.5681335e-10     5.442489     5.442489     5.442489    161.21026 
      24            0  -0.14503202     38099.04     38099.04     38099.04     38099.04 4.7431448e-10 4.7321142e-10 4.7155683e-10     5.443032     5.443032     5.443032    161.25852 
      25            0  -0.14617502    37783.855    37783.855    37783.855    37783.855 2.9001717e-10 2.9001717e-10 2.9139557e-10     5.443575     5.443575     5.443575    161.30678 
      26            0  -0.14730878    37469.883    37469.883    37469.883    37469.883 4.3765158e-10 4.3654919e-10 4.3654919e-10     5.444118     5.444118     5.444118    161.35506 
      27            0  -0.14843332    37157.121    37157.121    37157.121    37157.121 4.0445864e-10 4.0556071e-10 4.0445864e-10     5.444661     5.444661     5.444661    161.40335 
      28            0  -0.14954867    36845.568    36845.568    36845.568    36845.568 5.7180175e-10 5.7180175e-10 5.7125088e-10     5.445204     5.445204     5.445204    161.45164 
      29            0  -0.15065487     36535.22     36535.22     36535.22     36535.22 3.2711816e-10 3.2711816e-10 3.2821957e-10     5.445747     5.445747     5.445747    161.49995 
      30            0  -0.15175195    36226.077    36226.077    36226.077    36226.077 5.8357163e-10 5.8247055e-10 5.8467271e-10      5.44629      5.44629      5.44629    161.54826 
      31            0  -0.15283994    35918.135    35918.135    35918.135    35918.135 4.4029971e-10 4.3919896e-10 4.383734e-10     5.446833     5.446833     5.446833    161.59659 
      32            0  -0.15391888    35611.392    35611.392    35611.392    35611.392 6.1513485e-10 6.1403443e-10 6.1375933e-10     5.447376     5.447376     5.447376    161.64492 
      33            0  -0.15498879    35305.846    35305.846    35305.846    35305.846 4.1363426e-10 4.1473435e-10 4.1693454e-10     5.447919     5.447919     5.447919    161.69326 
      34            0  -0.15604972    35001.495    35001.495    35001.495    35001.495 4.5420181e-10 4.5310205e-10 4.5310205e-10     5.448462     5.448462     5.448462    161.74162 
      35            0  -0.15710168    34698.336    34698.336    34698.336    34698.336 5.5961165e-10 5.5961165e-10 5.5988651e-10     5.449005     5.449005     5.449005    161.78998 
      36            0  -0.15814473    34396.367    34396.367    34396.367    34396.367 5.9351664e-10 5.9241754e-10 5.9241754e-10     5.449548     5.449548     5.449548    161.83835 
      37            0  -0.15917887    34095.586    34095.586    34095.586    34095.586 6.7794504e-10 6.7684627e-10 6.754728e-10     5.450091     5.450091     5.450091    161.88673 
      38            0  -0.16020416     33795.99     33795.99     33795.99     33795.99 5.349442e-10 5.3164886e-10 5.3384575e-10     5.450634     5.450634     5.450634    161.93513 
      39            0  -0.16122062    33497.578    33497.578    33497.578    33497.578 5.8419975e-10 5.8200351e-10 5.8063086e-10     5.451177     5.451177     5.451177    161.98353 
      40            0  -0.16222829    33200.346    33200.346    33200.346    33200.346 5.8731858e-10 5.9170975e-10 5.8869082e-10      5.45172      5.45172      5.45172    162.03194 
      41            0  -0.16322719    32904.293    32904.293    32904.293    32904.293 7.9456378e-10 7.9127139e-10 7.9017392e-10     5.452263     5.452263     5.452263    162.08036 
      42            0  -0.16421735    32609.417    32609.417    32609.417    32609.417 6.3304745e-10 6.3195031e-10 6.3359601e-10     5.452806     5.452806     5.452806    162.12879 
      43            0  -0.16519882    32315.715    32315.715    32315.715    32315.715 6.5369772e-10 7.1292537e-10 7.1402217e-10     5.453349     5.453349     5.453349    162.17723 
      44            0  -0.16617162    32023.184    32023.184    32023.184    32023.184 7.2258077e-10 7.9056257e-10 7.9111082e-10     5.453892     5.453892     5.453892    162.22568 
      45            0  -0.16713578    31731.824    31731.824    31731.824    31731.824 8.0786494e-10 8.089611e-10 8.0622071e-10     5.454435     5.454435     5.454435    162.27414 
      46            0  -0.16809134     31441.63     31441.63     31441.63     31441.63 8.3063606e-10 8.3392354e-10 8.3008815e-10     5.454978     5.454978     5.454978    162.32261 
      47            0  -0.16903832    31152.601    31152.601    31152.601    31152.601 7.6356264e-10 6.1567031e-10 6.1703968e-10     5.455521     5.455521     5.455521    162.37109 
      48            0  -0.16997676    30864.736    30864.736    30864.736    30864.736 7.8633329e-10 7.8961881e-10 7.8934501e-10     5.456064     5.456064     5.456064    162.41957 
      49            0   -0.1709067     30578.03     30578.03     30578.03     30578.03 6.6676048e-10 7.3683055e-10 7.3683055e-10     5.456607     5.456607     5.456607    162.46807 
      50            0  -0.17182816    30292.483    30292.483    30292.483    30292.483 8.0665978e-10 8.0447074e-10 8.0419711e-10      5.45715      5.45715      5.45715    162.51658 
      51            0  -0.17274117    30008.092    30008.092    30008.092    30008.092 7.2654306e-10 7.2654306e-10 6.5377934e-10     5.457693     5.457693     5.457693     162.5651 
      52            0  -0.17364576    29724.854    29724.854    29724.854    29724.854 7.7883176e-10 7.7992562e-10 7.8183989e-10     5.458236     5.458236     5.458236    162.61362 
      53            0  -0.17454197    29442.768    29442.768    29442.768    29442.768 8.2999567e-10 8.2890213e-10 8.2917552e-10     5.458779     5.458779     5.458779    162.66216 
      54            0  -0.17542984     29161.83     29161.83     29161.83     29161.83 1.0123145e-09 1.0112213e-09 1.0095814e-09     5.459322     5.459322     5.459322    162.71071 
      55            0  -0.17630938     28882.04     28882.04     28882.04     28882.04 8.0217834e-10  8.05457e-10 8.0627667e-10     5.459865     5.459865     5.459865    162.75926 
      56            0  -0.17718063    28603.394    28603.394    28603.394    28603.394 7.9429113e-10 8.664001e-10 8.6667324e-10     5.460408     5.460408     5.460408    162.80783 
      57            0  -0.17804362     28325.89     28325.89     28325.89     28325.89 8.9344753e-10  8.95632e-10 8.9590506e-10     5.460951     5.460951     5.460951     162.8564 
      58            0  -0.17889839    28049.527    28049.527    28049.527    28049.527 8.2985038e-10 8.2985038e-10 8.2821252e-10     5.461494     5.461494     5.461494    162.90499 
      59            0  -0.17974497    27774.301    27774.301    27774.301    27774.301 7.4227629e-10 7.411847e-10 7.4282208e-10     5.462037     5.462037     5.462037    162.95358 
      60            0  -0.18058338     27500.21     27500.21     27500.21     27500.21 5.1834721e-10 5.161647e-10 5.180744e-10      5.46258      5.46258      5.46258    163.00219 
      61            0  -0.18141365    27227.253    27227.253    27227.253    27227.253 6.5783195e-10 7.2874253e-10 7.2901526e-10     5.463123     5.463123     5.463123     163.0508 
      62            0  -0.18223583    26955.427    26955.427    26955.427    26955.427 5.867464e-10 6.4018613e-10 6.4018613e-10     5.463666     5.463666     5.463666    163.09942 
      63            0  -0.18304994    26684.729    26684.729    26684.729    26684.729 8.7985725e-10 8.1116951e-10 8.1253236e-10     5.464209     5.464209     5.464209    163.14806 
      64            0    -0.183856    26415.158    26415.158    26415.158    26415.158 5.9075649e-10 5.9184645e-10 5.9184645e-10     5.464752     5.464752     5.464752     163.1967 
      65            0  -0.18465406    26146.711    26146.711    26146.711    26146.711 6.8265431e-10 6.8319913e-10 6.8319913e-10     5.465295     5.465295     5.465295    163.24535 
      66            0  -0.18544414    25879.386    25879.386    25879.386    25879.386 7.5216653e-10 7.5271118e-10 7.518942e-10     5.465838     5.465838     5.465838    163.29401 
      67            0  -0.18622627     25613.18     25613.18     25613.18     25613.18 7.4813096e-10 8.0258009e-10 8.0285233e-10     5.466381     5.466381     5.466381    163.34269 
      68            0  -0.18700049    25348.091    25348.091    25348.091    25348.091 8.2520278e-10 8.2465845e-10 8.2601928e-10     5.466924     5.466924     5.466924    163.39137 
      69            0  -0.18776682    25084.118    25084.118    25084.118    25084.118 6.1327604e-10 6.1599687e-10 6.1735729e-10     5.467467     5.467467     5.467467    163.44006 
      70            0  -0.18852529    24821.257    24821.257    24821.257    24821.257 8.2634321e-10 8.252552e-10 8.2634321e-10      5.46801      5.46801      5.46801    163.48876 
      71            0  -0.18927595    24559.507    24559.507    24559.507    24559.507 7.3853841e-10 7.3908225e-10 7.3826648e-10     5.468553     5.468553     5.468553    163.53747 
      72            0   -0.1900188    24298.866    24298.866    24298.866    24298.866 8.7913176e-10 8.7913176e-10 8.7831624e-10     5.469096     5.469096     5.469096    163.58619 
      73            0   -0.1907539     24039.33     24039.33     24039.33     24039.33 7.2940228e-10 7.3048932e-10 7.3157636e-10     5.469639     5.469639     5.469639    163.63492 
      74            0  -0.19148126    23780.898    23780.898    23780.898    23780.898 9.0197261e-10 9.0251597e-10 9.0251597e-10     5.470182     5.470182     5.470182    163.68366 
      75            0  -0.19220092    23523.567    23523.567    23523.567    23523.567 8.3815022e-10 8.3760703e-10 8.3760703e-10     5.470725     5.470725     5.470725    163.73241 
      76            0  -0.19291291    23267.336    23267.336    23267.336    23267.336 6.2937583e-10 6.288328e-10 6.2856128e-10     5.471268     5.471268     5.471268    163.78117 
      77            0  -0.19361726    23012.201    23012.201    23012.201    23012.201 5.3472878e-10 5.3418591e-10 5.3527165e-10     5.471811     5.471811     5.471811    163.82994 
      78            0    -0.194314    22758.162    22758.162    22758.162    22758.162 6.3334289e-10 6.8924204e-10 6.8897069e-10     5.472354     5.472354     5.472354    163.87872 
      79            0  -0.19500315    22505.214    22505.214    22505.214    22505.214 5.8812284e-10 5.8920794e-10 5.8812284e-10     5.472897     5.472897     5.472897     163.9275 
      80            0  -0.19568476    22253.357    22253.357    22253.357    22253.357 6.5032236e-10 6.5140714e-10 6.5059356e-10      5.47344      5.47344      5.47344     163.9763 
      81            0  -0.19635884    22002.588    22002.588    22002.588    22002.588 7.2604048e-10 7.2549825e-10 7.2522714e-10     5.473983     5.473983     5.473983    164.02511 
      82            0  -0.19702543    21752.904    21752.904    21752.904    21752.904 5.8434561e-10 5.8380354e-10 5.8461664e-10     5.474526     5.474526     5.474526    164.07393 
      83            0  -0.19768457    21504.304    21504.304    21504.304    21504.304 7.0826762e-10 7.0718382e-10 7.0853857e-10     5.475069     5.475069     5.475069    164.12275 
      84            0  -0.19833627    21256.785    21256.785    21256.785    21256.785 6.7717763e-10 6.1325206e-10 6.1298119e-10     5.475612     5.475612     5.475612    164.17159 
      85            0  -0.19898057    21010.345    21010.345    21010.345    21010.345 8.0424774e-10 8.0208142e-10 8.0208142e-10     5.476155     5.476155     5.476155    164.22043 
      86            0  -0.19961751    20764.981    20764.981    20764.981    20764.981 6.1342874e-10 6.123459e-10 6.1261661e-10     5.476698     5.476698     5.476698    164.26929 
      87            0   -0.2002471    20520.692    20520.692    20520.692    20520.692 7.8049532e-10 7.7995406e-10 7.8076594e-10     5.477241     5.477241     5.477241    164.31816 
      88            0  -0.20086938    20277.475    20277.475    20277.475    20277.475 6.844889e-10 6.844889e-10 6.8557109e-10     5.477784     5.477784     5.477784    164.36703 
      89            0  -0.20148438    20035.327    20035.327    20035.327    20035.327 8.7415429e-10 8.2006058e-10 8.1897871e-10     5.478327     5.478327     5.478327    164.41592 
      90            0  -0.20209213    19794.248    19794.248    19794.248    19794.248 4.5208894e-10 4.5479282e-10 4.5398166e-10      5.47887      5.47887      5.47887    164.46481 
      91            0  -0.20269265    19554.233    19554.233    19554.233    19554.233 3.6491545e-10 3.6545607e-10 3.6505061e-10     5.479413     5.479413     5.479413    164.51371 
      92            0  -0.20328598    19315.282    19315.282    19315.282    19315.282 5.5774935e-10 5.5774935e-10 5.5869515e-10     5.479956     5.479956     5.479956    164.56263 
      93            0  -0.20387216    19077.392    19077.392    19077.392    19077.392 4.6951564e-10 4.7005593e-10 4.6938056e-10     5.480499     5.480499     5.480499    164.61155 
      94            0  -0.20445119     18840.56     18840.56     18840.56     18840.56 6.0170884e-10 6.0062857e-10 6.0062857e-10     5.481042     5.481042     5.481042    164.66048 
      95            0  -0.20502313    18604.784    18604.784    18604.784    18604.784 4.557373e-10 4.5357741e-10 4.5303744e-10     5.481585     5.481585     5.481585    164.70943 
      96            0  -0.20558799    18370.063    18370.063    18370.063    18370.063 5.5492743e-10 5.538478e-10 5.5506238e-10     5.482128     5.482128     5.482128    164.75838 
      97            0   -0.2061458    18136.393    18136.393    18136.393    18136.393 6.2923458e-10 5.1213003e-10 5.1186021e-10     5.482671     5.482671     5.482671    164.80734 
      98            0   -0.2066966    17903.773    17903.773    17903.773    17903.773 6.738255e-10 6.2419224e-10 6.2392249e-10     5.483214     5.483214     5.483214    164.85631 
      99            0  -0.20724041      17672.2      17672.2      17672.2      17672.2 2.7398053e-10 2.7236253e-10 2.7290186e-10     5.483757     5.483757     5.483757     164.9053 
     100            0  -0.20777726    17441.673    17441.673    17441.673    17441.673 4.1677962e-10 3.5531406e-10 3.565272e-10       5.4843       5.4843       5.4843    164.95429 
Loop time of 0.00179791 on 1 procs for 100 steps with 8 atoms

100.0% CPU use with 1 MPI tasks x no OpenMP threads

Minimization stats:
  Stopping criterion = max iterations
  Energy initial, next-to-last, final = 
       -0.114738652006    -0.207240410404    -0.207777264938
  Force two-norm initial, final = 7.9675 3.0795
  Force max component initial, final = 4.60004 1.77795
  Final line search alpha, max atom move = 5.55218e-05 9.87151e-05
  Iterations, force evaluations = 100 100

MPI task timing breakdown:
Section |  min time  |  avg time  |  max time  |%varavg| %total
---------------------------------------------------------------
Pair    | 0.00083494 | 0.00083494 | 0.00083494 |   0.0 | 46.44
Neigh   | 0          | 0          | 0          |   0.0 |  0.00
Comm    | 4.7922e-05 | 4.7922e-05 | 4.7922e-05 |   0.0 |  2.67
Output  | 0.00066304 | 0.00066304 | 0.00066304 |   0.0 | 36.88
Modify  | 0          | 0          | 0          |   0.0 |  0.00
Other   |            | 0.000252   |            |       | 14.02

Nlocal:    8 ave 8 max 8 min
Histogram: 1 0 0 0 0 0 0 0 0 0
Nghost:    86 ave 86 max 86 min
Histogram: 1 0 0 0 0 0 0 0 0 0
Neighs:    0 ave 0 max 0 min
Histogram: 1 0 0 0 0 0 0 0 0 0
FullNghs:  32 ave 32 max 32 min
Histogram: 1 0 0 0 0 0 0 0 0 0

Total # of neighbors = 32
Ave neighs/atom = 4
Neighbor list builds = 0
Dangerous builds = 0
System init for write_restart ...
Reading restart file ...
  restart file = 11 Aug 2017, LAMMPS = 11 Aug 2017
  triclinic box = (-0.02715 -0.02715 -0.02715) to (5.45715 5.45715 5.45715) with tilt (0 0 0)
  1 by 1 by 1 MPI processor grid
  8 atoms
8 atoms in group Si
Changing box ...
  triclinic box = (-0.02715 -0.02715 -0.02715) to (5.45714 5.45715 5.45715) with tilt (0 0 0)
Neighbor list info ...
  update every 1 steps, delay 0 steps, check yes
  max neighbors/atom: 2000, page size: 100000
  master list distance cutoff = 3.78429
  ghost atom cutoff = 3.78429
  binsize = 1.89215, bins = 3 3 3
  1 neighbor lists, perpetual/occasional/extra = 1 0 0
  (1) pair sw, perpetual
      attributes: full, newton on
      pair build: full/bin/atomonly
      stencil: full/bin/3d
      bin: standard
Setting up cg style minimization ...
  Unit style    : metal
  Current step  : 100
Per MPI rank memory allocation (min/avg/max) = 3.812 | 3.812 | 3.812 Mbytes
Step Temp PotEng Press Pxx Pyy Pzz Pxy Pxz Pyz Lx Ly Lz Volume 
     100            0  -0.20777547    17442.447    17442.424    17442.459    17442.459 3.7282068e-10 3.2449119e-10 5.3652062e-10    5.4842945       5.4843       5.4843    164.95412 
     101            0  -0.20777547    17442.447    17442.424    17442.459    17442.459 -2.3428711e-10 -2.3570863e-10 -3.0149265e-11    5.4842945       5.4843       5.4843    164.95412 
Loop time of 3.69549e-05 on 1 procs for 1 steps with 8 atoms

62.2% CPU use with 1 MPI tasks x no OpenMP threads

Minimization stats:
  Stopping criterion = force tolerance
  Energy initial, next-to-last, final = 
       -0.207775469168    -0.207775469168    -0.207775469168
  Force two-norm initial, final = 4.84701e-14 1.97763e-14
  Force max component initial, final = 2.15414e-14 5.77316e-15
  Final line search alpha, max atom move = 1 5.77316e-15
  Iterations, force evaluations = 1 2

MPI task timing breakdown:
Section |  min time  |  avg time  |  max time  |%varavg| %total
---------------------------------------------------------------
Pair    | 2.4796e-05 | 2.4796e-05 | 2.4796e-05 |   0.0 | 67.10
Neigh   | 0          | 0          | 0          |   0.0 |  0.00
Comm    | 1.9073e-06 | 1.9073e-06 | 1.9073e-06 |   0.0 |  5.16
Output  | 0          | 0          | 0          |   0.0 |  0.00
Modify  | 0          | 0          | 0          |   0.0 |  0.00
Other   |            | 1.025e-05  |            |       | 27.74

Nlocal:    8 ave 8 max 8 min
Histogram: 1 0 0 0 0 0 0 0 0 0
Nghost:    86 ave 86 max 86 min
Histogram: 1 0 0 0 0 0 0 0 0 0
Neighs:    0 ave 0 max 0 min
Histogram: 1 0 0 0 0 0 0 0 0 0
FullNghs:  32 ave 32 max 32 min
Histogram: 1 0 0 0 0 0 0 0 0 0

Total # of neighbors = 32
Ave neighs/atom = 4
Neighbor list builds = 0
Dangerous builds = 0
Reading restart file ...
  restart file = 11 Aug 2017, LAMMPS = 11 Aug 2017
  triclinic box = (-0.02715 -0.02715 -0.02715) to (5.45715 5.45715 5.45715) with tilt (0 0 0)
  1 by 1 by 1 MPI processor grid
  8 atoms
8 atoms in group Si
Changing box ...
  triclinic box = (-0.02715 -0.02715 -0.02715) to (5.45716 5.45715 5.45715) with tilt (0 0 0)
Neighbor list info ...
  update every 1 steps, delay 0 steps, check yes
  max neighbors/atom: 2000, page size: 100000
  master list distance cutoff = 3.78429
  ghost atom cutoff = 3.78429
  binsize = 1.89215, bins = 3 3 3
  1 neighbor lists, perpetual/occasional/extra = 1 0 0
  (1) pair sw, perpetual
      attributes: full, newton on
      pair build: full/bin/atomonly
      stencil: full/bin/3d
      bin: standard
Setting up cg style minimization ...
  Unit style    : metal
  Current step  : 100
Per MPI rank memory allocation (min/avg/max) = 3.812 | 3.812 | 3.812 Mbytes
Step Temp PotEng Press Pxx Pyy Pzz Pxy Pxz Pyz Lx Ly Lz Volume 
     100            0  -0.20777906    17440.898    17440.922    17440.887    17440.887 4.0682119e-10 2.8477272e-10 4.4018877e-10    5.4843055       5.4843       5.4843    164.95445 
     101            0  -0.20777906    17440.898    17440.922    17440.887    17440.887 -1.9758953e-10 -1.3470234e-10 -1.3429796e-10    5.4843055       5.4843       5.4843    164.95445 
Loop time of 7.20024e-05 on 1 procs for 1 steps with 8 atoms

101.4% CPU use with 1 MPI tasks x no OpenMP threads

Minimization stats:
  Stopping criterion = force tolerance
  Energy initial, next-to-last, final = 
       -0.207779060631    -0.207779060631    -0.207779060631
  Force two-norm initial, final = 4.37274e-14 1.84703e-14
  Force max component initial, final = 1.74817e-14 8.65974e-15
  Final line search alpha, max atom move = 1 8.65974e-15
  Iterations, force evaluations = 1 2

MPI task timing breakdown:
Section |  min time  |  avg time  |  max time  |%varavg| %total
---------------------------------------------------------------
Pair    | 5.1022e-05 | 5.1022e-05 | 5.1022e-05 |   0.0 | 70.86
Neigh   | 0          | 0          | 0          |   0.0 |  0.00
Comm    | 2.1458e-06 | 2.1458e-06 | 2.1458e-06 |   0.0 |  2.98
Output  | 0          | 0          | 0          |   0.0 |  0.00
Modify  | 0          | 0          | 0          |   0.0 |  0.00
Other   |            | 1.884e-05  |            |       | 26.16

Nlocal:    8 ave 8 max 8 min
Histogram: 1 0 0 0 0 0 0 0 0 0
Nghost:    86 ave 86 max 86 min
Histogram: 1 0 0 0 0 0 0 0 0 0
Neighs:    0 ave 0 max 0 min
Histogram: 1 0 0 0 0 0 0 0 0 0
FullNghs:  32 ave 32 max 32 min
Histogram: 1 0 0 0 0 0 0 0 0 0

Total # of neighbors = 32
Ave neighs/atom = 4
Neighbor list builds = 0
Dangerous builds = 0
Reading restart file ...
  restart file = 11 Aug 2017, LAMMPS = 11 Aug 2017
  triclinic box = (-0.02715 -0.02715 -0.02715) to (5.45715 5.45715 5.45715) with tilt (0 0 0)
  1 by 1 by 1 MPI processor grid
  8 atoms
8 atoms in group Si
Changing box ...
  triclinic box = (-0.02715 -0.02715 -0.02715) to (5.45715 5.45714 5.45715) with tilt (0 0 0)
Neighbor list info ...
  update every 1 steps, delay 0 steps, check yes
  max neighbors/atom: 2000, page size: 100000
  master list distance cutoff = 3.78429
  ghost atom cutoff = 3.78429
  binsize = 1.89215, bins = 3 3 3
  1 neighbor lists, perpetual/occasional/extra = 1 0 0
  (1) pair sw, perpetual
      attributes: full, newton on
      pair build: full/bin/atomonly
      stencil: full/bin/3d
      bin: standard
Setting up cg style minimization ...
  Unit style    : metal
  Current step  : 100
Per MPI rank memory allocation (min/avg/max) = 3.812 | 3.812 | 3.812 Mbytes
Step Temp PotEng Press Pxx Pyy Pzz Pxy Pxz Pyz Lx Ly Lz Volume 
     100            0  -0.20777547    17442.447    17442.459    17442.424    17442.459 4.0009106e-10 5.078097e-10 2.9645424e-10       5.4843    5.4842945       5.4843    164.95412 
     101            0  -0.20777547    17442.447    17442.459    17442.424    17442.459 -2.3828872e-10 -2.3813992e-11 -1.2746983e-10       5.4843    5.4842945       5.4843    164.95412 
Loop time of 3.79086e-05 on 1 procs for 1 steps with 8 atoms

102.9% CPU use with 1 MPI tasks x no OpenMP threads

Minimization stats:
  Stopping criterion = force tolerance
  Energy initial, next-to-last, final = 
       -0.207775469168    -0.207775469168    -0.207775469168
  Force two-norm initial, final = 4.79986e-14 1.83731e-14
  Force max component initial, final = 1.97758e-14 6.05072e-15
  Final line search alpha, max atom move = 1 6.05072e-15
  Iterations, force evaluations = 1 2

MPI task timing breakdown:
Section |  min time  |  avg time  |  max time  |%varavg| %total
---------------------------------------------------------------
Pair    | 2.6226e-05 | 2.6226e-05 | 2.6226e-05 |   0.0 | 69.18
Neigh   | 0          | 0          | 0          |   0.0 |  0.00
Comm    | 1.9073e-06 | 1.9073e-06 | 1.9073e-06 |   0.0 |  5.03
Output  | 0          | 0          | 0          |   0.0 |  0.00
Modify  | 0          | 0          | 0          |   0.0 |  0.00
Other   |            | 9.775e-06  |            |       | 25.79

Nlocal:    8 ave 8 max 8 min
Histogram: 1 0 0 0 0 0 0 0 0 0
Nghost:    86 ave 86 max 86 min
Histogram: 1 0 0 0 0 0 0 0 0 0
Neighs:    0 ave 0 max 0 min
Histogram: 1 0 0 0 0 0 0 0 0 0
FullNghs:  32 ave 32 max 32 min
Histogram: 1 0 0 0 0 0 0 0 0 0

Total # of neighbors = 32
Ave neighs/atom = 4
Neighbor list builds = 0
Dangerous builds = 0
Reading restart file ...
  restart file = 11 Aug 2017, LAMMPS = 11 Aug 2017
  triclinic box = (-0.02715 -0.02715 -0.02715) to (5.45715 5.45715 5.45715) with tilt (0 0 0)
  1 by 1 by 1 MPI processor grid
  8 atoms
8 atoms in group Si
Changing box ...
  triclinic box = (-0.02715 -0.02715 -0.02715) to (5.45715 5.45716 5.45715) with tilt (0 0 0)
Neighbor list info ...
  update every 1 steps, delay 0 steps, check yes
  max neighbors/atom: 2000, page size: 100000
  master list distance cutoff = 3.78429
  ghost atom cutoff = 3.78429
  binsize = 1.89215, bins = 3 3 3
  1 neighbor lists, perpetual/occasional/extra = 1 0 0
  (1) pair sw, perpetual
      attributes: full, newton on
      pair build: full/bin/atomonly
      stencil: full/bin/3d
      bin: standard
Setting up cg style minimization ...
  Unit style    : metal
  Current step  : 100
Per MPI rank memory allocation (min/avg/max) = 3.812 | 3.812 | 3.812 Mbytes
Step Temp PotEng Press Pxx Pyy Pzz Pxy Pxz Pyz Lx Ly Lz Volume 
     100            0  -0.20777906    17440.898    17440.887    17440.922    17440.887 4.3129522e-10 4.1525211e-10 2.6118399e-10       5.4843    5.4843055       5.4843    164.95445 
     101            0  -0.20777906    17440.898    17440.887    17440.922    17440.887 -1.4561778e-10 -8.0246062e-11 -8.0380855e-11       5.4843    5.4843055       5.4843    164.95445 
Loop time of 4.19617e-05 on 1 procs for 1 steps with 8 atoms

73.9% CPU use with 1 MPI tasks x no OpenMP threads

Minimization stats:
  Stopping criterion = force tolerance
  Energy initial, next-to-last, final = 
       -0.207779060631    -0.207779060631    -0.207779060631
  Force two-norm initial, final = 4.33907e-14 1.38407e-14
  Force max component initial, final = 1.74721e-14 6.51308e-15
  Final line search alpha, max atom move = 1 6.51308e-15
  Iterations, force evaluations = 1 2

MPI task timing breakdown:
Section |  min time  |  avg time  |  max time  |%varavg| %total
---------------------------------------------------------------
Pair    | 2.9087e-05 | 2.9087e-05 | 2.9087e-05 |   0.0 | 69.32
Neigh   | 0          | 0          | 0          |   0.0 |  0.00
Comm    | 3.0994e-06 | 3.0994e-06 | 3.0994e-06 |   0.0 |  7.39
Output  | 0          | 0          | 0          |   0.0 |  0.00
Modify  | 0          | 0          | 0          |   0.0 |  0.00
Other   |            | 9.775e-06  |            |       | 23.30

Nlocal:    8 ave 8 max 8 min
Histogram: 1 0 0 0 0 0 0 0 0 0
Nghost:    86 ave 86 max 86 min
Histogram: 1 0 0 0 0 0 0 0 0 0
Neighs:    0 ave 0 max 0 min
Histogram: 1 0 0 0 0 0 0 0 0 0
FullNghs:  32 ave 32 max 32 min
Histogram: 1 0 0 0 0 0 0 0 0 0

Total # of neighbors = 32
Ave neighs/atom = 4
Neighbor list builds = 0
Dangerous builds = 0
Reading restart file ...
  restart file = 11 Aug 2017, LAMMPS = 11 Aug 2017
  triclinic box = (-0.02715 -0.02715 -0.02715) to (5.45715 5.45715 5.45715) with tilt (0 0 0)
  1 by 1 by 1 MPI processor grid
  8 atoms
8 atoms in group Si
Changing box ...
  triclinic box = (-0.02715 -0.02715 -0.02715) to (5.45715 5.45715 5.45714) with tilt (0 0 0)
Neighbor list info ...
  update every 1 steps, delay 0 steps, check yes
  max neighbors/atom: 2000, page size: 100000
  master list distance cutoff = 3.78429
  ghost atom cutoff = 3.78429
  binsize = 1.89215, bins = 3 3 3
  1 neighbor lists, perpetual/occasional/extra = 1 0 0
  (1) pair sw, perpetual
      attributes: full, newton on
      pair build: full/bin/atomonly
      stencil: full/bin/3d
      bin: standard
Setting up cg style minimization ...
  Unit style    : metal
  Current step  : 100
Per MPI rank memory allocation (min/avg/max) = 3.812 | 3.812 | 3.812 Mbytes
Step Temp PotEng Press Pxx Pyy Pzz Pxy Pxz Pyz Lx Ly Lz Volume 
     100            0  -0.20777547    17442.447    17442.459    17442.459    17442.424 5.0815294e-10 3.5064287e-10 3.4969932e-10       5.4843       5.4843    5.4842945    164.95412 
     101            0  -0.20777547    17442.447    17442.459    17442.459    17442.424 2.2358872e-11 -1.8421586e-10 -1.8515941e-10       5.4843       5.4843    5.4842945    164.95412 
Loop time of 4.57764e-05 on 1 procs for 1 steps with 8 atoms

69.9% CPU use with 1 MPI tasks x no OpenMP threads

Minimization stats:
  Stopping criterion = force tolerance
  Energy initial, next-to-last, final = 
       -0.207775469168    -0.207775469168    -0.207775469168
  Force two-norm initial, final = 4.90703e-14 1.59402e-14
  Force max component initial, final = 1.95399e-14 5.80531e-15
  Final line search alpha, max atom move = 1 5.80531e-15
  Iterations, force evaluations = 1 2

MPI task timing breakdown:
Section |  min time  |  avg time  |  max time  |%varavg| %total
---------------------------------------------------------------
Pair    | 2.5749e-05 | 2.5749e-05 | 2.5749e-05 |   0.0 | 56.25
Neigh   | 0          | 0          | 0          |   0.0 |  0.00
Comm    | 2.1458e-06 | 2.1458e-06 | 2.1458e-06 |   0.0 |  4.69
Output  | 0          | 0          | 0          |   0.0 |  0.00
Modify  | 0          | 0          | 0          |   0.0 |  0.00
Other   |            | 1.788e-05  |            |       | 39.06

Nlocal:    8 ave 8 max 8 min
Histogram: 1 0 0 0 0 0 0 0 0 0
Nghost:    86 ave 86 max 86 min
Histogram: 1 0 0 0 0 0 0 0 0 0
Neighs:    0 ave 0 max 0 min
Histogram: 1 0 0 0 0 0 0 0 0 0
FullNghs:  32 ave 32 max 32 min
Histogram: 1 0 0 0 0 0 0 0 0 0

Total # of neighbors = 32
Ave neighs/atom = 4
Neighbor list builds = 0
Dangerous builds = 0
Reading restart file ...
  restart file = 11 Aug 2017, LAMMPS = 11 Aug 2017
  triclinic box = (-0.02715 -0.02715 -0.02715) to (5.45715 5.45715 5.45715) with tilt (0 0 0)
  1 by 1 by 1 MPI processor grid
  8 atoms
8 atoms in group Si
Changing box ...
  triclinic box = (-0.02715 -0.02715 -0.02715) to (5.45715 5.45715 5.45716) with tilt (0 0 0)
Neighbor list info ...
  update every 1 steps, delay 0 steps, check yes
  max neighbors/atom: 2000, page size: 100000
  master list distance cutoff = 3.78429
  ghost atom cutoff = 3.78429
  binsize = 1.89215, bins = 3 3 3
  1 neighbor lists, perpetual/occasional/extra = 1 0 0
  (1) pair sw, perpetual
      attributes: full, newton on
      pair build: full/bin/atomonly
      stencil: full/bin/3d
      bin: standard
Setting up cg style minimization ...
  Unit style    : metal
  Current step  : 100
Per MPI rank memory allocation (min/avg/max) = 3.812 | 3.812 | 3.812 Mbytes
Step Temp PotEng Press Pxx Pyy Pzz Pxy Pxz Pyz Lx Ly Lz Volume 
     100            0  -0.20777906    17440.898    17440.887    17440.887    17440.922 4.8176602e-10 3.1361686e-10 3.1361686e-10       5.4843       5.4843    5.4843055    164.95445 
     101            0  -0.20777906    17440.898    17440.887    17440.887    17440.922 -1.1240045e-10 -6.1646176e-11 -6.0972213e-11       5.4843       5.4843    5.4843055    164.95445 
Loop time of 3.79086e-05 on 1 procs for 1 steps with 8 atoms

68.6% CPU use with 1 MPI tasks x no OpenMP threads

Minimization stats:
  Stopping criterion = force tolerance
  Energy initial, next-to-last, final = 
       -0.207779060631    -0.207779060631    -0.207779060631
  Force two-norm initial, final = 4.49927e-14 1.52222e-14
  Force max component initial, final = 1.74999e-14 1.04964e-14
  Final line search alpha, max atom move = 1 1.04964e-14
  Iterations, force evaluations = 1 2

MPI task timing breakdown:
Section |  min time  |  avg time  |  max time  |%varavg| %total
---------------------------------------------------------------
Pair    | 2.408e-05  | 2.408e-05  | 2.408e-05  |   0.0 | 63.52
Neigh   | 0          | 0          | 0          |   0.0 |  0.00
Comm    | 3.0994e-06 | 3.0994e-06 | 3.0994e-06 |   0.0 |  8.18
Output  | 0          | 0          | 0          |   0.0 |  0.00
Modify  | 0          | 0          | 0          |   0.0 |  0.00
Other   |            | 1.073e-05  |            |       | 28.30

Nlocal:    8 ave 8 max 8 min
Histogram: 1 0 0 0 0 0 0 0 0 0
Nghost:    86 ave 86 max 86 min
Histogram: 1 0 0 0 0 0 0 0 0 0
Neighs:    0 ave 0 max 0 min
Histogram: 1 0 0 0 0 0 0 0 0 0
FullNghs:  32 ave 32 max 32 min
Histogram: 1 0 0 0 0 0 0 0 0 0

Total # of neighbors = 32
Ave neighs/atom = 4
Neighbor list builds = 0
Dangerous builds = 0
Reading restart file ...
  restart file = 11 Aug 2017, LAMMPS = 11 Aug 2017
  triclinic box = (-0.02715 -0.02715 -0.02715) to (5.45715 5.45715 5.45715) with tilt (0 0 0)
  1 by 1 by 1 MPI processor grid
  8 atoms
8 atoms in group Si
Changing box ...
  triclinic box = (-0.02715 -0.02715 -0.02715) to (5.45715 5.45715 5.45715) with tilt (0 0 -5.4843e-06)
Neighbor list info ...
  update every 1 steps, delay 0 steps, check yes
  max neighbors/atom: 2000, page size: 100000
  master list distance cutoff = 3.78429
  ghost atom cutoff = 3.78429
  binsize = 1.89215, bins = 3 3 3
  1 neighbor lists, perpetual/occasional/extra = 1 0 0
  (1) pair sw, perpetual
      attributes: full, newton on
      pair build: full/bin/atomonly
      stencil: full/bin/3d
      bin: standard
Setting up cg style minimization ...
  Unit style    : metal
  Current step  : 100
Per MPI rank memory allocation (min/avg/max) = 3.812 | 3.812 | 3.812 Mbytes
Step Temp PotEng Press Pxx Pyy Pzz Pxy Pxz Pyz Lx Ly Lz Volume 
     100            0  -0.20777726    17441.673    17441.673    17441.673    17441.673 4.3280379e-10 3.1946476e-10   0.75109751       5.4843       5.4843       5.4843    164.95429 
     101            0  -0.20777726    17441.673    17441.673    17441.673    17441.673 -7.9693094e-11 -3.082093e-11 -0.035288365       5.4843       5.4843       5.4843    164.95429 
Loop time of 3.79086e-05 on 1 procs for 1 steps with 8 atoms

68.6% CPU use with 1 MPI tasks x no OpenMP threads

Minimization stats:
  Stopping criterion = force tolerance
  Energy initial, next-to-last, final = 
       -0.207777264899    -0.207777264899     -0.20777726494
  Force two-norm initial, final = 4.08078e-05 4.34846e-14
  Force max component initial, final = 1.44277e-05 1.71601e-14
  Final line search alpha, max atom move = 1 1.71601e-14
  Iterations, force evaluations = 1 2

MPI task timing breakdown:
Section |  min time  |  avg time  |  max time  |%varavg| %total
---------------------------------------------------------------
Pair    | 2.408e-05  | 2.408e-05  | 2.408e-05  |   0.0 | 63.52
Neigh   | 0          | 0          | 0          |   0.0 |  0.00
Comm    | 3.0994e-06 | 3.0994e-06 | 3.0994e-06 |   0.0 |  8.18
Output  | 0          | 0          | 0          |   0.0 |  0.00
Modify  | 0          | 0          | 0          |   0.0 |  0.00
Other   |            | 1.073e-05  |            |       | 28.30

Nlocal:    8 ave 8 max 8 min
Histogram: 1 0 0 0 0 0 0 0 0 0
Nghost:    86 ave 86 max 86 min
Histogram: 1 0 0 0 0 0 0 0 0 0
Neighs:    0 ave 0 max 0 min
Histogram: 1 0 0 0 0 0 0 0 0 0
FullNghs:  32 ave 32 max 32 min
Histogram: 1 0 0 0 0 0 0 0 0 0

Total # of neighbors = 32
Ave neighs/atom = 4
Neighbor list builds = 0
Dangerous builds = 0
Reading restart file ...
  restart file = 11 Aug 2017, LAMMPS = 11 Aug 2017
  triclinic box = (-0.02715 -0.02715 -0.02715) to (5.45715 5.45715 5.45715) with tilt (0 0 0)
  1 by 1 by 1 MPI processor grid
  8 atoms
8 atoms in group Si
Changing box ...
  triclinic box = (-0.02715 -0.02715 -0.02715) to (5.45715 5.45715 5.45715) with tilt (0 0 5.4843e-06)
Neighbor list info ...
  update every 1 steps, delay 0 steps, check yes
  max neighbors/atom: 2000, page size: 100000
  master list distance cutoff = 3.78429
  ghost atom cutoff = 3.78429
  binsize = 1.89215, bins = 3 3 3
  1 neighbor lists, perpetual/occasional/extra = 1 0 0
  (1) pair sw, perpetual
      attributes: full, newton on
      pair build: full/bin/atomonly
      stencil: full/bin/3d
      bin: standard
Setting up cg style minimization ...
  Unit style    : metal
  Current step  : 100
Per MPI rank memory allocation (min/avg/max) = 3.812 | 3.812 | 3.812 Mbytes
Step Temp PotEng Press Pxx Pyy Pzz Pxy Pxz Pyz Lx Ly Lz Volume 
     100            0  -0.20777726    17441.673    17441.673    17441.673    17441.673 5.3284969e-10 3.782233e-10  -0.75109751       5.4843       5.4843       5.4843    164.95429 
     101            0  -0.20777726    17441.673    17441.673    17441.673    17441.673 -2.3249567e-10 -1.8430836e-10  0.035288365       5.4843       5.4843       5.4843    164.95429 
Loop time of 4.41074e-05 on 1 procs for 1 steps with 8 atoms

99.8% CPU use with 1 MPI tasks x no OpenMP threads

Minimization stats:
  Stopping criterion = force tolerance
  Energy initial, next-to-last, final = 
       -0.207777264899    -0.207777264899     -0.20777726494
  Force two-norm initial, final = 4.08078e-05 5.08395e-14
  Force max component initial, final = 1.44277e-05 2.1122e-14
  Final line search alpha, max atom move = 1 2.1122e-14
  Iterations, force evaluations = 1 2

MPI task timing breakdown:
Section |  min time  |  avg time  |  max time  |%varavg| %total
---------------------------------------------------------------
Pair    | 2.3842e-05 | 2.3842e-05 | 2.3842e-05 |   0.0 | 54.05
Neigh   | 0          | 0          | 0          |   0.0 |  0.00
Comm    | 0          | 0          | 0          |   0.0 |  0.00
Output  | 0          | 0          | 0          |   0.0 |  0.00
Modify  | 0          | 0          | 0          |   0.0 |  0.00
Other   |            | 2.027e-05  |            |       | 45.95

Nlocal:    8 ave 8 max 8 min
Histogram: 1 0 0 0 0 0 0 0 0 0
Nghost:    86 ave 86 max 86 min
Histogram: 1 0 0 0 0 0 0 0 0 0
Neighs:    0 ave 0 max 0 min
Histogram: 1 0 0 0 0 0 0 0 0 0
FullNghs:  32 ave 32 max 32 min
Histogram: 1 0 0 0 0 0 0 0 0 0

Total # of neighbors = 32
Ave neighs/atom = 4
Neighbor list builds = 0
Dangerous builds = 0
Reading restart file ...
  restart file = 11 Aug 2017, LAMMPS = 11 Aug 2017
  triclinic box = (-0.02715 -0.02715 -0.02715) to (5.45715 5.45715 5.45715) with tilt (0 0 0)
  1 by 1 by 1 MPI processor grid
  8 atoms
8 atoms in group Si
Changing box ...
  triclinic box = (-0.02715 -0.02715 -0.02715) to (5.45715 5.45715 5.45715) with tilt (0 -5.4843e-06 0)
Neighbor list info ...
  update every 1 steps, delay 0 steps, check yes
  max neighbors/atom: 2000, page size: 100000
  master list distance cutoff = 3.78429
  ghost atom cutoff = 3.78429
  binsize = 1.89215, bins = 3 3 3
  1 neighbor lists, perpetual/occasional/extra = 1 0 0
  (1) pair sw, perpetual
      attributes: full, newton on
      pair build: full/bin/atomonly
      stencil: full/bin/3d
      bin: standard
Setting up cg style minimization ...
  Unit style    : metal
  Current step  : 100
Per MPI rank memory allocation (min/avg/max) = 3.812 | 3.812 | 3.812 Mbytes
Step Temp PotEng Press Pxx Pyy Pzz Pxy Pxz Pyz Lx Ly Lz Volume 
     100            0  -0.20777726    17441.673    17441.673    17441.673    17441.673 4.407445e-10   0.75109751 3.1218594e-10       5.4843       5.4843       5.4843    164.95429 
     101            0  -0.20777726    17441.673    17441.673    17441.673    17441.673 -1.308061e-10 -0.035288365 -7.6650513e-11       5.4843       5.4843       5.4843    164.95429 
Loop time of 3.79086e-05 on 1 procs for 1 steps with 8 atoms

65.9% CPU use with 1 MPI tasks x no OpenMP threads

Minimization stats:
  Stopping criterion = force tolerance
  Energy initial, next-to-last, final = 
       -0.207777264899    -0.207777264899     -0.20777726494
  Force two-norm initial, final = 4.08078e-05 4.66961e-14
  Force max component initial, final = 1.44277e-05 1.89503e-14
  Final line search alpha, max atom move = 1 1.89503e-14
  Iterations, force evaluations = 1 2

MPI task timing breakdown:
Section |  min time  |  avg time  |  max time  |%varavg| %total
---------------------------------------------------------------
Pair    | 2.6226e-05 | 2.6226e-05 | 2.6226e-05 |   0.0 | 69.18
Neigh   | 0          | 0          | 0          |   0.0 |  0.00
Comm    | 1.9073e-06 | 1.9073e-06 | 1.9073e-06 |   0.0 |  5.03
Output  | 0          | 0          | 0          |   0.0 |  0.00
Modify  | 0          | 0          | 0          |   0.0 |  0.00
Other   |            | 9.775e-06  |            |       | 25.79

Nlocal:    8 ave 8 max 8 min
Histogram: 1 0 0 0 0 0 0 0 0 0
Nghost:    86 ave 86 max 86 min
Histogram: 1 0 0 0 0 0 0 0 0 0
Neighs:    0 ave 0 max 0 min
Histogram: 1 0 0 0 0 0 0 0 0 0
FullNghs:  32 ave 32 max 32 min
Histogram: 1 0 0 0 0 0 0 0 0 0

Total # of neighbors = 32
Ave neighs/atom = 4
Neighbor list builds = 0
Dangerous builds = 0
Reading restart file ...
  restart file = 11 Aug 2017, LAMMPS = 11 Aug 2017
  triclinic box = (-0.02715 -0.02715 -0.02715) to (5.45715 5.45715 5.45715) with tilt (0 0 0)
  1 by 1 by 1 MPI processor grid
  8 atoms
8 atoms in group Si
Changing box ...
  triclinic box = (-0.02715 -0.02715 -0.02715) to (5.45715 5.45715 5.45715) with tilt (0 5.4843e-06 0)
Neighbor list info ...
  update every 1 steps, delay 0 steps, check yes
  max neighbors/atom: 2000, page size: 100000
  master list distance cutoff = 3.78429
  ghost atom cutoff = 3.78429
  binsize = 1.89215, bins = 3 3 3
  1 neighbor lists, perpetual/occasional/extra = 1 0 0
  (1) pair sw, perpetual
      attributes: full, newton on
      pair build: full/bin/atomonly
      stencil: full/bin/3d
      bin: standard
Setting up cg style minimization ...
  Unit style    : metal
  Current step  : 100
Per MPI rank memory allocation (min/avg/max) = 3.812 | 3.812 | 3.812 Mbytes
Step Temp PotEng Press Pxx Pyy Pzz Pxy Pxz Pyz Lx Ly Lz Volume 
     100            0  -0.20777726    17441.673    17441.673    17441.673    17441.673 5.0712176e-10  -0.75109751 4.0450791e-10       5.4843       5.4843       5.4843    164.95429 
     101            0  -0.20777726    17441.673    17441.673    17441.673    17441.673 -1.3285767e-10  0.035288365 -1.8134292e-10       5.4843       5.4843       5.4843    164.95429 
Loop time of 3.8147e-05 on 1 procs for 1 steps with 8 atoms

68.2% CPU use with 1 MPI tasks x no OpenMP threads

Minimization stats:
  Stopping criterion = force tolerance
  Energy initial, next-to-last, final = 
       -0.207777264899    -0.207777264899     -0.20777726494
  Force two-norm initial, final = 4.08078e-05 5.48766e-14
  Force max component initial, final = 1.44277e-05 2.31065e-14
  Final line search alpha, max atom move = 1 2.31065e-14
  Iterations, force evaluations = 1 2

MPI task timing breakdown:
Section |  min time  |  avg time  |  max time  |%varavg| %total
---------------------------------------------------------------
Pair    | 2.4796e-05 | 2.4796e-05 | 2.4796e-05 |   0.0 | 65.00
Neigh   | 0          | 0          | 0          |   0.0 |  0.00
Comm    | 2.1458e-06 | 2.1458e-06 | 2.1458e-06 |   0.0 |  5.62
Output  | 0          | 0          | 0          |   0.0 |  0.00
Modify  | 0          | 0          | 0          |   0.0 |  0.00
Other   |            | 1.121e-05  |            |       | 29.38

Nlocal:    8 ave 8 max 8 min
Histogram: 1 0 0 0 0 0 0 0 0 0
Nghost:    86 ave 86 max 86 min
Histogram: 1 0 0 0 0 0 0 0 0 0
Neighs:    0 ave 0 max 0 min
Histogram: 1 0 0 0 0 0 0 0 0 0
FullNghs:  32 ave 32 max 32 min
Histogram: 1 0 0 0 0 0 0 0 0 0

Total # of neighbors = 32
Ave neighs/atom = 4
Neighbor list builds = 0
Dangerous builds = 0
Reading restart file ...
  restart file = 11 Aug 2017, LAMMPS = 11 Aug 2017
  triclinic box = (-0.02715 -0.02715 -0.02715) to (5.45715 5.45715 5.45715) with tilt (0 0 0)
  1 by 1 by 1 MPI processor grid
  8 atoms
8 atoms in group Si
Changing box ...
  triclinic box = (-0.02715 -0.02715 -0.02715) to (5.45715 5.45715 5.45715) with tilt (-5.4843e-06 0 0)
Neighbor list info ...
  update every 1 steps, delay 0 steps, check yes
  max neighbors/atom: 2000, page size: 100000
  master list distance cutoff = 3.78429
  ghost atom cutoff = 3.78429
  binsize = 1.89215, bins = 3 3 3
  1 neighbor lists, perpetual/occasional/extra = 1 0 0
  (1) pair sw, perpetual
      attributes: full, newton on
      pair build: full/bin/atomonly
      stencil: full/bin/3d
      bin: standard
Setting up cg style minimization ...
  Unit style    : metal
  Current step  : 100
Per MPI rank memory allocation (min/avg/max) = 3.812 | 3.812 | 3.812 Mbytes
Step Temp PotEng Press Pxx Pyy Pzz Pxy Pxz Pyz Lx Ly Lz Volume 
     100            0  -0.20777726    17441.673    17441.673    17441.673    17441.673   0.75109751 2.6982576e-10 3.2616919e-10       5.4843       5.4843       5.4843    164.95429 
     101            0  -0.20777726    17441.673    17441.673    17441.673    17441.673 -0.035288365 -4.6354309e-12 -5.7878623e-11       5.4843       5.4843       5.4843    164.95429 
Loop time of 4.69685e-05 on 1 procs for 1 steps with 8 atoms

0.0% CPU use with 1 MPI tasks x no OpenMP threads

Minimization stats:
  Stopping criterion = force tolerance
  Energy initial, next-to-last, final = 
       -0.207777264899    -0.207777264899     -0.20777726494
  Force two-norm initial, final = 4.08078e-05 4.23616e-14
  Force max component initial, final = 1.44277e-05 1.53766e-14
  Final line search alpha, max atom move = 1 1.53766e-14
  Iterations, force evaluations = 1 2

MPI task timing breakdown:
Section |  min time  |  avg time  |  max time  |%varavg| %total
---------------------------------------------------------------
Pair    | 2.4319e-05 | 2.4319e-05 | 2.4319e-05 |   0.0 | 51.78
Neigh   | 0          | 0          | 0          |   0.0 |  0.00
Comm    | 1.9073e-06 | 1.9073e-06 | 1.9073e-06 |   0.0 |  4.06
Output  | 0          | 0          | 0          |   0.0 |  0.00
Modify  | 0          | 0          | 0          |   0.0 |  0.00
Other   |            | 2.074e-05  |            |       | 44.16

Nlocal:    8 ave 8 max 8 min
Histogram: 1 0 0 0 0 0 0 0 0 0
Nghost:    86 ave 86 max 86 min
Histogram: 1 0 0 0 0 0 0 0 0 0
Neighs:    0 ave 0 max 0 min
Histogram: 1 0 0 0 0 0 0 0 0 0
FullNghs:  32 ave 32 max 32 min
Histogram: 1 0 0 0 0 0 0 0 0 0

Total # of neighbors = 32
Ave neighs/atom = 4
Neighbor list builds = 0
Dangerous builds = 0
Reading restart file ...
  restart file = 11 Aug 2017, LAMMPS = 11 Aug 2017
  triclinic box = (-0.02715 -0.02715 -0.02715) to (5.45715 5.45715 5.45715) with tilt (0 0 0)
  1 by 1 by 1 MPI processor grid
  8 atoms
8 atoms in group Si
Changing box ...
  triclinic box = (-0.02715 -0.02715 -0.02715) to (5.45715 5.45715 5.45715) with tilt (5.4843e-06 0 0)
Neighbor list info ...
  update every 1 steps, delay 0 steps, check yes
  max neighbors/atom: 2000, page size: 100000
  master list distance cutoff = 3.78429
  ghost atom cutoff = 3.78429
  binsize = 1.89215, bins = 3 3 3
  1 neighbor lists, perpetual/occasional/extra = 1 0 0
  (1) pair sw, perpetual
      attributes: full, newton on
      pair build: full/bin/atomonly
      stencil: full/bin/3d
      bin: standard
Setting up cg style minimization ...
  Unit style    : metal
  Current step  : 100
Per MPI rank memory allocation (min/avg/max) = 3.812 | 3.812 | 3.812 Mbytes
Step Temp PotEng Press Pxx Pyy Pzz Pxy Pxz Pyz Lx Ly Lz Volume 
     100            0  -0.20777726    17441.673    17441.673    17441.673    17441.673  -0.75109751 3.9497273e-10 3.9564669e-10       5.4843       5.4843       5.4843    164.95429 
     101            0  -0.20777726    17441.673    17441.673    17441.673    17441.673  0.035288365 -1.0319871e-10 -1.034683e-10       5.4843       5.4843       5.4843    164.95429 
Loop time of 3.8147e-05 on 1 procs for 1 steps with 8 atoms

60.3% CPU use with 1 MPI tasks x no OpenMP threads

Minimization stats:
  Stopping criterion = force tolerance
  Energy initial, next-to-last, final = 
       -0.207777264899    -0.207777264899     -0.20777726494
  Force two-norm initial, final = 4.08078e-05 5.46649e-14
  Force max component initial, final = 1.44277e-05 2.09348e-14
  Final line search alpha, max atom move = 1 2.09348e-14
  Iterations, force evaluations = 1 2

MPI task timing breakdown:
Section |  min time  |  avg time  |  max time  |%varavg| %total
---------------------------------------------------------------
Pair    | 2.5988e-05 | 2.5988e-05 | 2.5988e-05 |   0.0 | 68.12
Neigh   | 0          | 0          | 0          |   0.0 |  0.00
Comm    | 3.0994e-06 | 3.0994e-06 | 3.0994e-06 |   0.0 |  8.12
Output  | 0          | 0          | 0          |   0.0 |  0.00
Modify  | 0          | 0          | 0          |   0.0 |  0.00
Other   |            | 9.06e-06   |            |       | 23.75

Nlocal:    8 ave 8 max 8 min
Histogram: 1 0 0 0 0 0 0 0 0 0
Nghost:    86 ave 86 max 86 min
Histogram: 1 0 0 0 0 0 0 0 0 0
Neighs:    0 ave 0 max 0 min
Histogram: 1 0 0 0 0 0 0 0 0 0
FullNghs:  32 ave 32 max 32 min
Histogram: 1 0 0 0 0 0 0 0 0 0

Total # of neighbors = 32
Ave neighs/atom = 4
Neighbor list builds = 0
Dangerous builds = 0
c11 = 75.1097510299587 GPa
c22 = 75.1097510299587 GPa
c33 = 75.10975103487 GPa
c12 = 78.5980852801003 GPa
c13 = 78.5980852850116 GPa
c23 = 78.5980852850116 GPa
c44 = -3.52883647848927 GPa
c55 = -3.52883647095435 GPa
c66 = -3.52883647389284 GPa
c14 = 2.60371733434998e-09 GPa
c15 = -2.52515734150785e-09 GPa
c16 = -9.17439489250125e-10 GPa
c24 = -1.17722436102862e-09 GPa
c25 = 1.41080175294203e-09 GPa
c26 = -2.31677329166647e-09 GPa
c34 = -3.10467993465465e-09 GPa
c35 = -3.0642420604216e-09 GPa
c36 = 3.3689830101427e-09 GPa
c45 = 6.4544958293898e-09 GPa
c46 = 4.95980637705988e-09 GPa
c56 = 2.51537126305363e-09 GPa
lammps_sim_done
Total wall time: 0:00:00
