   2   2   0   0
  0.9639684E+01  0.3009788E-09  0.3009788E-09  0.3009788E-09  0.5000000E-15
  1.000000000000000E-004
  CAR 
 automatically generated by pyflamestk   
     43.83138300    -16.33282939  301      3.54642912      1.00000000
    -16.333  0.0000E+00  0.0000E+00
    -16.132  0.0000E+00  0.0000E+00
    -15.932  0.0000E+00  0.0000E+00
    -15.731  0.0000E+00  0.0000E+00
    -15.531  0.0000E+00  0.0000E+00
    -15.330  0.0000E+00  0.0000E+00
    -15.130  0.0000E+00  0.0000E+00
    -14.929  0.0000E+00  0.0000E+00
    -14.728  0.0000E+00  0.0000E+00
    -14.528  0.0000E+00  0.0000E+00
    -14.327  0.0000E+00  0.0000E+00
    -14.127  0.0000E+00  0.0000E+00
    -13.926  0.0000E+00  0.0000E+00
    -13.726  0.4777E-04  0.9581E-05
    -13.525  0.3055E+00  0.6128E-01
    -13.325  0.1206E-01  0.6370E-01
    -13.124  0.9283E+00  0.2499E+00
    -12.924  0.7163E+00  0.3935E+00
    -12.723  0.8441E+00  0.5628E+00
    -12.522  0.2621E+01  0.1088E+01
    -12.322  0.2974E+01  0.1685E+01
    -12.121  0.1571E+01  0.2000E+01
    -11.921  0.1801E-06  0.2000E+01
    -11.720  0.0000E+00  0.2000E+01
    -11.520  0.0000E+00  0.2000E+01
    -11.319  0.0000E+00  0.2000E+01
    -11.119  0.0000E+00  0.2000E+01
    -10.918  0.0000E+00  0.2000E+01
    -10.718  0.0000E+00  0.2000E+01
    -10.517  0.0000E+00  0.2000E+01
    -10.316  0.0000E+00  0.2000E+01
    -10.116  0.0000E+00  0.2000E+01
     -9.915  0.0000E+00  0.2000E+01
     -9.715  0.0000E+00  0.2000E+01
     -9.514  0.0000E+00  0.2000E+01
     -9.314  0.0000E+00  0.2000E+01
     -9.113  0.0000E+00  0.2000E+01
     -8.913  0.0000E+00  0.2000E+01
     -8.712  0.0000E+00  0.2000E+01
     -8.511  0.0000E+00  0.2000E+01
     -8.311  0.0000E+00  0.2000E+01
     -8.110  0.0000E+00  0.2000E+01
     -7.910  0.0000E+00  0.2000E+01
     -7.709  0.0000E+00  0.2000E+01
     -7.509  0.0000E+00  0.2000E+01
     -7.308  0.0000E+00  0.2000E+01
     -7.108  0.0000E+00  0.2000E+01
     -6.907  0.0000E+00  0.2000E+01
     -6.707  0.0000E+00  0.2000E+01
     -6.506  0.0000E+00  0.2000E+01
     -6.305  0.0000E+00  0.2000E+01
     -6.105  0.0000E+00  0.2000E+01
     -5.904  0.0000E+00  0.2000E+01
     -5.704  0.0000E+00  0.2000E+01
     -5.503  0.0000E+00  0.2000E+01
     -5.303  0.0000E+00  0.2000E+01
     -5.102  0.0000E+00  0.2000E+01
     -4.902  0.0000E+00  0.2000E+01
     -4.701  0.0000E+00  0.2000E+01
     -4.501  0.0000E+00  0.2000E+01
     -4.300  0.0000E+00  0.2000E+01
     -4.099  0.0000E+00  0.2000E+01
     -3.899  0.0000E+00  0.2000E+01
     -3.698  0.0000E+00  0.2000E+01
     -3.498  0.0000E+00  0.2000E+01
     -3.297  0.0000E+00  0.2000E+01
     -3.097  0.0000E+00  0.2000E+01
     -2.896  0.0000E+00  0.2000E+01
     -2.696  0.0000E+00  0.2000E+01
     -2.495  0.0000E+00  0.2000E+01
     -2.295  0.0000E+00  0.2000E+01
     -2.094  0.0000E+00  0.2000E+01
     -1.893  0.0000E+00  0.2000E+01
     -1.693  0.0000E+00  0.2000E+01
     -1.492  0.0000E+00  0.2000E+01
     -1.292  0.0000E+00  0.2000E+01
     -1.091  0.1050E-09  0.2000E+01
     -0.891  0.2347E+00  0.2047E+01
     -0.690  0.7019E+00  0.2188E+01
     -0.490  0.3172E+00  0.2251E+01
     -0.289  0.1555E+01  0.2563E+01
     -0.088  0.2355E+01  0.3036E+01
      0.112  0.2510E+01  0.3539E+01
      0.313  0.1006E+01  0.3741E+01
      0.513  0.4669E-01  0.3750E+01
      0.714  0.1608E-10  0.3750E+01
      0.914  0.2722E+00  0.3805E+01
      1.115  0.2746E+01  0.4355E+01
      1.315  0.7214E+00  0.4500E+01
      1.516  0.1545E-05  0.4500E+01
      1.716  0.2190E+01  0.4939E+01
      1.917  0.6165E+00  0.5063E+01
      2.118  0.2101E+01  0.5484E+01
      2.318  0.2550E+01  0.5996E+01
      2.519  0.3721E+01  0.6742E+01
      2.719  0.2219E+01  0.7187E+01
      2.920  0.2215E+01  0.7631E+01
      3.120  0.1215E+01  0.7875E+01
      3.321  0.6023E+00  0.7996E+01
      3.521  0.2093E-01  0.8000E+01
      3.722  0.0000E+00  0.8000E+01
      3.922  0.0000E+00  0.8000E+01
      4.123  0.0000E+00  0.8000E+01
      4.324  0.0000E+00  0.8000E+01
      4.524  0.0000E+00  0.8000E+01
      4.725  0.0000E+00  0.8000E+01
      4.925  0.0000E+00  0.8000E+01
      5.126  0.0000E+00  0.8000E+01
      5.326  0.0000E+00  0.8000E+01
      5.527  0.0000E+00  0.8000E+01
      5.727  0.0000E+00  0.8000E+01
      5.928  0.0000E+00  0.8000E+01
      6.128  0.0000E+00  0.8000E+01
      6.329  0.0000E+00  0.8000E+01
      6.530  0.0000E+00  0.8000E+01
      6.730  0.0000E+00  0.8000E+01
      6.931  0.0000E+00  0.8000E+01
      7.131  0.0000E+00  0.8000E+01
      7.332  0.0000E+00  0.8000E+01
      7.532  0.0000E+00  0.8000E+01
      7.733  0.0000E+00  0.8000E+01
      7.933  0.0000E+00  0.8000E+01
      8.134  0.0000E+00  0.8000E+01
      8.334  0.0000E+00  0.8000E+01
      8.535  0.5608E-06  0.8000E+01
      8.736  0.2651E+00  0.8053E+01
      8.936  0.4656E-01  0.8062E+01
      9.137  0.0000E+00  0.8062E+01
      9.337  0.0000E+00  0.8062E+01
      9.538  0.0000E+00  0.8062E+01
      9.738  0.0000E+00  0.8062E+01
      9.939  0.0000E+00  0.8062E+01
     10.139  0.1620E-04  0.8063E+01
     10.340  0.8762E+00  0.8238E+01
     10.541  0.5870E-01  0.8250E+01
     10.741  0.1621E-07  0.8250E+01
     10.942  0.1988E+00  0.8290E+01
     11.142  0.8217E+00  0.8455E+01
     11.343  0.2261E+00  0.8500E+01
     11.543  0.1713E-06  0.8500E+01
     11.744  0.6744E+00  0.8635E+01
     11.944  0.2605E+00  0.8687E+01
     12.145  0.2417E-01  0.8692E+01
     12.345  0.9107E+00  0.8875E+01
     12.546  0.2766E+00  0.8930E+01
     12.747  0.1595E+01  0.9250E+01
     12.947  0.9302E+00  0.9437E+01
     13.148  0.9220E+00  0.9622E+01
     13.348  0.1653E-01  0.9625E+01
     13.549  0.9000E+00  0.9805E+01
     13.749  0.7888E+00  0.9964E+01
     13.950  0.1943E+01  0.1035E+02
     14.150  0.1083E+00  0.1037E+02
     14.351  0.0000E+00  0.1038E+02
     14.551  0.1148E-08  0.1038E+02
     14.752  0.9160E+00  0.1056E+02
     14.953  0.2824E+01  0.1112E+02
     15.153  0.1918E-01  0.1113E+02
     15.354  0.1888E+01  0.1151E+02
     15.554  0.2886E+01  0.1209E+02
     15.755  0.1128E+01  0.1231E+02
     15.955  0.6426E-01  0.1233E+02
     16.156  0.1650E+01  0.1266E+02
     16.356  0.1556E+00  0.1269E+02
     16.557  0.0000E+00  0.1269E+02
     16.757  0.7805E-06  0.1269E+02
     16.958  0.1443E+01  0.1298E+02
     17.159  0.8736E+00  0.1315E+02
     17.359  0.7748E+00  0.1331E+02
     17.560  0.2463E-01  0.1331E+02
     17.760  0.1005E-04  0.1331E+02
     17.961  0.8627E+00  0.1349E+02
     18.161  0.7226E-01  0.1350E+02
     18.362  0.2339E-12  0.1350E+02
     18.562  0.5631E-01  0.1351E+02
     18.763  0.8786E+00  0.1369E+02
     18.964  0.1775E-04  0.1369E+02
     19.164  0.3996E-05  0.1369E+02
     19.365  0.6240E+00  0.1381E+02
     19.565  0.2792E+01  0.1437E+02
     19.766  0.1472E+01  0.1467E+02
     19.966  0.9926E+00  0.1487E+02
     20.167  0.1758E+01  0.1522E+02
     20.367  0.1117E+01  0.1544E+02
     20.568  0.9061E+00  0.1562E+02
     20.768  0.3460E+00  0.1569E+02
     20.969  0.5909E+00  0.1581E+02
     21.170  0.9592E+00  0.1601E+02
     21.370  0.9109E+00  0.1619E+02
     21.571  0.1858E+01  0.1656E+02
     21.771  0.1000E-01  0.1656E+02
     21.972  0.2464E-04  0.1656E+02
     22.172  0.8866E+00  0.1674E+02
     22.373  0.4833E-01  0.1675E+02
     22.573  0.9007E+00  0.1693E+02
     22.774  0.1878E+01  0.1731E+02
     22.974  0.6217E+00  0.1743E+02
     23.175  0.1275E+01  0.1769E+02
     23.376  0.4165E-05  0.1769E+02
     23.576  0.5641E+00  0.1780E+02
     23.777  0.9819E+00  0.1800E+02
     23.977  0.1355E-01  0.1800E+02
     24.178  0.3100E+00  0.1806E+02
     24.378  0.8774E+00  0.1824E+02
     24.579  0.6812E+00  0.1837E+02
     24.779  0.2931E-02  0.1838E+02
     24.980  0.1220E+01  0.1862E+02
     25.180  0.2400E-01  0.1863E+02
     25.381  0.1439E+01  0.1891E+02
     25.582  0.1197E+01  0.1915E+02
     25.782  0.1691E+00  0.1919E+02
     25.983  0.8984E+00  0.1937E+02
     26.183  0.9715E+00  0.1956E+02
     26.384  0.3087E+00  0.1962E+02
     26.584  0.2496E+01  0.2012E+02
     26.785  0.7853E-02  0.2013E+02
     26.985  0.9293E+00  0.2031E+02
     27.186  0.9374E+00  0.2050E+02
     27.386  0.3071E+00  0.2056E+02
     27.587  0.4552E-04  0.2056E+02
     27.788  0.0000E+00  0.2056E+02
     27.988  0.0000E+00  0.2056E+02
     28.189  0.0000E+00  0.2056E+02
     28.389  0.6920E-16  0.2056E+02
     28.590  0.3205E-02  0.2056E+02
     28.790  0.6570E+00  0.2069E+02
     28.991  0.2762E+01  0.2125E+02
     29.191  0.9402E+00  0.2144E+02
     29.392  0.4784E+00  0.2153E+02
     29.593  0.4570E+00  0.2162E+02
     29.793  0.4006E-05  0.2163E+02
     29.994  0.2157E+01  0.2206E+02
     30.194  0.1536E+01  0.2237E+02
     30.395  0.1408E+01  0.2265E+02
     30.595  0.5093E+00  0.2275E+02
     30.796  0.7837E-07  0.2275E+02
     30.996  0.6491E+00  0.2288E+02
     31.197  0.1221E+01  0.2312E+02
     31.397  0.9032E+00  0.2331E+02
     31.598  0.1620E+01  0.2363E+02
     31.799  0.2152E+01  0.2406E+02
     31.999  0.1236E+01  0.2431E+02
     32.200  0.1279E+01  0.2457E+02
     32.400  0.4313E+01  0.2543E+02
     32.601  0.1236E+00  0.2546E+02
     32.801  0.2732E+01  0.2600E+02
     33.002  0.9113E+00  0.2619E+02
     33.202  0.8167E+00  0.2635E+02
     33.403  0.1677E+01  0.2669E+02
     33.603  0.1706E-05  0.2669E+02
     33.804  0.0000E+00  0.2669E+02
     34.005  0.0000E+00  0.2669E+02
     34.205  0.0000E+00  0.2669E+02
     34.406  0.0000E+00  0.2669E+02
     34.606  0.8875E-09  0.2669E+02
     34.807  0.3777E+00  0.2676E+02
     35.007  0.2427E+01  0.2725E+02
     35.208  0.3501E-03  0.2725E+02
     35.408  0.8393E+00  0.2742E+02
     35.609  0.2736E+01  0.2797E+02
     35.809  0.7938E+00  0.2813E+02
     36.010  0.3057E+00  0.2819E+02
     36.211  0.4864E-03  0.2819E+02
     36.411  0.1903E+01  0.2857E+02
     36.612  0.9011E+00  0.2875E+02
     36.812  0.1394E+00  0.2878E+02
     37.013  0.4839E+00  0.2888E+02
     37.213  0.1021E+01  0.2908E+02
     37.414  0.8547E+00  0.2925E+02
     37.614  0.9283E+00  0.2944E+02
     37.815  0.7443E+00  0.2959E+02
     38.016  0.1126E+01  0.2981E+02
     38.216  0.8494E+00  0.2998E+02
     38.417  0.8553E-01  0.3000E+02
     38.617  0.4794E-10  0.3000E+02
     38.818  0.2754E+00  0.3006E+02
     39.018  0.3751E+01  0.3081E+02
     39.219  0.2488E-01  0.3081E+02
     39.419  0.0000E+00  0.3081E+02
     39.620  0.0000E+00  0.3081E+02
     39.820  0.1038E-15  0.3081E+02
     40.021  0.5466E-02  0.3081E+02
     40.222  0.9287E+00  0.3100E+02
     40.422  0.7605E-03  0.3100E+02
     40.623  0.7718E-07  0.3100E+02
     40.823  0.2307E+00  0.3105E+02
     41.024  0.1462E+01  0.3134E+02
     41.224  0.3293E+01  0.3200E+02
     41.425  0.2259E-03  0.3200E+02
     41.625  0.0000E+00  0.3200E+02
     41.826  0.0000E+00  0.3200E+02
     42.026  0.0000E+00  0.3200E+02
     42.227  0.0000E+00  0.3200E+02
     42.428  0.0000E+00  0.3200E+02
     42.628  0.0000E+00  0.3200E+02
     42.829  0.0000E+00  0.3200E+02
     43.029  0.0000E+00  0.3200E+02
     43.230  0.0000E+00  0.3200E+02
     43.430  0.0000E+00  0.3200E+02
     43.631  0.0000E+00  0.3200E+02
     43.831  0.0000E+00  0.3200E+02
