    2    2    1    1
  0.9639684E+01  0.3009788E-09  0.3009788E-09  0.3009788E-09  0.5000000E-15
  1.000000000000000E-004
  CAR 
 automatically generated by pyflamestk   
      8     10     16
 
  0.1250000E+00  0.1250000E+00  0.1250000E+00  0.3125000E-01
    1      -13.692702   1.000000
    2        2.429336   1.000000
    3        3.296757   1.000000
    4        3.296757   1.000000
    5        8.663575   0.000000
    6       17.311852   0.000000
    7       19.316893   0.000000
    8       19.316896   0.000000
    9       23.533280   0.000000
   10       23.533281   0.000000
   11       24.869269   0.000000
   12       27.264922   0.000000
   13       28.699337   0.000000
   14       28.699338   0.000000
   15       38.945030   0.000000
   16       40.881217   0.000000
 
  0.3750000E+00  0.1250000E+00  0.1250000E+00  0.9375000E-01
    1      -13.051147   1.000000
    2        0.268004   1.000000
    3        2.427369   1.000000
    4        3.008935   1.000000
    5       11.106758   0.000000
    6       15.257447   0.000000
    7       18.627324   0.000000
    8       20.292633   0.000000
    9       22.118373   0.000000
   10       24.341911   0.000000
   11       26.417161   0.000000
   12       31.077947   0.000000
   13       32.371971   0.000000
   14       33.210467   0.000000
   15       35.575190   0.000000
   16       38.869582   0.000000
 
 -0.3750000E+00  0.1250000E+00  0.1250000E+00  0.9375000E-01
    1      -12.623800   1.000000
    2       -0.866776   1.000000
    3        2.277530   1.000000
    4        2.668963   1.000000
    5       11.707956   0.000000
    6       15.437325   0.000000
    7       17.914571   0.000000
    8       19.728177   0.000000
    9       23.702953   0.000000
   10       25.972208   0.000000
   11       26.027413   0.000000
   12       32.280625   0.000000
   13       32.902999   0.000000
   14       33.252109   0.000000
   15       35.819035   0.000000
   16       37.509238   0.000000
 
 -0.1250000E+00  0.1250000E+00  0.1250000E+00  0.9375000E-01
    1      -13.335121   1.000000
    2        1.149536   1.000000
    3        2.917811   1.000000
    4        2.923336   1.000000
    5       10.271119   0.000000
    6       15.501798   0.000000
    7       19.422410   0.000000
    8       19.912706   0.000000
    9       21.076941   0.000000
   10       24.915247   0.000000
   11       26.876643   0.000000
   12       29.963320   0.000000
   13       30.267267   0.000000
   14       31.014727   0.000000
   15       37.197691   0.000000
   16       38.987312   0.000000
 
  0.3750000E+00  0.3750000E+00  0.1250000E+00  0.9375000E-01
    1      -12.819779   1.000000
    2        0.082182   1.000000
    3        2.226334   1.000000
    4        2.471781   1.000000
    5       12.210996   0.000000
    6       13.914274   0.000000
    7       17.170994   0.000000
    8       20.804639   0.000000
    9       21.256190   0.000000
   10       27.093404   0.000000
   11       30.151281   0.000000
   12       30.407967   0.000000
   13       32.333005   0.000000
   14       34.828246   0.000000
   15       36.479284   0.000000
   16       37.877501   0.000000
 
 -0.3750000E+00  0.3750000E+00  0.1250000E+00  0.1875000E+00
    1      -12.416659   1.000000
    2       -0.036868   1.000000
    3        0.961539   1.000000
    4        2.048184   1.000000
    5       13.761973   0.000000
    6       14.784124   0.000000
    7       15.576490   0.000000
    8       19.543075   0.000000
    9       23.002065   0.000000
   10       26.448575   0.000000
   11       29.976480   0.000000
   12       31.429832   0.000000
   13       32.672606   0.000000
   14       36.340627   0.000000
   15       38.884850   0.000000
   16       41.092603   0.000000
 
 -0.1250000E+00  0.3750000E+00  0.1250000E+00  0.1875000E+00
    1      -12.667706   1.000000
    2       -0.242950   1.000000
    3        1.703678   1.000000
    4        2.558142   1.000000
    5       12.575480   0.000000
    6       14.806381   0.000000
    7       16.941342   0.000000
    8       20.126071   0.000000
    9       22.700414   0.000000
   10       25.361334   0.000000
   11       28.867623   0.000000
   12       31.661341   0.000000
   13       32.248826   0.000000
   14       34.890480   0.000000
   15       35.535318   0.000000
   16       41.010414   0.000000
 
 -0.3750000E+00 -0.3750000E+00  0.1250000E+00  0.9375000E-01
    1      -12.451928   1.000000
    2       -0.400306   1.000000
    3        1.705850   1.000000
    4        2.168959   1.000000
    5       12.852336   0.000000
    6       13.485565   0.000000
    7       16.031742   0.000000
    8       21.489626   0.000000
    9       21.515610   0.000000
   10       28.900931   0.000000
   11       29.403377   0.000000
   12       31.965246   0.000000
   13       32.665061   0.000000
   14       37.799794   0.000000
   15       38.170335   0.000000
   16       41.096602   0.000000
 
  0.3750000E+00  0.3750000E+00  0.3750000E+00  0.3125000E-01
    1      -12.855526   1.000000
    2       -0.594779   1.000000
    3        2.877985   1.000000
    4        2.877985   1.000000
    5       10.906212   0.000000
    6       15.459338   0.000000
    7       19.526652   0.000000
    8       19.526653   0.000000
    9       24.075775   0.000000
   10       24.462583   0.000000
   11       24.462586   0.000000
   12       31.893930   0.000000
   13       33.258770   0.000000
   14       33.258772   0.000000
   15       36.844343   0.000000
   16       36.844347   0.000000
 
 -0.3750000E+00  0.3750000E+00  0.3750000E+00  0.9375000E-01
    1      -12.498607   1.000000
    2       -0.280206   1.000000
    3        1.069963   1.000000
    4        2.534551   1.000000
    5       13.068466   0.000000
    6       15.254439   0.000000
    7       16.132311   0.000000
    8       20.442369   0.000000
    9       22.496760   0.000000
   10       25.552375   0.000000
   11       29.082397   0.000000
   12       31.635194   0.000000
   13       32.081751   0.000000
   14       35.375744   0.000000
   15       37.236254   0.000000
   16       40.116494   0.000000
