<?xml version="1.0" encoding="ISO-8859-1"?>
<modeling>
 <generator>
  <i name="program" type="string">vasp </i>
  <i name="version" type="string">5.4.1  </i>
  <i name="subversion" type="string">24Jun15 (build Jun 05 2017 10:38:15) complex                          parallel </i>
  <i name="platform" type="string">IFC91_ompi </i>
  <i name="date" type="string">2017 08 15 </i>
  <i name="time" type="string">16:48:46 </i>
 </generator>
 <incar>
  <i type="string" name="SYSTEM"> automatically generated by pyflamestk</i>
  <i type="int" name="ISTART">     0</i>
  <i type="string" name="PREC">high                   ! avoid wrap aro</i>
  <i type="string" name="ALGO"> Normal                 ! blocked Davids</i>
  <i type="int" name="ISPIN">     2</i>
  <i type="int" name="ICHARG">     0</i>
  <i type="int" name="NELM">    40</i>
  <i type="int" name="IBRION">     2</i>
  <i name="EDIFF">      0.00000100</i>
  <i name="EDIFFG">     -0.00100000</i>
  <i type="int" name="NSW">    40</i>
  <i type="int" name="ISIF">     3</i>
  <i name="ENCUT">    269.53200000</i>
  <i name="POTIM">      0.50000000</i>
  <v name="MAGMOM">      1.00000000      1.00000000</v>
  <i type="logical" name="LREAL"> F  </i>
  <i type="int" name="ISMEAR">     1</i>
  <i name="SIGMA">      0.20000000</i>
  <i type="logical" name="LWAVE"> F  </i>
  <i type="logical" name="LCHARG"> F  </i>
  <i type="logical" name="LVTOT"> F  </i>
  <v type="int" name="KPOINT_BSE">    -1     0     0     0</v>
  <i type="int" name="NELM">    40</i>
 </incar>
 <kpoints>
  <generation param="Monkhorst-Pack">
   <v type="int" name="divisions">       4        4        4 </v>
   <v name="usershift">      0.00000000       0.00000000       0.00000000 </v>
   <v name="genvec1">      0.25000000       0.00000000       0.00000000 </v>
   <v name="genvec2">      0.00000000       0.25000000       0.00000000 </v>
   <v name="genvec3">      0.00000000       0.00000000       0.25000000 </v>
   <v name="shift">      0.50000000       0.50000000       0.50000000 </v>
  </generation>
  <varray name="kpointlist" >
   <v>       0.12500000       0.12500000       0.12500000 </v>
   <v>       0.37500000       0.12500000       0.12500000 </v>
   <v>       0.37500000       0.37500000       0.12500000 </v>
   <v>       0.37500000       0.37500000       0.37500000 </v>
  </varray>
  <varray name="weights" >
   <v>       0.12500000 </v>
   <v>       0.37500000 </v>
   <v>       0.37500000 </v>
   <v>       0.12500000 </v>
  </varray>
 </kpoints>
 <parameters>
  <separator name="general" >
   <i type="string" name="SYSTEM">automatically generated by pyflamestk</i>
   <i type="logical" name="LCOMPAT"> F  </i>
  </separator>
  <separator name="electronic" >
   <i type="string" name="PREC">high</i>
   <i name="ENMAX">    269.53200000</i>
   <i name="ENAUG">    544.56500000</i>
   <i name="EDIFF">      0.00000100</i>
   <i type="int" name="IALGO">    38</i>
   <i type="int" name="IWAVPR">    11</i>
   <i type="int" name="NBANDS">    16</i>
   <i name="NELECT">     20.00000000</i>
   <i type="int" name="TURBO">     0</i>
   <i type="int" name="IRESTART">     0</i>
   <i type="int" name="NREBOOT">     0</i>
   <i type="int" name="NMIN">     0</i>
   <i name="EREF">      0.00000000</i>
   <separator name="electronic smearing" >
    <i type="int" name="ISMEAR">     1</i>
    <i name="SIGMA">      0.20000000</i>
    <i name="KSPACING">      0.50000000</i>
    <i type="logical" name="KGAMMA"> T  </i>
   </separator>
   <separator name="electronic projectors" >
    <i type="logical" name="LREAL"> F  </i>
    <v name="ROPT">      0.00000000</v>
    <i type="int" name="LMAXPAW">  -100</i>
    <i type="int" name="LMAXMIX">     2</i>
    <i type="logical" name="NLSPLINE"> F  </i>
   </separator>
   <separator name="electronic startup" >
    <i type="int" name="ISTART">     0</i>
    <i type="int" name="ICHARG">     0</i>
    <i type="int" name="INIWAV">     1</i>
   </separator>
   <separator name="electronic spin" >
    <i type="int" name="ISPIN">     2</i>
    <i type="logical" name="LNONCOLLINEAR"> F  </i>
    <v name="MAGMOM">      1.00000000      1.00000000</v>
    <i name="NUPDOWN">     -1.00000000</i>
    <i type="logical" name="LSORBIT"> F  </i>
    <v name="SAXIS">      0.00000000      0.00000000      1.00000000</v>
    <i type="logical" name="LSPIRAL"> F  </i>
    <v name="QSPIRAL">      0.00000000      0.00000000      0.00000000</v>
    <i type="logical" name="LZEROZ"> F  </i>
   </separator>
   <separator name="electronic exchange-correlation" >
    <i type="logical" name="LASPH"> F  </i>
    <i type="logical" name="LMETAGGA"> F  </i>
   </separator>
   <separator name="electronic convergence" >
    <i type="int" name="NELM">    40</i>
    <i type="int" name="NELMDL">    -5</i>
    <i type="int" name="NELMIN">     2</i>
    <i name="ENINI">    269.53200000</i>
    <separator name="electronic convergence detail" >
     <i type="logical" name="LDIAG"> T  </i>
     <i type="logical" name="LSUBROT"> F  </i>
     <i name="WEIMIN">      0.00100000</i>
     <i name="EBREAK">      0.00000002</i>
     <i name="DEPER">      0.30000000</i>
     <i type="int" name="NRMM">     4</i>
     <i name="TIME">      0.40000000</i>
    </separator>
   </separator>
   <separator name="electronic mixer" >
    <i name="AMIX">      0.40000000</i>
    <i name="BMIX">      1.00000000</i>
    <i name="AMIN">      0.10000000</i>
    <i name="AMIX_MAG">      1.60000000</i>
    <i name="BMIX_MAG">      1.00000000</i>
    <separator name="electronic mixer details" >
     <i type="int" name="IMIX">     4</i>
     <i type="logical" name="MIXFIRST"> F  </i>
     <i type="int" name="MAXMIX">   -45</i>
     <i name="WC">    100.00000000</i>
     <i type="int" name="INIMIX">     1</i>
     <i type="int" name="MIXPRE">     1</i>
     <i type="int" name="MREMOVE">     5</i>
    </separator>
   </separator>
   <separator name="electronic dipolcorrection" >
    <i type="logical" name="LDIPOL"> F  </i>
    <i type="logical" name="LMONO"> F  </i>
    <i type="int" name="IDIPOL">     0</i>
    <i name="EPSILON">      1.00000000</i>
    <v name="DIPOL">   -100.00000000   -100.00000000   -100.00000000</v>
    <i name="EFIELD">      0.00000000</i>
   </separator>
  </separator>
  <separator name="grids" >
   <i type="int" name="NGX">    20</i>
   <i type="int" name="NGY">    20</i>
   <i type="int" name="NGZ">    20</i>
   <i type="int" name="NGXF">    36</i>
   <i type="int" name="NGYF">    36</i>
   <i type="int" name="NGZF">    36</i>
   <i type="logical" name="ADDGRID"> F  </i>
  </separator>
  <separator name="ionic" >
   <i type="int" name="NSW">    40</i>
   <i type="int" name="IBRION">     2</i>
   <i type="int" name="ISIF">     3</i>
   <i name="PSTRESS">      0.00000000</i>
   <i name="EDIFFG">     -0.00100000</i>
   <i type="int" name="NFREE">     1</i>
   <i name="POTIM">      0.50000000</i>
   <i name="SMASS">     -3.00000000</i>
   <i name="SCALEE">      1.00000000</i>
  </separator>
  <separator name="ionic md" >
   <i name="TEBEG">      0.00010000</i>
   <i name="TEEND">      0.00010000</i>
   <i type="int" name="NBLOCK">     1</i>
   <i type="int" name="KBLOCK">    40</i>
   <i type="int" name="NPACO">   256</i>
   <i name="APACO">     16.00000000</i>
  </separator>
  <separator name="symmetry" >
   <i type="int" name="ISYM">     2</i>
   <i name="SYMPREC">      0.00001000</i>
  </separator>
  <separator name="dos" >
   <i type="logical" name="LORBIT"> F  </i>
   <v name="RWIGS">     -1.00000000</v>
   <i type="int" name="NEDOS">   301</i>
   <i name="EMIN">     10.00000000</i>
   <i name="EMAX">    -10.00000000</i>
   <i name="EFERMI">      0.00000000</i>
  </separator>
  <separator name="writing" >
   <i type="int" name="NWRITE">     2</i>
   <i type="logical" name="LWAVE"> F  </i>
   <i type="logical" name="LCHARG"> F  </i>
   <i type="logical" name="LPARD"> F  </i>
   <i type="logical" name="LVTOT"> F  </i>
   <i type="logical" name="LVHAR"> F  </i>
   <i type="logical" name="LELF"> F  </i>
   <i type="logical" name="LOPTICS"> F  </i>
   <v name="STM">      0.00000000      0.00000000      0.00000000      0.00000000      0.00000000      0.00000000      0.00000000</v>
  </separator>
  <separator name="performance" >
   <i type="int" name="NPAR">    16</i>
   <i type="int" name="NSIM">     4</i>
   <i type="int" name="NBLK">    -1</i>
   <i type="logical" name="LPLANE"> T  </i>
   <i type="logical" name="LSCALAPACK"> T  </i>
   <i type="logical" name="LSCAAWARE"> F  </i>
   <i type="logical" name="LSCALU"> F  </i>
   <i type="logical" name="LASYNC"> F  </i>
   <i type="logical" name="LORBITALREAL"> F  </i>
  </separator>
  <separator name="miscellaneous" >
   <i type="int" name="IDIOT">     3</i>
   <i type="logical" name="LMUSIC"> F  </i>
   <v name="POMASS">     58.69000000</v>
   <v name="DARWINR">      0.00000000</v>
   <v name="DARWINV">      1.00000000</v>
   <i type="logical" name="LCORR"> T  </i>
  </separator>
  <i type="logical" name="GGA_COMPAT"> T  </i>
  <i type="logical" name="LBERRY"> F  </i>
  <i type="int" name="ICORELEVEL">     0</i>
  <i type="logical" name="LDAU"> F  </i>
  <i type="int" name="I_CONSTRAINED_M">     0</i>
  <separator name="electronic exchange-correlation" >
   <i type="string" name="GGA">--</i>
   <i type="int" name="VOSKOWN">     0</i>
   <i type="logical" name="LHFCALC"> F  </i>
   <i type="string" name="PRECFOCK"></i>
   <i type="logical" name="LSYMGRAD"> F  </i>
   <i type="logical" name="LHFONE"> F  </i>
   <i type="logical" name="LRHFCALC"> F  </i>
   <i type="logical" name="LTHOMAS"> F  </i>
   <i type="logical" name="LMODELHF"> F  </i>
   <i name="ENCUT4O">     -1.00000000</i>
   <i type="int" name="EXXOEP">     0</i>
   <i type="int" name="FOURORBIT">     0</i>
   <i name="AEXX">      0.00000000</i>
   <i name="HFALPHA">      0.00000000</i>
   <i name="MCALPHA">      0.00000000</i>
   <i name="ALDAX">      1.00000000</i>
   <i name="AGGAX">      1.00000000</i>
   <i name="ALDAC">      1.00000000</i>
   <i name="AGGAC">      1.00000000</i>
   <i type="int" name="NKREDX">     1</i>
   <i type="int" name="NKREDY">     1</i>
   <i type="int" name="NKREDZ">     1</i>
   <i type="logical" name="SHIFTRED"> F  </i>
   <i type="logical" name="ODDONLY"> F  </i>
   <i type="logical" name="EVENONLY"> F  </i>
   <i type="int" name="LMAXFOCK">     0</i>
   <i type="int" name="NMAXFOCKAE">     0</i>
   <i type="logical" name="LFOCKAEDFT"> F  </i>
   <i name="HFSCREEN">      0.00000000</i>
   <i name="HFSCREENC">      0.00000000</i>
   <i type="int" name="NBANDSGWLOW">     0</i>
  </separator>
  <separator name="vdW DFT" >
   <i type="logical" name="LUSE_VDW"> F  </i>
   <i name="Zab_VDW">     -0.84910000</i>
   <i name="PARAM1">      0.12340000</i>
   <i name="PARAM2">      1.00000000</i>
   <i name="PARAM3">      0.00000000</i>
  </separator>
  <separator name="model GW" >
   <i type="int" name="MODEL_GW">     0</i>
   <i name="MODEL_EPS0">     12.95090175</i>
   <i name="MODEL_ALPHA">      1.00000000</i>
  </separator>
  <separator name="linear response parameters" >
   <i type="logical" name="LEPSILON"> F  </i>
   <i type="logical" name="LRPA"> F  </i>
   <i type="logical" name="LNABLA"> F  </i>
   <i type="logical" name="LVEL"> F  </i>
   <i type="int" name="KINTER">     0</i>
   <i name="CSHIFT">      0.10000000</i>
   <i name="OMEGAMAX">     -1.00000000</i>
   <i name="DEG_THRESHOLD">      0.00200000</i>
  </separator>
  <separator name="orbital magnetization" >
   <i type="logical" name="NUCIND"> F  </i>
   <v name="MAGPOS">      0.00000000      0.00000000      0.00000000</v>
   <i type="logical" name="LNICSALL"> T  </i>
   <i type="logical" name="ORBITALMAG"> F  </i>
   <i type="logical" name="LMAGBLOCH"> F  </i>
   <i type="logical" name="LCHIMAG"> F  </i>
   <i type="logical" name="LGAUGE"> T  </i>
   <i type="int" name="MAGATOM">     0</i>
   <v name="MAGDIPOL">      0.00000000      0.00000000      0.00000000</v>
   <v name="AVECCONST">      0.00000000      0.00000000      0.00000000</v>
  </separator>
  <separator name="response functions" >
   <i type="logical" name="LADDER"> F  </i>
   <i type="logical" name="LFXC"> F  </i>
   <i type="logical" name="LHARTREE"> T  </i>
   <i type="int" name="IBSE">     0</i>
   <v type="int" name="KPOINT">    -1     0     0     0</v>
   <i type="logical" name="LTCTE"> F  </i>
   <i type="logical" name="LTETE"> F  </i>
   <i type="logical" name="LTRIPLET"> F  </i>
   <i type="logical" name="LFXCEPS"> F  </i>
   <i type="logical" name="LFXHEG"> F  </i>
   <i type="int" name="NATURALO">     0</i>
   <i type="logical" name="L2ORDER"> F  </i>
   <i type="logical" name="LUSEW"> F  </i>
   <i name="ENCUTGW">     -2.00000000</i>
   <i name="ENCUTGWSOFT">     -2.00000000</i>
   <i name="ENCUTLF">     -1.00000000</i>
   <i type="int" name="LMAXMP2">    -1</i>
   <i name="SCISSOR">      0.00000000</i>
   <i type="int" name="NOMEGA">     0</i>
   <i type="int" name="NOMEGAR">     0</i>
   <i type="int" name="NBANDSGW">    -1</i>
   <i type="int" name="NBANDSO">    -1</i>
   <i type="int" name="NBANDSV">    -1</i>
   <i type="int" name="NELM">    40</i>
   <i type="int" name="NELMHF">     1</i>
   <i type="int" name="DIM">     3</i>
   <i type="int" name="ANTIRES">     0</i>
   <i name="OMEGAMAX">    -30.00000000</i>
   <i name="OMEGAMIN">    -30.00000000</i>
   <i name="OMEGATL">   -200.00000000</i>
   <i type="int" name="OMEGAGRID">     0</i>
   <i name="CSHIFT">     -0.10000000</i>
   <i type="logical" name="SELFENERGY"> F  </i>
   <i type="logical" name="LSPECTRAL"> F  </i>
   <i type="logical" name="LSPECTRALGW"> F  </i>
   <i type="logical" name="LSINGLES"> F  </i>
   <i type="logical" name="LFERMIGW"> F  </i>
   <i type="logical" name="ODDONLYGW"> F  </i>
   <i type="logical" name="EVENONLYGW"> F  </i>
   <i type="int" name="NKREDLFX">     1</i>
   <i type="int" name="NKREDLFY">     1</i>
   <i type="int" name="NKREDLFZ">     1</i>
   <i type="int" name="MAXMEM">  1800</i>
   <i type="int" name="TELESCOPE">     0</i>
   <i type="int" name="TAUPAR">     1</i>
   <i type="int" name="OMEGAPAR">    -1</i>
   <i name="LAMBDA">      1.00000000</i>
  </separator>
  <separator name="External order field" >
   <i name="OFIELD_KAPPA">      0.00000000</i>
   <v name="OFIELD_K">      0.00000000      0.00000000      0.00000000</v>
   <i name="OFIELD_Q6_NEAR">      0.00000000</i>
   <i name="OFIELD_Q6_FAR">      0.00000000</i>
   <i name="OFIELD_A">      0.00000000</i>
  </separator>
 </parameters>
 <atominfo>
  <atoms>       2 </atoms>
  <types>       1 </types>
  <array name="atoms" >
   <dimension dim="1">ion</dimension>
   <field type="string">element</field>
   <field type="int">atomtype</field>
   <set>
    <rc><c>Ni</c><c>   1</c></rc>
    <rc><c>Ni</c><c>   1</c></rc>
   </set>
  </array>
  <array name="atomtypes" >
   <dimension dim="1">type</dimension>
   <field type="int">atomspertype</field>
   <field type="string">element</field>
   <field>mass</field>
   <field>valence</field>
   <field type="string">pseudopotential</field>
   <set>
    <rc><c>   2</c><c>Ni</c><c>     58.69000000</c><c>     10.00000000</c><c>  PAW_PBE Ni 02Aug2007                  </c></rc>
   </set>
  </array>
 </atominfo>
 <structure name="initialpos" >
  <crystal>
   <varray name="basis" >
    <v>       3.50800000       0.00000000       0.00000000 </v>
    <v>       0.00000000       3.50800000       0.00000000 </v>
    <v>       0.00000000       0.00000000       3.50800000 </v>
   </varray>
   <i name="volume">     43.16967251 </i>
   <varray name="rec_basis" >
    <v>       0.28506271       0.00000000       0.00000000 </v>
    <v>       0.00000000       0.28506271       0.00000000 </v>
    <v>       0.00000000       0.00000000       0.28506271 </v>
   </varray>
  </crystal>
  <varray name="positions" >
   <v>       0.00000000       0.00000000       0.00000000 </v>
   <v>       0.50000000       0.50000000       0.50000000 </v>
  </varray>
 </structure>
 <calculation>
  <scstep>
   <time name="dav">    0.03    0.03</time>
   <time name="total">    0.05    0.05</time>
   <energy>
    <i name="alphaZ">     47.25537354 </i>
    <i name="ewald">  -1493.84798793 </i>
    <i name="hartreedc">    -24.08503497 </i>
    <i name="XCdc">     30.82750393 </i>
    <i name="pawpsdc">  58553.72214921 </i>
    <i name="pawaedc"> -58547.46505377 </i>
    <i name="eentropy">      0.03325365 </i>
    <i name="bandstr">  -1652.58499312 </i>
    <i name="atom">   2155.27030247 </i>
    <i name="e_fr_energy">   -930.87448699 </i>
    <i name="e_wo_entrp">   -930.90774065 </i>
    <i name="e_0_energy">   -930.88557154 </i>
   </energy>
  </scstep>
  <scstep>
   <time name="dav">    0.07    0.07</time>
   <time name="total">    0.07    0.07</time>
   <energy>
    <i name="e_fr_energy">   -934.18583980 </i>
    <i name="e_wo_entrp">   -934.25122856 </i>
    <i name="e_0_energy">   -934.20763605 </i>
   </energy>
  </scstep>
  <scstep>
   <time name="dav">    0.03    0.03</time>
   <time name="total">    0.03    0.03</time>
   <energy>
    <i name="e_fr_energy">   -934.18992963 </i>
    <i name="e_wo_entrp">   -934.25529719 </i>
    <i name="e_0_energy">   -934.21171882 </i>
   </energy>
  </scstep>
  <scstep>
   <time name="dav">    0.07    0.07</time>
   <time name="total">    0.07    0.07</time>
   <energy>
    <i name="e_fr_energy">   -934.19019498 </i>
    <i name="e_wo_entrp">   -934.25555942 </i>
    <i name="e_0_energy">   -934.21198313 </i>
   </energy>
  </scstep>
  <scstep>
   <time name="dav">    0.03    0.03</time>
   <time name="total">    0.03    0.04</time>
   <energy>
    <i name="e_fr_energy">   -934.19019587 </i>
    <i name="e_wo_entrp">   -934.25556030 </i>
    <i name="e_0_energy">   -934.21198402 </i>
   </energy>
  </scstep>
  <scstep>
   <time name="dav">    0.03    0.03</time>
   <time name="total">    0.05    0.05</time>
   <energy>
    <i name="e_fr_energy">   -223.52687285 </i>
    <i name="e_wo_entrp">   -223.65827533 </i>
    <i name="e_0_energy">   -223.57067368 </i>
   </energy>
  </scstep>
  <scstep>
   <time name="dav">    0.03    0.03</time>
   <time name="total">    0.05    0.05</time>
   <energy>
    <i name="e_fr_energy">   -431.05029670 </i>
    <i name="e_wo_entrp">   -431.03326784 </i>
    <i name="e_0_energy">   -431.04462041 </i>
   </energy>
  </scstep>
  <scstep>
   <time name="dav">    0.03    0.03</time>
   <time name="total">    0.05    0.05</time>
   <energy>
    <i name="e_fr_energy">    -92.46015107 </i>
    <i name="e_wo_entrp">    -92.49949613 </i>
    <i name="e_0_energy">    -92.47326609 </i>
   </energy>
  </scstep>
  <scstep>
   <time name="dav">    0.03    0.03</time>
   <time name="total">    0.04    0.05</time>
   <energy>
    <i name="e_fr_energy">    -11.67351768 </i>
    <i name="e_wo_entrp">    -11.71483027 </i>
    <i name="e_0_energy">    -11.68728855 </i>
   </energy>
  </scstep>
  <scstep>
   <time name="dav">    0.04    0.04</time>
   <time name="total">    0.06    0.07</time>
   <energy>
    <i name="e_fr_energy">    -13.57812821 </i>
    <i name="e_wo_entrp">    -13.56355692 </i>
    <i name="e_0_energy">    -13.57327111 </i>
   </energy>
  </scstep>
  <scstep>
   <time name="dav">    0.03    0.03</time>
   <time name="total">    0.05    0.05</time>
   <energy>
    <i name="e_fr_energy">    -18.52950691 </i>
    <i name="e_wo_entrp">    -18.50994378 </i>
    <i name="e_0_energy">    -18.52298587 </i>
   </energy>
  </scstep>
  <scstep>
   <time name="dav">    0.03    0.03</time>
   <time name="total">    0.05    0.05</time>
   <energy>
    <i name="e_fr_energy">    -16.60216969 </i>
    <i name="e_wo_entrp">    -16.58335778 </i>
    <i name="e_0_energy">    -16.59589905 </i>
   </energy>
  </scstep>
  <scstep>
   <time name="dav">    0.03    0.03</time>
   <time name="total">    0.05    0.05</time>
   <energy>
    <i name="e_fr_energy">     -7.75903623 </i>
    <i name="e_wo_entrp">     -7.76969954 </i>
    <i name="e_0_energy">     -7.76259067 </i>
   </energy>
  </scstep>
  <scstep>
   <time name="dav">    0.03    0.03</time>
   <time name="total">    0.04    0.05</time>
   <energy>
    <i name="e_fr_energy">    -10.34310776 </i>
    <i name="e_wo_entrp">    -10.31730449 </i>
    <i name="e_0_energy">    -10.33450667 </i>
   </energy>
  </scstep>
  <scstep>
   <time name="dav">    0.03    0.03</time>
   <time name="total">    0.05    0.05</time>
   <energy>
    <i name="e_fr_energy">     -9.72391497 </i>
    <i name="e_wo_entrp">     -9.69888456 </i>
    <i name="e_0_energy">     -9.71557150 </i>
   </energy>
  </scstep>
  <scstep>
   <time name="dav">    0.03    0.03</time>
   <time name="total">    0.05    0.05</time>
   <energy>
    <i name="e_fr_energy">     -7.67913927 </i>
    <i name="e_wo_entrp">     -7.66612167 </i>
    <i name="e_0_energy">     -7.67480007 </i>
   </energy>
  </scstep>
  <scstep>
   <time name="dav">    0.03    0.03</time>
   <time name="total">    0.05    0.05</time>
   <energy>
    <i name="e_fr_energy">     -7.66231976 </i>
    <i name="e_wo_entrp">     -7.65140840 </i>
    <i name="e_0_energy">     -7.65868264 </i>
   </energy>
  </scstep>
  <scstep>
   <time name="dav">    0.03    0.03</time>
   <time name="total">    0.04    0.05</time>
   <energy>
    <i name="e_fr_energy">     -7.54485248 </i>
    <i name="e_wo_entrp">     -7.53488604 </i>
    <i name="e_0_energy">     -7.54153033 </i>
   </energy>
  </scstep>
  <scstep>
   <time name="dav">    0.03    0.03</time>
   <time name="total">    0.05    0.05</time>
   <energy>
    <i name="e_fr_energy">     -7.44914780 </i>
    <i name="e_wo_entrp">     -7.44027517 </i>
    <i name="e_0_energy">     -7.44619026 </i>
   </energy>
  </scstep>
  <scstep>
   <time name="dav">    0.03    0.03</time>
   <time name="total">    0.05    0.05</time>
   <energy>
    <i name="e_fr_energy">     -7.44835768 </i>
    <i name="e_wo_entrp">     -7.43666592 </i>
    <i name="e_0_energy">     -7.44446042 </i>
   </energy>
  </scstep>
  <scstep>
   <time name="dav">    0.03    0.03</time>
   <time name="total">    0.05    0.05</time>
   <energy>
    <i name="e_fr_energy">     -7.44779261 </i>
    <i name="e_wo_entrp">     -7.43535015 </i>
    <i name="e_0_energy">     -7.44364512 </i>
   </energy>
  </scstep>
  <scstep>
   <time name="dav">    0.03    0.03</time>
   <time name="total">    0.05    0.05</time>
   <energy>
    <i name="e_fr_energy">     -7.44784798 </i>
    <i name="e_wo_entrp">     -7.43539832 </i>
    <i name="e_0_energy">     -7.44369809 </i>
   </energy>
  </scstep>
  <scstep>
   <time name="dav">    0.03    0.03</time>
   <time name="total">    0.05    0.05</time>
   <energy>
    <i name="e_fr_energy">     -7.44789889 </i>
    <i name="e_wo_entrp">     -7.43522695 </i>
    <i name="e_0_energy">     -7.44367491 </i>
   </energy>
  </scstep>
  <scstep>
   <time name="dav">    0.03    0.03</time>
   <time name="total">    0.05    0.05</time>
   <energy>
    <i name="e_fr_energy">     -7.44802192 </i>
    <i name="e_wo_entrp">     -7.43523711 </i>
    <i name="e_0_energy">     -7.44376032 </i>
   </energy>
  </scstep>
  <scstep>
   <time name="dav">    0.03    0.03</time>
   <time name="total">    0.05    0.05</time>
   <energy>
    <i name="e_fr_energy">     -7.44803101 </i>
    <i name="e_wo_entrp">     -7.43513486 </i>
    <i name="e_0_energy">     -7.44373229 </i>
   </energy>
  </scstep>
  <scstep>
   <time name="dav">    0.03    0.03</time>
   <time name="total">    0.05    0.05</time>
   <energy>
    <i name="e_fr_energy">     -7.44798696 </i>
    <i name="e_wo_entrp">     -7.43508177 </i>
    <i name="e_0_energy">     -7.44368523 </i>
   </energy>
  </scstep>
  <scstep>
   <time name="dav">    0.03    0.03</time>
   <time name="total">    0.05    0.05</time>
   <energy>
    <i name="e_fr_energy">     -7.44798847 </i>
    <i name="e_wo_entrp">     -7.43505432 </i>
    <i name="e_0_energy">     -7.44367709 </i>
   </energy>
  </scstep>
  <scstep>
   <time name="dav">    0.03    0.03</time>
   <time name="total">    0.05    0.05</time>
   <energy>
    <i name="e_fr_energy">     -7.44798803 </i>
    <i name="e_wo_entrp">     -7.43495804 </i>
    <i name="e_0_energy">     -7.44364470 </i>
   </energy>
  </scstep>
  <scstep>
   <time name="dav">    0.01    0.02</time>
   <time name="total">    0.04    0.04</time>
   <energy>
    <i name="e_fr_energy">     -7.44799154 </i>
    <i name="e_wo_entrp">     -7.43491650 </i>
    <i name="e_0_energy">     -7.44363319 </i>
   </energy>
  </scstep>
  <scstep>
   <time name="dav">    0.02    0.02</time>
   <time name="total">    0.04    0.05</time>
   <energy>
    <i name="e_fr_energy">     -7.44799325 </i>
    <i name="e_wo_entrp">     -7.43483516 </i>
    <i name="e_0_energy">     -7.44360722 </i>
   </energy>
  </scstep>
  <scstep>
   <time name="dav">    0.01    0.02</time>
   <time name="total">    0.04    0.04</time>
   <energy>
    <i name="e_fr_energy">     -7.44799626 </i>
    <i name="e_wo_entrp">     -7.43477152 </i>
    <i name="e_0_energy">     -7.44358801 </i>
   </energy>
  </scstep>
  <scstep>
   <time name="dav">    0.01    0.01</time>
   <time name="total">    0.04    0.04</time>
   <energy>
    <i name="e_fr_energy">     -7.44799873 </i>
    <i name="e_wo_entrp">     -7.43471483 </i>
    <i name="e_0_energy">     -7.44357077 </i>
   </energy>
  </scstep>
  <scstep>
   <time name="dav">    0.01    0.01</time>
   <time name="total">    0.04    0.04</time>
   <energy>
    <i name="e_fr_energy">     -7.44800058 </i>
    <i name="e_wo_entrp">     -7.43466998 </i>
    <i name="e_0_energy">     -7.44355705 </i>
   </energy>
  </scstep>
  <scstep>
   <time name="dav">    0.03    0.03</time>
   <time name="total">    0.05    0.05</time>
   <energy>
    <i name="e_fr_energy">     -7.44799177 </i>
    <i name="e_wo_entrp">     -7.43466660 </i>
    <i name="e_0_energy">     -7.44355005 </i>
   </energy>
  </scstep>
  <scstep>
   <time name="dav">    0.02    0.03</time>
   <time name="total">    0.05    0.05</time>
   <energy>
    <i name="e_fr_energy">     -7.44799842 </i>
    <i name="e_wo_entrp">     -7.43467010 </i>
    <i name="e_0_energy">     -7.44355565 </i>
   </energy>
  </scstep>
  <scstep>
   <time name="dav">    0.02    0.02</time>
   <time name="total">    0.03    0.03</time>
   <energy>
    <i name="alphaZ">     47.25537354 </i>
    <i name="ewald">  -1493.84798793 </i>
    <i name="hartreedc">   -671.95150631 </i>
    <i name="XCdc">     59.12888058 </i>
    <i name="pawpsdc">   1853.51114269 </i>
    <i name="pawaedc">  -1986.67677777 </i>
    <i name="eentropy">     -0.01334920 </i>
    <i name="bandstr">     29.87592295 </i>
    <i name="atom">   2155.27030247 </i>
    <i name="e_fr_energy">     -7.44799899 </i>
    <i name="e_wo_entrp">     -7.43464979 </i>
    <i name="e_0_energy">     -7.44354926 </i>
   </energy>
  </scstep>
  <structure>
   <crystal>
    <varray name="basis" >
     <v>       3.50800000       0.00000000       0.00000000 </v>
     <v>       0.00000000       3.50800000       0.00000000 </v>
     <v>       0.00000000       0.00000000       3.50800000 </v>
    </varray>
    <i name="volume">     43.16967251 </i>
    <varray name="rec_basis" >
     <v>       0.28506271       0.00000000       0.00000000 </v>
     <v>       0.00000000       0.28506271       0.00000000 </v>
     <v>       0.00000000       0.00000000       0.28506271 </v>
    </varray>
   </crystal>
   <varray name="positions" >
    <v>       0.00000000       0.00000000       0.00000000 </v>
    <v>       0.50000000       0.50000000       0.50000000 </v>
   </varray>
  </structure>
  <varray name="forces" >
   <v>      -0.00000000      -0.00000000      -0.00000000 </v>
   <v>       0.00000000       0.00000000       0.00000000 </v>
  </varray>
  <varray name="stress" >
   <v>    -263.06042661       0.00000000       0.00000000 </v>
   <v>       0.00000000    -263.06042661       0.00000000 </v>
   <v>      -0.00000000       0.00000000    -263.06042661 </v>
  </varray>
  <energy>
   <i name="e_fr_energy">     -7.44799899 </i>
   <i name="e_wo_entrp">     -7.44354926 </i>
   <i name="e_0_energy">     -0.01334920 </i>
  </energy>
  <time name="totalsc">    1.72    1.85</time>
 </calculation>
 <calculation>
  <scstep>
   <time name="dav">    0.03    0.03</time>
   <time name="total">    0.05    0.05</time>
   <energy>
    <i name="alphaZ">     82.93608680 </i>
    <i name="ewald">  -1801.92697329 </i>
    <i name="hartreedc">   -810.52828565 </i>
    <i name="XCdc">     78.51992032 </i>
    <i name="pawpsdc">   1853.51623197 </i>
    <i name="pawaedc">  -1986.68173624 </i>
    <i name="eentropy">     -0.04290393 </i>
    <i name="bandstr">    284.06338119 </i>
    <i name="atom">   2155.27030247 </i>
    <i name="e_fr_energy">   -144.87397636 </i>
    <i name="e_wo_entrp">   -144.83107243 </i>
    <i name="e_0_energy">   -144.85967505 </i>
   </energy>
  </scstep>
  <scstep>
   <time name="dav">    0.03    0.03</time>
   <time name="total">    0.05    0.05</time>
   <energy>
    <i name="e_fr_energy">    -52.29567521 </i>
    <i name="e_wo_entrp">    -52.34984563 </i>
    <i name="e_0_energy">    -52.31373202 </i>
   </energy>
  </scstep>
  <scstep>
   <time name="dav">    0.03    0.03</time>
   <time name="total">    0.05    0.05</time>
   <energy>
    <i name="e_fr_energy">    -12.53407687 </i>
    <i name="e_wo_entrp">    -12.52220118 </i>
    <i name="e_0_energy">    -12.53011830 </i>
   </energy>
  </scstep>
  <scstep>
   <time name="dav">    0.03    0.03</time>
   <time name="total">    0.05    0.06</time>
   <energy>
    <i name="e_fr_energy">    -10.72761563 </i>
    <i name="e_wo_entrp">    -10.74215113 </i>
    <i name="e_0_energy">    -10.73246080 </i>
   </energy>
  </scstep>
  <scstep>
   <time name="dav">    0.04    0.04</time>
   <time name="total">    0.06    0.07</time>
   <energy>
    <i name="e_fr_energy">    -10.69925174 </i>
    <i name="e_wo_entrp">    -10.70391488 </i>
    <i name="e_0_energy">    -10.70080612 </i>
   </energy>
  </scstep>
  <scstep>
   <time name="dav">    0.03    0.03</time>
   <time name="total">    0.05    0.05</time>
   <energy>
    <i name="e_fr_energy">    -10.70365067 </i>
    <i name="e_wo_entrp">    -10.71290648 </i>
    <i name="e_0_energy">    -10.70673594 </i>
   </energy>
  </scstep>
  <scstep>
   <time name="dav">    0.03    0.03</time>
   <time name="total">    0.05    0.05</time>
   <energy>
    <i name="e_fr_energy">    -10.70229877 </i>
    <i name="e_wo_entrp">    -10.71359875 </i>
    <i name="e_0_energy">    -10.70606543 </i>
   </energy>
  </scstep>
  <scstep>
   <time name="dav">    0.03    0.03</time>
   <time name="total">    0.05    0.05</time>
   <energy>
    <i name="e_fr_energy">    -10.70208598 </i>
    <i name="e_wo_entrp">    -10.71370420 </i>
    <i name="e_0_energy">    -10.70595872 </i>
   </energy>
  </scstep>
  <scstep>
   <time name="dav">    0.03    0.03</time>
   <time name="total">    0.05    0.05</time>
   <energy>
    <i name="e_fr_energy">    -10.70210610 </i>
    <i name="e_wo_entrp">    -10.71313322 </i>
    <i name="e_0_energy">    -10.70578181 </i>
   </energy>
  </scstep>
  <scstep>
   <time name="dav">    0.02    0.02</time>
   <time name="total">    0.03    0.04</time>
   <energy>
    <i name="alphaZ">     82.93608680 </i>
    <i name="ewald">  -1801.92697329 </i>
    <i name="hartreedc">   -487.92938333 </i>
    <i name="XCdc">     60.84341969 </i>
    <i name="pawpsdc">   2039.78033417 </i>
    <i name="pawaedc">  -2175.64925473 </i>
    <i name="eentropy">      0.01096220 </i>
    <i name="bandstr">    115.96239901 </i>
    <i name="atom">   2155.27030247 </i>
    <i name="e_fr_energy">    -10.70210700 </i>
    <i name="e_wo_entrp">    -10.71306919 </i>
    <i name="e_0_energy">    -10.70576106 </i>
   </energy>
  </scstep>
  <structure>
   <crystal>
    <varray name="basis" >
     <v>       2.90823037       0.00000000       0.00000000 </v>
     <v>       0.00000000       2.90823037       0.00000000 </v>
     <v>      -0.00000000       0.00000000       2.90823037 </v>
    </varray>
    <i name="volume">     24.59724203 </i>
    <varray name="rec_basis" >
     <v>       0.34385172      -0.00000000       0.00000000 </v>
     <v>      -0.00000000       0.34385172      -0.00000000 </v>
     <v>      -0.00000000      -0.00000000       0.34385172 </v>
    </varray>
   </crystal>
   <varray name="positions" >
    <v>      -0.00000000      -0.00000000      -0.00000000 </v>
    <v>       0.50000000       0.50000000       0.50000000 </v>
   </varray>
  </structure>
  <varray name="forces" >
   <v>      -0.00000000       0.00000000      -0.00000000 </v>
   <v>       0.00000000      -0.00000000       0.00000000 </v>
  </varray>
  <varray name="stress" >
   <v>    -178.04772827      -0.00000000       0.00000000 </v>
   <v>      -0.00000000    -178.04772827       0.00000000 </v>
   <v>      -0.00000000      -0.00000000    -178.04772827 </v>
  </varray>
  <energy>
   <i name="e_fr_energy">    -10.70210700 </i>
   <i name="e_wo_entrp">    -10.70576106 </i>
   <i name="e_0_energy">      0.01096220 </i>
  </energy>
  <time name="totalsc">    0.55    0.60</time>
 </calculation>
 <calculation>
  <scstep>
   <time name="dav">    0.03    0.03</time>
   <time name="total">    0.05    0.05</time>
   <energy>
    <i name="alphaZ">     93.35867319 </i>
    <i name="ewald">  -1874.45159533 </i>
    <i name="hartreedc">   -507.56593116 </i>
    <i name="XCdc">     64.60015613 </i>
    <i name="pawpsdc">   2040.10814516 </i>
    <i name="pawaedc">  -2175.98738121 </i>
    <i name="eentropy">      0.00724421 </i>
    <i name="bandstr">    188.67648712 </i>
    <i name="atom">   2155.27030247 </i>
    <i name="e_fr_energy">    -15.98389942 </i>
    <i name="e_wo_entrp">    -15.99114364 </i>
    <i name="e_0_energy">    -15.98631416 </i>
   </energy>
  </scstep>
  <scstep>
   <time name="dav">    0.03    0.03</time>
   <time name="total">    0.05    0.05</time>
   <energy>
    <i name="e_fr_energy">    -12.36521355 </i>
    <i name="e_wo_entrp">    -12.36023625 </i>
    <i name="e_0_energy">    -12.36355445 </i>
   </energy>
  </scstep>
  <scstep>
   <time name="dav">    0.03    0.03</time>
   <time name="total">    0.05    0.05</time>
   <energy>
    <i name="e_fr_energy">    -10.99693828 </i>
    <i name="e_wo_entrp">    -11.00956625 </i>
    <i name="e_0_energy">    -11.00114761 </i>
   </energy>
  </scstep>
  <scstep>
   <time name="dav">    0.04    0.04</time>
   <time name="total">    0.06    0.07</time>
   <energy>
    <i name="e_fr_energy">    -10.87714658 </i>
    <i name="e_wo_entrp">    -10.88819958 </i>
    <i name="e_0_energy">    -10.88083092 </i>
   </energy>
  </scstep>
  <scstep>
   <time name="dav">    0.03    0.03</time>
   <time name="total">    0.05    0.05</time>
   <energy>
    <i name="e_fr_energy">    -10.87859253 </i>
    <i name="e_wo_entrp">    -10.88791785 </i>
    <i name="e_0_energy">    -10.88170097 </i>
   </energy>
  </scstep>
  <scstep>
   <time name="dav">    0.04    0.04</time>
   <time name="total">    0.05    0.06</time>
   <energy>
    <i name="e_fr_energy">    -10.87836715 </i>
    <i name="e_wo_entrp">    -10.88788111 </i>
    <i name="e_0_energy">    -10.88153847 </i>
   </energy>
  </scstep>
  <scstep>
   <time name="dav">    0.04    0.04</time>
   <time name="total">    0.06    0.06</time>
   <energy>
    <i name="e_fr_energy">    -10.87827215 </i>
    <i name="e_wo_entrp">    -10.88803922 </i>
    <i name="e_0_energy">    -10.88152784 </i>
   </energy>
  </scstep>
  <scstep>
   <time name="dav">    0.04    0.04</time>
   <time name="total">    0.06    0.06</time>
   <energy>
    <i name="e_fr_energy">    -10.87824083 </i>
    <i name="e_wo_entrp">    -10.88796326 </i>
    <i name="e_0_energy">    -10.88148164 </i>
   </energy>
  </scstep>
  <scstep>
   <time name="dav">    0.02    0.02</time>
   <time name="total">    0.03    0.03</time>
   <energy>
    <i name="alphaZ">     93.35867319 </i>
    <i name="ewald">  -1874.45159533 </i>
    <i name="hartreedc">   -450.86502205 </i>
    <i name="XCdc">     61.40966653 </i>
    <i name="pawpsdc">   2130.79872829 </i>
    <i name="pawaedc">  -2267.86967195 </i>
    <i name="eentropy">      0.00972980 </i>
    <i name="bandstr">    141.46094874 </i>
    <i name="atom">   2155.27030247 </i>
    <i name="e_fr_energy">    -10.87824032 </i>
    <i name="e_wo_entrp">    -10.88797012 </i>
    <i name="e_0_energy">    -10.88148359 </i>
   </energy>
  </scstep>
  <structure>
   <crystal>
    <varray name="basis" >
     <v>       2.79570769       0.00000000       0.00000000 </v>
     <v>       0.00000000       2.79570769       0.00000000 </v>
     <v>      -0.00000000       0.00000000       2.79570769 </v>
    </varray>
    <i name="volume">     21.85119958 </i>
    <varray name="rec_basis" >
     <v>       0.35769119      -0.00000000       0.00000000 </v>
     <v>      -0.00000000       0.35769119      -0.00000000 </v>
     <v>      -0.00000000      -0.00000000       0.35769119 </v>
    </varray>
   </crystal>
   <varray name="positions" >
    <v>      -0.00000000      -0.00000000      -0.00000000 </v>
    <v>       0.50000000       0.50000000       0.50000000 </v>
   </varray>
  </structure>
  <varray name="forces" >
   <v>       0.00000000       0.00000000       0.00000000 </v>
   <v>      -0.00000000      -0.00000000      -0.00000000 </v>
  </varray>
  <varray name="stress" >
   <v>      -3.97023449       0.00000000      -0.00000000 </v>
   <v>       0.00000000      -3.97023449      -0.00000000 </v>
   <v>       0.00000000      -0.00000000      -3.97023449 </v>
  </varray>
  <energy>
   <i name="e_fr_energy">    -10.87824032 </i>
   <i name="e_wo_entrp">    -10.88148359 </i>
   <i name="e_0_energy">      0.00972980 </i>
  </energy>
  <time name="totalsc">    0.53    0.56</time>
 </calculation>
 <calculation>
  <scstep>
   <time name="dav">    0.03    0.03</time>
   <time name="total">    0.05    0.05</time>
   <energy>
    <i name="alphaZ">     93.58685925 </i>
    <i name="ewald">  -1875.97752291 </i>
    <i name="hartreedc">   -451.23255629 </i>
    <i name="XCdc">     61.48557872 </i>
    <i name="pawpsdc">   2130.77368200 </i>
    <i name="pawaedc">  -2267.84538791 </i>
    <i name="eentropy">      0.01030294 </i>
    <i name="bandstr">    143.04832421 </i>
    <i name="atom">   2155.27030247 </i>
    <i name="e_fr_energy">    -10.88041753 </i>
    <i name="e_wo_entrp">    -10.89072047 </i>
    <i name="e_0_energy">    -10.88385184 </i>
   </energy>
  </scstep>
  <scstep>
   <time name="dav">    0.03    0.03</time>
   <time name="total">    0.05    0.05</time>
   <energy>
    <i name="e_fr_energy">    -10.87895911 </i>
    <i name="e_wo_entrp">    -10.88833115 </i>
    <i name="e_0_energy">    -10.88208312 </i>
   </energy>
  </scstep>
  <scstep>
   <time name="dav">    0.03    0.03</time>
   <time name="total">    0.05    0.05</time>
   <energy>
    <i name="e_fr_energy">    -10.87835649 </i>
    <i name="e_wo_entrp">    -10.88808848 </i>
    <i name="e_0_energy">    -10.88160048 </i>
   </energy>
  </scstep>
  <scstep>
   <time name="dav">    0.03    0.04</time>
   <time name="total">    0.05    0.06</time>
   <energy>
    <i name="e_fr_energy">    -10.87830722 </i>
    <i name="e_wo_entrp">    -10.88796673 </i>
    <i name="e_0_energy">    -10.88152706 </i>
   </energy>
  </scstep>
  <scstep>
   <time name="dav">    0.02    0.02</time>
   <time name="total">    0.03    0.04</time>
   <energy>
    <i name="alphaZ">     93.58685925 </i>
    <i name="ewald">  -1875.97752291 </i>
    <i name="hartreedc">   -450.08888247 </i>
    <i name="XCdc">     61.42154824 </i>
    <i name="pawpsdc">   2132.70873441 </i>
    <i name="pawaedc">  -2269.82564360 </i>
    <i name="eentropy">      0.00964085 </i>
    <i name="bandstr">    142.01665598 </i>
    <i name="atom">   2155.27030247 </i>
    <i name="e_fr_energy">    -10.87830777 </i>
    <i name="e_wo_entrp">    -10.88794862 </i>
    <i name="e_0_energy">    -10.88152139 </i>
   </energy>
  </scstep>
  <structure>
   <crystal>
    <varray name="basis" >
     <v>       2.79343365       0.00000000       0.00000000 </v>
     <v>       0.00000000       2.79343365       0.00000000 </v>
     <v>      -0.00000000       0.00000000       2.79343365 </v>
    </varray>
    <i name="volume">     21.79792138 </i>
    <varray name="rec_basis" >
     <v>       0.35798237      -0.00000000       0.00000000 </v>
     <v>      -0.00000000       0.35798237      -0.00000000 </v>
     <v>      -0.00000000      -0.00000000       0.35798237 </v>
    </varray>
   </crystal>
   <varray name="positions" >
    <v>      -0.00000000      -0.00000000      -0.00000000 </v>
    <v>       0.50000000       0.50000000       0.50000000 </v>
   </varray>
  </structure>
  <varray name="forces" >
   <v>      -0.00000000       0.00000000      -0.00000000 </v>
   <v>       0.00000000      -0.00000000       0.00000000 </v>
  </varray>
  <varray name="stress" >
   <v>       0.31422576       0.00000000      -0.00000000 </v>
   <v>       0.00000000       0.31422576       0.00000000 </v>
   <v>       0.00000000       0.00000000       0.31422576 </v>
  </varray>
  <energy>
   <i name="e_fr_energy">    -10.87830777 </i>
   <i name="e_wo_entrp">    -10.88152139 </i>
   <i name="e_0_energy">      0.00964085 </i>
  </energy>
  <time name="totalsc">    0.29    0.32</time>
 </calculation>
 <calculation>
  <scstep>
   <time name="dav">    0.03    0.03</time>
   <time name="total">    0.05    0.05</time>
   <energy>
    <i name="alphaZ">     93.57013652 </i>
    <i name="ewald">  -1875.86577881 </i>
    <i name="hartreedc">   -450.07001514 </i>
    <i name="XCdc">     61.41635946 </i>
    <i name="pawpsdc">   2132.79292532 </i>
    <i name="pawaedc">  -2269.90373676 </i>
    <i name="eentropy">      0.00959537 </i>
    <i name="bandstr">    141.90189039 </i>
    <i name="atom">   2155.27030247 </i>
    <i name="e_fr_energy">    -10.87832118 </i>
    <i name="e_wo_entrp">    -10.88791655 </i>
    <i name="e_0_energy">    -10.88151964 </i>
   </energy>
  </scstep>
  <scstep>
   <time name="dav">    0.03    0.03</time>
   <time name="total">    0.05    0.05</time>
   <energy>
    <i name="e_fr_energy">    -10.87831150 </i>
    <i name="e_wo_entrp">    -10.88798098 </i>
    <i name="e_0_energy">    -10.88153466 </i>
   </energy>
  </scstep>
  <scstep>
   <time name="dav">    0.03    0.03</time>
   <time name="total">    0.05    0.05</time>
   <energy>
    <i name="e_fr_energy">    -10.87830791 </i>
    <i name="e_wo_entrp">    -10.88794930 </i>
    <i name="e_0_energy">    -10.88152171 </i>
   </energy>
  </scstep>
  <scstep>
   <time name="dav">    0.01    0.01</time>
   <time name="total">    0.03    0.03</time>
   <energy>
    <i name="alphaZ">     93.57013652 </i>
    <i name="ewald">  -1875.86577881 </i>
    <i name="hartreedc">   -450.16450709 </i>
    <i name="XCdc">     61.42156241 </i>
    <i name="pawpsdc">   2132.76489166 </i>
    <i name="pawaedc">  -2269.86475558 </i>
    <i name="eentropy">      0.00964765 </i>
    <i name="bandstr">    141.98019363 </i>
    <i name="atom">   2155.27030247 </i>
    <i name="e_fr_energy">    -10.87830714 </i>
    <i name="e_wo_entrp">    -10.88795479 </i>
    <i name="e_0_energy">    -10.88152302 </i>
   </energy>
  </scstep>
  <structure>
   <crystal>
    <varray name="basis" >
     <v>       2.79360005       0.00000000       0.00000000 </v>
     <v>       0.00000000       2.79360005       0.00000000 </v>
     <v>      -0.00000000       0.00000000       2.79360005 </v>
    </varray>
    <i name="volume">     21.80181707 </i>
    <varray name="rec_basis" >
     <v>       0.35796105      -0.00000000       0.00000000 </v>
     <v>      -0.00000000       0.35796105      -0.00000000 </v>
     <v>      -0.00000000      -0.00000000       0.35796105 </v>
    </varray>
   </crystal>
   <varray name="positions" >
    <v>      -0.00000000      -0.00000000      -0.00000000 </v>
    <v>       0.50000000       0.50000000       0.50000000 </v>
   </varray>
  </structure>
  <varray name="forces" >
   <v>       0.00000000      -0.00000000      -0.00000000 </v>
   <v>      -0.00000000       0.00000000       0.00000000 </v>
  </varray>
  <varray name="stress" >
   <v>       0.28616358       0.00000000       0.00000000 </v>
   <v>      -0.00000000       0.28616358       0.00000000 </v>
   <v>      -0.00000000      -0.00000000       0.28616358 </v>
  </varray>
  <energy>
   <i name="e_fr_energy">    -10.87830714 </i>
   <i name="e_wo_entrp">    -10.88152302 </i>
   <i name="e_0_energy">      0.00964765 </i>
  </energy>
  <time name="totalsc">    0.23    0.25</time>
 </calculation>
 <calculation>
  <scstep>
   <time name="dav">    0.03    0.03</time>
   <time name="total">    0.05    0.05</time>
   <energy>
    <i name="alphaZ">     93.46432511 </i>
    <i name="ewald">  -1875.15842044 </i>
    <i name="hartreedc">   -449.99575906 </i>
    <i name="XCdc">     61.38647740 </i>
    <i name="pawpsdc">   2132.75897404 </i>
    <i name="pawaedc">  -2269.85820902 </i>
    <i name="eentropy">      0.00936419 </i>
    <i name="bandstr">    141.24419784 </i>
    <i name="atom">   2155.27030247 </i>
    <i name="e_fr_energy">    -10.87874747 </i>
    <i name="e_wo_entrp">    -10.88811166 </i>
    <i name="e_0_energy">    -10.88186887 </i>
   </energy>
  </scstep>
  <scstep>
   <time name="dav">    0.03    0.03</time>
   <time name="total">    0.05    0.05</time>
   <energy>
    <i name="e_fr_energy">    -10.87843061 </i>
    <i name="e_wo_entrp">    -10.88823982 </i>
    <i name="e_0_energy">    -10.88170035 </i>
   </energy>
  </scstep>
  <scstep>
   <time name="dav">    0.03    0.03</time>
   <time name="total">    0.05    0.05</time>
   <energy>
    <i name="e_fr_energy">    -10.87830169 </i>
    <i name="e_wo_entrp">    -10.88794884 </i>
    <i name="e_0_energy">    -10.88151741 </i>
   </energy>
  </scstep>
  <scstep>
   <time name="dav">    0.04    0.04</time>
   <time name="total">    0.05    0.06</time>
   <energy>
    <i name="e_fr_energy">    -10.87829045 </i>
    <i name="e_wo_entrp">    -10.88797215 </i>
    <i name="e_0_energy">    -10.88151768 </i>
   </energy>
  </scstep>
  <scstep>
   <time name="dav">    0.01    0.01</time>
   <time name="total">    0.03    0.03</time>
   <energy>
    <i name="alphaZ">     93.46432511 </i>
    <i name="ewald">  -1875.15842044 </i>
    <i name="hartreedc">   -450.52372317 </i>
    <i name="XCdc">     61.41603912 </i>
    <i name="pawpsdc">   2131.82577712 </i>
    <i name="pawaedc">  -2268.90563395 </i>
    <i name="eentropy">      0.00968989 </i>
    <i name="bandstr">    141.72335301 </i>
    <i name="atom">   2155.27030247 </i>
    <i name="e_fr_energy">    -10.87829084 </i>
    <i name="e_wo_entrp">    -10.88798073 </i>
    <i name="e_0_energy">    -10.88152080 </i>
   </energy>
  </scstep>
  <structure>
   <crystal>
    <varray name="basis" >
     <v>       2.79465387       0.00000000       0.00000000 </v>
     <v>       0.00000000       2.79465387       0.00000000 </v>
     <v>      -0.00000000       0.00000000       2.79465387 </v>
    </varray>
    <i name="volume">     21.82649901 </i>
    <varray name="rec_basis" >
     <v>       0.35782607      -0.00000000       0.00000000 </v>
     <v>      -0.00000000       0.35782607      -0.00000000 </v>
     <v>      -0.00000000      -0.00000000       0.35782607 </v>
    </varray>
   </crystal>
   <varray name="positions" >
    <v>      -0.00000000      -0.00000000      -0.00000000 </v>
    <v>       0.50000000       0.50000000       0.50000000 </v>
   </varray>
  </structure>
  <varray name="forces" >
   <v>       0.00000000      -0.00000000      -0.00000000 </v>
   <v>      -0.00000000       0.00000000       0.00000000 </v>
  </varray>
  <varray name="stress" >
   <v>      -1.88063106       0.00000000       0.00000000 </v>
   <v>      -0.00000000      -1.88063106       0.00000000 </v>
   <v>      -0.00000000       0.00000000      -1.88063106 </v>
  </varray>
  <energy>
   <i name="e_fr_energy">    -10.87829084 </i>
   <i name="e_wo_entrp">    -10.88152080 </i>
   <i name="e_0_energy">      0.00968989 </i>
  </energy>
  <time name="totalsc">    0.28    0.31</time>
 </calculation>
 <calculation>
  <scstep>
   <time name="dav">    0.03    0.03</time>
   <time name="total">    0.05    0.05</time>
   <energy>
    <i name="alphaZ">     93.55616682 </i>
    <i name="ewald">  -1875.77242076 </i>
    <i name="hartreedc">   -450.66752810 </i>
    <i name="XCdc">     61.44637756 </i>
    <i name="pawpsdc">   2131.78964239 </i>
    <i name="pawaedc">  -2268.87231096 </i>
    <i name="eentropy">      0.00992811 </i>
    <i name="bandstr">    142.36119118 </i>
    <i name="atom">   2155.27030247 </i>
    <i name="e_fr_energy">    -10.87865129 </i>
    <i name="e_wo_entrp">    -10.88857940 </i>
    <i name="e_0_energy">    -10.88196066 </i>
   </energy>
  </scstep>
  <scstep>
   <time name="dav">    0.03    0.03</time>
   <time name="total">    0.05    0.05</time>
   <energy>
    <i name="e_fr_energy">    -10.87841435 </i>
    <i name="e_wo_entrp">    -10.88796082 </i>
    <i name="e_0_energy">    -10.88159650 </i>
   </energy>
  </scstep>
  <scstep>
   <time name="dav">    0.03    0.03</time>
   <time name="total">    0.05    0.05</time>
   <energy>
    <i name="e_fr_energy">    -10.87831556 </i>
    <i name="e_wo_entrp">    -10.88800629 </i>
    <i name="e_0_energy">    -10.88154581 </i>
   </energy>
  </scstep>
  <scstep>
   <time name="dav">    0.04    0.04</time>
   <time name="total">    0.05    0.06</time>
   <energy>
    <i name="e_fr_energy">    -10.87830759 </i>
    <i name="e_wo_entrp">    -10.88796837 </i>
    <i name="e_0_energy">    -10.88152785 </i>
   </energy>
  </scstep>
  <scstep>
   <time name="dav">    0.01    0.01</time>
   <time name="total">    0.03    0.03</time>
   <energy>
    <i name="alphaZ">     93.55616682 </i>
    <i name="ewald">  -1875.77242076 </i>
    <i name="hartreedc">   -450.20227603 </i>
    <i name="XCdc">     61.42038178 </i>
    <i name="pawpsdc">   2132.52987640 </i>
    <i name="pawaedc">  -2269.63421972 </i>
    <i name="eentropy">      0.00965342 </i>
    <i name="bandstr">    141.94422805 </i>
    <i name="atom">   2155.27030247 </i>
    <i name="e_fr_energy">    -10.87830758 </i>
    <i name="e_wo_entrp">    -10.88796100 </i>
    <i name="e_0_energy">    -10.88152539 </i>
   </energy>
  </scstep>
  <structure>
   <crystal>
    <varray name="basis" >
     <v>       2.79373909       0.00000000       0.00000000 </v>
     <v>       0.00000000       2.79373909       0.00000000 </v>
     <v>      -0.00000000       0.00000000       2.79373909 </v>
    </varray>
    <i name="volume">     21.80507250 </i>
    <varray name="rec_basis" >
     <v>       0.35794323      -0.00000000       0.00000000 </v>
     <v>      -0.00000000       0.35794323      -0.00000000 </v>
     <v>      -0.00000000      -0.00000000       0.35794323 </v>
    </varray>
   </crystal>
   <varray name="positions" >
    <v>      -0.00000000      -0.00000000      -0.00000000 </v>
    <v>       0.50000000       0.50000000       0.50000000 </v>
   </varray>
  </structure>
  <varray name="forces" >
   <v>      -0.00000000       0.00000000       0.00000000 </v>
   <v>       0.00000000      -0.00000000      -0.00000000 </v>
  </varray>
  <varray name="stress" >
   <v>      -0.14553359       0.00000000       0.00000000 </v>
   <v>       0.00000000      -0.14553359       0.00000000 </v>
   <v>      -0.00000000      -0.00000000      -0.14553359 </v>
  </varray>
  <energy>
   <i name="e_fr_energy">    -10.87830758 </i>
   <i name="e_wo_entrp">    -10.88152539 </i>
   <i name="e_0_energy">      0.00965342 </i>
  </energy>
  <time name="totalsc">    0.28    0.31</time>
  <eigenvalues>
   <array>
    <dimension dim="1">band</dimension>
    <dimension dim="2">kpoint</dimension>
    <dimension dim="3">spin</dimension>
    <field>eigene</field>
    <field>occ</field>
    <set>
     <set comment="spin 1">
      <set comment="kpoint 1">
       <r>    1.2790    1.0000 </r>
       <r>    5.7126    1.0000 </r>
       <r>    5.7126    1.0000 </r>
       <r>    7.3648    1.0000 </r>
       <r>    7.3648    1.0000 </r>
       <r>    8.0626    1.0000 </r>
       <r>    8.5364    1.0000 </r>
       <r>    8.7655    1.0017 </r>
       <r>    8.7655    1.0017 </r>
       <r>    9.4401   -0.0199 </r>
       <r>    9.4401   -0.0199 </r>
       <r>   17.6110    0.0000 </r>
       <r>   17.6110    0.0000 </r>
       <r>   18.6228    0.0000 </r>
       <r>   27.8318    0.0000 </r>
       <r>   27.8318    0.0000 </r>
      </set>
      <set comment="kpoint 2">
       <r>    3.4935    1.0000 </r>
       <r>    5.7581    1.0000 </r>
       <r>    6.4339    1.0000 </r>
       <r>    7.1324    1.0000 </r>
       <r>    7.2537    1.0000 </r>
       <r>    7.6008    1.0000 </r>
       <r>    8.3145    1.0000 </r>
       <r>    8.4846    1.0000 </r>
       <r>    8.8359    1.0064 </r>
       <r>    9.1898    0.7383 </r>
       <r>    9.3142    0.2394 </r>
       <r>   11.7502   -0.0000 </r>
       <r>   20.7657    0.0000 </r>
       <r>   21.2614    0.0000 </r>
       <r>   25.3393    0.0000 </r>
       <r>   26.1269    0.0000 </r>
      </set>
      <set comment="kpoint 3">
       <r>    4.7798    1.0000 </r>
       <r>    5.5161    1.0000 </r>
       <r>    6.6708    1.0000 </r>
       <r>    6.8079    1.0000 </r>
       <r>    7.3696    1.0000 </r>
       <r>    7.4999    1.0000 </r>
       <r>    8.6445    1.0001 </r>
       <r>    8.7794    1.0022 </r>
       <r>    8.9629    1.0306 </r>
       <r>    9.4628   -0.0309 </r>
       <r>   10.0781   -0.0000 </r>
       <r>   12.2854   -0.0000 </r>
       <r>   16.1912    0.0000 </r>
       <r>   19.3265    0.0000 </r>
       <r>   23.1670    0.0000 </r>
       <r>   26.8869    0.0000 </r>
      </set>
      <set comment="kpoint 4">
       <r>    6.1670    1.0000 </r>
       <r>    6.2020    1.0000 </r>
       <r>    6.4934    1.0000 </r>
       <r>    6.4934    1.0000 </r>
       <r>    6.7311    1.0000 </r>
       <r>    6.7311    1.0000 </r>
       <r>    8.9662    1.0313 </r>
       <r>    8.9662    1.0313 </r>
       <r>    8.9841    1.0341 </r>
       <r>    8.9841    1.0341 </r>
       <r>   12.3920   -0.0000 </r>
       <r>   15.8991    0.0000 </r>
       <r>   15.8991    0.0000 </r>
       <r>   18.1235    0.0000 </r>
       <r>   20.8623    0.0000 </r>
       <r>   20.8623    0.0000 </r>
      </set>
     </set>
     <set comment="spin 2">
      <set comment="kpoint 1">
       <r>    1.2983    1.0000 </r>
       <r>    5.4120    1.0000 </r>
       <r>    5.4120    1.0000 </r>
       <r>    6.7893    1.0000 </r>
       <r>    6.7893    1.0000 </r>
       <r>    7.4574    1.0000 </r>
       <r>    7.9409    1.0000 </r>
       <r>    8.3079    1.0000 </r>
       <r>    8.3079    1.0000 </r>
       <r>    8.7917    1.0029 </r>
       <r>    8.7917    1.0029 </r>
       <r>   17.5191    0.0000 </r>
       <r>   17.5191    0.0000 </r>
       <r>   18.5215    0.0000 </r>
       <r>   27.7890    0.0000 </r>
       <r>   27.7890    0.0000 </r>
      </set>
      <set comment="kpoint 2">
       <r>    3.4774    1.0000 </r>
       <r>    5.5371    1.0000 </r>
       <r>    6.0827    1.0000 </r>
       <r>    6.6392    1.0000 </r>
       <r>    6.7033    1.0000 </r>
       <r>    7.0598    1.0000 </r>
       <r>    7.8288    1.0000 </r>
       <r>    7.9062    1.0000 </r>
       <r>    8.2247    1.0000 </r>
       <r>    8.6860    1.0003 </r>
       <r>    8.7296    1.0007 </r>
       <r>   11.4946   -0.0000 </r>
       <r>   20.6400    0.0000 </r>
       <r>   21.1440    0.0000 </r>
       <r>   25.2628    0.0000 </r>
       <r>   26.0355    0.0000 </r>
      </set>
      <set comment="kpoint 3">
       <r>    4.5805    1.0000 </r>
       <r>    5.1772    1.0000 </r>
       <r>    6.1337    1.0000 </r>
       <r>    6.2812    1.0000 </r>
       <r>    7.0698    1.0000 </r>
       <r>    7.1787    1.0000 </r>
       <r>    8.1274    1.0000 </r>
       <r>    8.2728    1.0000 </r>
       <r>    8.4939    1.0000 </r>
       <r>    8.8652    1.0103 </r>
       <r>    9.5337   -0.0309 </r>
       <r>   12.0856   -0.0000 </r>
       <r>   15.9255    0.0000 </r>
       <r>   19.1568    0.0000 </r>
       <r>   23.0801    0.0000 </r>
       <r>   26.8761    0.0000 </r>
      </set>
      <set comment="kpoint 4">
       <r>    5.6930    1.0000 </r>
       <r>    5.9387    1.0000 </r>
       <r>    6.0160    1.0000 </r>
       <r>    6.0160    1.0000 </r>
       <r>    6.3385    1.0000 </r>
       <r>    6.3385    1.0000 </r>
       <r>    8.4798    1.0000 </r>
       <r>    8.4798    1.0000 </r>
       <r>    8.4869    1.0000 </r>
       <r>    8.4869    1.0000 </r>
       <r>   12.0087   -0.0000 </r>
       <r>   15.7022    0.0000 </r>
       <r>   15.7022    0.0000 </r>
       <r>   17.9467    0.0000 </r>
       <r>   20.7400    0.0000 </r>
       <r>   20.7400    0.0000 </r>
      </set>
     </set>
    </set>
   </array>
  </eigenvalues>
  <separator name="orbital magnetization" >
   <v name="MAGDIPOLOUT">      0.00000000      0.00000000      0.00000000</v>
  </separator>
  <dos>
   <i name="efermi">      9.24893807 </i>
   <total>
    <array>
     <dimension dim="1">gridpoints</dimension>
     <dimension dim="2">spin</dimension>
     <field>energy</field>
     <field>total</field>
     <field>integrated</field>
     <set>
      <set comment="spin 1">
       <r>    -0.7210     0.0000     0.0000 </r>
       <r>    -0.6192     0.0000     0.0000 </r>
       <r>    -0.5174     0.0000     0.0000 </r>
       <r>    -0.4155    -0.0000    -0.0000 </r>
       <r>    -0.3137    -0.0000    -0.0000 </r>
       <r>    -0.2118    -0.0000    -0.0000 </r>
       <r>    -0.1100    -0.0000    -0.0000 </r>
       <r>    -0.0081    -0.0000    -0.0000 </r>
       <r>     0.0937    -0.0000    -0.0000 </r>
       <r>     0.1955    -0.0000    -0.0000 </r>
       <r>     0.2974    -0.0000    -0.0000 </r>
       <r>     0.3992    -0.0000    -0.0000 </r>
       <r>     0.5011    -0.0000    -0.0000 </r>
       <r>     0.6029    -0.0000    -0.0000 </r>
       <r>     0.7048    -0.0002    -0.0000 </r>
       <r>     0.8066    -0.0023    -0.0003 </r>
       <r>     0.9084    -0.0128    -0.0016 </r>
       <r>     1.0103    -0.0259    -0.0042 </r>
       <r>     1.1121     0.0434     0.0002 </r>
       <r>     1.2140     0.2930     0.0301 </r>
       <r>     1.3158     0.5064     0.0816 </r>
       <r>     1.4177     0.3738     0.1197 </r>
       <r>     1.5195     0.0955     0.1294 </r>
       <r>     1.6213    -0.0213     0.1273 </r>
       <r>     1.7232    -0.0176     0.1255 </r>
       <r>     1.8250    -0.0040     0.1250 </r>
       <r>     1.9269    -0.0004     0.1250 </r>
       <r>     2.0287    -0.0000     0.1250 </r>
       <r>     2.1306    -0.0000     0.1250 </r>
       <r>     2.2324    -0.0000     0.1250 </r>
       <r>     2.3342    -0.0000     0.1250 </r>
       <r>     2.4361    -0.0000     0.1250 </r>
       <r>     2.5379    -0.0000     0.1250 </r>
       <r>     2.6398    -0.0000     0.1250 </r>
       <r>     2.7416    -0.0000     0.1250 </r>
       <r>     2.8435    -0.0001     0.1250 </r>
       <r>     2.9453    -0.0013     0.1249 </r>
       <r>     3.0471    -0.0116     0.1237 </r>
       <r>     3.1490    -0.0517     0.1184 </r>
       <r>     3.2508    -0.0658     0.1117 </r>
       <r>     3.3527     0.2726     0.1395 </r>
       <r>     3.4545     1.1034     0.2518 </r>
       <r>     3.5564     1.5227     0.4069 </r>
       <r>     3.6582     0.8983     0.4984 </r>
       <r>     3.7600     0.1405     0.5127 </r>
       <r>     3.8619    -0.0775     0.5048 </r>
       <r>     3.9637    -0.0393     0.5008 </r>
       <r>     4.0656    -0.0074     0.5001 </r>
       <r>     4.1674    -0.0009     0.5000 </r>
       <r>     4.2693    -0.0031     0.4997 </r>
       <r>     4.3711    -0.0221     0.4974 </r>
       <r>     4.4729    -0.0706     0.4902 </r>
       <r>     4.5748    -0.0054     0.4897 </r>
       <r>     4.6766     0.5478     0.5455 </r>
       <r>     4.7785     1.3734     0.6853 </r>
       <r>     4.8803     1.3888     0.8268 </r>
       <r>     4.9822     0.5685     0.8847 </r>
       <r>     5.0840    -0.0136     0.8833 </r>
       <r>     5.1858    -0.1332     0.8697 </r>
       <r>     5.2877    -0.0917     0.8604 </r>
       <r>     5.3895     0.2841     0.8893 </r>
       <r>     5.4914     1.1133     1.0027 </r>
       <r>     5.5932     1.9096     1.1972 </r>
       <r>     5.6950     2.5102     1.4528 </r>
       <r>     5.7969     2.5562     1.7132 </r>
       <r>     5.8987     1.4478     1.8606 </r>
       <r>     6.0006     0.3031     1.8915 </r>
       <r>     6.1024     0.2858     1.9206 </r>
       <r>     6.2043     0.7871     2.0007 </r>
       <r>     6.3061     1.1489     2.1177 </r>
       <r>     6.4079     1.8024     2.3013 </r>
       <r>     6.5098     2.5019     2.5561 </r>
       <r>     6.6116     2.8190     2.8432 </r>
       <r>     6.7135     3.3312     3.1824 </r>
       <r>     6.8153     3.2853     3.5170 </r>
       <r>     6.9172     1.8819     3.7087 </r>
       <r>     7.0190     0.7668     3.7868 </r>
       <r>     7.1208     1.3574     3.9250 </r>
       <r>     7.2227     2.8090     4.2111 </r>
       <r>     7.3245     3.9355     4.6119 </r>
       <r>     7.4264     4.3008     5.0499 </r>
       <r>     7.5282     3.8983     5.4469 </r>
       <r>     7.6301     2.8505     5.7372 </r>
       <r>     7.7319     1.3376     5.8734 </r>
       <r>     7.8337     0.1835     5.8921 </r>
       <r>     7.9356    -0.0410     5.8880 </r>
       <r>     8.0374     0.2410     5.9125 </r>
       <r>     8.1393     0.5108     5.9645 </r>
       <r>     8.2411     0.9426     6.0605 </r>
       <r>     8.3430     1.7013     6.2338 </r>
       <r>     8.4448     2.3492     6.4730 </r>
       <r>     8.5466     2.7287     6.7509 </r>
       <r>     8.6485     3.2174     7.0786 </r>
       <r>     8.7503     4.2474     7.5112 </r>
       <r>     8.8522     5.3113     8.0521 </r>
       <r>     8.9540     5.3443     8.5964 </r>
       <r>     9.0559     4.0618     9.0100 </r>
       <r>     9.1577     2.6499     9.2799 </r>
       <r>     9.2595     2.5181     9.5364 </r>
       <r>     9.3614     3.2323     9.8655 </r>
       <r>     9.4632     3.4471    10.2166 </r>
       <r>     9.5651     2.3289    10.4538 </r>
       <r>     9.6669     0.6783    10.5229 </r>
       <r>     9.7688    -0.1583    10.5067 </r>
       <r>     9.8706    -0.1328    10.4932 </r>
       <r>     9.9724     0.4942    10.5435 </r>
       <r>    10.0743     1.3547    10.6815 </r>
       <r>    10.1761     1.4016    10.8243 </r>
       <r>    10.2780     0.5905    10.8844 </r>
       <r>    10.3798     0.0081    10.8852 </r>
       <r>    10.4817    -0.0726    10.8778 </r>
       <r>    10.5835    -0.0240    10.8754 </r>
       <r>    10.6853    -0.0035    10.8750 </r>
       <r>    10.7872    -0.0003    10.8750 </r>
       <r>    10.8890    -0.0000    10.8750 </r>
       <r>    10.9909    -0.0000    10.8750 </r>
       <r>    11.0927    -0.0001    10.8750 </r>
       <r>    11.1946    -0.0011    10.8749 </r>
       <r>    11.2964    -0.0101    10.8739 </r>
       <r>    11.3982    -0.0477    10.8690 </r>
       <r>    11.5001    -0.0712    10.8617 </r>
       <r>    11.6019     0.2275    10.8849 </r>
       <r>    11.7038     1.0403    10.9909 </r>
       <r>    11.8056     1.5238    11.1460 </r>
       <r>    11.9075     0.9273    11.2405 </r>
       <r>    12.0093     0.0891    11.2496 </r>
       <r>    12.1111    -0.0046    11.2491 </r>
       <r>    12.2130     0.7954    11.3301 </r>
       <r>    12.3148     1.7517    11.5085 </r>
       <r>    12.4167     1.6769    11.6793 </r>
       <r>    12.5185     0.7418    11.7548 </r>
       <r>    12.6204     0.0671    11.7617 </r>
       <r>    12.7222    -0.0735    11.7542 </r>
       <r>    12.8240    -0.0336    11.7508 </r>
       <r>    12.9259    -0.0066    11.7501 </r>
       <r>    13.0277    -0.0007    11.7500 </r>
       <r>    13.1296    -0.0000    11.7500 </r>
       <r>    13.2314    -0.0000    11.7500 </r>
       <r>    13.3333    -0.0000    11.7500 </r>
       <r>    13.4351    -0.0000    11.7500 </r>
       <r>    13.5369    -0.0000    11.7500 </r>
       <r>    13.6388    -0.0000    11.7500 </r>
       <r>    13.7406     0.0000    11.7500 </r>
       <r>    13.8425     0.0000    11.7500 </r>
       <r>    13.9443     0.0000    11.7500 </r>
       <r>    14.0462     0.0000    11.7500 </r>
       <r>    14.1480     0.0000    11.7500 </r>
       <r>    14.2498    -0.0000    11.7500 </r>
       <r>    14.3517    -0.0000    11.7500 </r>
       <r>    14.4535    -0.0000    11.7500 </r>
       <r>    14.5554    -0.0000    11.7500 </r>
       <r>    14.6572    -0.0000    11.7500 </r>
       <r>    14.7591    -0.0000    11.7500 </r>
       <r>    14.8609    -0.0000    11.7500 </r>
       <r>    14.9627    -0.0000    11.7500 </r>
       <r>    15.0646    -0.0000    11.7500 </r>
       <r>    15.1664    -0.0000    11.7500 </r>
       <r>    15.2683    -0.0001    11.7500 </r>
       <r>    15.3701    -0.0014    11.7499 </r>
       <r>    15.4720    -0.0109    11.7487 </r>
       <r>    15.5738    -0.0415    11.7445 </r>
       <r>    15.6756    -0.0312    11.7413 </r>
       <r>    15.7775     0.2489    11.7667 </r>
       <r>    15.8793     0.7670    11.8448 </r>
       <r>    15.9812     0.9653    11.9431 </r>
       <r>    16.0830     0.9927    12.0442 </r>
       <r>    16.1849     1.3829    12.1851 </r>
       <r>    16.2867     1.3638    12.3240 </r>
       <r>    16.3885     0.5920    12.3842 </r>
       <r>    16.4904     0.0120    12.3855 </r>
       <r>    16.5922    -0.0738    12.3780 </r>
       <r>    16.6941    -0.0250    12.3754 </r>
       <r>    16.7959    -0.0037    12.3750 </r>
       <r>    16.8978    -0.0003    12.3750 </r>
       <r>    16.9996    -0.0002    12.3750 </r>
       <r>    17.1014    -0.0021    12.3748 </r>
       <r>    17.2033    -0.0150    12.3732 </r>
       <r>    17.3051    -0.0473    12.3684 </r>
       <r>    17.4070    -0.0018    12.3682 </r>
       <r>    17.5088     0.3709    12.4060 </r>
       <r>    17.6107     0.9186    12.4996 </r>
       <r>    17.7125     0.9149    12.5927 </r>
       <r>    17.8143     0.3512    12.6285 </r>
       <r>    17.9162    -0.0044    12.6281 </r>
       <r>    18.0180     0.1290    12.6412 </r>
       <r>    18.1199     0.4371    12.6857 </r>
       <r>    18.2217     0.4565    12.7322 </r>
       <r>    18.3236     0.1716    12.7497 </r>
       <r>    18.4254     0.0075    12.7504 </r>
       <r>    18.5272     0.1797    12.7687 </r>
       <r>    18.6291     0.4636    12.8159 </r>
       <r>    18.7309     0.4465    12.8614 </r>
       <r>    18.8328     0.1647    12.8782 </r>
       <r>    18.9346    -0.0342    12.8747 </r>
       <r>    19.0365    -0.0991    12.8646 </r>
       <r>    19.1383     0.0371    12.8684 </r>
       <r>    19.2401     0.6896    12.9386 </r>
       <r>    19.3420     1.4569    13.0870 </r>
       <r>    19.4438     1.2836    13.2177 </r>
       <r>    19.5457     0.4363    13.2622 </r>
       <r>    19.6475    -0.0354    13.2586 </r>
       <r>    19.7494    -0.0641    13.2520 </r>
       <r>    19.8512    -0.0176    13.2502 </r>
       <r>    19.9530    -0.0023    13.2500 </r>
       <r>    20.0549    -0.0002    13.2500 </r>
       <r>    20.1567    -0.0003    13.2500 </r>
       <r>    20.2586    -0.0036    13.2496 </r>
       <r>    20.3604    -0.0259    13.2470 </r>
       <r>    20.4623    -0.0888    13.2379 </r>
       <r>    20.5641    -0.0458    13.2333 </r>
       <r>    20.6659     0.5879    13.2931 </r>
       <r>    20.7678     1.8016    13.4766 </r>
       <r>    20.8696     2.2872    13.7096 </r>
       <r>    20.9715     1.3575    13.8478 </r>
       <r>    21.0733     0.3703    13.8855 </r>
       <r>    21.1752     0.6080    13.9474 </r>
       <r>    21.2770     1.3900    14.0890 </r>
       <r>    21.3788     1.2667    14.2180 </r>
       <r>    21.4807     0.4337    14.2622 </r>
       <r>    21.5825    -0.0356    14.2586 </r>
       <r>    21.6844    -0.0640    14.2520 </r>
       <r>    21.7862    -0.0176    14.2502 </r>
       <r>    21.8881    -0.0022    14.2500 </r>
       <r>    21.9899    -0.0002    14.2500 </r>
       <r>    22.0917    -0.0000    14.2500 </r>
       <r>    22.1936    -0.0000    14.2500 </r>
       <r>    22.2954    -0.0000    14.2500 </r>
       <r>    22.3973    -0.0000    14.2500 </r>
       <r>    22.4991    -0.0000    14.2500 </r>
       <r>    22.6009    -0.0008    14.2499 </r>
       <r>    22.7028    -0.0083    14.2491 </r>
       <r>    22.8046    -0.0423    14.2448 </r>
       <r>    22.9065    -0.0760    14.2370 </r>
       <r>    23.0083     0.1704    14.2544 </r>
       <r>    23.1102     0.9509    14.3512 </r>
       <r>    23.2120     1.5290    14.5069 </r>
       <r>    23.3138     1.0534    14.6142 </r>
       <r>    23.4157     0.2362    14.6383 </r>
       <r>    23.5175    -0.0703    14.6311 </r>
       <r>    23.6194    -0.0485    14.6262 </r>
       <r>    23.7212    -0.0104    14.6251 </r>
       <r>    23.8231    -0.0011    14.6250 </r>
       <r>    23.9249    -0.0001    14.6250 </r>
       <r>    24.0267    -0.0000    14.6250 </r>
       <r>    24.1286    -0.0000    14.6250 </r>
       <r>    24.2304    -0.0000    14.6250 </r>
       <r>    24.3323    -0.0000    14.6250 </r>
       <r>    24.4341    -0.0000    14.6250 </r>
       <r>    24.5360    -0.0000    14.6250 </r>
       <r>    24.6378    -0.0000    14.6250 </r>
       <r>    24.7396    -0.0003    14.6250 </r>
       <r>    24.8415    -0.0041    14.6245 </r>
       <r>    24.9433    -0.0269    14.6218 </r>
       <r>    25.0452    -0.0752    14.6141 </r>
       <r>    25.1470     0.0306    14.6173 </r>
       <r>    25.2489     0.6553    14.6840 </r>
       <r>    25.3507     1.4394    14.8306 </r>
       <r>    25.4525     1.3111    14.9641 </r>
       <r>    25.5544     0.4668    15.0117 </r>
       <r>    25.6562    -0.0350    15.0081 </r>
       <r>    25.7581    -0.1051    14.9974 </r>
       <r>    25.8599    -0.0964    14.9876 </r>
       <r>    25.9618     0.1355    15.0014 </r>
       <r>    26.0636     0.8934    15.0924 </r>
       <r>    26.1654     1.5219    15.2473 </r>
       <r>    26.2673     1.1076    15.3602 </r>
       <r>    26.3691     0.2734    15.3880 </r>
       <r>    26.4710    -0.0851    15.3793 </r>
       <r>    26.5728    -0.1194    15.3672 </r>
       <r>    26.6747    -0.0337    15.3637 </r>
       <r>    26.7765     0.4883    15.4135 </r>
       <r>    26.8783     1.3294    15.5489 </r>
       <r>    26.9802     1.4262    15.6941 </r>
       <r>    27.0820     0.6312    15.7584 </r>
       <r>    27.1839     0.0218    15.7606 </r>
       <r>    27.2857    -0.0752    15.7530 </r>
       <r>    27.3876    -0.0339    15.7495 </r>
       <r>    27.4894    -0.0391    15.7455 </r>
       <r>    27.5912    -0.0429    15.7412 </r>
       <r>    27.6931     0.1910    15.7606 </r>
       <r>    27.7949     0.7476    15.8367 </r>
       <r>    27.8968     1.0128    15.9399 </r>
       <r>    27.9986     0.5860    15.9996 </r>
       <r>    28.1005     0.0868    16.0084 </r>
       <r>    28.2023    -0.0519    16.0031 </r>
       <r>    28.3041    -0.0255    16.0005 </r>
       <r>    28.4060    -0.0047    16.0000 </r>
       <r>    28.5078    -0.0004    16.0000 </r>
       <r>    28.6097    -0.0000    16.0000 </r>
       <r>    28.7115    -0.0000    16.0000 </r>
       <r>    28.8134    -0.0000    16.0000 </r>
       <r>    28.9152    -0.0000    16.0000 </r>
       <r>    29.0170    -0.0000    16.0000 </r>
       <r>    29.1189    -0.0000    16.0000 </r>
       <r>    29.2207     0.0000    16.0000 </r>
       <r>    29.3226     0.0000    16.0000 </r>
       <r>    29.4244     0.0000    16.0000 </r>
       <r>    29.5263     0.0000    16.0000 </r>
       <r>    29.6281     0.0000    16.0000 </r>
       <r>    29.7299     0.0000    16.0000 </r>
       <r>    29.8318     0.0000    16.0000 </r>
      </set>
      <set comment="spin 2">
       <r>    -0.7210     0.0000     0.0000 </r>
       <r>    -0.6192     0.0000     0.0000 </r>
       <r>    -0.5174     0.0000     0.0000 </r>
       <r>    -0.4155     0.0000     0.0000 </r>
       <r>    -0.3137    -0.0000    -0.0000 </r>
       <r>    -0.2118    -0.0000    -0.0000 </r>
       <r>    -0.1100    -0.0000    -0.0000 </r>
       <r>    -0.0081    -0.0000    -0.0000 </r>
       <r>     0.0937    -0.0000    -0.0000 </r>
       <r>     0.1955    -0.0000    -0.0000 </r>
       <r>     0.2974    -0.0000    -0.0000 </r>
       <r>     0.3992    -0.0000    -0.0000 </r>
       <r>     0.5011    -0.0000    -0.0000 </r>
       <r>     0.6029    -0.0000    -0.0000 </r>
       <r>     0.7048    -0.0001    -0.0000 </r>
       <r>     0.8066    -0.0016    -0.0002 </r>
       <r>     0.9084    -0.0098    -0.0012 </r>
       <r>     1.0103    -0.0256    -0.0038 </r>
       <r>     1.1121     0.0170    -0.0020 </r>
       <r>     1.2140     0.2360     0.0220 </r>
       <r>     1.3158     0.4883     0.0717 </r>
       <r>     1.4177     0.4232     0.1148 </r>
       <r>     1.5195     0.1404     0.1291 </r>
       <r>     1.6213    -0.0129     0.1278 </r>
       <r>     1.7232    -0.0210     0.1257 </r>
       <r>     1.8250    -0.0057     0.1251 </r>
       <r>     1.9269    -0.0007     0.1250 </r>
       <r>     2.0287    -0.0000     0.1250 </r>
       <r>     2.1306    -0.0000     0.1250 </r>
       <r>     2.2324    -0.0000     0.1250 </r>
       <r>     2.3342    -0.0000     0.1250 </r>
       <r>     2.4361    -0.0000     0.1250 </r>
       <r>     2.5379    -0.0000     0.1250 </r>
       <r>     2.6398    -0.0000     0.1250 </r>
       <r>     2.7416    -0.0000     0.1250 </r>
       <r>     2.8435    -0.0001     0.1250 </r>
       <r>     2.9453    -0.0019     0.1248 </r>
       <r>     3.0471    -0.0155     0.1232 </r>
       <r>     3.1490    -0.0603     0.1171 </r>
       <r>     3.2508    -0.0473     0.1123 </r>
       <r>     3.3527     0.3816     0.1511 </r>
       <r>     3.4545     1.2305     0.2764 </r>
       <r>     3.5564     1.4844     0.4276 </r>
       <r>     3.6582     0.7553     0.5045 </r>
       <r>     3.7600     0.0707     0.5117 </r>
       <r>     3.8619    -0.0777     0.5038 </r>
       <r>     3.9637    -0.0320     0.5006 </r>
       <r>     4.0656    -0.0081     0.4997 </r>
       <r>     4.1674    -0.0211     0.4976 </r>
       <r>     4.2693    -0.0687     0.4906 </r>
       <r>     4.3711    -0.0156     0.4890 </r>
       <r>     4.4729     0.5126     0.5412 </r>
       <r>     4.5748     1.3473     0.6784 </r>
       <r>     4.6766     1.4080     0.8218 </r>
       <r>     4.7785     0.5807     0.8809 </r>
       <r>     4.8803    -0.0622     0.8746 </r>
       <r>     4.9822    -0.0629     0.8682 </r>
       <r>     5.0840     0.5559     0.9248 </r>
       <r>     5.1858     1.3422     1.0615 </r>
       <r>     5.2877     1.5067     1.2150 </r>
       <r>     5.3895     1.5189     1.3697 </r>
       <r>     5.4914     2.0091     1.5743 </r>
       <r>     5.5932     2.1202     1.7902 </r>
       <r>     5.6950     1.3390     1.9266 </r>
       <r>     5.7969     0.5024     1.9777 </r>
       <r>     5.8987     0.6995     2.0490 </r>
       <r>     6.0006     2.2508     2.2782 </r>
       <r>     6.1024     3.9170     2.6771 </r>
       <r>     6.2043     4.2264     3.1075 </r>
       <r>     6.3061     3.4109     3.4549 </r>
       <r>     6.4079     2.0706     3.6658 </r>
       <r>     6.5098     1.0867     3.7765 </r>
       <r>     6.6116     1.8416     3.9640 </r>
       <r>     6.7135     3.2297     4.2929 </r>
       <r>     6.8153     2.8896     4.5872 </r>
       <r>     6.9172     1.7531     4.7658 </r>
       <r>     7.0190     2.3890     5.0091 </r>
       <r>     7.1208     3.8445     5.4006 </r>
       <r>     7.2227     3.3599     5.7428 </r>
       <r>     7.3245     1.5037     5.8959 </r>
       <r>     7.4264     0.4479     5.9415 </r>
       <r>     7.5282     0.2322     5.9652 </r>
       <r>     7.6301     0.1153     5.9769 </r>
       <r>     7.7319     0.6808     6.0463 </r>
       <r>     7.8337     2.2434     6.2747 </r>
       <r>     7.9356     3.1662     6.5972 </r>
       <r>     8.0374     2.7375     6.8760 </r>
       <r>     8.1393     2.9470     7.1761 </r>
       <r>     8.2411     4.2094     7.6048 </r>
       <r>     8.3430     4.6465     8.0780 </r>
       <r>     8.4448     4.2669     8.5126 </r>
       <r>     8.5466     3.9930     8.9192 </r>
       <r>     8.6485     3.9698     9.3235 </r>
       <r>     8.7503     4.4602     9.7778 </r>
       <r>     8.8522     4.2540    10.2110 </r>
       <r>     8.9540     2.4910    10.4647 </r>
       <r>     9.0559     0.6237    10.5282 </r>
       <r>     9.1577    -0.1530    10.5126 </r>
       <r>     9.2595    -0.2041    10.4919 </r>
       <r>     9.3614     0.0700    10.4990 </r>
       <r>     9.4632     0.8254    10.5830 </r>
       <r>     9.5651     1.5079    10.7366 </r>
       <r>     9.6669     1.1655    10.8553 </r>
       <r>     9.7688     0.3225    10.8881 </r>
       <r>     9.8706    -0.0583    10.8822 </r>
       <r>     9.9724    -0.0558    10.8765 </r>
       <r>    10.0743    -0.0133    10.8752 </r>
       <r>    10.1761    -0.0015    10.8750 </r>
       <r>    10.2780    -0.0001    10.8750 </r>
       <r>    10.3798    -0.0000    10.8750 </r>
       <r>    10.4817    -0.0000    10.8750 </r>
       <r>    10.5835    -0.0000    10.8750 </r>
       <r>    10.6853    -0.0000    10.8750 </r>
       <r>    10.7872    -0.0000    10.8750 </r>
       <r>    10.8890    -0.0003    10.8750 </r>
       <r>    10.9909    -0.0036    10.8746 </r>
       <r>    11.0927    -0.0246    10.8721 </r>
       <r>    11.1946    -0.0732    10.8646 </r>
       <r>    11.2964     0.0129    10.8659 </r>
       <r>    11.3982     0.6051    10.9276 </r>
       <r>    11.5001     1.4094    11.0711 </r>
       <r>    11.6019     1.3355    11.2071 </r>
       <r>    11.7038     0.4572    11.2537 </r>
       <r>    11.8056    -0.0933    11.2442 </r>
       <r>    11.9075     0.2005    11.2646 </r>
       <r>    12.0093     1.2199    11.3888 </r>
       <r>    12.1111     1.9492    11.5873 </r>
       <r>    12.2130     1.3948    11.7294 </r>
       <r>    12.3148     0.3613    11.7662 </r>
       <r>    12.4167    -0.0747    11.7586 </r>
       <r>    12.5185    -0.0664    11.7518 </r>
       <r>    12.6204    -0.0158    11.7502 </r>
       <r>    12.7222    -0.0019    11.7500 </r>
       <r>    12.8240    -0.0001    11.7500 </r>
       <r>    12.9259    -0.0000    11.7500 </r>
       <r>    13.0277    -0.0000    11.7500 </r>
       <r>    13.1296    -0.0000    11.7500 </r>
       <r>    13.2314    -0.0000    11.7500 </r>
       <r>    13.3333    -0.0000    11.7500 </r>
       <r>    13.4351     0.0000    11.7500 </r>
       <r>    13.5369     0.0000    11.7500 </r>
       <r>    13.6388     0.0000    11.7500 </r>
       <r>    13.7406     0.0000    11.7500 </r>
       <r>    13.8425     0.0000    11.7500 </r>
       <r>    13.9443     0.0000    11.7500 </r>
       <r>    14.0462    -0.0000    11.7500 </r>
       <r>    14.1480    -0.0000    11.7500 </r>
       <r>    14.2498    -0.0000    11.7500 </r>
       <r>    14.3517    -0.0000    11.7500 </r>
       <r>    14.4535    -0.0000    11.7500 </r>
       <r>    14.5554    -0.0000    11.7500 </r>
       <r>    14.6572    -0.0000    11.7500 </r>
       <r>    14.7591    -0.0000    11.7500 </r>
       <r>    14.8609    -0.0000    11.7500 </r>
       <r>    14.9627    -0.0000    11.7500 </r>
       <r>    15.0646    -0.0001    11.7500 </r>
       <r>    15.1664    -0.0012    11.7499 </r>
       <r>    15.2683    -0.0098    11.7489 </r>
       <r>    15.3701    -0.0400    11.7448 </r>
       <r>    15.4720    -0.0451    11.7402 </r>
       <r>    15.5738     0.1892    11.7595 </r>
       <r>    15.6756     0.7310    11.8339 </r>
       <r>    15.7775     1.2265    11.9588 </r>
       <r>    15.8793     1.5686    12.1186 </r>
       <r>    15.9812     1.5865    12.2802 </r>
       <r>    16.0830     0.9091    12.3727 </r>
       <r>    16.1849     0.1542    12.3884 </r>
       <r>    16.2867    -0.0794    12.3804 </r>
       <r>    16.3885    -0.0433    12.3760 </r>
       <r>    16.4904    -0.0085    12.3751 </r>
       <r>    16.5922    -0.0008    12.3750 </r>
       <r>    16.6941    -0.0000    12.3750 </r>
       <r>    16.7959    -0.0000    12.3750 </r>
       <r>    16.8978    -0.0001    12.3750 </r>
       <r>    16.9996    -0.0017    12.3748 </r>
       <r>    17.1014    -0.0128    12.3735 </r>
       <r>    17.2033    -0.0444    12.3690 </r>
       <r>    17.3051    -0.0170    12.3673 </r>
       <r>    17.4070     0.3170    12.3995 </r>
       <r>    17.5088     0.8745    12.4886 </r>
       <r>    17.6107     0.9374    12.5841 </r>
       <r>    17.7125     0.4113    12.6260 </r>
       <r>    17.8143     0.1275    12.6390 </r>
       <r>    17.9162     0.3408    12.6737 </r>
       <r>    18.0180     0.4832    12.7229 </r>
       <r>    18.1199     0.2633    12.7497 </r>
       <r>    18.2217     0.0092    12.7506 </r>
       <r>    18.3236    -0.0215    12.7484 </r>
       <r>    18.4254     0.1906    12.7678 </r>
       <r>    18.5272     0.4685    12.8156 </r>
       <r>    18.6291     0.4468    12.8611 </r>
       <r>    18.7309     0.1540    12.8767 </r>
       <r>    18.8328    -0.0678    12.8698 </r>
       <r>    18.9346    -0.0634    12.8634 </r>
       <r>    19.0365     0.4069    12.9048 </r>
       <r>    19.1383     1.2616    13.0333 </r>
       <r>    19.2401     1.4687    13.1829 </r>
       <r>    19.3420     0.7166    13.2559 </r>
       <r>    19.4438     0.0544    13.2614 </r>
       <r>    19.5457    -0.0769    13.2536 </r>
       <r>    19.6475    -0.0299    13.2505 </r>
       <r>    19.7494    -0.0048    13.2500 </r>
       <r>    19.8512    -0.0004    13.2500 </r>
       <r>    19.9530    -0.0000    13.2500 </r>
       <r>    20.0549    -0.0005    13.2499 </r>
       <r>    20.1567    -0.0060    13.2493 </r>
       <r>    20.2586    -0.0370    13.2456 </r>
       <r>    20.3604    -0.1007    13.2353 </r>
       <r>    20.4623     0.0306    13.2384 </r>
       <r>    20.5641     0.8420    13.3242 </r>
       <r>    20.6659     2.0203    13.5299 </r>
       <r>    20.7678     2.1715    13.7511 </r>
       <r>    20.8696     1.0771    13.8608 </r>
       <r>    20.9715     0.2838    13.8897 </r>
       <r>    21.0733     0.7333    13.9644 </r>
       <r>    21.1752     1.4545    14.1125 </r>
       <r>    21.2770     1.1563    14.2302 </r>
       <r>    21.3788     0.3230    14.2631 </r>
       <r>    21.4807    -0.0581    14.2572 </r>
       <r>    21.5825    -0.0560    14.2515 </r>
       <r>    21.6844    -0.0134    14.2502 </r>
       <r>    21.7862    -0.0016    14.2500 </r>
       <r>    21.8881    -0.0001    14.2500 </r>
       <r>    21.9899    -0.0000    14.2500 </r>
       <r>    22.0917    -0.0000    14.2500 </r>
       <r>    22.1936    -0.0000    14.2500 </r>
       <r>    22.2954    -0.0000    14.2500 </r>
       <r>    22.3973    -0.0000    14.2500 </r>
       <r>    22.4991    -0.0006    14.2499 </r>
       <r>    22.6009    -0.0061    14.2493 </r>
       <r>    22.7028    -0.0350    14.2457 </r>
       <r>    22.8046    -0.0782    14.2378 </r>
       <r>    22.9065     0.0998    14.2480 </r>
       <r>    23.0083     0.8189    14.3314 </r>
       <r>    23.1102     1.5051    14.4846 </r>
       <r>    23.2120     1.1756    14.6044 </r>
       <r>    23.3138     0.3312    14.6381 </r>
       <r>    23.4157    -0.0568    14.6323 </r>
       <r>    23.5175    -0.0565    14.6266 </r>
       <r>    23.6194    -0.0137    14.6252 </r>
       <r>    23.7212    -0.0016    14.6250 </r>
       <r>    23.8231    -0.0001    14.6250 </r>
       <r>    23.9249    -0.0000    14.6250 </r>
       <r>    24.0267    -0.0000    14.6250 </r>
       <r>    24.1286    -0.0000    14.6250 </r>
       <r>    24.2304    -0.0000    14.6250 </r>
       <r>    24.3323    -0.0000    14.6250 </r>
       <r>    24.4341    -0.0000    14.6250 </r>
       <r>    24.5360    -0.0000    14.6250 </r>
       <r>    24.6378    -0.0002    14.6250 </r>
       <r>    24.7396    -0.0023    14.6247 </r>
       <r>    24.8415    -0.0180    14.6229 </r>
       <r>    24.9433    -0.0648    14.6163 </r>
       <r>    25.0452    -0.0326    14.6130 </r>
       <r>    25.1470     0.4478    14.6586 </r>
       <r>    25.2489     1.2940    14.7904 </r>
       <r>    25.3507     1.4506    14.9381 </r>
       <r>    25.4525     0.6768    15.0070 </r>
       <r>    25.5544     0.0330    15.0104 </r>
       <r>    25.6562    -0.1100    14.9992 </r>
       <r>    25.7581    -0.1061    14.9884 </r>
       <r>    25.8599     0.0871    14.9973 </r>
       <r>    25.9618     0.8009    15.0788 </r>
       <r>    26.0636     1.5000    15.2316 </r>
       <r>    26.1654     1.1911    15.3529 </r>
       <r>    26.2673     0.3447    15.3880 </r>
       <r>    26.3691    -0.0578    15.3821 </r>
       <r>    26.4710    -0.0810    15.3739 </r>
       <r>    26.5728    -0.0862    15.3651 </r>
       <r>    26.6747     0.0023    15.3653 </r>
       <r>    26.7765     0.5778    15.4242 </r>
       <r>    26.8783     1.3939    15.5661 </r>
       <r>    26.9802     1.3681    15.7055 </r>
       <r>    27.0820     0.5403    15.7605 </r>
       <r>    27.1839    -0.0078    15.7597 </r>
       <r>    27.2857    -0.0726    15.7523 </r>
       <r>    27.3876    -0.0384    15.7484 </r>
       <r>    27.4894    -0.0520    15.7431 </r>
       <r>    27.5912     0.0092    15.7440 </r>
       <r>    27.6931     0.4058    15.7854 </r>
       <r>    27.7949     0.9421    15.8813 </r>
       <r>    27.8968     0.8974    15.9727 </r>
       <r>    27.9986     0.3404    16.0074 </r>
       <r>    28.1005    -0.0108    16.0063 </r>
       <r>    28.2023    -0.0457    16.0016 </r>
       <r>    28.3041    -0.0137    16.0002 </r>
       <r>    28.4060    -0.0019    16.0000 </r>
       <r>    28.5078    -0.0001    16.0000 </r>
       <r>    28.6097    -0.0000    16.0000 </r>
       <r>    28.7115    -0.0000    16.0000 </r>
       <r>    28.8134    -0.0000    16.0000 </r>
       <r>    28.9152    -0.0000    16.0000 </r>
       <r>    29.0170    -0.0000    16.0000 </r>
       <r>    29.1189     0.0000    16.0000 </r>
       <r>    29.2207     0.0000    16.0000 </r>
       <r>    29.3226     0.0000    16.0000 </r>
       <r>    29.4244     0.0000    16.0000 </r>
       <r>    29.5263     0.0000    16.0000 </r>
       <r>    29.6281     0.0000    16.0000 </r>
       <r>    29.7299     0.0000    16.0000 </r>
       <r>    29.8318     0.0000    16.0000 </r>
      </set>
     </set>
    </array>
   </total>
  </dos>
 </calculation>
 <structure name="finalpos" >
  <crystal>
   <varray name="basis" >
    <v>       2.79373909       0.00000000       0.00000000 </v>
    <v>       0.00000000       2.79373909       0.00000000 </v>
    <v>      -0.00000000       0.00000000       2.79373909 </v>
   </varray>
   <i name="volume">     21.80507250 </i>
   <varray name="rec_basis" >
    <v>       0.35794323      -0.00000000       0.00000000 </v>
    <v>      -0.00000000       0.35794323      -0.00000000 </v>
    <v>      -0.00000000      -0.00000000       0.35794323 </v>
   </varray>
  </crystal>
  <varray name="positions" >
   <v>      -0.00000000      -0.00000000      -0.00000000 </v>
   <v>       0.50000000       0.50000000       0.50000000 </v>
  </varray>
 </structure>
</modeling>
