automatically generated by pyflamestk   
           1
     2.908230    0.000000    0.000000
     0.000000    2.908230    0.000000
    -0.000000    0.000000    2.908230
   Ni
   2
Direct configuration=     1
   0.00000000  0.00000000  0.00000000
   0.50000000  0.50000000  0.50000000
automatically generated by pyflamestk   
           1
     2.795708    0.000000    0.000000
     0.000000    2.795708    0.000000
    -0.000000    0.000000    2.795708
   Ni
   2
Direct configuration=     2
  -0.00000000 -0.00000000 -0.00000000
   0.50000000  0.50000000  0.50000000
automatically generated by pyflamestk   
           1
     2.793434    0.000000    0.000000
     0.000000    2.793434    0.000000
    -0.000000    0.000000    2.793434
   Ni
   2
Direct configuration=     3
  -0.00000000 -0.00000000 -0.00000000
   0.50000000  0.50000000  0.50000000
automatically generated by pyflamestk   
           1
     2.793600    0.000000    0.000000
     0.000000    2.793600    0.000000
    -0.000000    0.000000    2.793600
   Ni
   2
Direct configuration=     4
  -0.00000000 -0.00000000 -0.00000000
   0.50000000  0.50000000  0.50000000
automatically generated by pyflamestk   
           1
     2.794654    0.000000    0.000000
     0.000000    2.794654    0.000000
    -0.000000    0.000000    2.794654
   Ni
   2
Direct configuration=     5
  -0.00000000 -0.00000000 -0.00000000
   0.50000000  0.50000000  0.50000000
automatically generated by pyflamestk   
           1
     2.793739    0.000000    0.000000
     0.000000    2.793739    0.000000
    -0.000000    0.000000    2.793739
   Ni
   2
Direct configuration=     6
  -0.00000000 -0.00000000 -0.00000000
   0.50000000  0.50000000  0.50000000
automatically generated by pyflamestk   
           1
     2.793739    0.000000    0.000000
     0.000000    2.793739    0.000000
    -0.000000    0.000000    2.793739
   Ni
   2
Direct configuration=     7
  -0.00000000 -0.00000000 -0.00000000
   0.50000000  0.50000000  0.50000000
