# ['Ni']

107 atoms
1 atom types

    0.0000     9.7769 xlo xhi
    0.0000     9.7769 ylo yhi
    0.0000     9.7769 zlo zhi

    0.0000    -0.0000    -0.0000 xy xz yz

Atoms

1 1     1.6295     1.6295     0.0000
2 1     1.6295     0.0000     1.6295
3 1     0.0000     1.6295     1.6295
4 1     0.0000     0.0000     3.2590
5 1     1.6295     1.6295     3.2590
6 1     1.6295     0.0000     4.8885
7 1     0.0000     1.6295     4.8885
8 1     0.0000     0.0000     6.5180
9 1     1.6295     1.6295     6.5180
10 1     1.6295     0.0000     8.1474
11 1     0.0000     1.6295     8.1474
12 1     0.0000     3.2590     0.0000
13 1     1.6295     4.8885     0.0000
14 1     1.6295     3.2590     1.6295
15 1     0.0000     4.8885     1.6295
16 1     0.0000     3.2590     3.2590
17 1     1.6295     4.8885     3.2590
18 1     1.6295     3.2590     4.8885
19 1     0.0000     4.8885     4.8885
20 1     0.0000     3.2590     6.5180
21 1     1.6295     4.8885     6.5180
22 1     1.6295     3.2590     8.1474
23 1     0.0000     4.8885     8.1474
24 1     0.0000     6.5180     0.0000
25 1     1.6295     8.1474     0.0000
26 1     1.6295     6.5180     1.6295
27 1     0.0000     8.1474     1.6295
28 1     0.0000     6.5180     3.2590
29 1     1.6295     8.1474     3.2590
30 1     1.6295     6.5180     4.8885
31 1     0.0000     8.1474     4.8885
32 1     0.0000     6.5180     6.5180
33 1     1.6295     8.1474     6.5180
34 1     1.6295     6.5180     8.1474
35 1     0.0000     8.1474     8.1474
36 1     3.2590     0.0000     0.0000
37 1     4.8885     1.6295     0.0000
38 1     4.8885     0.0000     1.6295
39 1     3.2590     1.6295     1.6295
40 1     3.2590     0.0000     3.2590
41 1     4.8885     1.6295     3.2590
42 1     4.8885     0.0000     4.8885
43 1     3.2590     1.6295     4.8885
44 1     3.2590     0.0000     6.5180
45 1     4.8885     1.6295     6.5180
46 1     4.8885     0.0000     8.1474
47 1     3.2590     1.6295     8.1474
48 1     3.2590     3.2590     0.0000
49 1     4.8885     4.8885     0.0000
50 1     4.8885     3.2590     1.6295
51 1     3.2590     4.8885     1.6295
52 1     3.2590     3.2590     3.2590
53 1     4.8885     4.8885     3.2590
54 1     4.8885     3.2590     4.8885
55 1     3.2590     4.8885     4.8885
56 1     3.2590     3.2590     6.5180
57 1     4.8885     4.8885     6.5180
58 1     4.8885     3.2590     8.1474
59 1     3.2590     4.8885     8.1474
60 1     3.2590     6.5180     0.0000
61 1     4.8885     8.1474     0.0000
62 1     4.8885     6.5180     1.6295
63 1     3.2590     8.1474     1.6295
64 1     3.2590     6.5180     3.2590
65 1     4.8885     8.1474     3.2590
66 1     4.8885     6.5180     4.8885
67 1     3.2590     8.1474     4.8885
68 1     3.2590     6.5180     6.5180
69 1     4.8885     8.1474     6.5180
70 1     4.8885     6.5180     8.1474
71 1     3.2590     8.1474     8.1474
72 1     6.5180     0.0000     0.0000
73 1     8.1474     1.6295     0.0000
74 1     8.1474     0.0000     1.6295
75 1     6.5180     1.6295     1.6295
76 1     6.5180     0.0000     3.2590
77 1     8.1474     1.6295     3.2590
78 1     8.1474     0.0000     4.8885
79 1     6.5180     1.6295     4.8885
80 1     6.5180     0.0000     6.5180
81 1     8.1474     1.6295     6.5180
82 1     8.1474     0.0000     8.1474
83 1     6.5180     1.6295     8.1474
84 1     6.5180     3.2590     0.0000
85 1     8.1474     4.8885     0.0000
86 1     8.1474     3.2590     1.6295
87 1     6.5180     4.8885     1.6295
88 1     6.5180     3.2590     3.2590
89 1     8.1474     4.8885     3.2590
90 1     8.1474     3.2590     4.8885
91 1     6.5180     4.8885     4.8885
92 1     6.5180     3.2590     6.5180
93 1     8.1474     4.8885     6.5180
94 1     8.1474     3.2590     8.1474
95 1     6.5180     4.8885     8.1474
96 1     6.5180     6.5180     0.0000
97 1     8.1474     8.1474     0.0000
98 1     8.1474     6.5180     1.6295
99 1     6.5180     8.1474     1.6295
100 1     6.5180     6.5180     3.2590
101 1     8.1474     8.1474     3.2590
102 1     8.1474     6.5180     4.8885
103 1     6.5180     8.1474     4.8885
104 1     6.5180     6.5180     6.5180
105 1     8.1474     8.1474     6.5180
106 1     8.1474     6.5180     8.1474
107 1     6.5180     8.1474     8.1474
