# ['Ni']

18 atoms
1 atom types

    0.0000     2.5353 xlo xhi
    0.0000     4.3913 ylo yhi
    0.0000    37.2553 zlo zhi

    0.0000     0.0000    -0.0004 xy xz yz

Atoms

1 1     0.0000     0.0000     0.0000
2 1     1.2677     0.7319     2.0698
3 1     0.0000     1.4638     4.1395
4 1     1.2677     2.1957     0.0000
5 1     0.0000     2.9275     2.0698
6 1     1.2677     3.6594     4.1395
7 1     0.0000     0.0000     6.2092
8 1     1.2677     0.7319     8.2790
9 1     0.0000     1.4638    10.3487
10 1     1.2677     2.1957     6.2092
11 1     0.0000     2.9275     8.2790
12 1     1.2677     3.6594    10.3487
13 1     0.0000     0.0000    12.4184
14 1     1.2677     0.7319    14.4882
15 1     0.0000     1.4638    16.5579
16 1     1.2677     2.1957    12.4184
17 1     0.0000     2.9275    14.4882
18 1     1.2677     3.6594    16.5579
