<?xml version="1.0" encoding="ISO-8859-1"?>
<modeling>
 <generator>
  <i name="program" type="string">vasp </i>
  <i name="version" type="string">5.4.1  </i>
  <i name="subversion" type="string">24Jun15 (build Jun 05 2017 10:38:15) complex                          parallel </i>
  <i name="platform" type="string">IFC91_ompi </i>
  <i name="date" type="string">2017 10 17 </i>
  <i name="time" type="string">22:56:31 </i>
 </generator>
 <incar>
  <i type="string" name="SYSTEM"> automatically generated by pyflamestk</i>
  <i type="int" name="ISTART">     0</i>
  <i type="string" name="PREC">high                   ! avoid wrap aro</i>
  <i type="string" name="ALGO"> Normal                 ! blocked Davids</i>
  <i type="int" name="ISPIN">     1</i>
  <i type="int" name="ICHARG">     0</i>
  <i type="int" name="NELM">    40</i>
  <i name="EDIFF">      0.00000100</i>
  <i name="ENCUT">    625.00000000</i>
  <i type="logical" name="LREAL"> F  </i>
  <i type="int" name="ISMEAR">     0</i>
  <i name="SIGMA">      0.05000000</i>
  <i type="logical" name="LWAVE"> F  </i>
  <i type="logical" name="LCHARG"> F  </i>
  <i type="logical" name="LVTOT"> F  </i>
  <v type="int" name="KPOINT_BSE">    -1     0     0     0</v>
  <i type="int" name="NELM">    40</i>
 </incar>
 <kpoints>
  <generation param="Monkhorst-Pack">
   <v type="int" name="divisions">       4        4        4 </v>
   <v name="usershift">      0.00000000       0.00000000       0.00000000 </v>
   <v name="genvec1">      0.25000000      -0.00000000      -0.00000000 </v>
   <v name="genvec2">      0.00000000       0.25000000       0.00000000 </v>
   <v name="genvec3">      0.00000000       0.00000000       0.25000000 </v>
   <v name="shift">      0.50000000       0.50000000       0.50000000 </v>
  </generation>
  <varray name="kpointlist" >
   <v>       0.12500000       0.12500000       0.12500000 </v>
   <v>       0.37500000       0.12500000       0.12500000 </v>
   <v>      -0.37500000       0.12500000       0.12500000 </v>
   <v>      -0.12500000       0.12500000       0.12500000 </v>
   <v>       0.37500000       0.37500000       0.12500000 </v>
   <v>      -0.37500000       0.37500000       0.12500000 </v>
   <v>      -0.12500000       0.37500000       0.12500000 </v>
   <v>      -0.37500000      -0.37500000       0.12500000 </v>
   <v>       0.37500000       0.37500000       0.37500000 </v>
   <v>      -0.37500000       0.37500000       0.37500000 </v>
  </varray>
  <varray name="weights" >
   <v>       0.03125000 </v>
   <v>       0.09375000 </v>
   <v>       0.09375000 </v>
   <v>       0.09375000 </v>
   <v>       0.09375000 </v>
   <v>       0.18750000 </v>
   <v>       0.18750000 </v>
   <v>       0.09375000 </v>
   <v>       0.03125000 </v>
   <v>       0.09375000 </v>
  </varray>
 </kpoints>
 <parameters>
  <separator name="general" >
   <i type="string" name="SYSTEM">automatically generated by pyflamestk</i>
   <i type="logical" name="LCOMPAT"> F  </i>
  </separator>
  <separator name="electronic" >
   <i type="string" name="PREC">high</i>
   <i name="ENMAX">    625.00000000</i>
   <i name="ENAUG">    888.80400000</i>
   <i name="EDIFF">      0.00000100</i>
   <i type="int" name="IALGO">    38</i>
   <i type="int" name="IWAVPR">    10</i>
   <i type="int" name="NBANDS">    16</i>
   <i name="NELECT">      8.00000000</i>
   <i type="int" name="TURBO">     0</i>
   <i type="int" name="IRESTART">     0</i>
   <i type="int" name="NREBOOT">     0</i>
   <i type="int" name="NMIN">     0</i>
   <i name="EREF">      0.00000000</i>
   <separator name="electronic smearing" >
    <i type="int" name="ISMEAR">     0</i>
    <i name="SIGMA">      0.05000000</i>
    <i name="KSPACING">      0.50000000</i>
    <i type="logical" name="KGAMMA"> T  </i>
   </separator>
   <separator name="electronic projectors" >
    <i type="logical" name="LREAL"> F  </i>
    <v name="ROPT">      0.00000000      0.00000000</v>
    <i type="int" name="LMAXPAW">  -100</i>
    <i type="int" name="LMAXMIX">     2</i>
    <i type="logical" name="NLSPLINE"> F  </i>
   </separator>
   <separator name="electronic startup" >
    <i type="int" name="ISTART">     0</i>
    <i type="int" name="ICHARG">     0</i>
    <i type="int" name="INIWAV">     1</i>
   </separator>
   <separator name="electronic spin" >
    <i type="int" name="ISPIN">     1</i>
    <i type="logical" name="LNONCOLLINEAR"> F  </i>
    <v name="MAGMOM">      1.00000000      1.00000000</v>
    <i name="NUPDOWN">     -1.00000000</i>
    <i type="logical" name="LSORBIT"> F  </i>
    <v name="SAXIS">      0.00000000      0.00000000      1.00000000</v>
    <i type="logical" name="LSPIRAL"> F  </i>
    <v name="QSPIRAL">      0.00000000      0.00000000      0.00000000</v>
    <i type="logical" name="LZEROZ"> F  </i>
   </separator>
   <separator name="electronic exchange-correlation" >
    <i type="logical" name="LASPH"> F  </i>
    <i type="logical" name="LMETAGGA"> F  </i>
   </separator>
   <separator name="electronic convergence" >
    <i type="int" name="NELM">    40</i>
    <i type="int" name="NELMDL">    -5</i>
    <i type="int" name="NELMIN">     2</i>
    <i name="ENINI">    625.00000000</i>
    <separator name="electronic convergence detail" >
     <i type="logical" name="LDIAG"> T  </i>
     <i type="logical" name="LSUBROT"> F  </i>
     <i name="WEIMIN">      0.00000000</i>
     <i name="EBREAK">      0.00000002</i>
     <i name="DEPER">      0.30000000</i>
     <i type="int" name="NRMM">     4</i>
     <i name="TIME">      0.40000000</i>
    </separator>
   </separator>
   <separator name="electronic mixer" >
    <i name="AMIX">      0.40000000</i>
    <i name="BMIX">      1.00000000</i>
    <i name="AMIN">      0.10000000</i>
    <i name="AMIX_MAG">      1.60000000</i>
    <i name="BMIX_MAG">      1.00000000</i>
    <separator name="electronic mixer details" >
     <i type="int" name="IMIX">     4</i>
     <i type="logical" name="MIXFIRST"> F  </i>
     <i type="int" name="MAXMIX">   -45</i>
     <i name="WC">    100.00000000</i>
     <i type="int" name="INIMIX">     1</i>
     <i type="int" name="MIXPRE">     1</i>
     <i type="int" name="MREMOVE">     5</i>
    </separator>
   </separator>
   <separator name="electronic dipolcorrection" >
    <i type="logical" name="LDIPOL"> F  </i>
    <i type="logical" name="LMONO"> F  </i>
    <i type="int" name="IDIPOL">     0</i>
    <i name="EPSILON">      1.00000000</i>
    <v name="DIPOL">   -100.00000000   -100.00000000   -100.00000000</v>
    <i name="EFIELD">      0.00000000</i>
   </separator>
  </separator>
  <separator name="grids" >
   <i type="int" name="NGX">    28</i>
   <i type="int" name="NGY">    28</i>
   <i type="int" name="NGZ">    28</i>
   <i type="int" name="NGXF">    40</i>
   <i type="int" name="NGYF">    40</i>
   <i type="int" name="NGZF">    40</i>
   <i type="logical" name="ADDGRID"> F  </i>
  </separator>
  <separator name="ionic" >
   <i type="int" name="NSW">     0</i>
   <i type="int" name="IBRION">    -1</i>
   <i type="int" name="ISIF">     2</i>
   <i name="PSTRESS">      0.00000000</i>
   <i name="EDIFFG">      0.00001000</i>
   <i type="int" name="NFREE">     0</i>
   <i name="POTIM">      0.50000000</i>
   <i name="SMASS">     -3.00000000</i>
   <i name="SCALEE">      1.00000000</i>
  </separator>
  <separator name="ionic md" >
   <i name="TEBEG">      0.00010000</i>
   <i name="TEEND">      0.00010000</i>
   <i type="int" name="NBLOCK">     1</i>
   <i type="int" name="KBLOCK">     1</i>
   <i type="int" name="NPACO">   256</i>
   <i name="APACO">     16.00000000</i>
  </separator>
  <separator name="symmetry" >
   <i type="int" name="ISYM">     2</i>
   <i name="SYMPREC">      0.00001000</i>
  </separator>
  <separator name="dos" >
   <i type="logical" name="LORBIT"> F  </i>
   <v name="RWIGS">     -1.00000000     -1.00000000</v>
   <i type="int" name="NEDOS">   301</i>
   <i name="EMIN">     10.00000000</i>
   <i name="EMAX">    -10.00000000</i>
   <i name="EFERMI">      0.00000000</i>
  </separator>
  <separator name="writing" >
   <i type="int" name="NWRITE">     2</i>
   <i type="logical" name="LWAVE"> F  </i>
   <i type="logical" name="LCHARG"> F  </i>
   <i type="logical" name="LPARD"> F  </i>
   <i type="logical" name="LVTOT"> F  </i>
   <i type="logical" name="LVHAR"> F  </i>
   <i type="logical" name="LELF"> F  </i>
   <i type="logical" name="LOPTICS"> F  </i>
   <v name="STM">      0.00000000      0.00000000      0.00000000      0.00000000      0.00000000      0.00000000      0.00000000</v>
  </separator>
  <separator name="performance" >
   <i type="int" name="NPAR">    16</i>
   <i type="int" name="NSIM">     4</i>
   <i type="int" name="NBLK">    -1</i>
   <i type="logical" name="LPLANE"> T  </i>
   <i type="logical" name="LSCALAPACK"> T  </i>
   <i type="logical" name="LSCAAWARE"> F  </i>
   <i type="logical" name="LSCALU"> F  </i>
   <i type="logical" name="LASYNC"> F  </i>
   <i type="logical" name="LORBITALREAL"> F  </i>
  </separator>
  <separator name="miscellaneous" >
   <i type="int" name="IDIOT">     3</i>
   <i type="logical" name="LMUSIC"> F  </i>
   <v name="POMASS">     16.00000000     24.30500000</v>
   <v name="DARWINR">      0.00000000      0.00000000</v>
   <v name="DARWINV">      1.00000000      1.00000000</v>
   <i type="logical" name="LCORR"> T  </i>
  </separator>
  <i type="logical" name="GGA_COMPAT"> T  </i>
  <i type="logical" name="LBERRY"> F  </i>
  <i type="int" name="ICORELEVEL">     0</i>
  <i type="logical" name="LDAU"> F  </i>
  <i type="int" name="I_CONSTRAINED_M">     0</i>
  <separator name="electronic exchange-correlation" >
   <i type="string" name="GGA">--</i>
   <i type="int" name="VOSKOWN">     0</i>
   <i type="logical" name="LHFCALC"> F  </i>
   <i type="string" name="PRECFOCK"></i>
   <i type="logical" name="LSYMGRAD"> F  </i>
   <i type="logical" name="LHFONE"> F  </i>
   <i type="logical" name="LRHFCALC"> F  </i>
   <i type="logical" name="LTHOMAS"> F  </i>
   <i type="logical" name="LMODELHF"> F  </i>
   <i name="ENCUT4O">     -1.00000000</i>
   <i type="int" name="EXXOEP">     0</i>
   <i type="int" name="FOURORBIT">     0</i>
   <i name="AEXX">      0.00000000</i>
   <i name="HFALPHA">      0.00000000</i>
   <i name="MCALPHA">      0.00000000</i>
   <i name="ALDAX">      1.00000000</i>
   <i name="AGGAX">      1.00000000</i>
   <i name="ALDAC">      1.00000000</i>
   <i name="AGGAC">      1.00000000</i>
   <i type="int" name="NKREDX">     1</i>
   <i type="int" name="NKREDY">     1</i>
   <i type="int" name="NKREDZ">     1</i>
   <i type="logical" name="SHIFTRED"> F  </i>
   <i type="logical" name="ODDONLY"> F  </i>
   <i type="logical" name="EVENONLY"> F  </i>
   <i type="int" name="LMAXFOCK">     0</i>
   <i type="int" name="NMAXFOCKAE">     0</i>
   <i type="logical" name="LFOCKAEDFT"> F  </i>
   <i name="HFSCREEN">      0.00000000</i>
   <i name="HFSCREENC">      0.00000000</i>
   <i type="int" name="NBANDSGWLOW">     0</i>
  </separator>
  <separator name="vdW DFT" >
   <i type="logical" name="LUSE_VDW"> F  </i>
   <i name="Zab_VDW">     -0.84910000</i>
   <i name="PARAM1">      0.12340000</i>
   <i name="PARAM2">      1.00000000</i>
   <i name="PARAM3">      0.00000000</i>
  </separator>
  <separator name="model GW" >
   <i type="int" name="MODEL_GW">     0</i>
   <i name="MODEL_EPS0">      5.78381065</i>
   <i name="MODEL_ALPHA">      1.00000000</i>
  </separator>
  <separator name="linear response parameters" >
   <i type="logical" name="LEPSILON"> F  </i>
   <i type="logical" name="LRPA"> F  </i>
   <i type="logical" name="LNABLA"> F  </i>
   <i type="logical" name="LVEL"> F  </i>
   <i type="int" name="KINTER">     0</i>
   <i name="CSHIFT">      0.10000000</i>
   <i name="OMEGAMAX">     -1.00000000</i>
   <i name="DEG_THRESHOLD">      0.00200000</i>
  </separator>
  <separator name="orbital magnetization" >
   <i type="logical" name="NUCIND"> F  </i>
   <v name="MAGPOS">      0.00000000      0.00000000      0.00000000</v>
   <i type="logical" name="LNICSALL"> T  </i>
   <i type="logical" name="ORBITALMAG"> F  </i>
   <i type="logical" name="LMAGBLOCH"> F  </i>
   <i type="logical" name="LCHIMAG"> F  </i>
   <i type="logical" name="LGAUGE"> T  </i>
   <i type="int" name="MAGATOM">     0</i>
   <v name="MAGDIPOL">      0.00000000      0.00000000      0.00000000</v>
   <v name="AVECCONST">      0.00000000      0.00000000      0.00000000</v>
  </separator>
  <separator name="response functions" >
   <i type="logical" name="LADDER"> F  </i>
   <i type="logical" name="LFXC"> F  </i>
   <i type="logical" name="LHARTREE"> T  </i>
   <i type="int" name="IBSE">     0</i>
   <v type="int" name="KPOINT">    -1     0     0     0</v>
   <i type="logical" name="LTCTE"> F  </i>
   <i type="logical" name="LTETE"> F  </i>
   <i type="logical" name="LTRIPLET"> F  </i>
   <i type="logical" name="LFXCEPS"> F  </i>
   <i type="logical" name="LFXHEG"> F  </i>
   <i type="int" name="NATURALO">     0</i>
   <i type="logical" name="L2ORDER"> F  </i>
   <i type="logical" name="LUSEW"> F  </i>
   <i name="ENCUTGW">     -2.00000000</i>
   <i name="ENCUTGWSOFT">     -2.00000000</i>
   <i name="ENCUTLF">     -1.00000000</i>
   <i type="int" name="LMAXMP2">    -1</i>
   <i name="SCISSOR">      0.00000000</i>
   <i type="int" name="NOMEGA">     0</i>
   <i type="int" name="NOMEGAR">     0</i>
   <i type="int" name="NBANDSGW">    -1</i>
   <i type="int" name="NBANDSO">    -1</i>
   <i type="int" name="NBANDSV">    -1</i>
   <i type="int" name="NELM">    40</i>
   <i type="int" name="NELMHF">     1</i>
   <i type="int" name="DIM">     3</i>
   <i type="int" name="ANTIRES">     0</i>
   <i name="OMEGAMAX">    -30.00000000</i>
   <i name="OMEGAMIN">    -30.00000000</i>
   <i name="OMEGATL">   -200.00000000</i>
   <i type="int" name="OMEGAGRID">     0</i>
   <i name="CSHIFT">     -0.10000000</i>
   <i type="logical" name="SELFENERGY"> F  </i>
   <i type="logical" name="LSPECTRAL"> F  </i>
   <i type="logical" name="LSPECTRALGW"> F  </i>
   <i type="logical" name="LSINGLES"> F  </i>
   <i type="logical" name="LFERMIGW"> F  </i>
   <i type="logical" name="ODDONLYGW"> F  </i>
   <i type="logical" name="EVENONLYGW"> F  </i>
   <i type="int" name="NKREDLFX">     1</i>
   <i type="int" name="NKREDLFY">     1</i>
   <i type="int" name="NKREDLFZ">     1</i>
   <i type="int" name="MAXMEM">  1800</i>
   <i type="int" name="TELESCOPE">     0</i>
   <i type="int" name="TAUPAR">     1</i>
   <i type="int" name="OMEGAPAR">    -1</i>
   <i name="LAMBDA">      1.00000000</i>
  </separator>
  <separator name="External order field" >
   <i name="OFIELD_KAPPA">      0.00000000</i>
   <v name="OFIELD_K">      0.00000000      0.00000000      0.00000000</v>
   <i name="OFIELD_Q6_NEAR">      0.00000000</i>
   <i name="OFIELD_Q6_FAR">      0.00000000</i>
   <i name="OFIELD_A">      0.00000000</i>
  </separator>
 </parameters>
 <atominfo>
  <atoms>       2 </atoms>
  <types>       2 </types>
  <array name="atoms" >
   <dimension dim="1">ion</dimension>
   <field type="string">element</field>
   <field type="int">atomtype</field>
   <set>
    <rc><c>O </c><c>   1</c></rc>
    <rc><c>Mg</c><c>   2</c></rc>
   </set>
  </array>
  <array name="atomtypes" >
   <dimension dim="1">type</dimension>
   <field type="int">atomspertype</field>
   <field type="string">element</field>
   <field>mass</field>
   <field>valence</field>
   <field type="string">pseudopotential</field>
   <set>
    <rc><c>   1</c><c>O </c><c>     16.00000000</c><c>      6.00000000</c><c>  PAW_PBE O_h 06Feb2004                 </c></rc>
    <rc><c>   1</c><c>Mg</c><c>     24.30500000</c><c>      2.00000000</c><c>  PAW_PBE Mg 13Apr2007                  </c></rc>
   </set>
  </array>
 </atominfo>
 <structure name="initialpos" >
  <crystal>
   <varray name="basis" >
    <v>       3.00978800       0.00000000       0.00000000 </v>
    <v>       1.50489400       2.60655300       0.00000000 </v>
    <v>       1.50489400       0.86885100       2.45748200 </v>
   </varray>
   <i name="volume">     19.27936883 </i>
   <varray name="rec_basis" >
    <v>       0.33224931      -0.19182422      -0.13564019 </v>
    <v>       0.00000000       0.38364844      -0.13564019 </v>
    <v>       0.00000000       0.00000000       0.40692058 </v>
   </varray>
  </crystal>
  <varray name="positions" >
   <v>       0.50000000       0.50000000       0.50000000 </v>
   <v>       0.00000000       0.00000000       0.00000000 </v>
  </varray>
 </structure>
 <calculation>
  <scstep>
   <time name="dav">    0.07    0.07</time>
   <time name="total">    0.08    0.09</time>
   <energy>
    <i name="alphaZ">     15.79325893 </i>
    <i name="ewald">   -354.45312954 </i>
    <i name="hartreedc">    -29.96208662 </i>
    <i name="XCdc">    -30.49003962 </i>
    <i name="pawpsdc"> 154630.30510139 </i>
    <i name="pawaedc">-154576.56727536 </i>
    <i name="eentropy">     -0.00000000 </i>
    <i name="bandstr">   -402.30336173 </i>
    <i name="atom">    454.94232362 </i>
    <i name="e_fr_energy">   -292.73520892 </i>
    <i name="e_wo_entrp">   -292.73520892 </i>
    <i name="e_0_energy">   -292.73520892 </i>
   </energy>
  </scstep>
  <scstep>
   <time name="dav">    0.06    0.06</time>
   <time name="total">    0.06    0.06</time>
   <energy>
    <i name="e_fr_energy">   -307.24889374 </i>
    <i name="e_wo_entrp">   -307.24889374 </i>
    <i name="e_0_energy">   -307.24889374 </i>
   </energy>
  </scstep>
  <scstep>
   <time name="dav">    0.06    0.06</time>
   <time name="total">    0.06    0.06</time>
   <energy>
    <i name="e_fr_energy">   -307.34141624 </i>
    <i name="e_wo_entrp">   -307.34141624 </i>
    <i name="e_0_energy">   -307.34141624 </i>
   </energy>
  </scstep>
  <scstep>
   <time name="dav">    0.08    0.08</time>
   <time name="total">    0.08    0.08</time>
   <energy>
    <i name="e_fr_energy">   -307.34181841 </i>
    <i name="e_wo_entrp">   -307.34181841 </i>
    <i name="e_0_energy">   -307.34181841 </i>
   </energy>
  </scstep>
  <scstep>
   <time name="dav">    0.06    0.07</time>
   <time name="total">    0.07    0.08</time>
   <energy>
    <i name="e_fr_energy">   -307.34181851 </i>
    <i name="e_wo_entrp">   -307.34181851 </i>
    <i name="e_0_energy">   -307.34181851 </i>
   </energy>
  </scstep>
  <scstep>
   <time name="dav">    0.04    0.04</time>
   <time name="total">    0.06    0.06</time>
   <energy>
    <i name="e_fr_energy">    -69.42789748 </i>
    <i name="e_wo_entrp">    -69.42789748 </i>
    <i name="e_0_energy">    -69.42789748 </i>
   </energy>
  </scstep>
  <scstep>
   <time name="dav">    0.07    0.07</time>
   <time name="total">    0.08    0.09</time>
   <energy>
    <i name="e_fr_energy">    -23.87532851 </i>
    <i name="e_wo_entrp">    -23.87532851 </i>
    <i name="e_0_energy">    -23.87532851 </i>
   </energy>
  </scstep>
  <scstep>
   <time name="dav">    0.04    0.04</time>
   <time name="total">    0.06    0.06</time>
   <energy>
    <i name="e_fr_energy">    -22.08132494 </i>
    <i name="e_wo_entrp">    -22.08132494 </i>
    <i name="e_0_energy">    -22.08132494 </i>
   </energy>
  </scstep>
  <scstep>
   <time name="dav">    0.04    0.04</time>
   <time name="total">    0.06    0.06</time>
   <energy>
    <i name="e_fr_energy">    -11.90061004 </i>
    <i name="e_wo_entrp">    -11.90061004 </i>
    <i name="e_0_energy">    -11.90061004 </i>
   </energy>
  </scstep>
  <scstep>
   <time name="dav">    0.06    0.06</time>
   <time name="total">    0.07    0.08</time>
   <energy>
    <i name="e_fr_energy">    -11.89112693 </i>
    <i name="e_wo_entrp">    -11.89112693 </i>
    <i name="e_0_energy">    -11.89112693 </i>
   </energy>
  </scstep>
  <scstep>
   <time name="dav">    0.05    0.05</time>
   <time name="total">    0.06    0.07</time>
   <energy>
    <i name="e_fr_energy">    -11.84446760 </i>
    <i name="e_wo_entrp">    -11.84446760 </i>
    <i name="e_0_energy">    -11.84446760 </i>
   </energy>
  </scstep>
  <scstep>
   <time name="dav">    0.06    0.06</time>
   <time name="total">    0.07    0.08</time>
   <energy>
    <i name="e_fr_energy">    -11.83721201 </i>
    <i name="e_wo_entrp">    -11.83721201 </i>
    <i name="e_0_energy">    -11.83721201 </i>
   </energy>
  </scstep>
  <scstep>
   <time name="dav">    0.05    0.05</time>
   <time name="total">    0.07    0.07</time>
   <energy>
    <i name="e_fr_energy">    -11.83727260 </i>
    <i name="e_wo_entrp">    -11.83727260 </i>
    <i name="e_0_energy">    -11.83727260 </i>
   </energy>
  </scstep>
  <scstep>
   <time name="dav">    0.06    0.06</time>
   <time name="total">    0.07    0.07</time>
   <energy>
    <i name="e_fr_energy">    -11.83721937 </i>
    <i name="e_wo_entrp">    -11.83721937 </i>
    <i name="e_0_energy">    -11.83721937 </i>
   </energy>
  </scstep>
  <scstep>
   <time name="dav">    0.05    0.05</time>
   <time name="total">    0.07    0.07</time>
   <energy>
    <i name="e_fr_energy">    -11.83721769 </i>
    <i name="e_wo_entrp">    -11.83721769 </i>
    <i name="e_0_energy">    -11.83721769 </i>
   </energy>
  </scstep>
  <scstep>
   <time name="dav">    0.03    0.03</time>
   <time name="total">    0.03    0.04</time>
   <energy>
    <i name="alphaZ">     15.79325893 </i>
    <i name="ewald">   -354.45312954 </i>
    <i name="hartreedc">   -141.31274131 </i>
    <i name="XCdc">    -20.69460282 </i>
    <i name="pawpsdc">   1238.54969275 </i>
    <i name="pawaedc">  -1188.04233943 </i>
    <i name="eentropy">     -0.00000000 </i>
    <i name="bandstr">    -16.61968003 </i>
    <i name="atom">    454.94232362 </i>
    <i name="e_fr_energy">    -11.83721782 </i>
    <i name="e_wo_entrp">    -11.83721782 </i>
    <i name="e_0_energy">    -11.83721782 </i>
   </energy>
  </scstep>
  <structure>
   <crystal>
    <varray name="basis" >
     <v>       3.00978800       0.00000000       0.00000000 </v>
     <v>       1.50489400       2.60655300       0.00000000 </v>
     <v>       1.50489400       0.86885100       2.45748200 </v>
    </varray>
    <i name="volume">     19.27936883 </i>
    <varray name="rec_basis" >
     <v>       0.33224931      -0.19182422      -0.13564019 </v>
     <v>       0.00000000       0.38364844      -0.13564019 </v>
     <v>       0.00000000       0.00000000       0.40692058 </v>
    </varray>
   </crystal>
   <varray name="positions" >
    <v>       0.50000000       0.50000000       0.50000000 </v>
    <v>       0.00000000       0.00000000       0.00000000 </v>
   </varray>
  </structure>
  <varray name="forces" >
   <v>       0.00000000       0.00000000      -0.00000000 </v>
   <v>      -0.00000000      -0.00000000       0.00000000 </v>
  </varray>
  <varray name="stress" >
   <v>    -245.83192267      -0.00000000       0.00000000 </v>
   <v>      -0.00000000    -245.83194757      -0.00000000 </v>
   <v>       0.00000000      -0.00000000    -245.83200043 </v>
  </varray>
  <energy>
   <i name="e_fr_energy">    -11.83721782 </i>
   <i name="e_wo_entrp">    -11.83721782 </i>
   <i name="e_0_energy">     -0.00000000 </i>
  </energy>
  <time name="totalsc">    1.13    1.17</time>
  <eigenvalues>
   <array>
    <dimension dim="1">band</dimension>
    <dimension dim="2">kpoint</dimension>
    <dimension dim="3">spin</dimension>
    <field>eigene</field>
    <field>occ</field>
    <set>
     <set comment="spin 1">
      <set comment="kpoint 1">
       <r>  -13.6675    1.0000 </r>
       <r>    2.4208    1.0000 </r>
       <r>    3.2849    1.0000 </r>
       <r>    3.2849    1.0000 </r>
       <r>    8.6719    0.0000 </r>
       <r>   17.3106    0.0000 </r>
       <r>   19.3161    0.0000 </r>
       <r>   19.3161    0.0000 </r>
       <r>   23.5313    0.0000 </r>
       <r>   23.5313    0.0000 </r>
       <r>   24.8685    0.0000 </r>
       <r>   27.2624    0.0000 </r>
       <r>   28.6934    0.0000 </r>
       <r>   28.6934    0.0000 </r>
       <r>   38.9286    0.0000 </r>
       <r>   40.8572    0.0000 </r>
      </set>
      <set comment="kpoint 2">
       <r>  -13.0239    1.0000 </r>
       <r>    0.2654    1.0000 </r>
       <r>    2.4231    1.0000 </r>
       <r>    2.9973    1.0000 </r>
       <r>   11.1084    0.0000 </r>
       <r>   15.2563    0.0000 </r>
       <r>   18.6233    0.0000 </r>
       <r>   20.2912    0.0000 </r>
       <r>   22.1161    0.0000 </r>
       <r>   24.3363    0.0000 </r>
       <r>   26.4153    0.0000 </r>
       <r>   31.0719    0.0000 </r>
       <r>   32.3562    0.0000 </r>
       <r>   33.2093    0.0000 </r>
       <r>   35.5745    0.0000 </r>
       <r>   38.8650    0.0000 </r>
      </set>
      <set comment="kpoint 3">
       <r>  -12.5949    1.0000 </r>
       <r>   -0.8671    1.0000 </r>
       <r>    2.2753    1.0000 </r>
       <r>    2.6475    1.0000 </r>
       <r>   11.7126    0.0000 </r>
       <r>   15.4331    0.0000 </r>
       <r>   17.9131    0.0000 </r>
       <r>   19.7252    0.0000 </r>
       <r>   23.7007    0.0000 </r>
       <r>   25.9602    0.0000 </r>
       <r>   26.0261    0.0000 </r>
       <r>   32.2817    0.0000 </r>
       <r>   32.8949    0.0000 </r>
       <r>   33.2475    0.0000 </r>
       <r>   35.8082    0.0000 </r>
       <r>   37.5068    0.0000 </r>
      </set>
      <set comment="kpoint 4">
       <r>  -13.3089    1.0000 </r>
       <r>    1.1454    1.0000 </r>
       <r>    2.9069    1.0000 </r>
       <r>    2.9094    1.0000 </r>
       <r>   10.2729    0.0000 </r>
       <r>   15.5002    0.0000 </r>
       <r>   19.4204    0.0000 </r>
       <r>   19.9097    0.0000 </r>
       <r>   21.0733    0.0000 </r>
       <r>   24.9127    0.0000 </r>
       <r>   26.8746    0.0000 </r>
       <r>   29.9583    0.0000 </r>
       <r>   30.2641    0.0000 </r>
       <r>   31.0006    0.0000 </r>
       <r>   37.1946    0.0000 </r>
       <r>   38.9766    0.0000 </r>
      </set>
      <set comment="kpoint 5">
       <r>  -12.7918    1.0000 </r>
       <r>    0.0751    1.0000 </r>
       <r>    2.2232    1.0000 </r>
       <r>    2.4495    1.0000 </r>
       <r>   12.2083    0.0000 </r>
       <r>   13.9124    0.0000 </r>
       <r>   17.1679    0.0000 </r>
       <r>   20.7922    0.0000 </r>
       <r>   21.2483    0.0000 </r>
       <r>   27.0883    0.0000 </r>
       <r>   30.1482    0.0000 </r>
       <r>   30.4031    0.0000 </r>
       <r>   32.3307    0.0000 </r>
       <r>   34.8266    0.0000 </r>
       <r>   36.4726    0.0000 </r>
       <r>   37.8758    0.0000 </r>
      </set>
      <set comment="kpoint 6">
       <r>  -12.3870    1.0000 </r>
       <r>   -0.0423    1.0000 </r>
       <r>    0.9596    1.0000 </r>
       <r>    2.0436    1.0000 </r>
       <r>   13.7623    0.0000 </r>
       <r>   14.7755    0.0000 </r>
       <r>   15.5725    0.0000 </r>
       <r>   19.5426    0.0000 </r>
       <r>   22.9976    0.0000 </r>
       <r>   26.4456    0.0000 </r>
       <r>   29.9743    0.0000 </r>
       <r>   31.4204    0.0000 </r>
       <r>   32.6708    0.0000 </r>
       <r>   36.3383    0.0000 </r>
       <r>   38.8824    0.0000 </r>
       <r>   41.0890    0.0000 </r>
      </set>
      <set comment="kpoint 7">
       <r>  -12.6390    1.0000 </r>
       <r>   -0.2415    1.0000 </r>
       <r>    1.7038    1.0000 </r>
       <r>    2.5490    1.0000 </r>
       <r>   12.5794    0.0000 </r>
       <r>   14.8047    0.0000 </r>
       <r>   16.9386    0.0000 </r>
       <r>   20.1240    0.0000 </r>
       <r>   22.6986    0.0000 </r>
       <r>   25.3590    0.0000 </r>
       <r>   28.8660    0.0000 </r>
       <r>   31.6508    0.0000 </r>
       <r>   32.2453    0.0000 </r>
       <r>   34.8870    0.0000 </r>
       <r>   35.5312    0.0000 </r>
       <r>   41.0094    0.0000 </r>
      </set>
      <set comment="kpoint 8">
       <r>  -12.4224    1.0000 </r>
       <r>   -0.4001    1.0000 </r>
       <r>    1.7070    1.0000 </r>
       <r>    2.1594    1.0000 </r>
       <r>   12.8527    0.0000 </r>
       <r>   13.4868    0.0000 </r>
       <r>   16.0269    0.0000 </r>
       <r>   21.4871    0.0000 </r>
       <r>   21.5051    0.0000 </r>
       <r>   28.9030    0.0000 </r>
       <r>   29.3993    0.0000 </r>
       <r>   31.9640    0.0000 </r>
       <r>   32.6631    0.0000 </r>
       <r>   37.7978    0.0000 </r>
       <r>   38.1692    0.0000 </r>
       <r>   41.0958    0.0000 </r>
      </set>
      <set comment="kpoint 9">
       <r>  -12.8277    1.0000 </r>
       <r>   -0.5943    1.0000 </r>
       <r>    2.8461    1.0000 </r>
       <r>    2.8461    1.0000 </r>
       <r>   10.9116    0.0000 </r>
       <r>   15.4556    0.0000 </r>
       <r>   19.5247    0.0000 </r>
       <r>   19.5247    0.0000 </r>
       <r>   24.0741    0.0000 </r>
       <r>   24.4514    0.0000 </r>
       <r>   24.4514    0.0000 </r>
       <r>   31.8954    0.0000 </r>
       <r>   33.2388    0.0000 </r>
       <r>   33.2388    0.0000 </r>
       <r>   36.8423    0.0000 </r>
       <r>   36.8423    0.0000 </r>
      </set>
      <set comment="kpoint 10">
       <r>  -12.4693    1.0000 </r>
       <r>   -0.2826    1.0000 </r>
       <r>    1.0661    1.0000 </r>
       <r>    2.5152    1.0000 </r>
       <r>   13.0703    0.0000 </r>
       <r>   15.2460    0.0000 </r>
       <r>   16.1291    0.0000 </r>
       <r>   20.4359    0.0000 </r>
       <r>   22.4990    0.0000 </r>
       <r>   25.5490    0.0000 </r>
       <r>   29.0798    0.0000 </r>
       <r>   31.6280    0.0000 </r>
       <r>   32.0651    0.0000 </r>
       <r>   35.3712    0.0000 </r>
       <r>   37.2355    0.0000 </r>
       <r>   40.1135    0.0000 </r>
      </set>
     </set>
    </set>
   </array>
  </eigenvalues>
  <separator name="orbital magnetization" >
   <v name="MAGDIPOLOUT">      0.00000000      0.00000000      0.00000000</v>
  </separator>
  <dos>
   <i name="efermi">      3.52359776 </i>
   <total>
    <array>
     <dimension dim="1">gridpoints</dimension>
     <dimension dim="2">spin</dimension>
     <field>energy</field>
     <field>total</field>
     <field>integrated</field>
     <set>
      <set comment="spin 1">
       <r>   -16.4057     0.0000     0.0000 </r>
       <r>   -16.2049     0.0000     0.0000 </r>
       <r>   -16.0041     0.0000     0.0000 </r>
       <r>   -15.8033     0.0000     0.0000 </r>
       <r>   -15.6025     0.0000     0.0000 </r>
       <r>   -15.4017     0.0000     0.0000 </r>
       <r>   -15.2009     0.0000     0.0000 </r>
       <r>   -15.0001     0.0000     0.0000 </r>
       <r>   -14.7993     0.0000     0.0000 </r>
       <r>   -14.5985     0.0000     0.0000 </r>
       <r>   -14.3977     0.0000     0.0000 </r>
       <r>   -14.1969     0.0000     0.0000 </r>
       <r>   -13.9961     0.0000     0.0000 </r>
       <r>   -13.7953     0.0000     0.0000 </r>
       <r>   -13.5945     0.3052     0.0613 </r>
       <r>   -13.3937     0.0138     0.0640 </r>
       <r>   -13.1929     0.9256     0.2499 </r>
       <r>   -12.9921     0.7624     0.4030 </r>
       <r>   -12.7913     0.9077     0.5853 </r>
       <r>   -12.5905     2.7316     1.1338 </r>
       <r>   -12.3897     3.1468     1.7656 </r>
       <r>   -12.1889     1.1672     2.0000 </r>
       <r>   -11.9881     0.0000     2.0000 </r>
       <r>   -11.7873     0.0000     2.0000 </r>
       <r>   -11.5865     0.0000     2.0000 </r>
       <r>   -11.3857     0.0000     2.0000 </r>
       <r>   -11.1849     0.0000     2.0000 </r>
       <r>   -10.9841     0.0000     2.0000 </r>
       <r>   -10.7833     0.0000     2.0000 </r>
       <r>   -10.5825     0.0000     2.0000 </r>
       <r>   -10.3817     0.0000     2.0000 </r>
       <r>   -10.1809     0.0000     2.0000 </r>
       <r>    -9.9801     0.0000     2.0000 </r>
       <r>    -9.7793     0.0000     2.0000 </r>
       <r>    -9.5785     0.0000     2.0000 </r>
       <r>    -9.3777     0.0000     2.0000 </r>
       <r>    -9.1769     0.0000     2.0000 </r>
       <r>    -8.9761     0.0000     2.0000 </r>
       <r>    -8.7753     0.0000     2.0000 </r>
       <r>    -8.5745     0.0000     2.0000 </r>
       <r>    -8.3737     0.0000     2.0000 </r>
       <r>    -8.1729     0.0000     2.0000 </r>
       <r>    -7.9721     0.0000     2.0000 </r>
       <r>    -7.7713     0.0000     2.0000 </r>
       <r>    -7.5705     0.0000     2.0000 </r>
       <r>    -7.3697     0.0000     2.0000 </r>
       <r>    -7.1689     0.0000     2.0000 </r>
       <r>    -6.9681     0.0000     2.0000 </r>
       <r>    -6.7673     0.0000     2.0000 </r>
       <r>    -6.5665     0.0000     2.0000 </r>
       <r>    -6.3657     0.0000     2.0000 </r>
       <r>    -6.1649     0.0000     2.0000 </r>
       <r>    -5.9641     0.0000     2.0000 </r>
       <r>    -5.7633     0.0000     2.0000 </r>
       <r>    -5.5625     0.0000     2.0000 </r>
       <r>    -5.3617     0.0000     2.0000 </r>
       <r>    -5.1609     0.0000     2.0000 </r>
       <r>    -4.9601     0.0000     2.0000 </r>
       <r>    -4.7594     0.0000     2.0000 </r>
       <r>    -4.5586     0.0000     2.0000 </r>
       <r>    -4.3578     0.0000     2.0000 </r>
       <r>    -4.1570     0.0000     2.0000 </r>
       <r>    -3.9562     0.0000     2.0000 </r>
       <r>    -3.7554     0.0000     2.0000 </r>
       <r>    -3.5546     0.0000     2.0000 </r>
       <r>    -3.3538     0.0000     2.0000 </r>
       <r>    -3.1530     0.0000     2.0000 </r>
       <r>    -2.9522     0.0000     2.0000 </r>
       <r>    -2.7514     0.0000     2.0000 </r>
       <r>    -2.5506     0.0000     2.0000 </r>
       <r>    -2.3498     0.0000     2.0000 </r>
       <r>    -2.1490     0.0000     2.0000 </r>
       <r>    -1.9482     0.0000     2.0000 </r>
       <r>    -1.7474     0.0000     2.0000 </r>
       <r>    -1.5466     0.0000     2.0000 </r>
       <r>    -1.3458     0.0000     2.0000 </r>
       <r>    -1.1450     0.0000     2.0000 </r>
       <r>    -0.9442     0.0136     2.0027 </r>
       <r>    -0.7434     0.9199     2.1875 </r>
       <r>    -0.5426     0.2892     2.2455 </r>
       <r>    -0.3418     0.9581     2.4379 </r>
       <r>    -0.1410     2.7999     3.0001 </r>
       <r>     0.0598     2.1735     3.4366 </r>
       <r>     0.2606     1.0439     3.6462 </r>
       <r>     0.4614     0.5170     3.7500 </r>
       <r>     0.6622     0.0000     3.7500 </r>
       <r>     0.8630     0.0059     3.7512 </r>
       <r>     1.0638     2.3113     4.2153 </r>
       <r>     1.2646     1.4176     4.4999 </r>
       <r>     1.4654     0.0003     4.5000 </r>
       <r>     1.6662     0.3849     4.5773 </r>
       <r>     1.8670     2.4164     5.0625 </r>
       <r>     2.0678     1.4109     5.3458 </r>
       <r>     2.2686     2.6276     5.8734 </r>
       <r>     2.4694     2.5401     6.3835 </r>
       <r>     2.6702     3.7602     7.1385 </r>
       <r>     2.8710     0.9911     7.3375 </r>
       <r>     3.0718     2.6604     7.8717 </r>
       <r>     3.2726     0.2431     7.9205 </r>
       <r>     3.4734     0.3958     8.0000 </r>
       <r>     3.6742     0.0000     8.0000 </r>
       <r>     3.8750     0.0000     8.0000 </r>
       <r>     4.0758     0.0000     8.0000 </r>
       <r>     4.2766     0.0000     8.0000 </r>
       <r>     4.4774     0.0000     8.0000 </r>
       <r>     4.6782     0.0000     8.0000 </r>
       <r>     4.8790     0.0000     8.0000 </r>
       <r>     5.0798     0.0000     8.0000 </r>
       <r>     5.2806     0.0000     8.0000 </r>
       <r>     5.4814     0.0000     8.0000 </r>
       <r>     5.6822     0.0000     8.0000 </r>
       <r>     5.8830     0.0000     8.0000 </r>
       <r>     6.0838     0.0000     8.0000 </r>
       <r>     6.2846     0.0000     8.0000 </r>
       <r>     6.4854     0.0000     8.0000 </r>
       <r>     6.6862     0.0000     8.0000 </r>
       <r>     6.8870     0.0000     8.0000 </r>
       <r>     7.0878     0.0000     8.0000 </r>
       <r>     7.2886     0.0000     8.0000 </r>
       <r>     7.4894     0.0000     8.0000 </r>
       <r>     7.6902     0.0000     8.0000 </r>
       <r>     7.8910     0.0000     8.0000 </r>
       <r>     8.0918     0.0000     8.0000 </r>
       <r>     8.2926     0.0000     8.0000 </r>
       <r>     8.4934     0.0000     8.0000 </r>
       <r>     8.6942     0.2290     8.0460 </r>
       <r>     8.8950     0.0823     8.0625 </r>
       <r>     9.0958     0.0000     8.0625 </r>
       <r>     9.2966     0.0000     8.0625 </r>
       <r>     9.4974     0.0000     8.0625 </r>
       <r>     9.6982     0.0000     8.0625 </r>
       <r>     9.8990     0.0000     8.0625 </r>
       <r>    10.0998     0.0000     8.0625 </r>
       <r>    10.3006     0.7313     8.2093 </r>
       <r>    10.5014     0.2025     8.2500 </r>
       <r>    10.7022     0.0000     8.2500 </r>
       <r>    10.9030     0.1255     8.2752 </r>
       <r>    11.1038     0.6039     8.3965 </r>
       <r>    11.3045     0.5156     8.5000 </r>
       <r>    11.5053     0.0000     8.5000 </r>
       <r>    11.7061     0.3992     8.5802 </r>
       <r>    11.9069     0.5346     8.6875 </r>
       <r>    12.1077     0.0021     8.6879 </r>
       <r>    12.3085     0.9296     8.8746 </r>
       <r>    12.5093     0.0466     8.8839 </r>
       <r>    12.7101     1.8229     9.2500 </r>
       <r>    12.9109     0.8874     9.4281 </r>
       <r>    13.1117     0.8676     9.6024 </r>
       <r>    13.3125     0.1127     9.6250 </r>
       <r>    13.5133     0.7225     9.7701 </r>
       <r>    13.7141     0.3729     9.8449 </r>
       <r>    13.9149     2.1994    10.2866 </r>
       <r>    14.1157     0.4404    10.3750 </r>
       <r>    14.3165     0.0000    10.3750 </r>
       <r>    14.5173     0.0000    10.3750 </r>
       <r>    14.7181     0.1111    10.3973 </r>
       <r>    14.9189     3.6227    11.1248 </r>
       <r>    15.1197     0.0014    11.1250 </r>
       <r>    15.3205     1.8193    11.4904 </r>
       <r>    15.5213     2.0925    11.9105 </r>
       <r>    15.7221     2.0018    12.3125 </r>
       <r>    15.9229     0.0015    12.3128 </r>
       <r>    16.1237     1.3399    12.5819 </r>
       <r>    16.3245     0.5261    12.6875 </r>
       <r>    16.5253     0.0000    12.6875 </r>
       <r>    16.7261     0.0000    12.6875 </r>
       <r>    16.9269     0.6911    12.8263 </r>
       <r>    17.1277     1.2957    13.0864 </r>
       <r>    17.3285     1.0306    13.2934 </r>
       <r>    17.5293     0.0952    13.3125 </r>
       <r>    17.7301     0.0000    13.3125 </r>
       <r>    17.9309     0.6468    13.4424 </r>
       <r>    18.1317     0.2870    13.5000 </r>
       <r>    18.3325     0.0000    13.5000 </r>
       <r>    18.5333     0.0051    13.5010 </r>
       <r>    18.7341     0.9279    13.6873 </r>
       <r>    18.9349     0.0008    13.6875 </r>
       <r>    19.1357     0.0000    13.6875 </r>
       <r>    19.3365     0.4554    13.7789 </r>
       <r>    19.5373     2.3208    14.2450 </r>
       <r>    19.7381     1.8697    14.6204 </r>
       <r>    19.9389     1.0769    14.8366 </r>
       <r>    20.1397     1.4457    15.1269 </r>
       <r>    20.3405     1.4738    15.4229 </r>
       <r>    20.5413     1.0052    15.6247 </r>
       <r>    20.7421     0.0742    15.6396 </r>
       <r>    20.9429     0.8610    15.8125 </r>
       <r>    21.1437     0.9134    15.9959 </r>
       <r>    21.3445     0.9510    16.1869 </r>
       <r>    21.5453     1.7047    16.5292 </r>
       <r>    21.7461     0.1658    16.5625 </r>
       <r>    21.9469     0.0000    16.5625 </r>
       <r>    22.1477     0.7600    16.7151 </r>
       <r>    22.3485     0.1738    16.7500 </r>
       <r>    22.5493     0.8614    16.9230 </r>
       <r>    22.7501     1.8041    17.2852 </r>
       <r>    22.9509     0.3101    17.3475 </r>
       <r>    23.1517     1.6933    17.6875 </r>
       <r>    23.3525     0.0000    17.6875 </r>
       <r>    23.5533     0.4560    17.7791 </r>
       <r>    23.7541     1.0392    17.9877 </r>
       <r>    23.9549     0.0612    18.0000 </r>
       <r>    24.1557     0.3079    18.0618 </r>
       <r>    24.3565     0.6742    18.1972 </r>
       <r>    24.5573     0.8845    18.3748 </r>
       <r>    24.7581     0.0011    18.3751 </r>
       <r>    24.9589     1.1536    18.6067 </r>
       <r>    25.1597     0.0911    18.6250 </r>
       <r>    25.3605     0.9645    18.8187 </r>
       <r>    25.5613     1.4963    19.1191 </r>
       <r>    25.7621     0.3406    19.1875 </r>
       <r>    25.9629     0.5292    19.2938 </r>
       <r>    26.1637     1.3383    19.5625 </r>
       <r>    26.3645     0.0905    19.5807 </r>
       <r>    26.5653     2.7102    20.1249 </r>
       <r>    26.7661     0.0017    20.1252 </r>
       <r>    26.9669     0.9288    20.3117 </r>
       <r>    27.1676     0.9273    20.4979 </r>
       <r>    27.3684     0.3213    20.5624 </r>
       <r>    27.5692     0.0004    20.5625 </r>
       <r>    27.7700     0.0000    20.5625 </r>
       <r>    27.9708     0.0000    20.5625 </r>
       <r>    28.1716     0.0000    20.5625 </r>
       <r>    28.3724     0.0000    20.5625 </r>
       <r>    28.5732     0.0002    20.5625 </r>
       <r>    28.7740     0.6241    20.6879 </r>
       <r>    28.9748     2.7794    21.2459 </r>
       <r>    29.1756     0.9508    21.4369 </r>
       <r>    29.3764     0.2453    21.4861 </r>
       <r>    29.5772     0.6916    21.6250 </r>
       <r>    29.7780     0.0000    21.6250 </r>
       <r>    29.9788     1.7012    21.9666 </r>
       <r>    30.1796     1.8674    22.3416 </r>
       <r>    30.3804     1.3432    22.6113 </r>
       <r>    30.5812     0.6908    22.7500 </r>
       <r>    30.7820     0.0000    22.7500 </r>
       <r>    30.9828     0.2926    22.8088 </r>
       <r>    31.1836     1.5742    23.1249 </r>
       <r>    31.3844     0.2886    23.1828 </r>
       <r>    31.5852     1.7446    23.5331 </r>
       <r>    31.7860     2.6366    24.0625 </r>
       <r>    31.9868     1.0138    24.2661 </r>
       <r>    32.1876     1.2641    24.5200 </r>
       <r>    32.3884     4.3511    25.3937 </r>
       <r>    32.5892     0.2551    25.4449 </r>
       <r>    32.7900     2.7651    26.0001 </r>
       <r>    32.9908     0.9301    26.1869 </r>
       <r>    33.1916     0.4005    26.2673 </r>
       <r>    33.3924     2.0926    26.6875 </r>
       <r>    33.5932     0.0000    26.6875 </r>
       <r>    33.7940     0.0000    26.6875 </r>
       <r>    33.9948     0.0000    26.6875 </r>
       <r>    34.1956     0.0000    26.6875 </r>
       <r>    34.3964     0.0000    26.6875 </r>
       <r>    34.5972     0.0000    26.6875 </r>
       <r>    34.7980     0.2067    26.7290 </r>
       <r>    34.9988     2.5932    27.2497 </r>
       <r>    35.1996     0.0015    27.2500 </r>
       <r>    35.4004     0.7433    27.3993 </r>
       <r>    35.6012     2.7370    27.9488 </r>
       <r>    35.8020     0.6567    28.0807 </r>
       <r>    36.0028     0.5318    28.1875 </r>
       <r>    36.2036     0.0001    28.1875 </r>
       <r>    36.4044     1.8351    28.5560 </r>
       <r>    36.6052     0.9660    28.7500 </r>
       <r>    36.8060     0.0947    28.7690 </r>
       <r>    37.0068     0.5279    28.8750 </r>
       <r>    37.2076     0.8008    29.0358 </r>
       <r>    37.4084     1.0692    29.2505 </r>
       <r>    37.6092     0.9295    29.4371 </r>
       <r>    37.8100     0.6233    29.5623 </r>
       <r>    38.0108     1.2459    29.8125 </r>
       <r>    38.2116     0.8263    29.9784 </r>
       <r>    38.4124     0.1076    30.0000 </r>
       <r>    38.6132     0.0000    30.0000 </r>
       <r>    38.8140     0.1192    30.0239 </r>
       <r>    39.0148     3.7940    30.7858 </r>
       <r>    39.2156     0.1331    30.8125 </r>
       <r>    39.4164     0.0000    30.8125 </r>
       <r>    39.6172     0.0000    30.8125 </r>
       <r>    39.8180     0.0000    30.8125 </r>
       <r>    40.0188     0.0034    30.8132 </r>
       <r>    40.2196     0.9291    30.9997 </r>
       <r>    40.4204     0.0013    31.0000 </r>
       <r>    40.6212     0.0000    31.0000 </r>
       <r>    40.8220     0.0497    31.0100 </r>
       <r>    41.0228     1.5448    31.3202 </r>
       <r>    41.2236     3.3853    31.9999 </r>
       <r>    41.4244     0.0003    32.0000 </r>
       <r>    41.6252     0.0000    32.0000 </r>
       <r>    41.8260     0.0000    32.0000 </r>
       <r>    42.0268     0.0000    32.0000 </r>
       <r>    42.2276     0.0000    32.0000 </r>
       <r>    42.4284     0.0000    32.0000 </r>
       <r>    42.6292     0.0000    32.0000 </r>
       <r>    42.8300     0.0000    32.0000 </r>
       <r>    43.0307     0.0000    32.0000 </r>
       <r>    43.2315     0.0000    32.0000 </r>
       <r>    43.4323     0.0000    32.0000 </r>
       <r>    43.6331     0.0000    32.0000 </r>
       <r>    43.8339     0.0000    32.0000 </r>
      </set>
     </set>
    </array>
   </total>
  </dos>
 </calculation>
 <structure name="finalpos" >
  <crystal>
   <varray name="basis" >
    <v>       3.00978800       0.00000000       0.00000000 </v>
    <v>       1.50489400       2.60655300       0.00000000 </v>
    <v>       1.50489400       0.86885100       2.45748200 </v>
   </varray>
   <i name="volume">     19.27936883 </i>
   <varray name="rec_basis" >
    <v>       0.33224931      -0.19182422      -0.13564019 </v>
    <v>       0.00000000       0.38364844      -0.13564019 </v>
    <v>       0.00000000       0.00000000       0.40692058 </v>
   </varray>
  </crystal>
  <varray name="positions" >
   <v>       0.50000000       0.50000000       0.50000000 </v>
   <v>       0.00000000       0.00000000       0.00000000 </v>
  </varray>
 </structure>
</modeling>
