# ['Ni']

107 atoms
1 atom types

    0.0000     9.9833 xlo xhi
    0.0000     9.9833 ylo yhi
    0.0000     9.9833 zlo zhi

    0.0000    -0.0000    -0.0000 xy xz yz

Atoms

1 1     1.6639     1.6639     0.0000
2 1     1.6639     0.0000     1.6639
3 1     0.0000     1.6639     1.6639
4 1     0.0000     0.0000     3.3278
5 1     1.6639     1.6639     3.3278
6 1     1.6639     0.0000     4.9916
7 1     0.0000     1.6639     4.9916
8 1     0.0000     0.0000     6.6555
9 1     1.6639     1.6639     6.6555
10 1     1.6639     0.0000     8.3194
11 1     0.0000     1.6639     8.3194
12 1     0.0000     3.3278     0.0000
13 1     1.6639     4.9916     0.0000
14 1     1.6639     3.3278     1.6639
15 1     0.0000     4.9916     1.6639
16 1     0.0000     3.3278     3.3278
17 1     1.6639     4.9916     3.3278
18 1     1.6639     3.3278     4.9916
19 1     0.0000     4.9916     4.9916
20 1     0.0000     3.3278     6.6555
21 1     1.6639     4.9916     6.6555
22 1     1.6639     3.3278     8.3194
23 1     0.0000     4.9916     8.3194
24 1     0.0000     6.6555     0.0000
25 1     1.6639     8.3194     0.0000
26 1     1.6639     6.6555     1.6639
27 1     0.0000     8.3194     1.6639
28 1     0.0000     6.6555     3.3278
29 1     1.6639     8.3194     3.3278
30 1     1.6639     6.6555     4.9916
31 1     0.0000     8.3194     4.9916
32 1     0.0000     6.6555     6.6555
33 1     1.6639     8.3194     6.6555
34 1     1.6639     6.6555     8.3194
35 1     0.0000     8.3194     8.3194
36 1     3.3278     0.0000     0.0000
37 1     4.9916     1.6639     0.0000
38 1     4.9916     0.0000     1.6639
39 1     3.3278     1.6639     1.6639
40 1     3.3278     0.0000     3.3278
41 1     4.9916     1.6639     3.3278
42 1     4.9916     0.0000     4.9916
43 1     3.3278     1.6639     4.9916
44 1     3.3278     0.0000     6.6555
45 1     4.9916     1.6639     6.6555
46 1     4.9916     0.0000     8.3194
47 1     3.3278     1.6639     8.3194
48 1     3.3278     3.3278     0.0000
49 1     4.9916     4.9916     0.0000
50 1     4.9916     3.3278     1.6639
51 1     3.3278     4.9916     1.6639
52 1     3.3278     3.3278     3.3278
53 1     4.9916     4.9916     3.3278
54 1     4.9916     3.3278     4.9916
55 1     3.3278     4.9916     4.9916
56 1     3.3278     3.3278     6.6555
57 1     4.9916     4.9916     6.6555
58 1     4.9916     3.3278     8.3194
59 1     3.3278     4.9916     8.3194
60 1     3.3278     6.6555     0.0000
61 1     4.9916     8.3194     0.0000
62 1     4.9916     6.6555     1.6639
63 1     3.3278     8.3194     1.6639
64 1     3.3278     6.6555     3.3278
65 1     4.9916     8.3194     3.3278
66 1     4.9916     6.6555     4.9916
67 1     3.3278     8.3194     4.9916
68 1     3.3278     6.6555     6.6555
69 1     4.9916     8.3194     6.6555
70 1     4.9916     6.6555     8.3194
71 1     3.3278     8.3194     8.3194
72 1     6.6555     0.0000     0.0000
73 1     8.3194     1.6639     0.0000
74 1     8.3194     0.0000     1.6639
75 1     6.6555     1.6639     1.6639
76 1     6.6555     0.0000     3.3278
77 1     8.3194     1.6639     3.3278
78 1     8.3194     0.0000     4.9916
79 1     6.6555     1.6639     4.9916
80 1     6.6555     0.0000     6.6555
81 1     8.3194     1.6639     6.6555
82 1     8.3194     0.0000     8.3194
83 1     6.6555     1.6639     8.3194
84 1     6.6555     3.3278     0.0000
85 1     8.3194     4.9916     0.0000
86 1     8.3194     3.3278     1.6639
87 1     6.6555     4.9916     1.6639
88 1     6.6555     3.3278     3.3278
89 1     8.3194     4.9916     3.3278
90 1     8.3194     3.3278     4.9916
91 1     6.6555     4.9916     4.9916
92 1     6.6555     3.3278     6.6555
93 1     8.3194     4.9916     6.6555
94 1     8.3194     3.3278     8.3194
95 1     6.6555     4.9916     8.3194
96 1     6.6555     6.6555     0.0000
97 1     8.3194     8.3194     0.0000
98 1     8.3194     6.6555     1.6639
99 1     6.6555     8.3194     1.6639
100 1     6.6555     6.6555     3.3278
101 1     8.3194     8.3194     3.3278
102 1     8.3194     6.6555     4.9916
103 1     6.6555     8.3194     4.9916
104 1     6.6555     6.6555     6.6555
105 1     8.3194     8.3194     6.6555
106 1     8.3194     6.6555     8.3194
107 1     6.6555     8.3194     8.3194
