# ['Ni']

6 atoms
1 atom types

    0.0000     2.4819 xlo xhi
    0.0000     4.2987 ylo yhi
    0.0000     6.0783 zlo zhi

    0.0000     0.0000     0.0000 xy xz yz

Atoms

1 1     0.0000     0.0000     0.0000
2 1     1.2409     2.1494     0.0000
3 1     1.2409     0.7165     2.0261
4 1     0.0000     2.8658     2.0261
5 1     0.0000     1.4329     4.0522
6 1     1.2409     3.5823     4.0522
