# ['Si']

216 atoms
1 atom types

    0.0000    16.2900 xlo xhi
    0.0000    16.2900 ylo yhi
    0.0000    16.2900 zlo zhi

    0.0000     0.0000     0.0000 xy xz yz

Atoms

1 1     0.0000     0.0000     0.0000
2 1     1.3575     1.3575     1.3575
3 1     0.0000     2.7150     2.7150
4 1     1.3575     4.0725     4.0725
5 1     2.7150     0.0000     2.7150
6 1     4.0725     1.3575     4.0725
7 1     2.7150     2.7150     0.0000
8 1     4.0725     4.0725     1.3575
9 1     0.0000     0.0000     5.4300
10 1     1.3575     1.3575     6.7875
11 1     0.0000     2.7150     8.1450
12 1     1.3575     4.0725     9.5025
13 1     2.7150     0.0000     8.1450
14 1     4.0725     1.3575     9.5025
15 1     2.7150     2.7150     5.4300
16 1     4.0725     4.0725     6.7875
17 1     0.0000     0.0000    10.8600
18 1     1.3575     1.3575    12.2175
19 1     0.0000     2.7150    13.5750
20 1     1.3575     4.0725    14.9325
21 1     2.7150     0.0000    13.5750
22 1     4.0725     1.3575    14.9325
23 1     2.7150     2.7150    10.8600
24 1     4.0725     4.0725    12.2175
25 1     0.0000     5.4300     0.0000
26 1     1.3575     6.7875     1.3575
27 1     0.0000     8.1450     2.7150
28 1     1.3575     9.5025     4.0725
29 1     2.7150     5.4300     2.7150
30 1     4.0725     6.7875     4.0725
31 1     2.7150     8.1450     0.0000
32 1     4.0725     9.5025     1.3575
33 1     0.0000     5.4300     5.4300
34 1     1.3575     6.7875     6.7875
35 1     0.0000     8.1450     8.1450
36 1     1.3575     9.5025     9.5025
37 1     2.7150     5.4300     8.1450
38 1     4.0725     6.7875     9.5025
39 1     2.7150     8.1450     5.4300
40 1     4.0725     9.5025     6.7875
41 1     0.0000     5.4300    10.8600
42 1     1.3575     6.7875    12.2175
43 1     0.0000     8.1450    13.5750
44 1     1.3575     9.5025    14.9325
45 1     2.7150     5.4300    13.5750
46 1     4.0725     6.7875    14.9325
47 1     2.7150     8.1450    10.8600
48 1     4.0725     9.5025    12.2175
49 1     0.0000    10.8600     0.0000
50 1     1.3575    12.2175     1.3575
51 1     0.0000    13.5750     2.7150
52 1     1.3575    14.9325     4.0725
53 1     2.7150    10.8600     2.7150
54 1     4.0725    12.2175     4.0725
55 1     2.7150    13.5750     0.0000
56 1     4.0725    14.9325     1.3575
57 1     0.0000    10.8600     5.4300
58 1     1.3575    12.2175     6.7875
59 1     0.0000    13.5750     8.1450
60 1     1.3575    14.9325     9.5025
61 1     2.7150    10.8600     8.1450
62 1     4.0725    12.2175     9.5025
63 1     2.7150    13.5750     5.4300
64 1     4.0725    14.9325     6.7875
65 1     0.0000    10.8600    10.8600
66 1     1.3575    12.2175    12.2175
67 1     0.0000    13.5750    13.5750
68 1     1.3575    14.9325    14.9325
69 1     2.7150    10.8600    13.5750
70 1     4.0725    12.2175    14.9325
71 1     2.7150    13.5750    10.8600
72 1     4.0725    14.9325    12.2175
73 1     5.4300     0.0000     0.0000
74 1     6.7875     1.3575     1.3575
75 1     5.4300     2.7150     2.7150
76 1     6.7875     4.0725     4.0725
77 1     8.1450     0.0000     2.7150
78 1     9.5025     1.3575     4.0725
79 1     8.1450     2.7150     0.0000
80 1     9.5025     4.0725     1.3575
81 1     5.4300     0.0000     5.4300
82 1     6.7875     1.3575     6.7875
83 1     5.4300     2.7150     8.1450
84 1     6.7875     4.0725     9.5025
85 1     8.1450     0.0000     8.1450
86 1     9.5025     1.3575     9.5025
87 1     8.1450     2.7150     5.4300
88 1     9.5025     4.0725     6.7875
89 1     5.4300     0.0000    10.8600
90 1     6.7875     1.3575    12.2175
91 1     5.4300     2.7150    13.5750
92 1     6.7875     4.0725    14.9325
93 1     8.1450     0.0000    13.5750
94 1     9.5025     1.3575    14.9325
95 1     8.1450     2.7150    10.8600
96 1     9.5025     4.0725    12.2175
97 1     5.4300     5.4300     0.0000
98 1     6.7875     6.7875     1.3575
99 1     5.4300     8.1450     2.7150
100 1     6.7875     9.5025     4.0725
101 1     8.1450     5.4300     2.7150
102 1     9.5025     6.7875     4.0725
103 1     8.1450     8.1450     0.0000
104 1     9.5025     9.5025     1.3575
105 1     5.4300     5.4300     5.4300
106 1     6.7875     6.7875     6.7875
107 1     5.4300     8.1450     8.1450
108 1     6.7875     9.5025     9.5025
109 1     8.1450     5.4300     8.1450
110 1     9.5025     6.7875     9.5025
111 1     8.1450     8.1450     5.4300
112 1     9.5025     9.5025     6.7875
113 1     5.4300     5.4300    10.8600
114 1     6.7875     6.7875    12.2175
115 1     5.4300     8.1450    13.5750
116 1     6.7875     9.5025    14.9325
117 1     8.1450     5.4300    13.5750
118 1     9.5025     6.7875    14.9325
119 1     8.1450     8.1450    10.8600
120 1     9.5025     9.5025    12.2175
121 1     5.4300    10.8600     0.0000
122 1     6.7875    12.2175     1.3575
123 1     5.4300    13.5750     2.7150
124 1     6.7875    14.9325     4.0725
125 1     8.1450    10.8600     2.7150
126 1     9.5025    12.2175     4.0725
127 1     8.1450    13.5750     0.0000
128 1     9.5025    14.9325     1.3575
129 1     5.4300    10.8600     5.4300
130 1     6.7875    12.2175     6.7875
131 1     5.4300    13.5750     8.1450
132 1     6.7875    14.9325     9.5025
133 1     8.1450    10.8600     8.1450
134 1     9.5025    12.2175     9.5025
135 1     8.1450    13.5750     5.4300
136 1     9.5025    14.9325     6.7875
137 1     5.4300    10.8600    10.8600
138 1     6.7875    12.2175    12.2175
139 1     5.4300    13.5750    13.5750
140 1     6.7875    14.9325    14.9325
141 1     8.1450    10.8600    13.5750
142 1     9.5025    12.2175    14.9325
143 1     8.1450    13.5750    10.8600
144 1     9.5025    14.9325    12.2175
145 1    10.8600     0.0000     0.0000
146 1    12.2175     1.3575     1.3575
147 1    10.8600     2.7150     2.7150
148 1    12.2175     4.0725     4.0725
149 1    13.5750     0.0000     2.7150
150 1    14.9325     1.3575     4.0725
151 1    13.5750     2.7150     0.0000
152 1    14.9325     4.0725     1.3575
153 1    10.8600     0.0000     5.4300
154 1    12.2175     1.3575     6.7875
155 1    10.8600     2.7150     8.1450
156 1    12.2175     4.0725     9.5025
157 1    13.5750     0.0000     8.1450
158 1    14.9325     1.3575     9.5025
159 1    13.5750     2.7150     5.4300
160 1    14.9325     4.0725     6.7875
161 1    10.8600     0.0000    10.8600
162 1    12.2175     1.3575    12.2175
163 1    10.8600     2.7150    13.5750
164 1    12.2175     4.0725    14.9325
165 1    13.5750     0.0000    13.5750
166 1    14.9325     1.3575    14.9325
167 1    13.5750     2.7150    10.8600
168 1    14.9325     4.0725    12.2175
169 1    10.8600     5.4300     0.0000
170 1    12.2175     6.7875     1.3575
171 1    10.8600     8.1450     2.7150
172 1    12.2175     9.5025     4.0725
173 1    13.5750     5.4300     2.7150
174 1    14.9325     6.7875     4.0725
175 1    13.5750     8.1450     0.0000
176 1    14.9325     9.5025     1.3575
177 1    10.8600     5.4300     5.4300
178 1    12.2175     6.7875     6.7875
179 1    10.8600     8.1450     8.1450
180 1    12.2175     9.5025     9.5025
181 1    13.5750     5.4300     8.1450
182 1    14.9325     6.7875     9.5025
183 1    13.5750     8.1450     5.4300
184 1    14.9325     9.5025     6.7875
185 1    10.8600     5.4300    10.8600
186 1    12.2175     6.7875    12.2175
187 1    10.8600     8.1450    13.5750
188 1    12.2175     9.5025    14.9325
189 1    13.5750     5.4300    13.5750
190 1    14.9325     6.7875    14.9325
191 1    13.5750     8.1450    10.8600
192 1    14.9325     9.5025    12.2175
193 1    10.8600    10.8600     0.0000
194 1    12.2175    12.2175     1.3575
195 1    10.8600    13.5750     2.7150
196 1    12.2175    14.9325     4.0725
197 1    13.5750    10.8600     2.7150
198 1    14.9325    12.2175     4.0725
199 1    13.5750    13.5750     0.0000
200 1    14.9325    14.9325     1.3575
201 1    10.8600    10.8600     5.4300
202 1    12.2175    12.2175     6.7875
203 1    10.8600    13.5750     8.1450
204 1    12.2175    14.9325     9.5025
205 1    13.5750    10.8600     8.1450
206 1    14.9325    12.2175     9.5025
207 1    13.5750    13.5750     5.4300
208 1    14.9325    14.9325     6.7875
209 1    10.8600    10.8600    10.8600
210 1    12.2175    12.2175    12.2175
211 1    10.8600    13.5750    13.5750
212 1    12.2175    14.9325    14.9325
213 1    13.5750    10.8600    13.5750
214 1    14.9325    12.2175    14.9325
215 1    13.5750    13.5750    10.8600
216 1    14.9325    14.9325    12.2175
