LAMMPS (10 Feb 2015)
# ---- initialize simulations
clear
units metal
dimension 3
boundary p p p
atom_style charge
atom_modify map array
# ---- create atoms
read_data /Users/eugeneragasa/pyflamestk_git/pypospack/tests/tests_integration/workflow/WorkflowLammpsThermalExpansion/param_2217/MgO_NaCl_unit.npt.T200/lammps.structure
  triclinic box = (0 0 0) to (4.2565 4.2565 4.2565) with tilt (0 0 0)
  1 by 1 by 1 MPI processor grid
  reading atoms ...
  8 atoms
# ---- define interatomic potential
include potential.mod
mass 1 24.305
mass 2 15.999

group Mg type 1
4 atoms in group Mg
group O type 2
4 atoms in group O

set group Mg charge 1.63539617609
  4 settings made for charge
set group O charge -1.63539617609
  4 settings made for charge

variable R_cut equal 10.0

pair_style buck/coul/long ${R_cut}
pair_style buck/coul/long 10
pair_coeff 1 1 0.0 0.5 0.0 ${R_cut}
pair_coeff 1 1 0.0 0.5 0.0 10
pair_coeff 1 2 1445.86118726 0.28350177361 0.0 ${R_cut}
pair_coeff 1 2 1445.86118726 0.28350177361 0.0 10
pair_coeff 2 2 14001.7361193 0.0970682303871 13.3227844282 ${R_cut}
pair_coeff 2 2 14001.7361193 0.0970682303871 13.3227844282 10

kspace_style pppm 1.0e-5

neighbor 1.0 bin
neigh_modify every 1 delay 0 check yes
# ---- define settings
compute eng all pe/atom
compute eatoms all reduce sum c_eng
# ---- run minimization
reset_timestep 0
fix 1 all box/relax iso 0.0 vmax 0.001
thermo 10
thermo_style custom step pe lx ly lz xy xz yz press pxx pyy pzz pxy pxz pyz c_eatoms
min_style cg
minimize 1e-25 1e-25 5000 10000
PPPM initialization ...
  G vector (1/distance) = 0.35265
  grid = 8 8 8
  stencil order = 5
  estimated absolute RMS force accuracy = 3.8734e-05
  estimated relative force accuracy = 2.68993e-06
  using double precision FFTs
  3d grid and FFT values/proc = 3375 512
Neighbor list info ...
  1 neighbor list requests
  update every 1 steps, delay 0 steps, check yes
  master list distance cutoff = 11
Memory usage per processor = 4.06549 Mbytes
Step PotEng Lx Ly Lz Xy Xz Yz Press Pxx Pyy Pzz Pxy Pxz Pyz eatoms 
       0   -107.83625       4.2565       4.2565       4.2565            0            0            0    103722.55    103722.55    103722.55    103722.55 -7.9651797e-11 -6.6040977e-11 3.4954802e-10   -107.83625 
      10   -107.94585     4.299065     4.299065     4.299065            0            0            0    48505.206    48505.206    48505.206    48505.206 -1.814552e-10 -8.0829294e-11 -4.0355362e-11   -107.94585 
      20   -107.98099     4.341612     4.341612     4.341612            0            0            0  -0.16598057  -0.16598057  -0.16598058  -0.16598057 -1.539671e-10 -9.8603927e-12 -7.0562295e-11   -107.98099 
      24     -107.981    4.3416118    4.3416118    4.3416118            0            0            0 -0.022137581 -0.022137581 -0.022137581 -0.022137581 -7.2866315e-11 -1.1353573e-10 -3.1341588e-11     -107.981 
Loop time of 0.01226 on 1 procs for 24 steps with 8 atoms

Minimization stats:
  Stopping criterion = linesearch alpha is zero
  Energy initial, next-to-last, final = 
        -107.836253395     -107.981002151     -107.981002151
  Force two-norm initial, final = 14.9776 3.56003e-06
  Force max component initial, final = 14.9776 3.3258e-06
  Final line search alpha, max atom move = 0.5 1.6629e-06
  Iterations, force evaluations = 24 36

Pair  time (%) = 0.00324559 (26.4731)
Kspce time (%) = 0.002033 (16.5824)
Neigh time (%) = 0 (0)
Comm  time (%) = 0.000374794 (3.05706)
Outpt time (%) = 2.69413e-05 (0.21975)
Other time (%) = 0.00657964 (53.6677)

Nlocal:    8 ave 8 max 8 min
Histogram: 1 0 0 0 0 0 0 0 0 0
Nghost:    2189 ave 2189 max 2189 min
Histogram: 1 0 0 0 0 0 0 0 0 0
Neighs:    2344 ave 2344 max 2344 min
Histogram: 1 0 0 0 0 0 0 0 0 0

Total # of neighbors = 2344
Ave neighs/atom = 293
Neighbor list builds = 0
Dangerous builds = 0
unfix 1
# ---- define output variables ----
variable natoms equal "count(all)"
variable tot_energy equal "c_eatoms"
variable length_x equal "lx"
variable length_y equal "ly"
variable length_z equal "lz"
variable tilt_xy equal "xy"
variable tilt_xz equal "xz"
variable tilt_yz equal "yz"
variable tot_press equal "press"
variable press_xx equal "pxx"
variable press_yy equal "pyy"
variable press_zz equal "pzz"
variable press_xy equal "pxy"
variable press_xz equal "pxz"
variable press_yz equal "pyz"

# ---- output ----
print "pypospack:output_section:begin"
pypospack:output_section:begin
print "tot_energy = ${tot_energy}"
tot_energy = -107.981002151143
print "num_atoms = ${natoms}"
num_atoms = 8
print "xx = ${length_x}"
xx = 4.34161184326772
print "yy = ${length_y}"
yy = 4.34161184326772
print "zz = ${length_z}"
zz = 4.34161184326772
print "xy = ${tilt_xy}"
xy = 0
print "xz = ${tilt_xz}"
xz = 0
print "yz = ${tilt_yz}"
yz = 0
print "tot_press = ${tot_press}"
tot_press = -0.0221375810241508
print "pxx = ${press_xx}"
pxx = -0.0221375810918532
print "pyy = ${press_yy}"
pyy = -0.0221375807194137
print "pzz = ${press_zz}"
pzz = -0.0221375812611855
print "pxy = ${press_xy}"
pxy = -7.28663154154814e-11
print "pxz = ${press_xz}"
pxz = -1.13535727889352e-10
print "pyz = ${press_yz}"
pyz = -3.13415884666446e-11
print "pypospack:output_section:done"
pypospack:output_section:done
print "pypospack:lammps_sim:done"
pypospack:lammps_sim:done
#------------------------------------------------------------------------------
# RUN THERMOSTAT
# running using an NPT Nose-Hoover style thermostat
#------------------------------------------------------------------------------
variable tempdamp equal 0.1
variable pressdamp equal 1.0
# set initial velocities
velocity all create 200 7030652 mom yes dist gaussian loop all
# fix for Nose-Hoover style thermostat
fix 20 all npt temp 200 200 0.1 aniso 0.0 0.0 1.0 drag 1.0 couple xyz
variable boxx equal lx
variable boxy equal ly
variable boxz equal lz
variable boxp equal press
variable boxt equal temp
# calculate averages every 10000 steps
reset_timestep 0
fix 21 all ave/time 10 10 100 v_boxx v_boxy v_boxz v_boxp v_boxt file lattice.out
thermo_style custom step temp pe ke etotal press lx ly lz press pxx pyy pzz pxy pxz pyz vol
thermo_modify flush yes
thermo 100
run 100000
PPPM initialization ...
  G vector (1/distance) = 0.3518
  grid = 8 8 8
  stencil order = 5
  estimated absolute RMS force accuracy = 4.02804e-05
  estimated relative force accuracy = 2.79732e-06
  using double precision FFTs
  3d grid and FFT values/proc = 3375 512
Memory usage per processor = 3.06549 Mbytes
Step Temp PotEng KinEng TotEng Press Lx Ly Lz Press Pxx Pyy Pzz Pxy Pxz Pyz Volume 
       0          200   -107.98101    0.1809642   -107.80005    2359.8472    4.3416118    4.3416118    4.3416118    2359.8472    1285.5193    2831.9243    2962.0979   -1048.1983   -285.70659    1567.2831    81.837618 
     100    40.302815   -107.81025  0.036466834   -107.77378   -777.13655    4.3530839    4.3530839    4.3530839   -777.13655   -6582.4529    2418.3001    1832.7431    295.03033    624.54474   -1579.1027    82.488065 
     200    194.51493   -107.90135    0.1760012   -107.72535   -4412.0698    4.3502809    4.3502809    4.3502809   -4412.0698   -3330.6415   -2999.9771   -6905.5907    224.50186    534.79796    63.468248     82.32882 
     300    72.839299   -107.75046  0.065906528   -107.68456    5968.8888    4.3498019    4.3498019    4.3498019    5968.8888    3224.4374    9766.6444    4915.5847     1538.135    730.11509    -903.4226    82.301631 
     400    225.77982   -107.85375   0.20429032   -107.64945   -9045.5613    4.3579958    4.3579958    4.3579958   -9045.5613   -8380.3059   -7908.4714   -10847.907    302.65822    1123.0857   -2114.0405    82.767612 
     500    190.73654   -107.80057   0.17258243   -107.62799    6546.9428    4.3486232    4.3486232    4.3486232    6546.9428    1316.2603    9433.5668    8891.0014   -209.49148   -445.75911   -364.23229     82.23474 
     600    221.14516   -107.81843   0.20009679   -107.61833   -7779.0604    4.3600304    4.3600304    4.3600304   -7779.0604   -14233.813   -1611.6358    -7491.732    31.217784    201.71054   -2088.9449    82.883591 
     700      195.712   -107.79437   0.17708433   -107.61728    1075.7211    4.3534472    4.3534472    4.3534472    1075.7211   -6161.9403    3941.8113    5447.2923    556.64641    883.13766   -1240.3286    82.508721 
     800    202.84119   -107.80123   0.18353498    -107.6177    6439.3044     4.350189     4.350189     4.350189    6439.3044    795.67125    13497.367    5024.8753    1518.9404    262.18212    -1872.739    82.323604 
     900    226.69431   -107.82223   0.20511777   -107.61711   -11492.644    4.3636998    4.3636998    4.3636998   -11492.644   -10056.126   -13854.307     -10567.5    488.09134    1583.3034    684.61146    83.093033 
    1000    120.21609   -107.72647   0.10877404    -107.6177    11557.966    4.3466364    4.3466364    4.3466364    11557.966    8426.7881    18232.236    8014.8729    777.51964    570.33767   -1402.0275    82.122077 
    1100    265.38815   -107.85865   0.24012877   -107.61852   -7232.0242    4.3571327    4.3571327    4.3571327   -7232.0242   -5539.8956   -8817.9485   -7338.2284   -1656.9145   -430.42263    1500.8804    82.718443 
    1200    109.96994   -107.71951  0.099503117      -107.62   -917.33976    4.3603806    4.3603806    4.3603806   -917.33976   -12256.568    9244.9309    259.61827   -1353.7829    555.88474   -1962.4065    82.903564 
    1300    323.19279   -107.90942   0.29243162   -107.61699    5263.2358    4.3447992    4.3447992    4.3447992    5263.2358    1843.2127    6151.7711    7794.7237   -857.95652   -92.905408   -53.997066    82.017991 
    1400     118.4076   -107.72535   0.10713769   -107.61821   -2424.8096    4.3632393    4.3632393    4.3632393   -2424.8096   -12992.327      5860.15   -142.25161    946.38604    165.52773   -151.41539    83.066726 
    1500    260.36237   -107.85357   0.23558134   -107.61799   -2499.8272     4.353018     4.353018     4.353018   -2499.8272   -2625.6495   -2491.5648   -2382.2672   -170.35668    1362.6086   -1397.5401    82.484316 
    1600    130.52307   -107.73576   0.11810002   -107.61766    9599.3897    4.3501572    4.3501572    4.3501572    9599.3897    6705.4615    12127.324    9965.3832   -97.710947   -1161.7985    611.58837    82.321797 
    1700     239.8951   -107.83353   0.21706213   -107.61647   -11208.264     4.363264     4.363264     4.363264   -11208.264   -12636.304   -6152.3735   -14836.115   -1020.0781    216.85978   -2114.8429    83.068139 
    1800    140.51491   -107.74383   0.12714085   -107.61669    8791.0346    4.3474714    4.3474714    4.3474714    8791.0346     5073.431    7948.4415    13351.231    762.76367    243.08346    268.51283    82.169418 
    1900    260.54886   -107.85256   0.23575009   -107.61681   -6532.9011     4.358537     4.358537     4.358537   -6532.9011   -12259.804    3613.9183   -10952.818     480.2046    -371.3276   -1074.2868    82.798449 
    2000    186.87519   -107.78709    0.1690886   -107.61801   -1340.6678    4.3569635    4.3569635    4.3569635   -1340.6678   -9072.1941    -3708.098    8758.2887    1056.2066    1588.4186    308.55376    82.708806 
    2100     236.9359   -107.83199   0.21438458    -107.6176    4546.1537    4.3493982    4.3493982    4.3493982    4546.1537     1044.963    14123.118   -1529.6198    598.59098    460.74241    12.275089    82.278714 
    2200    186.25397   -107.78629   0.16852651   -107.61776   -4164.6776    4.3612166    4.3612166    4.3612166   -4164.6776   -7956.2609   -7653.9717    3116.1999    -2332.258   -248.53158   -543.40778    82.951259 
    2300    129.79271   -107.73608   0.11743917   -107.61864    5714.1689    4.3498795    4.3498795    4.3498795    5714.1689    5483.4944    13723.555   -2064.5422   -1586.8292   -230.64335   -957.80579    82.306037 
    2400    235.83279   -107.83202   0.21338647   -107.61864   -3467.7695    4.3565988    4.3565988    4.3565988   -3467.7695   -3658.9356   -6996.4523    252.07947   -1703.7201   -764.60064    174.06731     82.68804 
    2500    185.92199   -107.78809   0.16822612   -107.61986   -1470.4342    4.3563938    4.3563938    4.3563938   -1470.4342   -7889.8991    7869.6795   -4391.0831    1198.0441    645.38833    899.56456     82.67637 
    2600    239.57398   -107.83532   0.21677157   -107.61855    1077.7644    4.3513588    4.3513588    4.3513588    1077.7644   -1102.1753    1682.0644    2653.4043   -295.54826    305.35767   -923.35183    82.390037 
    2700    191.71002   -107.79118   0.17346326   -107.61772   -1645.2167    4.3591277    4.3591277    4.3591277   -1645.2167   -11713.429    10089.062   -3311.2829    992.02097    77.337966    1468.9695    82.832118 
    2800    197.45646    -107.7962   0.17866275   -107.61754    2521.6125    4.3519564    4.3519564    4.3519564    2521.6125    2104.5182    958.30716     4502.012   -1617.1737   -27.415607   -2233.6059    82.423985 
    2900    190.78748   -107.79035   0.17262852   -107.61772    1535.2217    4.3554102    4.3554102    4.3554102    1535.2217    442.14498    5897.3783   -1733.8582    903.65351   -92.992068    794.29661    82.620382 
    3000    203.66545   -107.80215   0.18428078   -107.61787   -1395.7411    4.3566589    4.3566589    4.3566589   -1395.7411   -2253.8425   -1519.8231   -413.55776    870.07966    252.28378   -900.76904    82.691466 
    3100    186.53593   -107.78663   0.16878163   -107.61784    1618.0604    4.3516066    4.3516066    4.3516066    1618.0604      2903.61    2712.9774   -762.40626     1208.247    1478.1518   -1439.6098    82.404109 
    3200    200.39719   -107.79858   0.18132359   -107.61725   -2614.2157    4.3589208    4.3589208    4.3589208   -2614.2157   -11465.905    7990.4658   -4367.2083    1530.5362    36.033942     547.6649    82.820325 
    3300    244.72154   -107.83861   0.22142919   -107.61718    1015.5728    4.3523977    4.3523977    4.3523977    1015.5728   -2698.4312     2547.876    3197.2735   -1392.1737    675.50345   -2018.7525    82.449059 
    3400     170.3096   -107.77186    0.1540997   -107.61776    2723.5394    4.3550424    4.3550424    4.3550424    2723.5394   -2505.9645    13004.801   -2328.2179   -272.26475   -75.638268    418.82851    82.599451 
    3500    247.41325   -107.84129   0.22386471   -107.61743   -3633.3094    4.3575257    4.3575257    4.3575257   -3633.3094   -4584.4117   -6982.5024    666.98582   -1390.6186   -966.30335    683.75135    82.740831 
    3600    113.71359   -107.72182   0.10289044   -107.61893    7109.3868    4.3508765    4.3508765    4.3508765    7109.3868    6856.6313    15339.854   -868.32474    2514.8308    1207.4461    534.59847     82.36264 
    3700    225.54192   -107.82343   0.20407507   -107.61935   -4555.9703    4.3572073    4.3572073    4.3572073   -4555.9703   -6557.0611   -6784.9914   -325.85831   -1254.1726    499.34234   -966.19395    82.722693 
    3800    206.26335   -107.80613   0.18663142    -107.6195   -487.35824    4.3552054    4.3552054    4.3552054   -487.35824   -4684.6645    9289.7965   -6067.2068    579.57183     273.6891     1307.167    82.608726 
    3900    200.19737    -107.7996   0.18114278   -107.61846    0.3171811    4.3532608    4.3532608    4.3532608    0.3171811    -3232.746    -2198.157    5431.8546   -1218.1944    542.83114   -1653.1272     82.49812 
    4000    243.74861   -107.83784   0.22054886    -107.6173   -4290.3642      4.35704      4.35704      4.35704   -4290.3642    -9845.821    6659.0657   -9684.3372     185.8626   -85.355694    270.74366    82.713165 
    4100    147.79713   -107.75212   0.13372995   -107.61839    3890.7859      4.35395      4.35395      4.35395    3890.7859    2531.0357    588.79713    8552.5249     1095.533    839.30017   -499.57146    82.537311 
    4200    236.61587   -107.83243   0.21409501   -107.61834   -3260.2908    4.3550479    4.3550479    4.3550479   -3260.2908   -3862.0005    3844.5035   -9763.3753    2771.5226    832.45574   -3069.6503    82.599763 
    4300    124.31779   -107.73117   0.11248535   -107.61868    4441.4297     4.354811     4.354811     4.354811    4441.4297     3463.868    834.90906    9025.5122    1743.3073    914.54735    972.58385    82.586285 
    4400    263.83001   -107.85656   0.23871894   -107.61784   -7467.1187    4.3556234    4.3556234    4.3556234   -7467.1187   -5056.4967   -7837.5768   -9507.2825   -970.19363    636.97341   -2508.5116    82.632517 
    4500    134.37078   -107.73986   0.12158151   -107.61828    2902.8134    4.3551409    4.3551409    4.3551409    2902.8134   -5715.3268    8883.9826    5539.7843    344.10288    435.63705      512.473    82.605058 
    4600    309.87349   -107.89746   0.28038004   -107.61708   -3924.4912    4.3540058    4.3540058    4.3540058   -3924.4912   -5472.1389   -1121.6657   -5179.6691   -1595.7446   -398.58071    422.03513    82.540486 
    4700    102.78941   -107.71165  0.093006017   -107.61865    2636.4502    4.3565779    4.3565779    4.3565779    2636.4502   -5490.5288    11002.233    2397.6463    1482.2892    756.03451   -1604.1654    82.686852 
    4800    273.64123    -107.8656   0.24759633   -107.61801   -2638.0914    4.3542749    4.3542749    4.3542749   -2638.0914   -303.87392   -6290.2402   -1320.1601   -938.04821    471.36159    390.97256    82.555788 
    4900    107.20621   -107.71654  0.097002429   -107.61953    5508.1137    4.3534934    4.3534934    4.3534934    5508.1137    3968.2576    6487.2047    6068.8788   -653.76825    1439.1866   -346.66423    82.511346 
    5000    258.11327   -107.85219   0.23354631   -107.61864   -6980.7115    4.3576856    4.3576856    4.3576856   -6980.7115   -8187.2463   -7763.5326   -4991.3556   -1760.1681    689.66785    531.12791     82.74994 
    5100    164.98008   -107.76766   0.14927745   -107.61838    5924.6025    4.3522636    4.3522636    4.3522636    5924.6025   -717.97051     14200.36     4291.418   -515.25705   -669.61342   -915.23924    82.441439 
    5200    241.85332   -107.83701   0.21883397   -107.61818   -5208.7801    4.3564711    4.3564711    4.3564711   -5208.7801   -10675.155   -3197.5415   -1753.6439    826.39442    1149.9944    472.25543    82.680772 
    5300    186.53811   -107.78715    0.1687836   -107.61837    944.02677    4.3556001    4.3556001    4.3556001    944.02677   -5761.9579    9629.1737   -1035.1355    1300.9806    89.956162   -2272.9284     82.63119 
    5400    209.26224   -107.80777   0.18934487   -107.61843    2821.8266    4.3528179    4.3528179    4.3528179    2821.8266    102.96588    874.34612    7488.1678    1585.0549    630.35321    936.49951    82.472944 
    5500    211.91421   -107.81016   0.19174443   -107.61841     -3548.84    4.3577732    4.3577732    4.3577732     -3548.84   -5636.6036    168.74783   -5178.6643   -696.36079    1568.4103    -1066.792    82.754929 
    5600    135.13885   -107.74055   0.12227647   -107.61827    6812.2628    4.3524894    4.3524894    4.3524894    6812.2628    3185.3349    7287.3493    9964.1044   -746.06525   -1380.8061   -599.64479    82.454276 
    5700    267.25641   -107.85952   0.24181922    -107.6177   -6189.8841    4.3558794    4.3558794    4.3558794   -6189.8841   -9074.2774   -4797.5907   -4697.7842   -1766.9174    498.51317   -305.03688    82.647088 
    5800    102.95288   -107.71194  0.093153926   -107.61879    4041.9996    4.3558356    4.3558356    4.3558356    4041.9996   -5563.9075    10117.106    7572.7999    840.63284   -22.746777   -2143.8344    82.644595 
    5900    354.88384   -107.93822   0.32110635   -107.61712   -5265.8226    4.3526715    4.3526715    4.3526715   -5265.8226    -8203.918   -4019.3654   -3574.1845   -750.83527   -286.67795    1177.9124    82.464625 
    6000    75.794022   -107.68805  0.068580024   -107.61947    4448.5229    4.3578394    4.3578394    4.3578394    4448.5229   -5894.9966     10422.09    8818.4753   -972.80806    1699.2337   -863.55141    82.758701 
    6100    297.69363   -107.88769   0.26935945   -107.61833   -3632.5827    4.3525039    4.3525039    4.3525039   -3632.5827   -1384.2828   -3331.2958   -6182.1696   -1619.9195    281.97782    880.60659    82.455099 
    6200    71.745379   -107.68451  0.064916726   -107.61959    6773.7331    4.3553779    4.3553779    4.3553779    6773.7331   -412.29692    6563.8693    14169.627   -1753.2653   -610.21942    -1333.384    82.618544 
    6300    277.94762   -107.87012   0.25149285   -107.61863   -7932.8571    4.3568737    4.3568737    4.3568737   -7932.8571   -6836.0777   -6799.2388   -10163.255   -643.57688    425.02114    58.357253    82.703694 
    6400    143.69157   -107.74847   0.13001515   -107.61846    5987.1423    4.3515657    4.3515657    4.3515657    5987.1423   -992.99975    6329.8055    12624.621    1680.9584   -67.329827    -393.8856    82.401788 
    6500    285.75054   -107.87622   0.25855309   -107.61767   -9758.0931    4.3591513    4.3591513    4.3591513   -9758.0931   -14501.978   -6299.4557   -8472.8452    935.31742    917.17924    273.60212    82.833463 
    6600    139.42704   -107.74461   0.12615652   -107.61846    3969.4242    4.3525382    4.3525382    4.3525382    3969.4242   -2527.4097    10516.987    3918.6955    252.68503    794.94412   -1624.6123    82.457044 
    6700    238.03012   -107.83337   0.21537466   -107.61799   -1326.8511    4.3548918    4.3548918    4.3548918   -1326.8511   -6202.6145   -648.75962     2870.821     101.1877   -317.38582    -1093.316    82.590884 
    6800    170.77981    -107.7731   0.15452516   -107.61857   -1795.3397    4.3578804    4.3578804    4.3578804   -1795.3397   -2779.1929   -367.63384   -2239.1923   -1368.3033   -218.21697   -903.37734    82.761038 
    6900    185.77065   -107.78627   0.16808919   -107.61818    3107.9975      4.35104      4.35104      4.35104    3107.9975    1747.7805   -289.00242    7865.2146    640.93964    452.46881   -2226.4199    82.371928 
    7000    241.04831   -107.83569   0.21810558   -107.61758   -6553.3038     4.358441     4.358441     4.358441   -6553.3038   -7975.6562   -7433.8796   -4250.3754   -432.28699    -269.7219    1591.8696    82.792978 
    7100    127.01514   -107.73368   0.11492597   -107.61875    1932.4714    4.3539969    4.3539969    4.3539969    1932.4714   -6101.2826    9109.0879    2789.6089    1472.1806    2042.2465   -1972.6143    82.539977 
    7200    305.56948   -107.89434   0.27648569   -107.61785   -4838.5596     4.353842     4.353842     4.353842   -4838.5596   -9003.0218   -688.73471   -4823.9223   -2630.1943   -270.01037    580.62557    82.531169 
    7300    97.628182    -107.7082  0.088336031   -107.61987    2893.3369    4.3575339    4.3575339    4.3575339    2893.3369   -4288.6803    5969.9724    6998.7185    -749.6707    211.23182   -472.72123    82.741298 
    7400    295.50685   -107.88616   0.26738081   -107.61878   -4973.1109    4.3527021    4.3527021    4.3527021   -4973.1109   -2519.2721   -5796.0184   -6604.0421   -1000.0917   -36.030841   -673.26481    82.466364 
    7500    89.995398   -107.70094  0.081429728   -107.61951    5752.3363    4.3559337    4.3559337    4.3559337    5752.3363    2004.2241    2476.7272    12776.058    353.47089   -471.54652    1319.6862    82.650177 
    7600    282.45645   -107.87334   0.25557253   -107.61777   -7536.9818    4.3560009    4.3560009    4.3560009   -7536.9818   -7656.2685   -4445.9306   -10508.746    2147.1479    2215.8432   -1356.8602    82.654001 
    7700    119.04288   -107.72573    0.1077125   -107.61802    6125.5485    4.3528966    4.3528966    4.3528966    6125.5485   -2522.0253    8635.5161    12263.155    297.78651    403.52299   -1528.7642    82.477416 
    7800    290.14422   -107.87967   0.26252859   -107.61714   -8065.0026    4.3577432    4.3577432    4.3577432   -8065.0026   -11452.885   -5331.8102   -7410.3128       936.74    556.52723   -862.09976     82.75322 
    7900    134.95669   -107.74058   0.12211165   -107.61847    3328.2145    4.3529127    4.3529127    4.3529127    3328.2145   -4077.6045     9394.775    4667.4729   -833.82025    484.30586   -518.46618    82.478334 
    8000    272.03936   -107.86454   0.24614693   -107.61839   -3998.4813    4.3560521    4.3560521    4.3560521   -3998.4813   -6062.5146   -4814.9266   -1118.0028    1863.8056   -45.658359   -1148.4949    82.656918 
    8100    137.42615   -107.74337   0.12434607   -107.61902     4090.391     4.355104     4.355104     4.355104     4090.391    -1219.152    9565.8859    3924.4391    721.65929    1304.1903    266.65102    82.602958 
    8200    215.84215   -107.81383   0.19529851   -107.61853    392.64694    4.3534873    4.3534873    4.3534873    392.64694   -2711.7516   -1175.1658    5064.8582     1500.403    1182.2315   -1254.0452       82.511 
    8300    172.91693   -107.77535   0.15645887   -107.61889    280.16251    4.3566831    4.3566831    4.3566831    280.16251   -3941.9811    1437.3065    3345.1621    704.88983     576.5332    287.57905     82.69284 
    8400    216.58065   -107.81486   0.19596672   -107.61889   -604.35278    4.3536185    4.3536185    4.3536185   -604.35278   -7320.6311      3300.87    2206.7028   -1565.4427    529.86311    70.993304    82.518457 
    8500    250.58428   -107.84516   0.22673392   -107.61843   -3131.6972    4.3554289    4.3554289    4.3554289   -3131.6972   -7794.4396   -502.01075   -1098.6414   -1047.9365   -186.77811    191.42696    82.621446 
    8600    169.19076   -107.77188   0.15308736   -107.61879    1585.7455    4.3561323    4.3561323    4.3561323    1585.7455   -6663.7098    7206.6979    4214.2485   -312.08544   -776.95834    259.84434    82.661482 
    8700    245.25098   -107.84012   0.22190824   -107.61821   -1251.6485    4.3530834    4.3530834    4.3530834   -1251.6485   -3456.7784    1856.4699   -2154.6371    1045.0588    2353.0438   -1697.2151    82.488037 
    8800    87.205867   -107.69777  0.078905701   -107.61886    5538.7319    4.3560644    4.3560644    4.3560644    5538.7319    762.79276    5324.6487    10528.754    1416.9988    -176.3908   -609.28702    82.657615 
    8900    309.21364   -107.89765     0.279783   -107.61786   -5502.0361    4.3549991    4.3549991    4.3549991   -5502.0361   -5561.9351    -6420.579   -4523.5941   -8.2675182    1242.8206    -712.2868    82.596988 
    9000    100.97047   -107.71032  0.091360206   -107.61896    6388.3827    4.3538347    4.3538347    4.3538347    6388.3827   -795.48442    9318.9793    10641.653    503.85595    13.971255   -432.35851    82.530752 
    9100    322.71637   -107.90939   0.29200055   -107.61739   -9132.6321    4.3569172    4.3569172    4.3569172   -9132.6321   -9914.4009   -8521.4868   -8962.0086    -211.6338   -915.43088   -946.71792    82.706171 
    9200    92.088523   -107.70206  0.083323631   -107.61874    6980.7142    4.3532302    4.3532302    4.3532302    6980.7142    -4896.772    16104.919    9733.9954    913.67357    1287.1797   -1036.5734    82.496382 
    9300    275.61937   -107.86736    0.2493862   -107.61798    -6066.639    4.3559694    4.3559694    4.3559694    -6066.639   -3557.2542   -6285.9964   -8356.6665    1741.9393   -14.192463   -1593.5098    82.652207 
    9400    140.40167   -107.74575   0.12703838   -107.61872    4328.3531    4.3553103    4.3553103    4.3553103    4328.3531   -2717.1695    5998.7332    9703.4956    200.77088    964.18159   -159.84605    82.614695 
    9500    238.92577   -107.83468   0.21618506    -107.6185   -1701.2765    4.3536103    4.3536103    4.3536103   -1701.2765    2570.0573   -3825.4703   -3848.4165    212.58946    365.85088   -506.28827    82.517991 
    9600    160.51315   -107.76417   0.14523567   -107.61894   -19.880602    4.3566044    4.3566044    4.3566044   -19.880602   -3418.5009   -2348.4682    5707.3272   -2312.7895   -533.85648   -1020.5577    82.688357 
    9700     216.8214   -107.81458   0.19618456   -107.61839    55.965444    4.3542076    4.3542076    4.3542076    55.965444   -5221.5176    6746.3971   -1356.9831   -595.37618   -382.29716    344.28239    82.551964 
    9800    210.17139    -107.8083   0.19016749   -107.61813   -1640.8383    4.3547063    4.3547063    4.3547063   -1640.8383   -4519.4277   -903.83893    500.75155   -627.00986    1101.7657   -2580.9904    82.580328 
    9900    192.81336   -107.79223   0.17446158   -107.61777   -814.05597    4.3567318    4.3567318    4.3567318   -814.05597   -7526.8367      5389.17   -304.50126    778.04688    563.27873    513.90464    82.695612 
   10000    244.53424    -107.8386   0.22125972   -107.61734   -1762.1346     4.352989     4.352989     4.352989   -1762.1346    2138.2697    -2755.847   -4668.8266   -207.78524    1270.2346   -72.670529    82.482669 
   10100    97.033138    -107.7072  0.087797622    -107.6194    3565.5127    4.3557966    4.3557966    4.3557966    3565.5127   -1690.1213    6930.1462    5456.5131   -1814.5829   -445.53415    -2713.115    82.642373 
   10200    295.30335   -107.88582   0.26719668   -107.61862   -3830.3582    4.3554869    4.3554869    4.3554869   -3830.3582   -3312.2571   -4191.3034    -3987.514    181.41351   -1014.6832    148.75681    82.624748 
   10300     82.99267   -107.69467  0.075093512   -107.61958    7906.5717    4.3528087    4.3528087    4.3528087    7906.5717    606.84244    12562.329    10550.543   -1042.8217    1214.0004     -2920.16     82.47242 
   10400    329.25811   -107.91565   0.29791966   -107.61773   -10438.542    4.3580535    4.3580535    4.3580535   -10438.542   -12875.817   -9192.9859   -9246.8232    1434.7647   -1081.0789   -915.22492      82.7709 
   10500    120.43087   -107.72743   0.10896838   -107.61846    6552.7841    4.3525684    4.3525684    4.3525684    6552.7841    382.97396    14630.387    4644.9918    127.71239    1590.7429   -86.150633    82.458765 
   10600    273.70178   -107.86569   0.24765113   -107.61804    -7085.452    4.3561853    4.3561853    4.3561853    -7085.452   -6590.2553   -5608.7906   -9057.3101    608.95777    66.287408   -1279.5241    82.664501 
   10700    142.05821   -107.74759   0.12853725   -107.61905    4351.6339    4.3554717    4.3554717    4.3554717    4351.6339   -1746.0842    9118.0487    5682.9372   -2363.2764   -1266.0058   -528.94287    82.623879 
   10800     204.6473   -107.80368   0.18516918   -107.61852     1367.555    4.3526733    4.3526733    4.3526733     1367.555     3953.333    3197.1968   -3047.8648   -674.18829    119.37642    -474.5185    82.464724 
   10900    177.91399   -107.77918   0.16098031    -107.6182    -1994.189    4.3579229    4.3579229    4.3579229    -1994.189   -8015.4716   -2286.9693     4319.874   -846.66213    156.13291   -352.69041    82.763459 
   11000    232.00907   -107.82744   0.20992668   -107.61751    1767.3196     4.352998     4.352998     4.352998    1767.3196   -560.43919    8681.2904   -2818.8925    94.278141    719.02381    971.61316    82.483182 
   11100    221.18144   -107.81798   0.20012961   -107.61785   -1981.6153    4.3550159    4.3550159    4.3550159   -1981.6153   -7887.0452   -968.96986    2911.1692    372.87703    1669.0969   -326.33673    82.597944 
   11200    175.44389    -107.7773   0.15874532   -107.61855   -583.35613    4.3575723    4.3575723    4.3575723   -583.35613   -7295.0889    10912.668   -5367.6476   -1787.8428    93.787917   -2164.5214    82.743484 
   11300     216.6284   -107.81437   0.19600993   -107.61836    1761.4415    4.3511627    4.3511627    4.3511627    1761.4415    2893.5876   -279.46719    2670.2039   -937.71522   -1359.6401    308.37882    82.378898 
   11400    136.84773   -107.74312    0.1238227   -107.61929   -552.32131    4.3579578    4.3579578    4.3579578   -552.32131   -4279.6738    7490.4833   -4867.7734   -212.15628    1047.2988   -1398.1929    82.765445 
   11500    265.39697   -107.85807   0.24013676   -107.61794   -1258.2862    4.3542153    4.3542153    4.3542153   -1258.2862   -138.19932   -6728.8832     3092.224    1433.0852   -842.54924   -512.33134    82.552401 
   11600    148.88011   -107.75292   0.13470985   -107.61821    4651.6151    4.3532481    4.3532481    4.3532481    4651.6151   -2770.3474    16019.998    705.19421    837.37278    1228.2686    955.96174    82.497399 
   11700    246.36897    -107.8407   0.22291982   -107.61778   -5840.9239    4.3583073    4.3583073    4.3583073   -5840.9239   -11078.883   -5663.0479   -780.84097    1256.5765    450.35442   -2426.2876    82.785359 
   11800    156.36651   -107.75956   0.14148371   -107.61807    5682.7672    4.3518414    4.3518414    4.3518414    5682.7672   -424.66736    14755.762    2717.2071   -839.74346   -706.22325     1556.876    82.417451 
   11900    251.90158   -107.84642   0.22792584   -107.61849   -6424.0964    4.3569256    4.3569256    4.3569256   -6424.0964   -9454.8274   -4197.2477    -5620.214   -182.25038    565.58944   -283.46065    82.706647 
   12000    158.68798   -107.76261   0.14358422   -107.61903    2150.6467    4.3552581    4.3552581    4.3552581    2150.6467    900.81998    2311.1942     3239.926    105.92706   -728.86763    1183.3981    82.611724 
   12100     225.1777   -107.82147   0.20374552   -107.61772    266.96033    4.3526515    4.3526515    4.3526515    266.96033   -810.14673    7280.5942   -5669.5664    1181.7588    1618.0654    584.31119    82.463483 
   12200    148.93778   -107.75298   0.13476204   -107.61822   -1220.8097    4.3585543    4.3585543    4.3585543   -1220.8097   -7179.7419   -2369.8604    5887.1731    234.10139    1776.0099   -891.43887    82.799435 
   12300    232.11228   -107.82769   0.21002006   -107.61767    2791.4694    4.3518417    4.3518417    4.3518417    2791.4694    -1442.329    10333.292   -516.55469   -458.07457    390.51041   -122.99878     82.41747 
   12400    231.36999   -107.82712   0.20934843   -107.61777   -2392.6509     4.356362     4.356362     4.356362   -2392.6509   -10412.006   -3166.3615    6400.4146   -923.30964    640.66848    -185.0636    82.674559 
   12500    176.20439    -107.7777   0.15943343   -107.61827   -1024.5011     4.356296     4.356296     4.356296   -1024.5011    -5302.392    8191.9203   -5963.0314    585.96108    61.382719    373.55912    82.670799 
   12600    230.08743   -107.82571   0.20818795   -107.61752    592.88734    4.3523478    4.3523478    4.3523478    592.88734   -1060.4574    2097.7691    741.35031    1029.4187   -604.85731   -1669.5718    82.446229 
   12700    130.89425   -107.73667   0.11843587   -107.61823    160.69205      4.35788      4.35788      4.35788    160.69205    -3705.198    9095.4953   -4908.2211    1407.3348     2025.038    922.20491    82.761011 
   12800    245.37628   -107.83966   0.22202162   -107.61764   -547.58682     4.353372     4.353372     4.353372   -547.58682   -1237.5168   -4106.6574    3701.4138    808.43464    184.72243   -2336.2044    82.504446 
   12900     180.7578   -107.78157   0.16355345   -107.61801    2581.3616     4.354356     4.354356     4.354356    2581.3616    -4612.141    13184.408   -828.18195   -83.506449    -308.3545    2016.8845    82.560405 
   13000    209.05172   -107.80756   0.18915439   -107.61841   -3466.2192    4.3577135    4.3577135    4.3577135   -3466.2192   -9328.8436   -4607.0671    3537.2529   -414.80652    820.85278   -956.85418     82.75153 
   13100     241.3005   -107.83697   0.21833376   -107.61864    1551.1978    4.3514617    4.3514617    4.3514617    1551.1978   -4332.5557    12582.259   -3596.1102    115.32569   -1345.6413    519.53001     82.39588 
   13200    154.80845   -107.75996   0.14007394   -107.61989    211.25054    4.3570783    4.3570783    4.3570783    211.25054   -6184.5781    1484.8151    5333.5146    1155.6381    961.55735    -1110.689    82.715345 
   13300    232.03617   -107.82906   0.20995121   -107.61911   -3818.7657    4.3556174    4.3556174    4.3556174   -3818.7657   -4045.3361   -134.31309    -7276.648   -1345.3219     1525.728   -247.96271    82.632173 
   13400    157.40077   -107.76083   0.14241952   -107.61841     4444.161    4.3522643    4.3522643    4.3522643     4444.161    445.07065     8020.006    4867.4063    109.26634    781.83034    1221.5467    82.441482 
   13500    213.24848   -107.81095   0.19295171     -107.618   -5064.7601    4.3584352    4.3584352    4.3584352   -5064.7601   -7834.5573   -672.03587   -6687.6871    -2849.819    1178.2114   -692.88562    82.792647 
   13600    185.04303   -107.78536   0.16743082   -107.61793    2999.2492      4.35297      4.35297      4.35297    2999.2492   -5498.8641    11961.692    2534.9203    -498.2215   -412.16352   -47.542854    82.481591 
   13700     245.3114    -107.8395   0.22196291   -107.61754   -3070.2772    4.3557127    4.3557127    4.3557127   -3070.2772   -8886.2491   -614.98852    290.40604    85.336831    998.75767    -1627.684    82.637596 
   13800    166.20959   -107.76852   0.15038993   -107.61813   -1771.8759    4.3566648    4.3566648    4.3566648   -1771.8759   -7922.0007    5089.8616   -2483.4886   -544.54591    1164.8826    225.23351    82.691799 
   13900     238.2351   -107.83311   0.21556013   -107.61755   -1324.3857    4.3526748    4.3526748    4.3526748   -1324.3857   -2143.3294   -2459.7529    629.92529     961.3874    258.08409   -2108.2155    82.464808 
   14000    148.95216   -107.75273   0.13477504   -107.61796     -1077.15    4.3576217    4.3576217    4.3576217     -1077.15   -5252.0761    10082.246   -8061.6199   -2579.3941    1784.3227    1038.5189    82.746301 
   14100    208.61213   -107.80665   0.18875664    -107.6179   -1014.4441    4.3537596    4.3537596    4.3537596   -1014.4441   -3270.9421   -1287.5841    1515.1939    793.87509   -681.00151   -2605.8338    82.526484 
   14200    202.67638   -107.80154   0.18338585   -107.61816   -541.13277    4.3546552    4.3546552    4.3546552   -541.13277    -5563.791    10307.404   -6367.0115   -2107.6073   -757.30479   -207.85301    82.577425 
   14300    177.17879   -107.77986   0.16031509   -107.61954   -2485.8253     4.356898     4.356898     4.356898   -2485.8253   -8608.7035   -2647.9208    3799.1484    2782.2428    1653.9701   -793.50963    82.705081 
   14400    273.91817   -107.86721   0.24784691   -107.61936   -2677.1552    4.3527718    4.3527718    4.3527718   -2677.1552   -5562.8254    1933.5858   -4402.2262    -1452.265   -1460.4969   -928.54042    82.470325 
   14500      133.658   -107.74107   0.12093657   -107.62013    2088.3695    4.3564507    4.3564507    4.3564507    2088.3695   -4947.5833    5753.9008     5458.791   -41.887615    2321.8466    2033.2152    82.679611 
   14600    254.59768   -107.84896   0.23036533    -107.6186   -5751.6056    4.3556466    4.3556466    4.3556466   -5751.6056   -6358.7237   -491.08577   -10405.007   -1802.5474    808.88074   -2140.1208    82.633832 
   14700    110.65402   -107.71864   0.10012208   -107.61852    6192.9139    4.3532001    4.3532001    4.3532001    6192.9139    3450.7006    8910.7897    6217.2514   -1543.0088   -58.378907    -381.1453    82.494671 
   14800    280.40458   -107.87114   0.25371595   -107.61742   -6900.0218    4.3572143    4.3572143    4.3572143   -6900.0218   -8042.0245   -4190.4713   -8467.5695    1055.6312    387.18373   -897.67978    82.723092 
   14900    140.13366    -107.7453   0.12679588   -107.61851    5112.6502     4.353642     4.353642     4.353642    5112.6502   -2455.9199     8516.871    9276.9995   -168.31634    1000.9635   -140.58241    82.519797 
   15000     273.5334   -107.86549   0.24749877   -107.61799   -3855.9116    4.3554484    4.3554484    4.3554484   -3855.9116   -6956.5721   -1283.9599    -3327.203     1731.116    612.89062    -1497.974    82.622553 
   15100    135.91596    -107.7415   0.12297962   -107.61852    2470.6424    4.3557457    4.3557457    4.3557457    2470.6424   -5890.1165    7784.9643    5517.0795   -1328.4548    927.36799   -453.03392    82.639474 
   15200    243.79933   -107.83848   0.22059476   -107.61789   -1089.8099    4.3537406    4.3537406    4.3537406   -1089.8099    1572.9051   -4599.9994   -242.33553    703.23325     186.3592    -1998.494    82.525402 
   15300    169.83087   -107.77213   0.15366654   -107.61846    1596.0139    4.3558967    4.3558967    4.3558967    1596.0139   -3438.8631    7595.1388    631.76598    206.10494   -2212.4794   -559.52347     82.64807 
   15400    217.37945   -107.81553   0.19668949   -107.61884   -171.36249    4.3547334    4.3547334    4.3547334   -171.36249   -2074.7287   -2134.8171    3695.4583    1813.1393    1184.3643    860.91471    82.581869 
   15500     191.6448    -107.7928   0.17340424    -107.6194    1351.5833     4.354367     4.354367     4.354367    1351.5833    -4052.958    10397.995   -2290.2876    783.09155   -1364.3534    -1122.018    82.561025 
   15600    192.32232   -107.79357   0.17401728   -107.61956    134.37141    4.3559672    4.3559672    4.3559672    134.37141   -8136.2786    1346.1139     7193.279   -596.67764    795.36859    1263.6778    82.652085 
   15700    239.16172   -107.83511   0.21639855   -107.61871    -287.9995    4.3542513    4.3542513    4.3542513    -287.9995   -2432.7975    1586.0807   -17.281656   -941.81543     83.42013   -2047.0986    82.554445 
   15800    162.90613   -107.76595   0.14740089   -107.61855    2860.1216    4.3551083    4.3551083    4.3551083    2860.1216   -2642.3452    1374.8845    9847.8256   -857.77586   -1546.0364    433.06041    82.603199 
   15900    253.44484   -107.84702   0.22932222   -107.61769   -3075.6043    4.3555576    4.3555576    4.3555576   -3075.6043   -2794.2793   -2634.6594   -3797.8742     775.5455    1795.8273   -169.99677     82.62877 
   16000    93.812513   -107.70351  0.084883533   -107.61863    6698.5359    4.3536544    4.3536544    4.3536544    6698.5359    1872.3116    11298.927    6924.3692    1113.1504   -1934.3249   -751.21699    82.520503 
   16100    310.87663   -107.89922   0.28128771   -107.61793   -7145.7045    4.3564937    4.3564937    4.3564937   -7145.7045   -9564.8416   -4478.9271   -7393.3448    605.32441    2823.0135   -814.35306    82.682055 
   16200    102.01443   -107.71168  0.092304804   -107.61937    7408.4129     4.354021     4.354021     4.354021    7408.4129    302.24899    9087.7785    12835.211   -226.43763     183.6627   -1741.1665    82.541348 
   16300    317.26363   -107.90512    0.2870668   -107.61805   -7506.1055    4.3556534    4.3556534    4.3556534   -7506.1055   -9577.5409   -9415.1721   -3525.6034   -37.831075   -585.04129   -215.91136     82.63422 
   16400    111.65503   -107.72003   0.10102781     -107.619    5284.7617    4.3553495    4.3553495    4.3553495    5284.7617    914.96183    5459.9927    9479.3306    460.82665   -674.24861   -132.31886    82.616926 
   16500    243.07378   -107.83837   0.21993827   -107.61843   -2213.5417    4.3535052    4.3535052    4.3535052   -2213.5417   -826.01819   -3044.6839    -2769.923    1353.9065   -1138.7467    17.163719    82.512018 
   16600    167.77578   -107.77095   0.15180705   -107.61914    316.33397    4.3566862    4.3566862    4.3566862    316.33397   -3758.0528    5475.3169   -768.26221    1709.4975    451.06892   -1454.3763    82.693019 
   16700    194.61013   -107.79507   0.17608733   -107.61898    1212.5009    4.3539918    4.3539918    4.3539918    1212.5009    528.71389   -952.10218    4060.8911    282.01297   -643.14249    2.3361288    82.539686 
   16800    230.84519   -107.82768   0.20887358   -107.61881   -3630.6629    4.3546126    4.3546126    4.3546126   -3630.6629   -7736.5959    747.49385   -3902.8868   -1471.6273    287.69073   -2008.1795    82.574996 
   16900    172.66001    -107.7754   0.15622641   -107.61917    298.10668    4.3568359    4.3568359    4.3568359    298.10668   -2645.0263   -4678.0941    8217.4405    90.245322   -1815.8769     488.8259    82.701541 
   17000    257.20348   -107.85075   0.23272312   -107.61802   -2190.3263    4.3533718    4.3533718    4.3533718   -2190.3263   -3669.8325    290.72714   -3191.8735   -733.19385    1081.1985   -936.96362     82.50443 
   17100    119.94413   -107.72743   0.10852797    -107.6189    2885.8794    4.3559818    4.3559818    4.3559818    2885.8794   -307.22188    480.21784    8484.6422    1092.8257   -667.05431   -2790.1078    82.652914 
   17200    260.46563   -107.85378   0.23567478   -107.61811   -3473.3076    4.3552101    4.3552101    4.3552101   -3473.3076   -700.51401   -4745.6185   -4973.7902    705.45601    1412.5633    175.76377    82.608996 
   17300    109.59366    -107.7184  0.099162644   -107.61924    4002.8713    4.3534631    4.3534631    4.3534631    4002.8713   -423.40737    3543.6494    8888.3717   -610.45162    1258.5113   -2949.4229    82.509626 
   17400    298.67977   -107.88839   0.27025173   -107.61814   -7672.6592    4.3576513    4.3576513    4.3576513   -7672.6592   -6823.5562   -9348.7463   -6845.6753    35.840836   -435.82363    243.21205    82.747983 
   17500    156.09123   -107.75942   0.14123462   -107.61819    5064.5468    4.3526979    4.3526979    4.3526979    5064.5468   -2368.1528    6471.9249    11089.868   -1065.4353   -233.34397    83.911299    82.466124 
   17600    243.63341   -107.83829   0.22044463   -107.61784    -5623.058    4.3570369    4.3570369    4.3570369    -5623.058   -6604.3601   -7336.2078   -2928.6062     1836.063   -807.57217   -2474.7433    82.712986 
   17700    141.68335   -107.74709   0.12819807   -107.61889    5028.3269    4.3541215    4.3541215    4.3541215    5028.3269    2665.0088    2462.4437    9957.5283    244.85533    835.64107   -714.92364    82.547062 
   17800    218.83415   -107.81672   0.19800574   -107.61872   -645.09306    4.3539328    4.3539328    4.3539328   -645.09306   -3170.5619   -4324.1646    5559.4473    1944.4574    537.94398   -749.60547    82.536333 
   17900    194.00571   -107.79434   0.17554044    -107.6188   -2168.8021     4.357788     4.357788     4.357788   -2168.8021   -1076.0526   -3304.1401   -2126.2136   -511.74668   -1493.7918   -1304.9612    82.755775 
   18000        225.4   -107.82217   0.20394666   -107.61822    2125.0381     4.351876     4.351876     4.351876    2125.0381   -5309.3504   -1909.3002    13593.765   -1044.3396   -283.28241    400.75938    82.419419 
   18100    206.22686   -107.80542    0.1865984   -107.61882   -3040.6684    4.3569531    4.3569531    4.3569531   -3040.6684    -6303.473    1134.5185   -3953.0507   -126.48664    104.24403   -1443.4809    82.708215 
   18200     160.3405   -107.76417   0.14507946   -107.61909    3162.6283    4.3553331    4.3553331    4.3553331    3162.6283     -3137.99   -4670.0033    17295.878    46.532282    716.95284   -469.68968    82.615996 
   18300    251.00789    -107.8453   0.22711721   -107.61819    376.89657    4.3523713    4.3523713    4.3523713    376.89657   -2604.6035    5042.0258   -1306.7326     1179.286    1043.5996   -21.935404     82.44756 
   18400    130.47682   -107.73717   0.11805817   -107.61911    283.65391    4.3586344    4.3586344    4.3586344    283.65391   -1195.1284   -10754.265    12800.355   -1164.2849    656.63127    233.68341    82.804002 
   18500    257.57085   -107.85088   0.23305552   -107.61783   -140.95999    4.3518738    4.3518738    4.3518738   -140.95999   -1364.3965    1674.6495   -733.13296    461.09251     109.6094   -224.25248    82.419289 
   18600     165.5975   -107.76835    0.1498361   -107.61852    7.1645159    4.3561997    4.3561997    4.3561997    7.1645159   -4847.6955   -5467.8902    10337.079   -2237.9739   -94.740576    492.03541    82.665318 
   18700    215.07033   -107.81305   0.19460015   -107.61845   -1734.4858    4.3566902    4.3566902    4.3566902   -1734.4858   -7894.0882    1987.7382    702.89273    204.74458    341.38647   -2410.3725    82.693246 
   18800    219.63585   -107.81632   0.19873113   -107.61759    3539.8483    4.3513769    4.3513769    4.3513769    3539.8483   -2069.4725    3940.1032    8748.9142    1107.8367    822.21388    737.53364     82.39106 
   18900    164.46415   -107.76675   0.14881062   -107.61794   -2543.0741    4.3593232    4.3593232    4.3593232   -2543.0741   -6272.1798    -3643.032    2285.9896   -253.17713    403.90111   -255.22853    82.843266 
   19000    222.20505    -107.8185    0.2010558   -107.61745    908.09049    4.3528339    4.3528339    4.3528339    908.09049    571.37057   -895.44797    3048.3489    1258.8065   -1725.4458   -822.86685    82.473852 
   19100    156.30068   -107.75915   0.14142414   -107.61773    2993.7204    4.3542135    4.3542135    4.3542135    2993.7204   -1116.6565   -2181.5596    12279.377   -1430.9264   -611.65789    1359.7491    82.552297 
   19200    251.68428   -107.84574   0.22772922   -107.61802   -7823.0164    4.3591758    4.3591758    4.3591758   -7823.0164   -10144.915   -4337.1758   -8986.9582    -583.8575   -536.70871   -2831.9368    82.834863 
   19300    153.31494   -107.75709   0.13872258   -107.61837    6944.2346    4.3499177    4.3499177    4.3499177    6944.2346   -858.89408    4089.1741    17602.424   -433.18745    901.35918    2984.9409    82.308202 
   19400    249.76133   -107.84445    0.2259893   -107.61846    -7201.627    4.3589842    4.3589842    4.3589842    -7201.627   -10330.957   -2130.3984   -9143.5261    27.170825   -30.481386   -1488.5725    82.823939 
   19500    159.38885   -107.76346   0.14421838   -107.61924    2325.9196    4.3543806    4.3543806    4.3543806    2325.9196   -4206.5775   -3057.5122    14241.849    879.44022   -210.10313    874.27493    82.561803 
   19600    227.76512   -107.82484   0.20608667   -107.61875    1481.5966     4.352643     4.352643     4.352643    1481.5966     558.2245    2595.5535    1291.0117   -1185.7249    -42.71051   -218.19182    82.463003 
   19700    196.12061   -107.79705   0.17745405    -107.6196   -4877.6382    4.3591497    4.3591497    4.3591497   -4877.6382   -10293.153   -8698.4605    4358.6993   -1087.1825   -1380.5893   -1235.5848    82.833373 
   19800    154.96925   -107.76049   0.14021944   -107.62027    4688.0547    4.3512924    4.3512924    4.3512924    4688.0547    1876.2773    6593.4179    5594.4689   -1334.9677    419.51754     -805.712    82.386264 
   19900    263.17124   -107.85767   0.23812287   -107.61954   -5446.1624    4.3568776    4.3568776    4.3568776   -5446.1624   -10184.416   -5887.5876   -266.48385   -1456.3316    387.39654    1372.3352    82.703914 
   20000    139.11951   -107.74563   0.12587826   -107.61975    2171.8525    4.3558111    4.3558111    4.3558111    2171.8525   -5906.9934    5391.0671    7031.4836    1509.5071   -214.46525    166.03094      82.6432 
   20100    282.02828   -107.87288   0.25518512    -107.6177   -2045.1842    4.3526754    4.3526754    4.3526754   -2045.1842   -5801.9702   -4009.4656    3675.8831   -218.61813   -1781.4782   -1365.3122    82.464842 
   20200    133.06551   -107.73851   0.12040047   -107.61811    615.22565    4.3585486    4.3585486    4.3585486    615.22565   -6098.4946    2801.6718    5142.4998   -255.32588    81.404666    245.00196    82.799111 
   20300    244.77455   -107.83914   0.22147716   -107.61766   -1390.7163    4.3527035    4.3527035    4.3527035   -1390.7163    -2893.508    -1927.081    648.44018   -476.89845   -1195.6266   -2472.3828    82.466439 
   20400    138.01674   -107.74352   0.12488045   -107.61864    3657.1608    4.3553001    4.3553001    4.3553001    3657.1608   -1918.9235    3916.3679    8974.0379   -1999.8587    1236.8057    2062.9065    82.614115 
   20500    248.51408   -107.84378   0.22486076   -107.61891   -5486.2388    4.3571645    4.3571645    4.3571645   -5486.2388   -10942.601   -3713.1069   -1803.0082    386.97775   -155.78921     -2534.11    82.720259 
   20600    148.34772   -107.75329   0.13422814   -107.61907    4425.5326    4.3518032    4.3518032    4.3518032    4425.5326   -1376.0091    2929.1257    11723.481   -1380.1145   -1744.2844    986.65667    82.415283 
   20700    267.48898    -107.8603   0.24202965   -107.61827   -6955.9045    4.3583843    4.3583843    4.3583843   -6955.9045   -13821.192   -4625.3067   -2421.2152    896.77852    1524.0017   -521.43298    82.789746 
   20800    193.10159   -107.79361   0.17472238   -107.61889    1157.7441    4.3536368    4.3536368    4.3536368    1157.7441   -4213.3679    3280.3882    4406.2121   -1136.5975   -2344.7136   -747.39018      82.5195 
   20900    163.67063   -107.76823   0.14809263   -107.62014     3140.297    4.3540366    4.3540366    4.3540366     3140.297   -2923.6907    3844.6957    8499.8858   -1658.2442    1729.5794    1096.6207    82.542234 
   21000    252.44715   -107.84857   0.22841948   -107.62015   -5913.4113    4.3580928    4.3580928    4.3580928   -5913.4113   -10266.668   -2291.9708    -5181.595   -964.73536    920.94274    711.03168    82.773138 
   21100    87.096272   -107.69944  0.078806537   -107.62064    7258.5798    4.3513328    4.3513328    4.3513328    7258.5798    3668.4031    4763.6284    13343.708   -2263.4397   -101.95942   -1576.5008    82.388559 
   21200    308.24586   -107.89738   0.27890733   -107.61848   -9164.6822    4.3581876    4.3581876    4.3581876   -9164.6822   -10862.532   -10848.836   -5782.6785    893.14805    445.30971   -1159.6766    82.778537 
   21300     144.6123    -107.7499   0.13084825   -107.61906    3287.8179    4.3541228    4.3541228    4.3541228    3287.8179   -5108.6147    6718.1247    8253.9438    313.16261   -537.32041   -1695.6661    82.547139 
   21400    249.69321   -107.84392   0.22592766   -107.61799   -3125.9316    4.3545094    4.3545094    4.3545094   -3125.9316   -5722.7247   -6247.3945    2592.3244    367.26866   -97.926052   -1833.7061    82.569128 
   21500    173.48998   -107.77488   0.15697738    -107.6179    363.14871     4.357576     4.357576     4.357576    363.14871   -10073.132    8570.4728    2592.1051   -200.58375    1190.3473    1082.9783    82.743693 
   21600    183.77403   -107.78467    0.1662826   -107.61838    2443.4546    4.3519176    4.3519176    4.3519176    2443.4546    1699.1369   -3181.9683    8813.1953   -1292.8421   -387.58118   -4055.7222     82.42178 
   21700    217.39761   -107.81487   0.19670592   -107.61817   -2812.6829    4.3576846    4.3576846    4.3576846   -2812.6829   -4809.9359   -1620.1724   -2007.9404     528.6022    364.04625    1425.7063    82.749879 
   21800    173.73984   -107.77569   0.15720346   -107.61849    2052.3841    4.3545643    4.3545643    4.3545643    2052.3841   -3266.0271   -2542.4991    11965.678   -335.07974    444.36367   -1422.4974    82.572253 
   21900    237.79182   -107.83377   0.21515904   -107.61861   -2483.2098    4.3532759    4.3532759    4.3532759   -2483.2098    -1254.222    -3022.887   -3172.5203    1117.3562   -553.84112   -1020.8906    82.498979 
   22000    156.53383   -107.76134    0.1416351   -107.61971    533.55341    4.3584221    4.3584221    4.3584221    533.55341   -12708.305    286.77782    14022.188    164.68087   -205.15524     1635.734    82.791905 
   22100    245.64167   -107.84221   0.22226174   -107.61995    631.15691    4.3516092    4.3516092    4.3516092    631.15691    1288.1055    3589.7999   -2984.4346   -2224.9255    792.44411   -1647.3292    82.404259 
   22200    165.35361   -107.76997   0.14961542   -107.62036    1156.5609    4.3562825    4.3562825    4.3562825    1156.5609   -6057.2693   -2270.7265    11797.678    933.07085    -1720.748     336.1786    82.670032 
   22300    219.60844   -107.81757   0.19870633   -107.61887   -1232.7408    4.3565792    4.3565792    4.3565792   -1232.7408   -1533.9916    381.88438    -2546.115   -2351.5385    29.130708    -763.1152    82.686923 
   22400    171.65428   -107.77368    0.1553164   -107.61837    2637.8503    4.3521391    4.3521391    4.3521391    2637.8503    2606.9427   -2985.5687    8292.1769    1643.3186   -1742.4447   -561.33336    82.434364 
   22500    202.37013   -107.80069   0.18310874   -107.61758   -2166.2346    4.3581414    4.3581414    4.3581414   -2166.2346   -8489.1739   -188.88021    2179.3504      538.821   -798.59922   -479.13528    82.775907 
   22600    230.20453   -107.82536    0.2082939   -107.61707    183.73383    4.3536323    4.3536323    4.3536323    183.73383     -1801.71    1401.3964    951.51502   -513.77078    410.59072    122.68232    82.519242 
   22700    167.65552   -107.76943   0.15169824   -107.61774    1179.2006    4.3551237    4.3551237    4.3551237    1179.2006   -5427.8725   -2008.9311    10974.405     462.5176   -1268.6353   -1782.7752    82.604077 
   22800    252.70987   -107.84609    0.2286572   -107.61744   -2948.7041     4.356921     4.356921     4.356921   -2948.7041   -4835.5288    856.07448    -4866.658   -1848.3681    1056.8026   -133.73798    82.706391 
   22900    139.81058   -107.74504   0.12650355   -107.61853    5823.2514    4.3524309    4.3524309    4.3524309    5823.2514    4611.2747   -2198.5909     15057.07    2050.8521   -582.52059    15.097122    82.450946 
   23000    230.32959   -107.82728   0.20840706   -107.61887   -3963.2537    4.3573803    4.3573803    4.3573803   -3963.2537   -7863.1327    3879.7032   -7906.3314    504.00871    306.09728   -1525.0484    82.732546 
   23100    169.12435   -107.77281   0.15302727   -107.61978    3563.9174    4.3535763    4.3535763    4.3535763    3563.9174    873.08632   -3036.3523    12855.018    1602.0388   -1394.6762      2226.85    82.516062 
   23200     200.2802   -107.80181   0.18121773   -107.62059   -1149.3488    4.3547858    4.3547858    4.3547858   -1149.3488   -9286.1682    7294.5157   -1456.3939     240.1965    427.72967   -1331.5134    82.584852 
   23300    231.67816   -107.82977   0.20962727   -107.62014   -3182.4467    4.3566572    4.3566572    4.3566572   -3182.4467   -5987.7478   -8305.3073     4745.715    -1463.176   -1200.2269    546.80247    82.691367 
   23400    195.59637   -107.79663   0.17697971   -107.61965    3134.9823    4.3534716    4.3534716    4.3534716    3134.9823   -3049.7191    8015.9951     4438.671     935.4703   -398.59894    83.375972    82.510109 
   23500    204.27089   -107.80363   0.18482859    -107.6188   -1752.7471    4.3560956    4.3560956    4.3560956   -1752.7471   -4909.0581   -2055.7297    1706.5464   -291.92903   -1282.2647   -388.57846    82.659392 
   23600    162.68434   -107.76528   0.14720021   -107.61808    2922.9814      4.35507      4.35507      4.35507    2922.9814   -187.10495    6535.8425    2420.2067    1839.4099   -611.40033   -401.97046    82.601021 
   23700    214.54547   -107.81168   0.19412525   -107.61755   -716.09013    4.3545426    4.3545426    4.3545426   -716.09013   -6471.3378    3186.3533    1136.7142    348.96648    318.62508   -745.62364    82.571016 
   23800    183.24456   -107.78352   0.16580353   -107.61772    -1329.011    4.3564021    4.3564021    4.3564021    -1329.011   -4738.9634   -2672.8028     3424.733   -308.81764   -1419.9605   -1202.2688    82.676841 
   23900     249.9715   -107.84343   0.22617947   -107.61725   -750.37508    4.3542962    4.3542962    4.3542962   -750.37508   -7855.0692    5263.1641    340.77987    329.42906    2245.8313   -1198.8548       82.557 
   24000     189.3728   -107.78945   0.17134849    -107.6181   -711.12914    4.3555745    4.3555745    4.3555745   -711.12914   -8433.4015   -2045.0388    8345.0528   -806.21981    -1237.137   -162.65512    82.629733 
   24100    191.12823   -107.79201   0.17293684   -107.61908    586.82578    4.3554538    4.3554538    4.3554538    586.82578   -4855.0736    9825.5655   -3210.0146    2421.6007    1019.7171   -856.47042    82.622864 
   24200    206.23241     -107.806   0.18660342   -107.61939    2179.3221     4.353851     4.353851     4.353851    2179.3221   -4453.8071    1407.5791    9584.1943    1582.9406   -610.79942    1377.6797    82.531682 
   24300    170.26444   -107.77477   0.15405884   -107.62071   -802.90139    4.3560515    4.3560515    4.3560515   -802.90139   -2836.9172    4987.2296   -4559.0166    834.39917   -295.67473   -1452.9214    82.656881 
   24400    226.26099   -107.82484    0.2047257   -107.62011   -807.27855     4.354681     4.354681     4.354681   -807.27855   -4503.7584   -2725.1556    4807.0784    1624.0742    1387.6004    1316.0188    82.578891 
   24500    180.91958    -107.7834   0.16369984    -107.6197    1052.2995    4.3542944    4.3542944    4.3542944    1052.2995   -5743.9825    6540.6597    2360.2212   -2218.1821   -936.85512   -373.31905    82.556896 
   24600    212.40296   -107.81116   0.19218667   -107.61897   -3401.9248    4.3568136    4.3568136    4.3568136   -3401.9248   -9792.4543   -570.88901    157.56899    1491.3336    59.561191   -33.010358    82.700272 
   24700    218.66141    -107.8159   0.19784944   -107.61805    1884.0661    4.3540439    4.3540439    4.3540439    1884.0661   -5018.4223     6503.224    4167.3967   -11.620645   -620.28141    23.381921    82.542651 
   24800    198.54246   -107.79839   0.17964539   -107.61875   -831.92961    4.3552063    4.3552063    4.3552063   -831.92961   -5641.4363    3970.4877   -824.84021    675.34024   -486.53431   -1183.3963    82.608777 
   24900    191.14848   -107.79196   0.17295516     -107.619   -1179.0683    4.3561397    4.3561397    4.3561397   -1179.0683   -2585.6564   -1360.0225    408.47418    -501.0036   -354.02493   -871.39356      82.6619 
   25000    195.80266   -107.79609   0.17716636   -107.61892    1491.9721    4.3539959    4.3539959    4.3539959    1491.9721   -3556.9747    9994.7342   -1961.8432   -2045.7337     334.3872   -253.26883    82.539923 
   25100    175.13757   -107.77785   0.15846815   -107.61938   -845.46236    4.3557083    4.3557083    4.3557083   -845.46236   -6060.7761   -230.14015    3754.5292    1323.6692    205.07254   -892.80339    82.637344 
   25200    227.90134   -107.82513   0.20620992   -107.61892   -1080.2294    4.3551805    4.3551805    4.3551805   -1080.2294   -7147.4925    8230.5085   -4323.7042   -1466.5276    23.414016   -546.80724    82.607307 
   25300    216.77599   -107.81529   0.19614347   -107.61915   -787.25841    4.3546515    4.3546515    4.3546515   -787.25841   -10468.303    1995.3073    6111.2203    2708.4813    906.47912    636.27508    82.577209 
   25400    184.88861    -107.7874    0.1672911   -107.62011   -651.19378    4.3561533    4.3561533    4.3561533   -651.19378   -3476.5262    7784.5073   -6261.5625   -549.78777   -1356.4586   -1689.1719    82.662677 
   25500    225.26779   -107.82313   0.20382703    -107.6193    911.02371    4.3537786    4.3537786    4.3537786    911.02371    -7366.882    7219.5786    2880.3745    21.962358     1872.366    1612.3183    82.527564 
   25600    163.62826   -107.76707   0.14805429   -107.61902    786.76285    4.3559144    4.3559144    4.3559144    786.76285    822.28365    5800.6495   -4262.6446   -950.80879    397.65046    213.32145    82.649075 
   25700    200.35665   -107.79961   0.18128691   -107.61832   -809.21562    4.3553963    4.3553963    4.3553963   -809.21562   -6665.9048    5598.8246   -1360.5667   -153.66794   -438.22996   -1104.7672     82.61959 
   25800    208.51162    -107.8063   0.18866569   -107.61763    606.14266    4.3542202    4.3542202    4.3542202    606.14266    -4223.755    3934.6654    2107.5176    508.85774    1419.5493    723.23129    82.552679 
   25900    210.93464   -107.80902    0.1908581   -107.61817   -2123.3029    4.3564445    4.3564445    4.3564445   -2123.3029   -9547.8119    7449.4589   -4271.5556   -439.35212   -2196.9631   -1682.8461    82.679258 
   26000    203.61921   -107.80277   0.18423894   -107.61853    1307.5845    4.3540941    4.3540941    4.3540941    1307.5845   -7068.6057    6867.6296    4123.7296   -315.90293    924.88499   -1382.4989    82.545505 
   26100    221.97099   -107.81999   0.20084402   -107.61914   -1268.5926    4.3553821    4.3553821    4.3553821   -1268.5926   -7725.4049    9710.6467   -5791.0197   -2401.9958   -982.55649   -145.54218    82.618783 
   26200    171.17615   -107.77476   0.15488378   -107.61987    410.66293    4.3555287    4.3555287    4.3555287    410.66293   -2530.1568     1211.348    2550.7976    -633.1758   -490.03997   -1900.1251    82.627123 
   26300    206.35973   -107.80643   0.18671862   -107.61971    283.86002    4.3540179    4.3540179    4.3540179    283.86002   -2583.0408      9851.35   -6416.7292    522.03442    615.60337   -454.03016    82.541171 
   26400    171.65995   -107.77523   0.15532153   -107.61991    806.00209    4.3562882    4.3562882    4.3562882    806.00209   -3929.9264    2792.3692    3555.5635    1597.2058   -1200.9988    -108.6356    82.670355 
   26500    232.19912   -107.82934   0.21009864   -107.61924   -1803.4813    4.3540532    4.3540532    4.3540532   -1803.4813   -6911.1292    7194.4047   -5693.7193   -156.96964    608.83972    58.480258    82.543178 
   26600     173.8568   -107.77687   0.15730929   -107.61956    1384.9732    4.3552195    4.3552195    4.3552195    1384.9732    -8771.427    7094.7002    5831.6466   -1564.9957    -1322.849    1132.0522    82.609527 
   26700    257.78793   -107.85217   0.23325194   -107.61892   -4838.2177    4.3563481    4.3563481    4.3563481   -4838.2177   -10333.667    845.10685   -5026.0927    822.76354    381.81286     388.5771    82.673769 
   26800     147.9437   -107.75319   0.13386257   -107.61933    2898.7122    4.3535542    4.3535542    4.3535542    2898.7122   -5488.5635    12431.737    1752.9627   -776.33264    719.97945   -378.08432    82.514803 
   26900    239.31999   -107.83485   0.21654176   -107.61831   -3567.7216     4.356771     4.356771     4.356771   -3567.7216   -5865.8807   -3842.1094   -995.17463   -338.49654   -691.41965    715.17632    82.697844 
   27000    152.97332   -107.75741   0.13841348     -107.619    1707.3742    4.3537323    4.3537323    4.3537323    1707.3742   -2890.7056    13104.534   -5091.7057    1256.8314   -379.73835    -1132.714    82.524928 
   27100    209.29597    -107.8085   0.18937539   -107.61912   -1925.6368    4.3562002    4.3562002    4.3562002   -1925.6368   -8650.4003   -4822.5241    7696.0141   -2335.5858   -1697.8316   -402.40273    82.665349 
   27200    196.98357   -107.79775   0.17823487   -107.61952    1699.8223    4.3541745    4.3541745    4.3541745    1699.8223   -5111.6548    14683.113   -4471.9911    305.48591    -1142.262   -1575.1986     82.55008 
   27300    200.95422   -107.80134    0.1818276   -107.61951   -510.61491    4.3551501    4.3551501    4.3551501   -510.61491   -12029.007     3213.483    7283.6794   -952.35577    9.8707741   -1506.6503    82.605581 
   27400    231.43524    -107.8281   0.20940747   -107.61869   -2525.6936     4.356672     4.356672     4.356672   -2525.6936   -7674.8984    5455.0671   -5357.2496    776.76487   -489.36145    434.83601    82.692211 
   27500    163.72609   -107.76687    0.1481428   -107.61873    3379.7521    4.3525813    4.3525813    4.3525813    3379.7521   -6391.5601    14200.972    2329.8446    92.596969    147.73304   -1218.0905    82.459496 
   27600    246.14151   -107.84102   0.22271401   -107.61831   -4683.9998    4.3574957    4.3574957    4.3574957   -4683.9998   -5800.2886   -6047.6261   -2204.0849   -488.20323   -654.35334    1231.4047    82.739122 
   27700    122.17501   -107.72995   0.11054651   -107.61941    6871.3823    4.3536955    4.3536955    4.3536955    6871.3823   -3899.8397    23464.715    1049.2717    101.28981   -954.42129   -313.89494    82.522839 
   27800    263.00048   -107.85693   0.23796836   -107.61896   -2898.7933     4.354401     4.354401     4.354401   -2898.7933   -5497.4147   -5543.4151      2344.45   -192.96399   -1065.5107    185.35122    82.562959 
   27900    133.95334   -107.74075   0.12120379   -107.61954     2748.387    4.3574442    4.3574442    4.3574442     2748.387   -9816.3729    18933.979   -872.44469    51.993572   -708.17307    -205.3143    82.736189 
   28000     267.2928   -107.86041   0.24185214   -107.61855   -959.03423    4.3517616    4.3517616    4.3517616   -959.03423   -6840.4858    2394.1342    1569.2489    2.6407875    737.06707    1043.6541    82.412915 
   28100    186.25755   -107.78762   0.16852974   -107.61909   -2071.0673    4.3580149    4.3580149    4.3580149   -2071.0673   -10150.066    7726.3692   -3789.5054    235.14988   -1008.8246   -1900.4696      82.7687 
   28200    187.45384   -107.78915   0.16961217   -107.61954    1824.7169    4.3539375    4.3539375    4.3539375    1824.7169   -4564.0433      8901.11     1137.084   -1642.2387    185.10774    29.134201    82.536599 
   28300    233.27608   -107.83065    0.2110731   -107.61957   -1275.2783    4.3537322    4.3537322    4.3537322   -1275.2783   -3790.2663    2001.3833   -2036.9519    568.77852   -2713.5051   -1217.8865    82.524926 
   28400    106.76596   -107.71703  0.096604081   -107.62042    2994.7904    4.3581027    4.3581027    4.3581027    2994.7904   -5208.7935    14993.047   -799.88179    1441.5306    1032.6067   -408.31077    82.773703 
   28500    290.75664   -107.88227   0.26308271   -107.61919   -1830.1636    4.3512724    4.3512724    4.3512724   -1830.1636    -4897.514    -606.5835    13.606645   -270.58245   -318.93131    384.11945    82.385125 
   28600    127.19608   -107.73463   0.11508968   -107.61954     1775.043    4.3580715    4.3580715    4.3580715     1775.043   -9605.9736    17814.463   -2883.3602    1373.6877   -210.11061   -1087.7648    82.771926 
   28700    270.47361   -107.86306    0.2447302   -107.61833   -4895.9205    4.3546892    4.3546892    4.3546892   -4895.9205   -8204.4655   -5982.4967   -500.79928     -586.395    2561.4853    368.24442    82.579358 
   28800    156.02228   -107.75986   0.14117224   -107.61868    2792.5173    4.3531362    4.3531362    4.3531362    2792.5173   -8080.0553    16171.902    285.70513   -547.92162   -2498.1741   -22.411839    82.491036 
   28900    226.49637   -107.82334   0.20493868    -107.6184   -5613.7557    4.3592752    4.3592752    4.3592752   -5613.7557   -9105.5943   -3935.3977    -3800.275    1680.8372    1799.5465    766.96996    82.840526 
   29000    163.62591   -107.76663   0.14805216   -107.61858    4406.7975    4.3510312    4.3510312    4.3510312    4406.7975   -1310.6025    10618.644    3912.3509   -1768.8358   -1344.0113   -877.65092    82.371427 
   29100    213.62779   -107.81136   0.19329491   -107.61806   -3540.5603    4.3578829    4.3578829    4.3578829   -3540.5603   -8351.2474    3128.2459   -5398.6794     1311.087   -712.07611    1367.9021    82.761181 
   29200    206.76174   -107.80519   0.18708237    -107.6181   -1925.5139     4.355801     4.355801     4.355801   -1925.5139   -5163.0494    -2412.947    1799.4548   -2101.1454    1671.7041   -2715.2436    82.642621 
   29300    175.28127   -107.77768   0.15859818   -107.61908    3456.8228    4.3518041    4.3518041    4.3518041    3456.8228   -7682.8071    14403.842    3649.4331    -801.5315   -1101.6666    1133.0792    82.415332 
   29400    260.96263   -107.85565   0.23612447   -107.61952   -7557.0887    4.3592405    4.3592405    4.3592405   -7557.0887   -12123.449   -8965.1508   -1582.6667    153.37014     633.9008   -314.23042    82.838551 
   29500      127.121   -107.73554   0.11502175   -107.62052     5165.736    4.3523917    4.3523917    4.3523917     5165.736   -5420.5811    17483.329    3434.4601   -1120.2781   -1838.3457   -611.05683    82.448723 
   29600    266.79896   -107.86044   0.24140531   -107.61903   -5259.1171    4.3560175    4.3560175    4.3560175   -5259.1171   -8790.9353   -6945.5099   -40.906044    1223.8382   -205.27646   -461.33169    82.654948 
   29700    138.09625   -107.74384   0.12495238   -107.61889     2460.742    4.3563315    4.3563315    4.3563315     2460.742   -3205.5761     11557.94   -970.13818   -1090.4404    703.39853   -628.86725     82.67282 
   29800    237.45783   -107.83306   0.21485683   -107.61821    625.76162    4.3526791    4.3526791    4.3526791    625.76162   -6606.4832   -396.66466    8880.4327    258.61774     334.5936    439.81397    82.465056 
   29900     162.3271   -107.76577   0.14687697    -107.6189    266.89303    4.3574096    4.3574096    4.3574096    266.89303   -6721.8743    8004.7164   -482.16301   -1163.6038    481.63293      1276.01    82.734214 
   30000    213.45996   -107.81211   0.19314305   -107.61897    191.38688    4.3539756    4.3539756    4.3539756    191.38688   -8221.8684    3868.6463    4927.3827    405.33243   -898.01709    887.30792    82.538764 
   30100    222.47898   -107.82008   0.20130366   -107.61877   -1492.8054    4.3549834    4.3549834    4.3549834   -1492.8054   -8441.6681    1031.3801    2931.8717    289.21142   -238.34164   -166.97941    82.596094 
   30200    180.64752   -107.78261   0.16345367   -107.61915    19.213585    4.3562471    4.3562471    4.3562471    19.213585   -7933.0926    11257.253   -3266.5195   -1315.4366   -1693.4128    1116.7712    82.668017 
   30300    232.90113   -107.82956   0.21073383   -107.61883    320.02146    4.3537991    4.3537991    4.3537991    320.02146   -6190.8306   -2005.8318    9156.7268   -1017.3538    449.95356   -1006.6106    82.528731 
   30400    129.44403   -107.73702   0.11712367   -107.61989    3375.2836    4.3557043    4.3557043    4.3557043    3375.2836   -6568.0169    19456.722   -2762.8538   -2471.1711   -495.60486    1410.8989    82.637119 
   30500     243.0265   -107.83922   0.21989549   -107.61932    -1481.065    4.3550727    4.3550727    4.3550727    -1481.065   -4284.1847    -7244.507    7085.4966   -563.82774   -18.564143   -1470.7562    82.601178 
   30600    167.29804   -107.77097   0.15137478    -107.6196     2320.085    4.3545342    4.3545342    4.3545342     2320.085   -7853.5798    16493.238   -1679.4033   -566.75604   -326.79094   -114.01899    82.570537 
   30700    241.77937    -107.8375   0.21876706   -107.61874   -3840.3946     4.356113     4.356113     4.356113   -3840.3946    -7543.027   -3033.8618   -944.29504   -698.53358   -3563.4948   -1814.5488    82.660383 
   30800    191.30497   -107.79131   0.17309676   -107.61822     1169.664    4.3547831    4.3547831    4.3547831     1169.664   -8282.8279    9784.8592    2006.9607    1059.9349    231.04712     618.4316    82.584697 
   30900    177.23278   -107.77919   0.16036394   -107.61882   -560.20201     4.355354     4.355354     4.355354   -560.20201   -6246.1729    4593.6345   -28.067666   -2208.3436   -1750.3217    461.73095    82.617184 
   31000    225.66749   -107.82309   0.20418868    -107.6189   -1065.2126     4.355523     4.355523     4.355523   -1065.2126   -6201.4088    1391.9638    1613.8073    1422.8041    666.37948    550.22734    82.626802 
   31100    169.55787    -107.7734   0.15341952   -107.61998    2422.9553    4.3540295    4.3540295    4.3540295    2422.9553   -3197.9025    10228.023    238.74573    -546.8575   -1285.8434   -576.36397    82.541831 
   31200    231.00557   -107.82877   0.20901869   -107.61975   -4771.1988    4.3564616    4.3564616    4.3564616   -4771.1988   -8493.8196   -2959.3922   -2860.3848    970.52753   -2890.1986    1453.7615    82.680231 
   31300    177.04868   -107.77944   0.16019737   -107.61924    1888.0436    4.3546513    4.3546513    4.3546513    1888.0436   -6109.9518    12901.906   -1127.8236    989.55189    850.03078   -194.33722    82.577202 
   31400    212.96626   -107.81133   0.19269635   -107.61863   -2950.2407    4.3550819    4.3550819    4.3550819   -2950.2407   -8504.2942   -3612.9464    3266.5185   -1595.6539   -2840.0314   -738.16196    82.601697 
   31500    180.09058   -107.78164   0.16294974   -107.61869   -59.003099    4.3559431    4.3559431    4.3559431   -59.003099   -6913.4831    10441.421   -3704.9471    1090.7391    1069.5285    1180.1187    82.650714 
   31600    250.04454   -107.84464   0.22624555   -107.61839    -2148.965    4.3544307    4.3544307    4.3544307    -2148.965   -7386.7973   -3654.1677    4594.0701   -2572.7219    1.0745484   -3245.7454     82.56465 
   31700    131.40206   -107.73863   0.11889535   -107.61973    1523.7717    4.3556097    4.3556097    4.3556097    1523.7717   -2508.3342    11325.531   -4245.8818     1894.333   -2312.0944    358.15967    82.631735 
   31800    257.94609   -107.85232   0.23339504   -107.61893   -2430.7134    4.3551434    4.3551434    4.3551434   -2430.7134   -9567.9493   -615.51415    2891.3233   -862.43349    -129.7725   -1277.3784    82.605197 
   31900    144.55579   -107.74994   0.13079711   -107.61914    2553.7671    4.3548101    4.3548101    4.3548101    2553.7671   -1463.5026     6671.213     2453.591    458.90608   -2661.0682    1250.6276    82.586232 
   32000    227.19262   -107.82424   0.20556866   -107.61867    -3294.381    4.3558099    4.3558099    4.3558099    -3294.381   -11720.281    1772.5398    64.597627   -249.60067   -1185.8249   -663.71747    82.643127 
   32100    222.57472    -107.8198   0.20139028   -107.61841    -145.8692    4.3544217    4.3544217    4.3544217    -145.8692   -3699.4152    841.09384    2420.7138   -90.075827    468.76616    1113.1833    82.564137 
   32200    176.44806   -107.77961   0.15965392   -107.61996    -850.6297    4.3559466    4.3559466    4.3559466    -850.6297   -8281.0869    7281.7156   -1552.5179    1359.4226   -419.61103   -140.62053    82.650912 
   32300    230.73311   -107.82863   0.20877217   -107.61986   -651.22673    4.3544885    4.3544885    4.3544885   -651.22673   -5400.9102   -1223.6484    4670.8785    331.00269    -1193.428     2788.813     82.56794 
   32400    166.83454   -107.77095    0.1509554      -107.62    2801.2613    4.3551094    4.3551094    4.3551094    2801.2613   -3525.9943    10287.145    1642.6336    1363.2217   -507.86157   -48.494436    82.603264 
   32500    191.28638   -107.79262   0.17307994   -107.61954   -1119.3546    4.3556782    4.3556782    4.3556782   -1119.3546     -8823.44   -3140.0109     8605.387   -38.815589   -564.39259    447.41054    82.635631 
   32600    216.48208   -107.81422   0.19587753   -107.61834     298.5983    4.3540834    4.3540834    4.3540834     298.5983   -5083.9666    9280.5518   -3300.7903    532.67659   -161.81369    308.99361    82.544896 
   32700    215.35437   -107.81307   0.19485716   -107.61822    -2624.445     4.356914     4.356914     4.356914    -2624.445   -7759.9813   -4039.1678    3925.8141   -363.74168    2221.1458   -2323.1325    82.705989 
   32800    192.67193   -107.79263   0.17433361    -107.6183    901.81881    4.3538766    4.3538766    4.3538766    901.81881   -7100.1925    9460.6763    344.97262    -614.0271   -2111.3344    1148.4981    82.533138 
   32900    225.36873   -107.82214   0.20391836   -107.61823   -655.87878    4.3557129    4.3557129    4.3557129   -655.87878   -3737.3969     682.9316     1086.829    937.59488    1049.7892   -1862.6246    82.637608 
   33000     139.2497   -107.74503   0.12599606   -107.61904    2250.5306    4.3558551    4.3558551    4.3558551    2250.5306    -6474.725    4915.3547    8310.9622   -116.69984   -1092.8514    2213.1667    82.645699 
   33100     246.2169   -107.84153   0.22278223   -107.61875   -1335.2286     4.353375     4.353375     4.353375   -1335.2286   -5732.5347    6310.9103   -4584.0615   -514.94894   -1961.1235   -1733.3213    82.504613 
   33200    185.15794   -107.78683   0.16753479   -107.61929    244.95749    4.3566351    4.3566351    4.3566351    244.95749    -4669.896    147.93405    5256.8344    598.85272    2685.7269    1604.3082    82.690105 
   33300    225.40243   -107.82395   0.20394886      -107.62   -2599.6646    4.3546758    4.3546758    4.3546758   -2599.6646   -10618.565    8769.2035   -5949.6323   -1208.1433   -2149.7533     141.2092    82.578594 
   33400    193.36143   -107.79498   0.17495749   -107.62002    995.88026    4.3544114    4.3544114    4.3544114    995.88026   -3910.1207    1963.4079    4934.3536    2369.2858    2088.0022    2343.7183    82.563554 
   33500     171.4621   -107.77477   0.15514251   -107.61963    439.58803    4.3570676    4.3570676    4.3570676    439.58803    -5496.144    6660.2585    154.64963   -982.00841   -1925.3783    233.49162    82.714735 
[...]
   91300    197.01244   -107.79658     0.178261   -107.61832   -138.47637      4.35759      4.35759      4.35759   -138.47637    6508.3501    2354.1172   -9277.8964    177.65497    1168.8259    -635.5418    82.744494 
   91400    210.19054   -107.80863   0.19018482   -107.61844    -473.6414    4.3537309    4.3537309    4.3537309    -473.6414    -157.8255   -3767.5379    2504.4392   -1333.9697   -633.44931   -2013.4462     82.52485 
   91500    179.77931   -107.78159    0.1626681   -107.61892    102.27635    4.3553396    4.3553396    4.3553396    102.27635    11301.923    140.29712   -11135.391    174.87085    -86.82335   -697.29065    82.616362 
   91600     202.9002   -107.80185   0.18358836   -107.61826   -147.54962     4.356567     4.356567     4.356567   -147.54962     3325.403   -3014.1335   -753.91842    552.82191    548.80733    765.78615    82.686233 
   91700     234.4544   -107.82997   0.21213927   -107.61783   -2678.6267    4.3533386    4.3533386    4.3533386   -2678.6267    3478.6314    299.45023   -11813.962    1214.3962    666.95599   -2050.3909    82.502544 
   91800    155.10563   -107.75845   0.14034283   -107.61811    1322.0908    4.3573064    4.3573064    4.3573064    1322.0908    3204.2566    1699.0835   -937.06784   -445.46014    1203.9222    93.566227    82.728336 
   91900    272.04631   -107.86378   0.24615322   -107.61763    -4198.423     4.354512     4.354512     4.354512    -4198.423    722.53087   -5497.3471   -7820.4529   -1023.7432   -1649.2599   -1292.7205    82.569277 
   92000    86.254514   -107.69767  0.078044897   -107.61963    4976.1658    4.3546285    4.3546285    4.3546285    4976.1658    12331.848    2966.3564   -369.70681   -841.91449   -860.15291   -1797.0349    82.575901 
   92100    299.20606   -107.88944   0.27072793   -107.61871   -7158.2189    4.3569933    4.3569933    4.3569933   -7158.2189   -1429.3187    -11023.47   -9021.8682    -376.4692    -1443.482    1566.3922    82.710505 
   92200    111.43856   -107.72041   0.10083195   -107.61958    3992.7697    4.3532692    4.3532692    4.3532692    3992.7697    8051.9434    6488.2801   -2561.9145    857.15652    1179.1215   -1965.9812    82.498599 
   92300    294.06173   -107.88404   0.26607324   -107.61797   -8250.7518    4.3574234    4.3574234    4.3574234   -8250.7518   -3487.4919   -8856.8401   -12407.923   -2008.5149    289.15378    288.45485    82.735003 
   92400    131.82184   -107.73769   0.11927517   -107.61842    4208.9885    4.3543391    4.3543391    4.3543391    4208.9885    10810.608    3384.4849   -1568.1278   -258.83683    534.28189   -1205.3802    82.559441 
   92500    234.55994   -107.83018   0.21223476   -107.61795    -4094.174    4.3551926    4.3551926    4.3551926    -4094.174    3488.7465   -5732.1481    -10039.12   -1298.6505    -1147.747   -2625.4156    82.607997 
   92600    169.25285   -107.77161   0.15314353   -107.61847    957.16144    4.3564409    4.3564409    4.3564409    957.16144    6663.8078   -5007.2519    1214.9285    1168.5566   -235.51665    161.07967    82.679053 
   92700    226.38374   -107.82294   0.20483676   -107.61811   -1587.3516    4.3538746    4.3538746    4.3538746   -1587.3516     2318.555   -97.887434   -6982.7223    518.25017   -327.00276   -1323.1783     82.53302 
   92800    189.52854   -107.78989    0.1714894    -107.6184    -1466.659     4.356555     4.356555     4.356555    -1466.659    4576.8556   -6640.4544   -2336.3783   -111.14192    1813.8679    36.049516    82.685548 
   92900     196.5673   -107.79572   0.17785822   -107.61786    797.45463    4.3547723    4.3547723    4.3547723    797.45463    10647.743    1379.3635   -9634.7423   -1109.4373   -1552.4044   -751.99598    82.584086 
   93000    200.47574   -107.79979   0.18139467   -107.61839   -498.86573      4.35472      4.35472      4.35472   -498.86573    5798.0627   -4280.7968   -3013.8631   -222.48333     -9.21968   -1844.9431    82.581111 
   93100    224.54069   -107.82173   0.20316914   -107.61856   -2005.6799    4.3564569    4.3564569    4.3564569   -2005.6799    6984.5645   -4906.1582   -8095.4461     115.4129   -2403.4164   -675.60417    82.679959 
   93200    185.33803   -107.78671   0.16769774   -107.61901    2669.7721    4.3540365    4.3540365    4.3540365    2669.7721    6300.8075    -1403.037    3111.5458   -298.00766    1053.3701    27.852411    82.542231 
   93300    214.62827   -107.81375   0.19420017   -107.61955   -1039.3908     4.355328     4.355328     4.355328   -1039.3908    10213.506   -6294.2004   -7037.4782   -449.65421    2004.8145    126.67655    82.615701 
   93400    175.70357   -107.77802   0.15898028   -107.61904    2688.1819    4.3555435    4.3555435    4.3555435    2688.1819    8124.2967   -1325.5412    1265.7902   -2333.5309     66.72071    116.06205    82.627967 
   93500    217.80783   -107.81557    0.1970771    -107.6185    477.58685    4.3542544    4.3542544    4.3542544    477.58685    11605.358   -330.43057   -9842.1671    405.26287    1429.6548   -59.749437    82.554622 
   93600    217.38366   -107.81488   0.19669331   -107.61819   -1556.0853    4.3562244    4.3562244    4.3562244   -1556.0853    2852.0471   -6090.9486   -1429.3544   -316.09413   -1051.2577   -1465.7162    82.666723 
   93700    188.02921   -107.78842   0.17013278   -107.61828    2509.7743    4.3546143    4.3546143    4.3546143    2509.7743    10595.366      2889.46   -5955.5033    191.24827    2428.5505    34.707945    82.575096 
   93800    199.00526   -107.79872   0.18006414   -107.61866    518.60478     4.354847     4.354847     4.354847    518.60478    9260.0935   -8280.4638    576.18465   -360.44113    664.98739   -771.91153    82.588335 
   93900    184.03579   -107.78512   0.16651945    -107.6186    1263.3439    4.3557997    4.3557997    4.3557997    1263.3439    3811.0538    4574.7829   -4595.8049   -893.46336    324.07758    114.55996    82.642548 
   94000     206.8245   -107.80519   0.18713915   -107.61805    935.30985    4.3546542    4.3546542    4.3546542    935.30985    10055.553   -4131.1345    -3118.489    77.838353   -394.48828    340.96054    82.577363 
   94100    217.26547   -107.81421   0.19658636   -107.61763   -2019.2875    4.3557512    4.3557512    4.3557512   -2019.2875   -224.24624    1239.2574   -7072.8737    47.228296   -908.92025   -1540.8935    82.639787 
   94200    201.26607   -107.79945   0.18210977   -107.61734    794.48316    4.3553885    4.3553885    4.3553885    794.48316    9136.4183   -2512.4114   -4240.5574    486.65934    62.540138   -608.25775    82.619144 
   94300    211.83919   -107.80896   0.19167655   -107.61728   -524.31303    4.3551027    4.3551027    4.3551027   -524.31303     4091.261   -2869.4587   -2794.7414   -1259.6927    756.49603   -1234.8865     82.60288 
   94400    176.04501   -107.77715   0.15928922   -107.61786    844.49953    4.3554871    4.3554871    4.3554871    844.49953    2583.3812    1472.8404   -1522.7229   -268.18098    682.59282     279.4249    82.624756 
   94500    203.49406   -107.80183    0.1841257   -107.61771    712.94892    4.3551176    4.3551176    4.3551176    712.94892    6930.1116   -1747.2284   -3044.0364   -1443.3477    805.60383    1586.5737    82.603733 
   94600    197.11656   -107.79657   0.17835521   -107.61821   -1028.4771    4.3550373    4.3550373    4.3550373   -1028.4771   -2636.2965    3428.6575   -3877.7922    254.58279   -6.8886583   -740.22945     82.59916 
   94700    210.96668   -107.80943   0.19088709   -107.61854   -1219.8427    4.3554229    4.3554229    4.3554229   -1219.8427    7954.3108   -3449.5718    -8164.267    -27.54924    1896.4757    510.17457    82.621106 
   94800    212.48221   -107.81096   0.19225837    -107.6187   -1115.0184    4.3556194    4.3556194    4.3556194   -1115.0184   -748.42042    89.759414   -2686.3942   -1582.4785    413.12075   -1064.1586    82.632289 
   94900    192.38432   -107.79254   0.17407337   -107.61847   -1162.1955    4.3551485    4.3551485    4.3551485   -1162.1955    1773.2517   -465.23446   -4794.6037    249.75164     2989.337     496.4667     82.60549 
   95000    193.77895   -107.79313   0.17533526   -107.61779    715.43994    4.3554075    4.3554075    4.3554075    715.43994    711.09054   -336.84455    1772.0738   -1825.9578    389.85768    1508.5287    82.620229 
   95100     196.5266   -107.79542    0.1778214    -107.6176   -894.80488    4.3554016    4.3554016    4.3554016   -894.80488   -3223.4851    2455.3795    -1916.309    968.78198    -1303.799   -906.17999    82.619894 
   95200    175.82908    -107.7769   0.15909385   -107.61781    64.952743    4.3550686    4.3550686    4.3550686    64.952743    7829.1127   -1201.9663   -6432.2881   -61.265109    471.67799    788.81343    82.600941 
   95300     253.0496    -107.8468   0.22896459   -107.61784   -3413.6555    4.3560806    4.3560806    4.3560806   -3413.6555   -4915.4587   -1774.2043   -3551.3034    -702.1351    -1667.503   -1563.1141     82.65854 
   95400    156.37552   -107.76005   0.14149186   -107.61856    618.51127    4.3546357    4.3546357    4.3546357    618.51127    6773.2542    3566.9947    -8484.715   -190.91766    2054.1703    -768.6645    82.576311 
   95500    239.57883   -107.83505   0.21677596   -107.61828   -2917.8726    4.3556342    4.3556342    4.3556342   -2917.8726   -6622.1782   -4045.2864    1913.8469   -1154.0155   -1025.1023    545.64909    82.633127 
   95600    153.44334    -107.7576   0.13883876   -107.61876    2663.3166    4.3551982    4.3551982    4.3551982    2663.3166    4529.4153    6779.3684   -3318.8338    582.81164   -652.75535   -994.42192    82.608314 
   95700    194.86564   -107.79451   0.17631852   -107.61819   -1322.5626    4.3550517    4.3550517    4.3550517   -1322.5626    554.30694   -4663.5101    141.51529    -50.96151    -154.7115    574.06631    82.599983 
   95800    240.75356   -107.83556   0.21783888   -107.61772   -2335.7965    4.3561717    4.3561717    4.3561717   -2335.7965   -307.66447    1858.5095   -8558.2344    -338.5155    481.61733   -925.18666    82.663725 
   95900    161.01464   -107.76444   0.14568943   -107.61875    1325.5572    4.3542325    4.3542325    4.3542325    1325.5572    6441.5404   -169.52818   -2295.3407   -1055.2729     1884.031   -1313.6539    82.553378 
   96000     274.1093   -107.86605   0.24801986   -107.61803   -6165.5073    4.3564477    4.3564477    4.3564477   -6165.5073   -7963.5144   -1467.1924    -9065.815   -25.495617    1170.3759    482.01837    82.679439 
   96100    98.467585   -107.70788   0.08909554   -107.61878    6508.8877    4.3549164    4.3549164    4.3549164    6508.8877    11762.812    4674.2632    3089.5877   -159.85393   -184.13688    1342.6784    82.592279 
   96200    268.27185    -107.8606   0.24273801   -107.61786   -5982.4206    4.3548492    4.3548492    4.3548492   -5982.4206   -7023.8293    -4874.501   -6048.9315     513.2648    488.71701   -326.63377    82.588461 
   96300    123.26618   -107.72988   0.11153383   -107.61835    4373.4323     4.356361     4.356361     4.356361    4373.4323    9862.7662    2034.5906    1222.9401   -267.65837   -1035.4161   -703.71838      82.6745 
   96400    290.35067   -107.88075   0.26271539   -107.61804    -5179.976    4.3541375    4.3541375    4.3541375    -5179.976     -3161.44   -3396.0913   -8982.3966   -617.63023    791.16614   -1248.6794    82.547975 
   96500    142.28035   -107.74839   0.12873825   -107.61966    1345.8172    4.3556166    4.3556166    4.3556166    1345.8172    2732.9708    3773.4686   -2468.9878    393.95982   -12.881447   -1579.6134    82.632126 
   96600    243.07135   -107.83855   0.21993607   -107.61861   -2024.9832    4.3561305    4.3561305    4.3561305   -2024.9832    3891.1203   -2483.6854   -7482.3844    546.30701   -928.17507    1680.5891    82.661381 
   96700    140.27194    -107.7457     0.126921   -107.61877    2638.8872    4.3535688    4.3535688    4.3535688    2638.8872   -688.25529    5330.6344    3274.2827    -121.5945    14.631787   -2397.9099    82.515633 
   96800    224.49446   -107.82076    0.2031273   -107.61764   -2908.2396    4.3572465    4.3572465    4.3572465   -2908.2396    7932.5668   -7708.0675   -8949.2181    199.22014   -1864.1254   -192.77624    82.724929 
   96900    194.74769   -107.79344    0.1762118   -107.61723    1687.8607    4.3540617    4.3540617    4.3540617    1687.8607   -2933.8726    6712.2687     1285.186   -518.10256    1786.0605    -1124.822    82.543665 
   97000    219.51969   -107.81642   0.19862603    -107.6178    -3120.078    4.3556286    4.3556286    4.3556286    -3120.078    4386.8923   -3323.1451   -10423.981    5.6827184   -229.78813   -2759.5185    82.632811 
   97100    197.33656   -107.79647   0.17855427   -107.61792    1104.9498     4.356207     4.356207     4.356207    1104.9498    2074.0558    3639.3872   -2398.5937    576.13547    1978.7121    1734.5259    82.665734 
   97200    190.25546   -107.79008   0.17214714   -107.61794     1635.655    4.3534546    4.3534546    4.3534546     1635.655    1644.2205    4617.5404   -1354.7958    781.13329   -839.34389   -1448.1592     82.50914 
   97300    201.56044   -107.80021   0.18237612   -107.61784   -1927.4489    4.3570406    4.3570406    4.3570406   -1927.4489    5181.3124   -7277.1702   -3686.4889    279.54872    231.23355    706.13488    82.713198 
   97400    181.92084   -107.78179    0.1646058   -107.61719    3313.3488    4.3543858    4.3543858    4.3543858    3313.3488    -352.1328    9590.6745    701.50459   -421.29503    319.65955   -672.90073    82.562098 
   97500     253.6416   -107.84686   0.22950025   -107.61736   -3986.8809    4.3550254    4.3550254    4.3550254   -3986.8809    2964.5273   -7289.5593   -7635.6108    162.34215    152.08036   -2359.9022    82.598482 
   97600    136.46966   -107.74243   0.12348062   -107.61895    3709.2955    4.3564105    4.3564105    4.3564105    3709.2955    4310.0906    11846.469   -5028.6728    732.10563    1042.9316    603.81071    82.677321 
   97700    282.11577   -107.87381   0.25526428   -107.61854    -1891.307    4.3533765    4.3533765    4.3533765    -1891.307    -150.6147   -2528.6217   -2994.6846    1377.6694   -2289.8918    594.49962    82.504697 
   97800    110.27502   -107.71947  0.099779153   -107.61969    3983.5885    4.3564591    4.3564591    4.3564591    3983.5885    10835.729      3806.77   -2691.7335   -1416.7353    1079.0537   -198.12248    82.680088 
   97900    258.23938   -107.85136   0.23366041    -107.6177    -1153.893     4.355045     4.355045     4.355045    -1153.893   -5461.7558     772.9419     1227.135    1179.5144   -2247.0262   -360.08094    82.599599 
   98000    179.50528   -107.78007   0.16242015   -107.61765    2337.2696    4.3543112    4.3543112    4.3543112    2337.2696    8495.1136    619.56098   -2102.8656   -2321.2961    941.05842   -923.25219    82.557851 
   98100    190.33309   -107.78983   0.17221738   -107.61761   -559.06999    4.3567817    4.3567817    4.3567817   -559.06999   -2725.7751    7200.1765   -6151.6114    1702.4289    782.09131   -1390.1136    82.698456 
   98200    239.88783   -107.83447   0.21705555   -107.61742    717.32918    4.3538618    4.3538618    4.3538618    717.32918    5276.5808   -2279.0442   -845.54897    236.66339    407.61298    2146.5169    82.532296 
   98300    152.63082   -107.75665   0.13810357   -107.61855    2096.9356    4.3556342    4.3556342    4.3556342    2096.9356    7598.9502    5459.0437   -6767.1871   -410.33183    147.93459   -1508.4269    82.633131 
   98400    237.85775   -107.83327   0.21521869   -107.61805   -1334.6269    4.3553525    4.3553525    4.3553525   -1334.6269   -4435.1913   -3125.2738    3556.5843    735.55617   -45.153092    469.24698    82.617099 
   98500    168.02952   -107.77028   0.15203664   -107.61824    4235.2753    4.3545172    4.3545172    4.3545172    4235.2753    11099.887    5700.2816   -4094.3423   -914.82348     567.5129    69.340676    82.569571 
   98600    219.06683   -107.81632   0.19821627   -107.61811   -2573.1802    4.3560963    4.3560963    4.3560963   -2573.1802   -6380.0928   -898.77331   -440.67451    1528.0514    1516.7051   -2554.3395    82.659432 
   98700    186.29872   -107.78663     0.168567   -107.61806    2756.0158    4.3543613    4.3543613    4.3543613    2756.0158    10900.311    4411.9589   -7044.2231   -248.78127    1085.0385    1572.1821    82.560704 
   98800    223.18213   -107.82005   0.20193988   -107.61812   -1672.5734    4.3559691    4.3559691    4.3559691   -1672.5734   -714.10706    -795.9114   -3507.7016    1950.2271   -1471.6108   -1495.7382    82.652193 
   98900    186.68043   -107.78718   0.16891237   -107.61827   -360.52658    4.3550895    4.3550895    4.3550895   -360.52658    3821.4633    194.79574   -5097.8388   -285.81554    684.51537    1118.2365    82.602131 
   99000    212.38767   -107.80966   0.19217283   -107.61749    1242.4344    4.3548776    4.3548776    4.3548776    1242.4344    1415.2949     325.4376    1986.5708    238.72181   -564.37874   -342.48376    82.590072 
   99100    192.34654   -107.79172   0.17403919   -107.61768   -1227.3128    4.3561661    4.3561661    4.3561661   -1227.3128    86.386787   -367.46178   -3400.8635    1400.9068    780.39388   -1869.9521    82.663404 
   99200    164.58598   -107.76657   0.14892085   -107.61765    2410.7531    4.3543098    4.3543098    4.3543098    2410.7531    4660.3268     2158.046    413.88657    7.8761173    1401.9935    212.05177    82.557774 
   99300    268.76286   -107.86048   0.24318228   -107.61729   -3688.8485    4.3560383    4.3560383    4.3560383   -3688.8485    274.31648   -3489.7437   -7851.1182    1803.8277   -18.132652   -171.01642    82.656128 
   99400    134.62683   -107.74066   0.12181318   -107.61885    1388.1642    4.3552044    4.3552044    4.3552044    1388.1642    6204.5587   -1767.0816   -272.98436   -682.15979    15.552577     848.7758    82.608667 
   99500    276.26628   -107.86758   0.24997153   -107.61761   -4053.9513    4.3551832    4.3551832    4.3551832   -4053.9513   -2992.0715   -2877.2043   -6292.5781    125.33008    1038.8636   -468.81038    82.607463 
   99600    132.69879   -107.73872   0.12006866   -107.61865    2940.4972    4.3555984    4.3555984    4.3555984    2940.4972    5022.8279    9.5856369     3789.078    49.501413    -751.4313   -1168.1512    82.631089 
   99700    232.40775   -107.82855   0.21028741   -107.61827   -4070.0697    4.3551916    4.3551916    4.3551916   -4070.0697   -2835.0539   -2361.7964   -7013.3587    848.27764    2541.5403   -1273.1882    82.607941 
   99800    152.30748   -107.75618   0.13781101   -107.61837    3779.9236    4.3550022    4.3550022    4.3550022    3779.9236      10208.3    -513.5797    1645.0509    2434.5631    676.85804    62.734799    82.597165 
   99900     253.2024   -107.84752   0.22910286   -107.61842   -5633.4395    4.3559074    4.3559074    4.3559074   -5633.4395    -1546.204   -6381.8632   -8972.2513   -1064.7944   -335.83312   -457.40171     82.64868 
  100000    164.92937   -107.76809   0.14923156   -107.61886    964.05163    4.3550878    4.3550878    4.3550878    964.05163    3878.4865   -1399.1312    412.79954    1665.2089   -499.95612   -554.37465    82.602037 
Loop time of 21.8271 on 1 procs for 100000 steps with 8 atoms

Pair  time (%) = 6.68345 (30.6199)
Kspce time (%) = 5.34585 (24.4918)
Neigh time (%) = 0 (0)
Comm  time (%) = 1.08006 (4.94824)
Outpt time (%) = 0.0224009 (0.102628)
Other time (%) = 8.69537 (39.8374)

Nlocal:    8 ave 8 max 8 min
Histogram: 1 0 0 0 0 0 0 0 0 0
Nghost:    2189 ave 2189 max 2189 min
Histogram: 1 0 0 0 0 0 0 0 0 0
Neighs:    2056 ave 2056 max 2056 min
Histogram: 1 0 0 0 0 0 0 0 0 0

Total # of neighbors = 2056
Ave neighs/atom = 257
Neighbor list builds = 0
Dangerous builds = 0
unfix 20
unfix 21
print "seeds:7030652"
seeds:7030652
