# ['Ni']

18 atoms
1 atom types

    0.0000     2.3718 xlo xhi
    0.0000     4.1081 ylo yhi
    0.0000    34.8528 zlo zhi

    0.0000     0.0000    -0.0004 xy xz yz

Atoms

1 1     0.0000     0.0000     0.0000
2 1     1.1859     0.6847     1.9363
3 1     0.0000     1.3694     3.8725
4 1     1.1859     2.0541     0.0000
5 1     0.0000     2.7388     1.9363
6 1     1.1859     3.4234     3.8725
7 1     0.0000     0.0000     5.8088
8 1     1.1859     0.6847     7.7451
9 1     0.0000     1.3694     9.6813
10 1     1.1859     2.0541     5.8088
11 1     0.0000     2.7388     7.7451
12 1     1.1859     3.4234     9.6813
13 1     0.0000     0.0000    11.6176
14 1     1.1859     0.6847    13.5539
15 1     0.0000     1.3694    15.4901
16 1     1.1859     2.0541    11.6176
17 1     0.0000     2.7388    13.5539
18 1     1.1859     3.4234    15.4901
