LAMMPS (11 Aug 2017)
Reading data file ...
  triclinic box = (0 0 0) to (3.5167 3.5167 3.5167) with tilt (0 -0 0)
  1 by 1 by 1 MPI processor grid
  reading atoms ...
  4 atoms
4 atoms in group Ni
Neighbor list info ...
  update every 1 steps, delay 0 steps, check yes
  max neighbors/atom: 2000, page size: 100000
  master list distance cutoff = 5.64464
  ghost atom cutoff = 5.64464
  binsize = 2.82232, bins = 2 2 2
  1 neighbor lists, perpetual/occasional/extra = 1 0 0
  (1) pair eam/alloy, perpetual
      attributes: half, newton on
      pair build: half/bin/newton/tri
      stencil: half/bin/3d/newton/tri
      bin: standard
Setting up cg style minimization ...
  Unit style    : metal
  Current step  : 0
WARNING: Energy due to 3 extra global DOFs will be included in minimizer energies
Per MPI rank memory allocation (min/avg/max) = 4.211 | 4.211 | 4.211 Mbytes
Step PotEng Xhi Xlo Yhi Ylo Zhi Xy Xz Yz Press Pxx Pyy Pzz Pxy Pxz Pyz c_eatoms 
       0   -22.659186       3.5167            0       3.5167            0       3.5167            0           -0            0   -346752.47   -346752.47   -346752.47   -346752.47 8.4354563e-12 3.2463726e-11 5.7514475e-11   -22.659186 
      10   -22.929747    3.4991165    0.0175835    3.4991165    0.0175835    3.4991165            0           -0            0   -323401.61   -323401.61   -323401.61   -323401.61 2.8715445e-11            0 1.3172223e-12   -22.929747 
      20   -23.174144     3.481533     0.035167     3.481533     0.035167     3.481533            0           -0            0    -294063.2    -294063.2    -294063.2    -294063.2 4.1281931e-11 4.4269439e-11 2.4171657e-11   -23.174144 
      30   -23.388302    3.4639495    0.0527505    3.4639495    0.0527505    3.4639495            0           -0            0   -257856.84   -257856.84   -257856.84   -257856.84 2.2126184e-11 -1.6804697e-12 4.0331273e-11   -23.388302 
      40   -23.567727     3.446366     0.070334     3.446366     0.070334     3.446366            0           -0            0   -213781.97   -213781.97   -213781.97   -213781.97 5.7784444e-13 -6.9341332e-12 5.2005999e-12   -23.567727 
      50   -23.707461    3.4287825    0.0879175    3.4287825    0.0879175    3.4287825            0           -0            0   -160701.58   -160701.58   -160701.58   -160701.58 -3.8162234e-11 -4.1739944e-11 -5.7243352e-11   -23.707461 
      60   -23.802033     3.411199     0.105501     3.411199     0.105501     3.411199            0           -0            0   -97323.574   -97323.574   -97323.574   -97323.574 -1.1325539e-10 -1.0402262e-10 -9.3558804e-11   -23.802033 
      70   -23.845524    3.3936155    0.1230845    3.3936155    0.1230845    3.3936155            0           -0            0   -23039.422   -23039.422   -23039.422   -23039.422 3.8770877e-11 -2.5423526e-11 5.0847052e-12   -23.845524 
      80   -23.847842    3.3886213    0.1280787    3.3886213    0.1280787    3.3886213            0           -0            0 -4.9754927e-10 -5.9526307e-10 -4.4965454e-10 -4.477302e-10 4.4901309e-12 -2.5657891e-11 -1.4753287e-11   -23.847842 
Loop time of 0.00155282 on 1 procs for 80 steps with 4 atoms

100.1% CPU use with 1 MPI tasks x no OpenMP threads

Minimization stats:
  Stopping criterion = energy tolerance
  Energy initial, next-to-last, final = 
        -22.6591864684     -23.8478424146     -23.8478424146
  Force two-norm initial, final = 16.3033 2.06375e-14
  Force max component initial, final = 9.41272 1.38904e-14
  Final line search alpha, max atom move = 1 1.38904e-14
  Iterations, force evaluations = 80 88

MPI task timing breakdown:
Section |  min time  |  avg time  |  max time  |%varavg| %total
---------------------------------------------------------------
Pair    | 0.00081873 | 0.00081873 | 0.00081873 |   0.0 | 52.73
Neigh   | 0          | 0          | 0          |   0.0 |  0.00
Comm    | 0.00014687 | 0.00014687 | 0.00014687 |   0.0 |  9.46
Output  | 7.391e-05  | 7.391e-05  | 7.391e-05  |   0.0 |  4.76
Modify  | 0          | 0          | 0          |   0.0 |  0.00
Other   |            | 0.0005133  |            |       | 33.06

Nlocal:    4 ave 4 max 4 min
Histogram: 1 0 0 0 0 0 0 0 0 0
Nghost:    360 ave 360 max 360 min
Histogram: 1 0 0 0 0 0 0 0 0 0
Neighs:    156 ave 156 max 156 min
Histogram: 1 0 0 0 0 0 0 0 0 0

Total # of neighbors = 156
Ave neighs/atom = 39
Neighbor list builds = 0
Dangerous builds = 0
pypospack:output_section:begin
tot_energy = -23.8478424146464
num_atoms = 4
a11 = 3.2605426009755
a22 = 3.2605426009755
a33 = 3.2605426009755
a12 = 0
a13 = -0
a23 = 0
tot_press = -4.97549268517788e-10
pxx = -5.95263069855403e-10
pyy = -4.49654538759308e-10
pzz = -4.47730196938654e-10
pxy = 4.49013091485756e-12
pxz = -2.56578909420432e-11
pyz = -1.47532872916749e-11
pypospack:output_section:done
pypospack:lammps_sim:done
Total wall time: 0:00:00
