    4    4    1    2
  0.1064635E+02  0.3492102E-09  0.3492102E-09  0.3492102E-09  0.5000000E-15
  1.000000000000000E-004
  CAR 
 automatically generated by pyflamestk   
     40      4     32
 
  0.1250000E+00  0.1250000E+00  0.1250000E+00  0.1250000E+00
    1        1.121069      1.121115   1.000000   1.000000
    2        5.333662      5.333701   1.000000   1.000000
    3        5.333662      5.333701   1.000000   1.000000
    4        5.333662      5.333701   1.000000   1.000000
    5        5.903812      5.903677   1.000000   1.000000
    6        5.903812      5.903677   1.000000   1.000000
    7        5.903812      5.903677   1.000000   1.000000
    8        7.442764      7.442597   1.000000   1.000000
    9        7.726952      7.726782   1.000000   1.000000
   10        7.726952      7.726782   1.000000   1.000000
   11        8.705377      8.705402   1.000000   1.000000
   12        8.705377      8.705402   1.000000   1.000000
   13        8.726448      8.726311   1.000000   1.000000
   14        8.726448      8.726311   1.000000   1.000000
   15        8.726448      8.726311   1.000000   1.000000
   16        9.206795      9.206774   1.021581   1.021576
   17        9.206795      9.206774   1.021581   1.021576
   18        9.206795      9.206774   1.021581   1.021576
   19        9.610071      9.609922   0.199992   0.200483
   20        9.610071      9.609922   0.199992   0.200483
   21        9.610071      9.609922   0.199992   0.200483
   22       12.353388     12.353382  -0.000000  -0.000000
   23       12.353388     12.353382  -0.000000  -0.000000
   24       12.353388     12.353382  -0.000000  -0.000000
   25       20.690281     20.690293   0.000000   0.000000
   26       20.690281     20.690293   0.000000   0.000000
   27       20.690281     20.690293   0.000000   0.000000
   28       22.009292     22.009319   0.000000   0.000000
   29       22.009292     22.009319   0.000000   0.000000
   30       22.009292     22.009319   0.000000   0.000000
   31       25.660947     25.660998   0.000000   0.000000
   32       25.660947     25.660998   0.000000   0.000000
 
  0.3750000E+00  0.1250000E+00  0.1250000E+00  0.3750000E+00
    1        2.639054      2.639097   1.000000   1.000000
    2        4.785465      4.785502   1.000000   1.000000
    3        5.998151      5.998177   1.000000   1.000000
    4        5.998151      5.998177   1.000000   1.000000
    5        6.350606      6.350466   1.000000   1.000000
    6        6.360742      6.360627   1.000000   1.000000
    7        6.360742      6.360627   1.000000   1.000000
    8        7.001367      7.001211   1.000000   1.000000
    9        7.401125      7.401000   1.000000   1.000000
   10        7.401125      7.401000   1.000000   1.000000
   11        7.812367      7.812323   1.000000   1.000000
   12        7.882114      7.882029   1.000000   1.000000
   13        8.034592      8.034447   1.000000   1.000000
   14        8.553071      8.553013   1.000000   1.000000
   15        8.620525      8.620419   1.000000   1.000000
   16        8.754217      8.754233   1.000000   1.000000
   17        8.754217      8.754233   1.000000   1.000000
   18        9.013196      9.013192   1.000731   1.000731
   19        9.403953      9.403901   0.939779   0.939884
   20        9.523784      9.523599   0.539995   0.540771
   21        9.523784      9.523599   0.539995   0.540771
   22        9.623427      9.623329   0.158050   0.158342
   23       14.675503     14.675492  -0.000000  -0.000000
   24       14.675503     14.675492  -0.000000  -0.000000
   25       17.980205     17.980205   0.000000   0.000000
   26       17.980205     17.980205   0.000000   0.000000
   27       21.701173     21.701188   0.000000   0.000000
   28       21.701173     21.701188   0.000000   0.000000
   29       23.798349     23.798368   0.000000   0.000000
   30       23.980756     23.980784   0.000000   0.000000
   31       23.980756     23.980784   0.000000   0.000000
   32       26.908549     26.908572   0.000000   0.000000
 
  0.3750000E+00  0.3750000E+00  0.1250000E+00  0.3750000E+00
    1        3.909201      3.909227   1.000000   1.000000
    2        5.536632      5.536610   1.000000   1.000000
    3        5.536632      5.536610   1.000000   1.000000
    4        6.046572      6.046470   1.000000   1.000000
    5        6.640064      6.640101   1.000000   1.000000
    6        6.747593      6.747520   1.000000   1.000000
    7        6.747593      6.747520   1.000000   1.000000
    8        7.025273      7.025137   1.000000   1.000000
    9        7.210838      7.210760   1.000000   1.000000
   10        7.210838      7.210760   1.000000   1.000000
   11        7.329419      7.329288   1.000000   1.000000
   12        7.648605      7.648539   1.000000   1.000000
   13        7.984575      7.984507   1.000000   1.000000
   14        8.336100      8.336093   1.000000   1.000000
   15        8.337068      8.337032   1.000000   1.000000
   16        8.337068      8.337032   1.000000   1.000000
   17        8.642762      8.642680   1.000000   1.000000
   18        9.172323      9.172202   1.014254   1.014231
   19        9.172323      9.172202   1.014254   1.014231
   20        9.239929      9.239777   1.029112   1.029080
   21        9.585203      9.585130   0.288167   0.288443
   22       11.110357     11.110292  -0.000000  -0.000000
   23       11.110357     11.110292  -0.000000  -0.000000
   24       13.421659     13.421638  -0.000000  -0.000000
   25       16.960843     16.960821   0.000000   0.000000
   26       19.784167     19.784164   0.000000   0.000000
   27       19.784167     19.784164   0.000000   0.000000
   28       22.788269     22.788274   0.000000   0.000000
   29       22.915290     22.915306   0.000000   0.000000
   30       25.391162     25.391182   0.000000   0.000000
   31       25.391162     25.391182   0.000000   0.000000
   32       28.266436     28.266461   0.000000   0.000000
 
  0.3750000E+00  0.3750000E+00  0.3750000E+00  0.1250000E+00
    1        4.526161      4.526132   1.000000   1.000000
    2        5.281543      5.281461   1.000000   1.000000
    3        5.281543      5.281461   1.000000   1.000000
    4        5.281543      5.281461   1.000000   1.000000
    5        7.247672      7.247678   1.000000   1.000000
    6        7.247672      7.247678   1.000000   1.000000
    7        7.247672      7.247678   1.000000   1.000000
    8        7.653479      7.653419   1.000000   1.000000
    9        7.653479      7.653419   1.000000   1.000000
   10        7.810850      7.810802   1.000000   1.000000
   11        7.810850      7.810802   1.000000   1.000000
   12        7.810850      7.810802   1.000000   1.000000
   13        7.869637      7.869588   1.000000   1.000000
   14        7.900342      7.900242   1.000000   1.000000
   15        7.900342      7.900242   1.000000   1.000000
   16        7.900342      7.900242   1.000000   1.000000
   17        9.279763      9.279671   1.035193   1.035188
   18        9.279763      9.279671   1.035193   1.035188
   19        9.518451      9.518343   0.562418   0.562871
   20        9.518451      9.518343   0.562418   0.562871
   21        9.518451      9.518343   0.562418   0.562871
   22       11.125147     11.125120  -0.000000  -0.000000
   23       11.125147     11.125120  -0.000000  -0.000000
   24       11.125147     11.125120  -0.000000  -0.000000
   25       16.312114     16.312067   0.000000   0.000000
   26       16.312114     16.312067   0.000000   0.000000
   27       16.312114     16.312067   0.000000   0.000000
   28       18.747627     18.747604   0.000000   0.000000
   29       29.298182     29.298204   0.000000   0.000000
   30       29.298182     29.298204   0.000000   0.000000
   31       29.298182     29.298204   0.000000   0.000000
   32       31.674669     31.674707   0.000000   0.000000
