LAMMPS (11 Aug 2017)
Reading data file ...
  triclinic box = (0 0 0) to (3.5167 3.5167 3.5167) with tilt (0 -0 0)
  1 by 1 by 1 MPI processor grid
  reading atoms ...
  4 atoms
4 atoms in group Ni
Neighbor list info ...
  update every 1 steps, delay 0 steps, check yes
  max neighbors/atom: 2000, page size: 100000
  master list distance cutoff = 11
  ghost atom cutoff = 11
  binsize = 5.5, bins = 1 1 1
  1 neighbor lists, perpetual/occasional/extra = 1 0 0
  (1) pair eam/alloy, perpetual
      attributes: half, newton on
      pair build: half/bin/newton/tri
      stencil: half/bin/3d/newton/tri
      bin: standard
Setting up cg style minimization ...
  Unit style    : metal
  Current step  : 0
WARNING: Energy due to 3 extra global DOFs will be included in minimizer energies
Per MPI rank memory allocation (min/avg/max) = 4.182 | 4.182 | 4.182 Mbytes
Step Temp PotEng Press Pxx Pyy Pzz Pxy Pxz Pyz Lx Ly Lz Volume 
       0            0   -17.971369   -4977.8308   -4977.8308   -4977.8308   -4977.8308 5.4671078e-11 5.479608e-11 2.1381518e-11       3.5167       3.5167       3.5167    43.491658 
       1            0   -17.971407   -4425.3016   -4425.3016   -4425.3016   -4425.3016 -1.6138116e-11 -5.6629616e-11 -4.1132442e-11    3.5163483    3.5163483    3.5163483    43.478612 
       2            0   -17.971441   -3897.5839   -3897.5839   -3897.5839   -3897.5839 2.5233574e-12 4.9130021e-11 -2.9206303e-11    3.5159967    3.5159967    3.5159967    43.465568 
       3            0   -17.971471   -3394.7722   -3394.7722   -3394.7722   -3394.7722 1.0909058e-10 1.1483009e-10 4.4008588e-11     3.515645     3.515645     3.515645    43.452527 
       4            0   -17.971496   -2911.8357   -2911.8357   -2911.8357   -2911.8357 1.0813726e-10 6.2303199e-11 6.8984228e-11    3.5152933    3.5152933    3.5152933    43.439489 
       5            0   -17.971518   -2410.3427   -2410.3427   -2410.3427   -2410.3427 3.7855704e-12 2.4160662e-11 3.7755108e-11    3.5149417    3.5149417    3.5149417    43.426453 
       6            0   -17.971535    -1882.314    -1882.314    -1882.314    -1882.314 -1.0841379e-12 6.9987641e-12 6.5108044e-11      3.51459      3.51459      3.51459     43.41342 
       7            0   -17.971548   -1327.6529   -1327.6529   -1327.6529   -1327.6529 -2.5507865e-12 -1.0727218e-11 2.160184e-11    3.5142383    3.5142383    3.5142383    43.400389 
       8            0   -17.971557   -746.26283   -746.26283   -746.26283   -746.26283 -1.0166345e-11 -2.853635e-11 -2.3140978e-11    3.5138866    3.5138866    3.5138866    43.387362 
       9            0   -17.971561    -145.7006    -145.7006    -145.7006    -145.7006 1.2071255e-11 2.6710066e-11 4.4105944e-11     3.513535     3.513535     3.513535    43.374336 
      10            0   -17.971561     2.359277     2.359277     2.359277     2.359277 -7.3269999e-11 4.4401641e-12 -1.8695237e-11    3.5134468    3.5134468    3.5134468    43.371072 
      11            0   -17.971561   0.12087583   0.12087583   0.12087583   0.12087583 4.6957682e-11 9.4797656e-11 2.5126378e-11    3.5134481    3.5134481    3.5134481    43.371121 
      12            0   -17.971561 -4.3674721e-05 -4.3674768e-05 -4.3674728e-05 -4.3674665e-05 5.2132472e-11 2.9275473e-11 -2.7886558e-12    3.5134482    3.5134482    3.5134482    43.371124 
      13            0   -17.971561 3.505138e-06 3.5051611e-06 3.5051882e-06 3.5050646e-06 -3.9651123e-11 2.1361838e-11 6.4406115e-12    3.5134482    3.5134482    3.5134482    43.371124 
      14            0   -17.971561 -8.751619e-11 -3.719779e-11 -1.6595675e-10 -5.9394032e-11 1.3270459e-11 -2.5387338e-11 -7.8339381e-11    3.5134482    3.5134482    3.5134482    43.371124 
Loop time of 0.00209785 on 1 procs for 14 steps with 4 atoms

98.1% CPU use with 1 MPI tasks x no OpenMP threads

Minimization stats:
  Stopping criterion = force tolerance
  Energy initial, next-to-last, final = 
        -17.9713688048     -17.9715607378     -17.9715607378
  Force two-norm initial, final = 0.234046 6.17761e-15
  Force max component initial, final = 0.135125 4.49663e-15
  Final line search alpha, max atom move = 1 4.49663e-15
  Iterations, force evaluations = 14 19

MPI task timing breakdown:
Section |  min time  |  avg time  |  max time  |%varavg| %total
---------------------------------------------------------------
Pair    | 0.0013518  | 0.0013518  | 0.0013518  |   0.0 | 64.44
Neigh   | 0          | 0          | 0          |   0.0 |  0.00
Comm    | 0.00015998 | 0.00015998 | 0.00015998 |   0.0 |  7.63
Output  | 0.00011539 | 0.00011539 | 0.00011539 |   0.0 |  5.50
Modify  | 0          | 0          | 0          |   0.0 |  0.00
Other   |            | 0.0004706  |            |       | 22.43

Nlocal:    4 ave 4 max 4 min
Histogram: 1 0 0 0 0 0 0 0 0 0
Nghost:    1684 ave 1684 max 1684 min
Histogram: 1 0 0 0 0 0 0 0 0 0
Neighs:    1060 ave 1060 max 1060 min
Histogram: 1 0 0 0 0 0 0 0 0 0

Total # of neighbors = 1060
Ave neighs/atom = 265
Neighbor list builds = 0
Dangerous builds = 0
System init for write_restart ...
Reading restart file ...
  restart file = 11 Aug 2017, LAMMPS = 11 Aug 2017
  triclinic box = (0.00162589 0.00162589 0.00162589) to (3.51507 3.51507 3.51507) with tilt (0 -0 0)
  1 by 1 by 1 MPI processor grid
  4 atoms
4 atoms in group Ni
Changing box ...
  triclinic box = (0.00162589 0.00162589 0.00162589) to (3.51507 3.51507 3.51507) with tilt (0 -0 0)
Neighbor list info ...
  update every 1 steps, delay 0 steps, check yes
  max neighbors/atom: 2000, page size: 100000
  master list distance cutoff = 11
  ghost atom cutoff = 11
  binsize = 5.5, bins = 1 1 1
  1 neighbor lists, perpetual/occasional/extra = 1 0 0
  (1) pair eam/alloy, perpetual
      attributes: half, newton on
      pair build: half/bin/newton/tri
      stencil: half/bin/3d/newton/tri
      bin: standard
Setting up cg style minimization ...
  Unit style    : metal
  Current step  : 14
Per MPI rank memory allocation (min/avg/max) = 4.182 | 4.182 | 4.182 Mbytes
Step Temp PotEng Press Pxx Pyy Pzz Pxy Pxz Pyz Lx Ly Lz Volume 
      14            0   -17.971561    1.9667476    2.1045637    1.8978396    1.8978396 -5.5480967e-11 1.0041367e-10 2.2948531e-11    3.5134447    3.5134482    3.5134482     43.37108 
      15            0   -17.971561    1.9667476    2.1045637    1.8978396    1.8978396 1.4999999e-11 -1.4799147e-11 -2.512759e-11    3.5134447    3.5134482    3.5134482     43.37108 
Loop time of 0.000247955 on 1 procs for 1 steps with 4 atoms

77.4% CPU use with 1 MPI tasks x no OpenMP threads

Minimization stats:
  Stopping criterion = force tolerance
  Energy initial, next-to-last, final = 
        -17.9715607378     -17.9715607378     -17.9715607378
  Force two-norm initial, final = 5.39123e-15 4.87755e-15
  Force max component initial, final = 2.35922e-15 2.52576e-15
  Final line search alpha, max atom move = 1 2.52576e-15
  Iterations, force evaluations = 1 2

MPI task timing breakdown:
Section |  min time  |  avg time  |  max time  |%varavg| %total
---------------------------------------------------------------
Pair    | 0.0002079  | 0.0002079  | 0.0002079  |   0.0 | 83.85
Neigh   | 0          | 0          | 0          |   0.0 |  0.00
Comm    | 2.2411e-05 | 2.2411e-05 | 2.2411e-05 |   0.0 |  9.04
Output  | 0          | 0          | 0          |   0.0 |  0.00
Modify  | 0          | 0          | 0          |   0.0 |  0.00
Other   |            | 1.764e-05  |            |       |  7.12

Nlocal:    4 ave 4 max 4 min
Histogram: 1 0 0 0 0 0 0 0 0 0
Nghost:    1684 ave 1684 max 1684 min
Histogram: 1 0 0 0 0 0 0 0 0 0
Neighs:    1060 ave 1060 max 1060 min
Histogram: 1 0 0 0 0 0 0 0 0 0

Total # of neighbors = 1060
Ave neighs/atom = 265
Neighbor list builds = 0
Dangerous builds = 0
Reading restart file ...
  restart file = 11 Aug 2017, LAMMPS = 11 Aug 2017
  triclinic box = (0.00162589 0.00162589 0.00162589) to (3.51507 3.51507 3.51507) with tilt (0 -0 0)
  1 by 1 by 1 MPI processor grid
  4 atoms
4 atoms in group Ni
Changing box ...
  triclinic box = (0.00162589 0.00162589 0.00162589) to (3.51508 3.51507 3.51507) with tilt (0 -0 0)
Neighbor list info ...
  update every 1 steps, delay 0 steps, check yes
  max neighbors/atom: 2000, page size: 100000
  master list distance cutoff = 11
  ghost atom cutoff = 11
  binsize = 5.5, bins = 1 1 1
  1 neighbor lists, perpetual/occasional/extra = 1 0 0
  (1) pair eam/alloy, perpetual
      attributes: half, newton on
      pair build: half/bin/newton/tri
      stencil: half/bin/3d/newton/tri
      bin: standard
Setting up cg style minimization ...
  Unit style    : metal
  Current step  : 14
Per MPI rank memory allocation (min/avg/max) = 4.182 | 4.182 | 4.182 Mbytes
Step Temp PotEng Press Pxx Pyy Pzz Pxy Pxz Pyz Lx Ly Lz Volume 
      14            0   -17.971561   -1.9667551    -2.104572   -1.8978466   -1.8978466 4.8000709e-12 1.3116538e-10 5.4717514e-11    3.5134517    3.5134482    3.5134482    43.371167 
      15            0   -17.971561   -1.9667551    -2.104572   -1.8978466   -1.8978466 -3.3548508e-11 2.0371041e-11 4.0109643e-11    3.5134517    3.5134482    3.5134482    43.371167 
Loop time of 0.000247955 on 1 procs for 1 steps with 4 atoms

83.1% CPU use with 1 MPI tasks x no OpenMP threads

Minimization stats:
  Stopping criterion = force tolerance
  Energy initial, next-to-last, final = 
        -17.9715607378     -17.9715607378     -17.9715607378
  Force two-norm initial, final = 5.52394e-15 4.77138e-15
  Force max component initial, final = 2.60902e-15 3.2474e-15
  Final line search alpha, max atom move = 1 3.2474e-15
  Iterations, force evaluations = 1 2

MPI task timing breakdown:
Section |  min time  |  avg time  |  max time  |%varavg| %total
---------------------------------------------------------------
Pair    | 0.00020814 | 0.00020814 | 0.00020814 |   0.0 | 83.94
Neigh   | 0          | 0          | 0          |   0.0 |  0.00
Comm    | 2.265e-05  | 2.265e-05  | 2.265e-05  |   0.0 |  9.13
Output  | 0          | 0          | 0          |   0.0 |  0.00
Modify  | 0          | 0          | 0          |   0.0 |  0.00
Other   |            | 1.717e-05  |            |       |  6.92

Nlocal:    4 ave 4 max 4 min
Histogram: 1 0 0 0 0 0 0 0 0 0
Nghost:    1684 ave 1684 max 1684 min
Histogram: 1 0 0 0 0 0 0 0 0 0
Neighs:    1060 ave 1060 max 1060 min
Histogram: 1 0 0 0 0 0 0 0 0 0

Total # of neighbors = 1060
Ave neighs/atom = 265
Neighbor list builds = 0
Dangerous builds = 0
Reading restart file ...
  restart file = 11 Aug 2017, LAMMPS = 11 Aug 2017
  triclinic box = (0.00162589 0.00162589 0.00162589) to (3.51507 3.51507 3.51507) with tilt (0 -0 0)
  1 by 1 by 1 MPI processor grid
  4 atoms
4 atoms in group Ni
Changing box ...
  triclinic box = (0.00162589 0.00162589 0.00162589) to (3.51507 3.51507 3.51507) with tilt (0 -0 0)
Neighbor list info ...
  update every 1 steps, delay 0 steps, check yes
  max neighbors/atom: 2000, page size: 100000
  master list distance cutoff = 11
  ghost atom cutoff = 11
  binsize = 5.5, bins = 1 1 1
  1 neighbor lists, perpetual/occasional/extra = 1 0 0
  (1) pair eam/alloy, perpetual
      attributes: half, newton on
      pair build: half/bin/newton/tri
      stencil: half/bin/3d/newton/tri
      bin: standard
Setting up cg style minimization ...
  Unit style    : metal
  Current step  : 14
Per MPI rank memory allocation (min/avg/max) = 4.182 | 4.182 | 4.182 Mbytes
Step Temp PotEng Press Pxx Pyy Pzz Pxy Pxz Pyz Lx Ly Lz Volume 
      14            0   -17.971561    1.9667476    1.8978396    2.1045637    1.8978396 -8.00407e-11 2.2888453e-11 3.1409066e-11    3.5134482    3.5134447    3.5134482     43.37108 
      15            0   -17.971561    1.9667476    1.8978396    2.1045637    1.8978396 1.3928571e-11 -2.6148094e-12 4.0322247e-11    3.5134482    3.5134447    3.5134482     43.37108 
Loop time of 0.000315905 on 1 procs for 1 steps with 4 atoms

85.5% CPU use with 1 MPI tasks x no OpenMP threads

Minimization stats:
  Stopping criterion = force tolerance
  Energy initial, next-to-last, final = 
        -17.9715607378     -17.9715607378     -17.9715607378
  Force two-norm initial, final = 5.14568e-15 6.33027e-15
  Force max component initial, final = 2.2482e-15 3.69843e-15
  Final line search alpha, max atom move = 1 3.69843e-15
  Iterations, force evaluations = 1 2

MPI task timing breakdown:
Section |  min time  |  avg time  |  max time  |%varavg| %total
---------------------------------------------------------------
Pair    | 0.00020981 | 0.00020981 | 0.00020981 |   0.0 | 66.42
Neigh   | 0          | 0          | 0          |   0.0 |  0.00
Comm    | 8.1778e-05 | 8.1778e-05 | 8.1778e-05 |   0.0 | 25.89
Output  | 0          | 0          | 0          |   0.0 |  0.00
Modify  | 0          | 0          | 0          |   0.0 |  0.00
Other   |            | 2.432e-05  |            |       |  7.70

Nlocal:    4 ave 4 max 4 min
Histogram: 1 0 0 0 0 0 0 0 0 0
Nghost:    1684 ave 1684 max 1684 min
Histogram: 1 0 0 0 0 0 0 0 0 0
Neighs:    1060 ave 1060 max 1060 min
Histogram: 1 0 0 0 0 0 0 0 0 0

Total # of neighbors = 1060
Ave neighs/atom = 265
Neighbor list builds = 0
Dangerous builds = 0
Reading restart file ...
  restart file = 11 Aug 2017, LAMMPS = 11 Aug 2017
  triclinic box = (0.00162589 0.00162589 0.00162589) to (3.51507 3.51507 3.51507) with tilt (0 -0 0)
  1 by 1 by 1 MPI processor grid
  4 atoms
4 atoms in group Ni
Changing box ...
  triclinic box = (0.00162589 0.00162589 0.00162589) to (3.51507 3.51508 3.51507) with tilt (0 -0 0)
Neighbor list info ...
  update every 1 steps, delay 0 steps, check yes
  max neighbors/atom: 2000, page size: 100000
  master list distance cutoff = 11
  ghost atom cutoff = 11
  binsize = 5.5, bins = 1 1 1
  1 neighbor lists, perpetual/occasional/extra = 1 0 0
  (1) pair eam/alloy, perpetual
      attributes: half, newton on
      pair build: half/bin/newton/tri
      stencil: half/bin/3d/newton/tri
      bin: standard
Setting up cg style minimization ...
  Unit style    : metal
  Current step  : 14
Per MPI rank memory allocation (min/avg/max) = 4.182 | 4.182 | 4.182 Mbytes
Step Temp PotEng Press Pxx Pyy Pzz Pxy Pxz Pyz Lx Ly Lz Volume 
      14            0   -17.971561   -1.9667551   -1.8978466    -2.104572   -1.8978466 1.5025471e-11 8.1848446e-11 5.025314e-11    3.5134482    3.5134517    3.5134482    43.371167 
      15            0   -17.971561   -1.9667551   -1.8978466    -2.104572   -1.8978466 -5.2136612e-11 2.8356322e-11 -2.1761206e-11    3.5134482    3.5134517    3.5134482    43.371167 
Loop time of 0.000257969 on 1 procs for 1 steps with 4 atoms

100.0% CPU use with 1 MPI tasks x no OpenMP threads

Minimization stats:
  Stopping criterion = force tolerance
  Energy initial, next-to-last, final = 
        -17.9715607378     -17.9715607378     -17.9715607378
  Force two-norm initial, final = 4.85384e-15 5.81034e-15
  Force max component initial, final = 2.44249e-15 3.51802e-15
  Final line search alpha, max atom move = 1 3.51802e-15
  Iterations, force evaluations = 1 2

MPI task timing breakdown:
Section |  min time  |  avg time  |  max time  |%varavg| %total
---------------------------------------------------------------
Pair    | 0.00020909 | 0.00020909 | 0.00020909 |   0.0 | 81.05
Neigh   | 0          | 0          | 0          |   0.0 |  0.00
Comm    | 2.9802e-05 | 2.9802e-05 | 2.9802e-05 |   0.0 | 11.55
Output  | 0          | 0          | 0          |   0.0 |  0.00
Modify  | 0          | 0          | 0          |   0.0 |  0.00
Other   |            | 1.907e-05  |            |       |  7.39

Nlocal:    4 ave 4 max 4 min
Histogram: 1 0 0 0 0 0 0 0 0 0
Nghost:    1684 ave 1684 max 1684 min
Histogram: 1 0 0 0 0 0 0 0 0 0
Neighs:    1060 ave 1060 max 1060 min
Histogram: 1 0 0 0 0 0 0 0 0 0

Total # of neighbors = 1060
Ave neighs/atom = 265
Neighbor list builds = 0
Dangerous builds = 0
Reading restart file ...
  restart file = 11 Aug 2017, LAMMPS = 11 Aug 2017
  triclinic box = (0.00162589 0.00162589 0.00162589) to (3.51507 3.51507 3.51507) with tilt (0 -0 0)
  1 by 1 by 1 MPI processor grid
  4 atoms
4 atoms in group Ni
Changing box ...
  triclinic box = (0.00162589 0.00162589 0.00162589) to (3.51507 3.51507 3.51507) with tilt (0 -0 0)
Neighbor list info ...
  update every 1 steps, delay 0 steps, check yes
  max neighbors/atom: 2000, page size: 100000
  master list distance cutoff = 11
  ghost atom cutoff = 11
  binsize = 5.5, bins = 1 1 1
  1 neighbor lists, perpetual/occasional/extra = 1 0 0
  (1) pair eam/alloy, perpetual
      attributes: half, newton on
      pair build: half/bin/newton/tri
      stencil: half/bin/3d/newton/tri
      bin: standard
Setting up cg style minimization ...
  Unit style    : metal
  Current step  : 14
Per MPI rank memory allocation (min/avg/max) = 4.182 | 4.182 | 4.182 Mbytes
Step Temp PotEng Press Pxx Pyy Pzz Pxy Pxz Pyz Lx Ly Lz Volume 
      14            0   -17.971561    1.9667476    1.8978396    1.8978396    2.1045637 7.6898695e-12 6.9767843e-11 5.9712502e-11    3.5134482    3.5134482    3.5134447     43.37108 
      15            0   -17.971561    1.9667476    1.8978396    1.8978396    2.1045637 8.145723e-12 -1.8828173e-10 -4.4331417e-11    3.5134482    3.5134482    3.5134447     43.37108 
Loop time of 0.000247002 on 1 procs for 1 steps with 4 atoms

87.9% CPU use with 1 MPI tasks x no OpenMP threads

Minimization stats:
  Stopping criterion = force tolerance
  Energy initial, next-to-last, final = 
        -17.9715607378     -17.9715607378     -17.9715607378
  Force two-norm initial, final = 5.98885e-15 5.72383e-15
  Force max component initial, final = 2.66107e-15 2.42167e-15
  Final line search alpha, max atom move = 1 2.42167e-15
  Iterations, force evaluations = 1 2

MPI task timing breakdown:
Section |  min time  |  avg time  |  max time  |%varavg| %total
---------------------------------------------------------------
Pair    | 0.0002079  | 0.0002079  | 0.0002079  |   0.0 | 84.17
Neigh   | 0          | 0          | 0          |   0.0 |  0.00
Comm    | 2.2173e-05 | 2.2173e-05 | 2.2173e-05 |   0.0 |  8.98
Output  | 0          | 0          | 0          |   0.0 |  0.00
Modify  | 0          | 0          | 0          |   0.0 |  0.00
Other   |            | 1.693e-05  |            |       |  6.85

Nlocal:    4 ave 4 max 4 min
Histogram: 1 0 0 0 0 0 0 0 0 0
Nghost:    1684 ave 1684 max 1684 min
Histogram: 1 0 0 0 0 0 0 0 0 0
Neighs:    1060 ave 1060 max 1060 min
Histogram: 1 0 0 0 0 0 0 0 0 0

Total # of neighbors = 1060
Ave neighs/atom = 265
Neighbor list builds = 0
Dangerous builds = 0
Reading restart file ...
  restart file = 11 Aug 2017, LAMMPS = 11 Aug 2017
  triclinic box = (0.00162589 0.00162589 0.00162589) to (3.51507 3.51507 3.51507) with tilt (0 -0 0)
  1 by 1 by 1 MPI processor grid
  4 atoms
4 atoms in group Ni
Changing box ...
  triclinic box = (0.00162589 0.00162589 0.00162589) to (3.51507 3.51507 3.51508) with tilt (0 -0 0)
Neighbor list info ...
  update every 1 steps, delay 0 steps, check yes
  max neighbors/atom: 2000, page size: 100000
  master list distance cutoff = 11
  ghost atom cutoff = 11
  binsize = 5.5, bins = 1 1 1
  1 neighbor lists, perpetual/occasional/extra = 1 0 0
  (1) pair eam/alloy, perpetual
      attributes: half, newton on
      pair build: half/bin/newton/tri
      stencil: half/bin/3d/newton/tri
      bin: standard
Setting up cg style minimization ...
  Unit style    : metal
  Current step  : 14
Per MPI rank memory allocation (min/avg/max) = 4.182 | 4.182 | 4.182 Mbytes
Step Temp PotEng Press Pxx Pyy Pzz Pxy Pxz Pyz Lx Ly Lz Volume 
      14            0   -17.971561   -1.9667551   -1.8978466   -1.8978466    -2.104572 -2.2812841e-11 1.1299467e-10 7.531397e-11    3.5134482    3.5134482    3.5134517    43.371167 
      15            0   -17.971561   -1.9667551   -1.8978466   -1.8978466    -2.104572 -1.446913e-11 8.5981017e-11 3.0011141e-12    3.5134482    3.5134482    3.5134517    43.371167 
Loop time of 0.000247002 on 1 procs for 1 steps with 4 atoms

89.5% CPU use with 1 MPI tasks x no OpenMP threads

Minimization stats:
  Stopping criterion = force tolerance
  Energy initial, next-to-last, final = 
        -17.9715607378     -17.9715607378     -17.9715607378
  Force two-norm initial, final = 6.55251e-15 6.616e-15
  Force max component initial, final = 2.72005e-15 3.60476e-15
  Final line search alpha, max atom move = 1 3.60476e-15
  Iterations, force evaluations = 1 2

MPI task timing breakdown:
Section |  min time  |  avg time  |  max time  |%varavg| %total
---------------------------------------------------------------
Pair    | 0.0002079  | 0.0002079  | 0.0002079  |   0.0 | 84.17
Neigh   | 0          | 0          | 0          |   0.0 |  0.00
Comm    | 2.1458e-05 | 2.1458e-05 | 2.1458e-05 |   0.0 |  8.69
Output  | 0          | 0          | 0          |   0.0 |  0.00
Modify  | 0          | 0          | 0          |   0.0 |  0.00
Other   |            | 1.764e-05  |            |       |  7.14

Nlocal:    4 ave 4 max 4 min
Histogram: 1 0 0 0 0 0 0 0 0 0
Nghost:    1684 ave 1684 max 1684 min
Histogram: 1 0 0 0 0 0 0 0 0 0
Neighs:    1060 ave 1060 max 1060 min
Histogram: 1 0 0 0 0 0 0 0 0 0

Total # of neighbors = 1060
Ave neighs/atom = 265
Neighbor list builds = 0
Dangerous builds = 0
Reading restart file ...
  restart file = 11 Aug 2017, LAMMPS = 11 Aug 2017
  triclinic box = (0.00162589 0.00162589 0.00162589) to (3.51507 3.51507 3.51507) with tilt (0 -0 0)
  1 by 1 by 1 MPI processor grid
  4 atoms
4 atoms in group Ni
Changing box ...
  triclinic box = (0.00162589 0.00162589 0.00162589) to (3.51507 3.51507 3.51507) with tilt (0 -0 -3.51345e-06)
Neighbor list info ...
  update every 1 steps, delay 0 steps, check yes
  max neighbors/atom: 2000, page size: 100000
  master list distance cutoff = 11
  ghost atom cutoff = 11
  binsize = 5.5, bins = 1 1 1
  1 neighbor lists, perpetual/occasional/extra = 1 0 0
  (1) pair eam/alloy, perpetual
      attributes: half, newton on
      pair build: half/bin/newton/tri
      stencil: half/bin/3d/newton/tri
      bin: standard
Setting up cg style minimization ...
  Unit style    : metal
  Current step  : 14
Per MPI rank memory allocation (min/avg/max) = 4.182 | 4.182 | 4.182 Mbytes
Step Temp PotEng Press Pxx Pyy Pzz Pxy Pxz Pyz Lx Ly Lz Volume 
      14            0   -17.971561 6.5348002e-07 -2.2518267e-07 6.0984802e-07 1.5757747e-06 -5.9307091e-11 4.4249455e-11   0.53471786    3.5134482    3.5134482    3.5134482    43.371124 
      15            0   -17.971561 6.5309703e-07 -2.2571756e-07 6.0955194e-07 1.5754567e-06 -7.5940196e-12 -4.8467452e-12   0.53471786    3.5134482    3.5134482    3.5134482    43.371124 
Loop time of 0.000256062 on 1 procs for 1 steps with 4 atoms

100.4% CPU use with 1 MPI tasks x no OpenMP threads

Minimization stats:
  Stopping criterion = force tolerance
  Energy initial, next-to-last, final = 
        -17.9715607378     -17.9715607378     -17.9715607378
  Force two-norm initial, final = 6.77497e-15 6.02811e-15
  Force max component initial, final = 2.83107e-15 2.36616e-15
  Final line search alpha, max atom move = 1 2.36616e-15
  Iterations, force evaluations = 1 2

MPI task timing breakdown:
Section |  min time  |  avg time  |  max time  |%varavg| %total
---------------------------------------------------------------
Pair    | 0.00021791 | 0.00021791 | 0.00021791 |   0.0 | 85.10
Neigh   | 0          | 0          | 0          |   0.0 |  0.00
Comm    | 2.1458e-05 | 2.1458e-05 | 2.1458e-05 |   0.0 |  8.38
Output  | 0          | 0          | 0          |   0.0 |  0.00
Modify  | 0          | 0          | 0          |   0.0 |  0.00
Other   |            | 1.669e-05  |            |       |  6.52

Nlocal:    4 ave 4 max 4 min
Histogram: 1 0 0 0 0 0 0 0 0 0
Nghost:    1684 ave 1684 max 1684 min
Histogram: 1 0 0 0 0 0 0 0 0 0
Neighs:    1060 ave 1060 max 1060 min
Histogram: 1 0 0 0 0 0 0 0 0 0

Total # of neighbors = 1060
Ave neighs/atom = 265
Neighbor list builds = 0
Dangerous builds = 0
Reading restart file ...
  restart file = 11 Aug 2017, LAMMPS = 11 Aug 2017
  triclinic box = (0.00162589 0.00162589 0.00162589) to (3.51507 3.51507 3.51507) with tilt (0 -0 0)
  1 by 1 by 1 MPI processor grid
  4 atoms
4 atoms in group Ni
Changing box ...
  triclinic box = (0.00162589 0.00162589 0.00162589) to (3.51507 3.51507 3.51507) with tilt (0 -0 3.51345e-06)
Neighbor list info ...
  update every 1 steps, delay 0 steps, check yes
  max neighbors/atom: 2000, page size: 100000
  master list distance cutoff = 11
  ghost atom cutoff = 11
  binsize = 5.5, bins = 1 1 1
  1 neighbor lists, perpetual/occasional/extra = 1 0 0
  (1) pair eam/alloy, perpetual
      attributes: half, newton on
      pair build: half/bin/newton/tri
      stencil: half/bin/3d/newton/tri
      bin: standard
Setting up cg style minimization ...
  Unit style    : metal
  Current step  : 14
Per MPI rank memory allocation (min/avg/max) = 4.182 | 4.182 | 4.182 Mbytes
Step Temp PotEng Press Pxx Pyy Pzz Pxy Pxz Pyz Lx Ly Lz Volume 
      14            0   -17.971561 6.5362919e-07 -2.2509005e-07 6.0997344e-07 1.5760042e-06 -7.1592687e-11 3.9240188e-11  -0.53471786    3.5134482    3.5134482    3.5134482    43.371124 
      15            0   -17.971561 6.5288729e-07 -2.2586731e-07 6.0920306e-07 1.5753261e-06 -3.9531219e-11 2.2833922e-11  -0.53471786    3.5134482    3.5134482    3.5134482    43.371124 
Loop time of 0.000247955 on 1 procs for 1 steps with 4 atoms

100.4% CPU use with 1 MPI tasks x no OpenMP threads

Minimization stats:
  Stopping criterion = force tolerance
  Energy initial, next-to-last, final = 
        -17.9715607378     -17.9715607378     -17.9715607378
  Force two-norm initial, final = 6.98196e-15 6.96852e-15
  Force max component initial, final = 2.80331e-15 3.36536e-15
  Final line search alpha, max atom move = 1 3.36536e-15
  Iterations, force evaluations = 1 2

MPI task timing breakdown:
Section |  min time  |  avg time  |  max time  |%varavg| %total
---------------------------------------------------------------
Pair    | 0.00020885 | 0.00020885 | 0.00020885 |   0.0 | 84.23
Neigh   | 0          | 0          | 0          |   0.0 |  0.00
Comm    | 2.408e-05  | 2.408e-05  | 2.408e-05  |   0.0 |  9.71
Output  | 0          | 0          | 0          |   0.0 |  0.00
Modify  | 0          | 0          | 0          |   0.0 |  0.00
Other   |            | 1.502e-05  |            |       |  6.06

Nlocal:    4 ave 4 max 4 min
Histogram: 1 0 0 0 0 0 0 0 0 0
Nghost:    1684 ave 1684 max 1684 min
Histogram: 1 0 0 0 0 0 0 0 0 0
Neighs:    1060 ave 1060 max 1060 min
Histogram: 1 0 0 0 0 0 0 0 0 0

Total # of neighbors = 1060
Ave neighs/atom = 265
Neighbor list builds = 0
Dangerous builds = 0
Reading restart file ...
  restart file = 11 Aug 2017, LAMMPS = 11 Aug 2017
  triclinic box = (0.00162589 0.00162589 0.00162589) to (3.51507 3.51507 3.51507) with tilt (0 -0 0)
  1 by 1 by 1 MPI processor grid
  4 atoms
4 atoms in group Ni
Changing box ...
  triclinic box = (0.00162589 0.00162589 0.00162589) to (3.51507 3.51507 3.51507) with tilt (0 -3.51345e-06 0)
Neighbor list info ...
  update every 1 steps, delay 0 steps, check yes
  max neighbors/atom: 2000, page size: 100000
  master list distance cutoff = 11
  ghost atom cutoff = 11
  binsize = 5.5, bins = 1 1 1
  1 neighbor lists, perpetual/occasional/extra = 1 0 0
  (1) pair eam/alloy, perpetual
      attributes: half, newton on
      pair build: half/bin/newton/tri
      stencil: half/bin/3d/newton/tri
      bin: standard
Setting up cg style minimization ...
  Unit style    : metal
  Current step  : 14
Per MPI rank memory allocation (min/avg/max) = 4.182 | 4.182 | 4.182 Mbytes
Step Temp PotEng Press Pxx Pyy Pzz Pxy Pxz Pyz Lx Ly Lz Volume 
      14            0   -17.971561 6.5359907e-07 6.0999977e-07 -2.2515298e-07 1.5759504e-06 -5.8511895e-11   0.53471786 7.6207133e-11    3.5134482    3.5134482    3.5134482    43.371124 
      15            0   -17.971561 6.5317865e-07 6.0959898e-07 -2.2561878e-07 1.5755558e-06 1.4767544e-11   0.53471786 -7.4234404e-11    3.5134482    3.5134482    3.5134482    43.371124 
Loop time of 0.000250101 on 1 procs for 1 steps with 4 atoms

91.6% CPU use with 1 MPI tasks x no OpenMP threads

Minimization stats:
  Stopping criterion = force tolerance
  Energy initial, next-to-last, final = 
        -17.9715607378     -17.9715607378     -17.9715607378
  Force two-norm initial, final = 5.13289e-15 5.58418e-15
  Force max component initial, final = 2.10942e-15 3.08954e-15
  Final line search alpha, max atom move = 1 3.08954e-15
  Iterations, force evaluations = 1 2

MPI task timing breakdown:
Section |  min time  |  avg time  |  max time  |%varavg| %total
---------------------------------------------------------------
Pair    | 0.00021005 | 0.00021005 | 0.00021005 |   0.0 | 83.98
Neigh   | 0          | 0          | 0          |   0.0 |  0.00
Comm    | 2.3127e-05 | 2.3127e-05 | 2.3127e-05 |   0.0 |  9.25
Output  | 0          | 0          | 0          |   0.0 |  0.00
Modify  | 0          | 0          | 0          |   0.0 |  0.00
Other   |            | 1.693e-05  |            |       |  6.77

Nlocal:    4 ave 4 max 4 min
Histogram: 1 0 0 0 0 0 0 0 0 0
Nghost:    1684 ave 1684 max 1684 min
Histogram: 1 0 0 0 0 0 0 0 0 0
Neighs:    1060 ave 1060 max 1060 min
Histogram: 1 0 0 0 0 0 0 0 0 0

Total # of neighbors = 1060
Ave neighs/atom = 265
Neighbor list builds = 0
Dangerous builds = 0
Reading restart file ...
  restart file = 11 Aug 2017, LAMMPS = 11 Aug 2017
  triclinic box = (0.00162589 0.00162589 0.00162589) to (3.51507 3.51507 3.51507) with tilt (0 -0 0)
  1 by 1 by 1 MPI processor grid
  4 atoms
4 atoms in group Ni
Changing box ...
  triclinic box = (0.00162589 0.00162589 0.00162589) to (3.51507 3.51507 3.51507) with tilt (0 3.51345e-06 0)
Neighbor list info ...
  update every 1 steps, delay 0 steps, check yes
  max neighbors/atom: 2000, page size: 100000
  master list distance cutoff = 11
  ghost atom cutoff = 11
  binsize = 5.5, bins = 1 1 1
  1 neighbor lists, perpetual/occasional/extra = 1 0 0
  (1) pair eam/alloy, perpetual
      attributes: half, newton on
      pair build: half/bin/newton/tri
      stencil: half/bin/3d/newton/tri
      bin: standard
Setting up cg style minimization ...
  Unit style    : metal
  Current step  : 14
Per MPI rank memory allocation (min/avg/max) = 4.182 | 4.182 | 4.182 Mbytes
Step Temp PotEng Press Pxx Pyy Pzz Pxy Pxz Pyz Lx Ly Lz Volume 
      14            0   -17.971561 6.5366598e-07 6.1007477e-07 -2.2513128e-07 1.5760545e-06 -8.670624e-11  -0.53471786 6.3056125e-11    3.5134482    3.5134482    3.5134482    43.371124 
      15            0   -17.971561 6.5309215e-07 6.0944232e-07 -2.2584002e-07 1.5756741e-06 -3.2055993e-12  -0.53471786 -1.2495376e-10    3.5134482    3.5134482    3.5134482    43.371124 
Loop time of 0.000247955 on 1 procs for 1 steps with 4 atoms

100.0% CPU use with 1 MPI tasks x no OpenMP threads

Minimization stats:
  Stopping criterion = force tolerance
  Energy initial, next-to-last, final = 
        -17.9715607378     -17.9715607378     -17.9715607378
  Force two-norm initial, final = 5.55492e-15 5.71184e-15
  Force max component initial, final = 2.77729e-15 2.72005e-15
  Final line search alpha, max atom move = 1 2.72005e-15
  Iterations, force evaluations = 1 2

MPI task timing breakdown:
Section |  min time  |  avg time  |  max time  |%varavg| %total
---------------------------------------------------------------
Pair    | 0.0002079  | 0.0002079  | 0.0002079  |   0.0 | 83.85
Neigh   | 0          | 0          | 0          |   0.0 |  0.00
Comm    | 2.3365e-05 | 2.3365e-05 | 2.3365e-05 |   0.0 |  9.42
Output  | 0          | 0          | 0          |   0.0 |  0.00
Modify  | 0          | 0          | 0          |   0.0 |  0.00
Other   |            | 1.669e-05  |            |       |  6.73

Nlocal:    4 ave 4 max 4 min
Histogram: 1 0 0 0 0 0 0 0 0 0
Nghost:    1684 ave 1684 max 1684 min
Histogram: 1 0 0 0 0 0 0 0 0 0
Neighs:    1060 ave 1060 max 1060 min
Histogram: 1 0 0 0 0 0 0 0 0 0

Total # of neighbors = 1060
Ave neighs/atom = 265
Neighbor list builds = 0
Dangerous builds = 0
Reading restart file ...
  restart file = 11 Aug 2017, LAMMPS = 11 Aug 2017
  triclinic box = (0.00162589 0.00162589 0.00162589) to (3.51507 3.51507 3.51507) with tilt (0 -0 0)
  1 by 1 by 1 MPI processor grid
  4 atoms
4 atoms in group Ni
Changing box ...
  triclinic box = (0.00162589 0.00162589 0.00162589) to (3.51507 3.51507 3.51507) with tilt (-3.51345e-06 -0 0)
Neighbor list info ...
  update every 1 steps, delay 0 steps, check yes
  max neighbors/atom: 2000, page size: 100000
  master list distance cutoff = 11
  ghost atom cutoff = 11
  binsize = 5.5, bins = 1 1 1
  1 neighbor lists, perpetual/occasional/extra = 1 0 0
  (1) pair eam/alloy, perpetual
      attributes: half, newton on
      pair build: half/bin/newton/tri
      stencil: half/bin/3d/newton/tri
      bin: standard
Setting up cg style minimization ...
  Unit style    : metal
  Current step  : 14
Per MPI rank memory allocation (min/avg/max) = 4.182 | 4.182 | 4.182 Mbytes
Step Temp PotEng Press Pxx Pyy Pzz Pxy Pxz Pyz Lx Ly Lz Volume 
      14            0   -17.971561 6.5368177e-07 6.1006063e-07 1.575992e-06 -2.250073e-07   0.53471786 -5.2102136e-12 5.5905975e-11    3.5134482    3.5134482    3.5134482    43.371124 
      15            0   -17.971561 6.5321543e-07 6.0957283e-07 1.5755434e-06 -2.2546997e-07   0.53471786 1.9158374e-11 2.1444445e-11    3.5134482    3.5134482    3.5134482    43.371124 
Loop time of 0.000250101 on 1 procs for 1 steps with 4 atoms

92.8% CPU use with 1 MPI tasks x no OpenMP threads

Minimization stats:
  Stopping criterion = quadratic factors are zero
  Energy initial, next-to-last, final = 
        -17.9715607378     -17.9715607378     -17.9715607378
  Force two-norm initial, final = 2.56013e-15 2.4643e-15
  Force max component initial, final = 1.47798e-15 1.04083e-15
  Final line search alpha, max atom move = 1 1.04083e-15
  Iterations, force evaluations = 1 2

MPI task timing breakdown:
Section |  min time  |  avg time  |  max time  |%varavg| %total
---------------------------------------------------------------
Pair    | 0.00021005 | 0.00021005 | 0.00021005 |   0.0 | 83.98
Neigh   | 0          | 0          | 0          |   0.0 |  0.00
Comm    | 2.5034e-05 | 2.5034e-05 | 2.5034e-05 |   0.0 | 10.01
Output  | 0          | 0          | 0          |   0.0 |  0.00
Modify  | 0          | 0          | 0          |   0.0 |  0.00
Other   |            | 1.502e-05  |            |       |  6.01

Nlocal:    4 ave 4 max 4 min
Histogram: 1 0 0 0 0 0 0 0 0 0
Nghost:    1684 ave 1684 max 1684 min
Histogram: 1 0 0 0 0 0 0 0 0 0
Neighs:    1060 ave 1060 max 1060 min
Histogram: 1 0 0 0 0 0 0 0 0 0

Total # of neighbors = 1060
Ave neighs/atom = 265
Neighbor list builds = 0
Dangerous builds = 0
Reading restart file ...
  restart file = 11 Aug 2017, LAMMPS = 11 Aug 2017
  triclinic box = (0.00162589 0.00162589 0.00162589) to (3.51507 3.51507 3.51507) with tilt (0 -0 0)
  1 by 1 by 1 MPI processor grid
  4 atoms
4 atoms in group Ni
Changing box ...
  triclinic box = (0.00162589 0.00162589 0.00162589) to (3.51507 3.51507 3.51507) with tilt (3.51345e-06 -0 0)
Neighbor list info ...
  update every 1 steps, delay 0 steps, check yes
  max neighbors/atom: 2000, page size: 100000
  master list distance cutoff = 11
  ghost atom cutoff = 11
  binsize = 5.5, bins = 1 1 1
  1 neighbor lists, perpetual/occasional/extra = 1 0 0
  (1) pair eam/alloy, perpetual
      attributes: half, newton on
      pair build: half/bin/newton/tri
      stencil: half/bin/3d/newton/tri
      bin: standard
Setting up cg style minimization ...
  Unit style    : metal
  Current step  : 14
Per MPI rank memory allocation (min/avg/max) = 4.182 | 4.182 | 4.182 Mbytes
Step Temp PotEng Press Pxx Pyy Pzz Pxy Pxz Pyz Lx Ly Lz Volume 
      14            0   -17.971561 6.5390793e-07 6.1034036e-07 1.5762424e-06 -2.2485901e-07  -0.53471786 4.7922688e-11 8.9483303e-11    3.5134482    3.5134482    3.5134482    43.371124 
      15            0   -17.971561 6.5352125e-07 6.0986386e-07 1.5759178e-06 -2.2521786e-07  -0.53471786 2.4703582e-11 1.0028979e-10    3.5134482    3.5134482    3.5134482    43.371124 
Loop time of 0.000249863 on 1 procs for 1 steps with 4 atoms

93.3% CPU use with 1 MPI tasks x no OpenMP threads

Minimization stats:
  Stopping criterion = force tolerance
  Energy initial, next-to-last, final = 
        -17.9715607378     -17.9715607378     -17.9715607378
  Force two-norm initial, final = 4.06412e-15 4.44576e-15
  Force max component initial, final = 1.83187e-15 2.2482e-15
  Final line search alpha, max atom move = 1 2.2482e-15
  Iterations, force evaluations = 1 2

MPI task timing breakdown:
Section |  min time  |  avg time  |  max time  |%varavg| %total
---------------------------------------------------------------
Pair    | 0.00021005 | 0.00021005 | 0.00021005 |   0.0 | 84.06
Neigh   | 0          | 0          | 0          |   0.0 |  0.00
Comm    | 2.5272e-05 | 2.5272e-05 | 2.5272e-05 |   0.0 | 10.11
Output  | 0          | 0          | 0          |   0.0 |  0.00
Modify  | 0          | 0          | 0          |   0.0 |  0.00
Other   |            | 1.454e-05  |            |       |  5.82

Nlocal:    4 ave 4 max 4 min
Histogram: 1 0 0 0 0 0 0 0 0 0
Nghost:    1684 ave 1684 max 1684 min
Histogram: 1 0 0 0 0 0 0 0 0 0
Neighs:    1060 ave 1060 max 1060 min
Histogram: 1 0 0 0 0 0 0 0 0 0

Total # of neighbors = 1060
Ave neighs/atom = 265
Neighbor list builds = 0
Dangerous builds = 0
c11 = 210.456781367537 GPa
c22 = 210.456781393492 GPa
c33 = 210.456781396281 GPa
c12 = 189.784311577601 GPa
c13 = 189.784311572954 GPa
c23 = 189.784311585148 GPa
c44 = 53.4717862840395 GPa
c55 = 53.4717862851544 GPa
c66 = 53.4717862847768 GPa
c14 = 2.11301252694383e-09 GPa
c15 = 3.03737407131613e-09 GPa
c16 = -6.06195410752567e-09 GPa
c24 = 1.02740561764044e-08 GPa
c25 = 4.75663756982103e-09 GPa
c26 = -7.70689291679496e-09 GPa
c34 = 2.08062994162344e-09 GPa
c35 = -9.81599459925432e-09 GPa
c36 = -5.73724360318159e-09 GPa
c45 = 5.75967156334915e-10 GPa
c46 = -1.17270365290665e-09 GPa
c56 = 3.10698393976055e-10 GPa
lammps_sim_done
Total wall time: 0:00:00
