    2    2   40    2
  0.2158484E+02  0.3508000E-09  0.3508000E-09  0.3508000E-09  0.5000000E-15
  1.000000000000000E-004
  CAR 
 automatically generated by pyflamestk   
     20      4     16
 
  0.1250000E+00  0.1250000E+00  0.1250000E+00  0.1250000E+00
    1        1.278955      1.298310   1.000000   1.000000
    2        5.712646      5.412050   1.000000   1.000000
    3        5.712646      5.412050   1.000000   1.000000
    4        7.364829      6.789313   1.000000   1.000000
    5        7.364829      6.789313   1.000000   1.000000
    6        8.062569      7.457449   1.000000   1.000000
    7        8.536366      7.940887   1.000003   1.000000
    8        8.765510      8.307889   1.001663   1.000000
    9        8.765510      8.307889   1.001663   1.000000
   10        9.440057      8.791738  -0.019884   1.002854
   11        9.440057      8.791738  -0.019884   1.002854
   12       17.610970     17.519109   0.000000   0.000000
   13       17.610970     17.519109   0.000000   0.000000
   14       18.622795     18.521476   0.000000   0.000000
   15       27.831787     27.788970   0.000000   0.000000
   16       27.831787     27.788970   0.000000   0.000000
 
  0.3750000E+00  0.1250000E+00  0.1250000E+00  0.3750000E+00
    1        3.493546      3.477403   1.000000   1.000000
    2        5.758062      5.537114   1.000000   1.000000
    3        6.433893      6.082731   1.000000   1.000000
    4        7.132408      6.639194   1.000000   1.000000
    5        7.253744      6.703323   1.000000   1.000000
    6        7.600771      7.059752   1.000000   1.000000
    7        8.314461      7.828839   1.000000   1.000000
    8        8.484552      7.906161   1.000000   1.000000
    9        8.835897      8.224708   1.006439   1.000000
   10        9.189850      8.685988   0.738335   1.000253
   11        9.314218      8.729607   0.239413   1.000744
   12       11.750248     11.494551  -0.000000  -0.000000
   13       20.765696     20.639985   0.000000   0.000000
   14       21.261438     21.144038   0.000000   0.000000
   15       25.339285     25.262837   0.000000   0.000000
   16       26.126949     26.035515   0.000000   0.000000
 
  0.3750000E+00  0.3750000E+00  0.1250000E+00  0.3750000E+00
    1        4.779835      4.580492   1.000000   1.000000
    2        5.516063      5.177223   1.000000   1.000000
    3        6.670822      6.133729   1.000000   1.000000
    4        6.807881      6.281242   1.000000   1.000000
    5        7.369588      7.069848   1.000000   1.000000
    6        7.499875      7.178697   1.000000   1.000000
    7        8.644490      8.127448   1.000082   1.000000
    8        8.779406      8.272755   1.002226   1.000000
    9        8.962871      8.493859   1.030612   1.000001
   10        9.462760      8.865205  -0.030892   1.010305
   11       10.078083      9.533708  -0.000000  -0.030868
   12       12.285449     12.085566  -0.000000  -0.000000
   13       16.191230     15.925484   0.000000   0.000000
   14       19.326487     19.156784   0.000000   0.000000
   15       23.167008     23.080079   0.000000   0.000000
   16       26.886949     26.876060   0.000000   0.000000
 
  0.3750000E+00  0.3750000E+00  0.3750000E+00  0.1250000E+00
    1        6.166975      5.693029   1.000000   1.000000
    2        6.201984      5.938696   1.000000   1.000000
    3        6.493374      6.015988   1.000000   1.000000
    4        6.493374      6.015988   1.000000   1.000000
    5        6.731129      6.338546   1.000000   1.000000
    6        6.731129      6.338546   1.000000   1.000000
    7        8.966164      8.479811   1.031254   1.000000
    8        8.966164      8.479811   1.031254   1.000000
    9        8.984132      8.486923   1.034136   1.000000
   10        8.984132      8.486923   1.034136   1.000000
   11       12.392050     12.008681  -0.000000  -0.000000
   12       15.899135     15.702183   0.000000   0.000000
   13       15.899135     15.702183   0.000000   0.000000
   14       18.123456     17.946680   0.000000   0.000000
   15       20.862329     20.739953   0.000000   0.000000
   16       20.862329     20.739953   0.000000   0.000000
