# ['Ni']

20 atoms
1 atom types

    0.0000     3.3278 xlo xhi
    0.0000     3.3278 ylo yhi
    0.0000    33.2776 zlo zhi

    0.0000    -0.0000     0.0000 xy xz yz

Atoms

1 1     0.0000     0.0000     0.0000
2 1     1.6639     1.6639     0.0000
3 1     1.6639     0.0000     1.6639
4 1     0.0000     1.6639     1.6639
5 1     0.0000     0.0000     3.3278
6 1     1.6639     1.6639     3.3278
7 1     1.6639     0.0000     4.9916
8 1     0.0000     1.6639     4.9916
9 1     0.0000     0.0000     6.6555
10 1     1.6639     1.6639     6.6555
11 1     1.6639     0.0000     8.3194
12 1     0.0000     1.6639     8.3194
13 1     0.0000     0.0000     9.9833
14 1     1.6639     1.6639     9.9833
15 1     1.6639     0.0000    11.6471
16 1     0.0000     1.6639    11.6471
17 1     0.0000     0.0000    13.3110
18 1     1.6639     1.6639    13.3110
19 1     1.6639     0.0000    14.9749
20 1     0.0000     1.6639    14.9749
