# ['Ni']

20 atoms
1 atom types

    0.0000     3.3009 xlo xhi
    0.0000     3.3009 ylo yhi
    0.0000    33.0091 zlo zhi

    0.0000    -0.0000     0.0000 xy xz yz

Atoms

1 1     0.0000     0.0000     0.0000
2 1     1.6505     1.6505     0.0000
3 1     1.6505     0.0000     1.6505
4 1     0.0000     1.6505     1.6505
5 1     0.0000     0.0000     3.3009
6 1     1.6505     1.6505     3.3009
7 1     1.6505     0.0000     4.9514
8 1     0.0000     1.6505     4.9514
9 1     0.0000     0.0000     6.6018
10 1     1.6505     1.6505     6.6018
11 1     1.6505     0.0000     8.2523
12 1     0.0000     1.6505     8.2523
13 1     0.0000     0.0000     9.9027
14 1     1.6505     1.6505     9.9027
15 1     1.6505     0.0000    11.5532
16 1     0.0000     1.6505    11.5532
17 1     0.0000     0.0000    13.2036
18 1     1.6505     1.6505    13.2036
19 1     1.6505     0.0000    14.8541
20 1     0.0000     1.6505    14.8541
