# ['Ni']

18 atoms
1 atom types

    0.0000     2.9348 xlo xhi
    0.0000     5.0832 ylo yhi
    0.0000    43.1250 zlo zhi

    0.0000     0.0000    -0.0005 xy xz yz

Atoms

1 1     0.0000     0.0000     0.0000
2 1     1.4674     0.8472     2.3958
3 1     0.0000     1.6944     4.7917
4 1     1.4674     2.5416     0.0000
5 1     0.0000     3.3888     2.3958
6 1     1.4674     4.2360     4.7917
7 1     0.0000     0.0000     7.1875
8 1     1.4674     0.8472     9.5833
9 1     0.0000     1.6944    11.9792
10 1     1.4674     2.5416     7.1875
11 1     0.0000     3.3888     9.5833
12 1     1.4674     4.2360    11.9792
13 1     0.0000     0.0000    14.3750
14 1     1.4674     0.8472    16.7708
15 1     0.0000     1.6944    19.1666
16 1     1.4674     2.5416    14.3750
17 1     0.0000     3.3888    16.7708
18 1     1.4674     4.2360    19.1666
