LAMMPS (10 Feb 2015)
# ---- initialize simulations
clear
units metal
dimension 3
boundary p p p
atom_style charge
atom_modify map array
# ---- create atoms
read_data /Users/eugeneragasa/pyflamestk_git/pypospack/tests/tests_integration/workflow/WorkflowLammpsThermalExpansion/param_2856/MgO_NaCl_unit.npt.T900/lammps.structure
  triclinic box = (0 0 0) to (4.2565 4.2565 4.2565) with tilt (0 0 0)
  1 by 1 by 1 MPI processor grid
  reading atoms ...
  8 atoms
# ---- define interatomic potential
include potential.mod
mass 1 24.305
mass 2 15.999

group Mg type 1
4 atoms in group Mg
group O type 2
4 atoms in group O

set group Mg charge 1.71287520642
  4 settings made for charge
set group O charge -1.71287520642
  4 settings made for charge

variable R_cut equal 10.0

pair_style buck/coul/long ${R_cut}
pair_style buck/coul/long 10
pair_coeff 1 1 0.0 0.5 0.0 ${R_cut}
pair_coeff 1 1 0.0 0.5 0.0 10
pair_coeff 1 2 1268.25800143 0.292150986054 0.0 ${R_cut}
pair_coeff 1 2 1268.25800143 0.292150986054 0.0 10
pair_coeff 2 2 34972.2762623 0.190168709461 15.9037418312 ${R_cut}
pair_coeff 2 2 34972.2762623 0.190168709461 15.9037418312 10

kspace_style pppm 1.0e-5

neighbor 1.0 bin
neigh_modify every 1 delay 0 check yes
# ---- define settings
compute eng all pe/atom
compute eatoms all reduce sum c_eng
# ---- run minimization
reset_timestep 0
fix 1 all box/relax iso 0.0 vmax 0.001
thermo 10
thermo_style custom step pe lx ly lz xy xz yz press pxx pyy pzz pxy pxz pyz c_eatoms
min_style cg
minimize 1e-25 1e-25 5000 10000
PPPM initialization ...
  G vector (1/distance) = 0.353245
  grid = 8 8 8
  stencil order = 5
  estimated absolute RMS force accuracy = 4.15075e-05
  estimated relative force accuracy = 2.88254e-06
  using double precision FFTs
  3d grid and FFT values/proc = 3375 512
Neighbor list info ...
  1 neighbor list requests
  update every 1 steps, delay 0 steps, check yes
  master list distance cutoff = 11
Memory usage per processor = 4.06549 Mbytes
Step PotEng Lx Ly Lz Xy Xz Yz Press Pxx Pyy Pzz Pxy Pxz Pyz eatoms 
       0    -118.2398       4.2565       4.2565       4.2565            0            0            0    92099.563    92099.563    92099.563    92099.563 -2.6648665e-10 1.3518399e-10 2.2028947e-10    -118.2398 
      10   -118.33067     4.299065     4.299065     4.299065            0            0            0    34673.493    34673.493    34673.493    34673.493 -1.1760899e-11 -1.3745134e-10 -5.0678772e-11   -118.33067 
      18   -118.34767    4.3277342    4.3277342    4.3277342            0            0            0    -4.391814    -4.391814    -4.391814    -4.391814 -1.1240186e-10 -1.6034703e-10 -8.891662e-11   -118.34767 
Loop time of 0.0119941 on 1 procs for 18 steps with 8 atoms

Minimization stats:
  Stopping criterion = linesearch alpha is zero
  Energy initial, next-to-last, final = 
        -118.239795936     -118.347671294     -118.347671294
  Force two-norm initial, final = 13.2992 0.00175014
  Force max component initial, final = 13.2992 0.000655584
  Final line search alpha, max atom move = 0.00390625 2.56088e-06
  Iterations, force evaluations = 18 35

Pair  time (%) = 0.00322104 (26.8551)
Kspce time (%) = 0.00194407 (16.2085)
Neigh time (%) = 0 (0)
Comm  time (%) = 0.000364542 (3.03934)
Outpt time (%) = 1.19209e-05 (0.0993897)
Other time (%) = 0.00645256 (53.7977)

Nlocal:    8 ave 8 max 8 min
Histogram: 1 0 0 0 0 0 0 0 0 0
Nghost:    2189 ave 2189 max 2189 min
Histogram: 1 0 0 0 0 0 0 0 0 0
Neighs:    2344 ave 2344 max 2344 min
Histogram: 1 0 0 0 0 0 0 0 0 0

Total # of neighbors = 2344
Ave neighs/atom = 293
Neighbor list builds = 0
Dangerous builds = 0
unfix 1
# ---- define output variables ----
variable natoms equal "count(all)"
variable tot_energy equal "c_eatoms"
variable length_x equal "lx"
variable length_y equal "ly"
variable length_z equal "lz"
variable tilt_xy equal "xy"
variable tilt_xz equal "xz"
variable tilt_yz equal "yz"
variable tot_press equal "press"
variable press_xx equal "pxx"
variable press_yy equal "pyy"
variable press_zz equal "pzz"
variable press_xy equal "pxy"
variable press_xz equal "pxz"
variable press_yz equal "pyz"

# ---- output ----
print "pypospack:output_section:begin"
pypospack:output_section:begin
print "tot_energy = ${tot_energy}"
tot_energy = -118.347671293792
print "num_atoms = ${natoms}"
num_atoms = 8
print "xx = ${length_x}"
xx = 4.32773421076983
print "yy = ${length_y}"
yy = 4.32773421076983
print "zz = ${length_z}"
zz = 4.32773421076983
print "xy = ${tilt_xy}"
xy = 0
print "xz = ${tilt_xz}"
xz = 0
print "yz = ${tilt_yz}"
yz = 0
print "tot_press = ${tot_press}"
tot_press = -4.39181402043263
print "pxx = ${press_xx}"
pxx = -4.39181402021402
print "pyy = ${press_yy}"
pyy = -4.39181402042068
print "pzz = ${press_zz}"
pzz = -4.39181402066319
print "pxy = ${press_xy}"
pxy = -1.12401857084108e-10
print "pxz = ${press_xz}"
pxz = -1.60347032595802e-10
print "pyz = ${press_yz}"
pyz = -8.89166196817966e-11
print "pypospack:output_section:done"
pypospack:output_section:done
print "pypospack:lammps_sim:done"
pypospack:lammps_sim:done
#------------------------------------------------------------------------------
# RUN THERMOSTAT
# running using an NPT Nose-Hoover style thermostat
#------------------------------------------------------------------------------
variable tempdamp equal 0.1
variable pressdamp equal 1.0
# set initial velocities
velocity all create 900 3605424 mom yes dist gaussian loop all
# fix for Nose-Hoover style thermostat
fix 20 all npt temp 900 900 0.1 aniso 0.0 0.0 1.0 drag 1.0 couple xyz
variable boxx equal lx
variable boxy equal ly
variable boxz equal lz
variable boxp equal press
variable boxt equal temp
# calculate averages every 10000 steps
reset_timestep 0
fix 21 all ave/time 10 10 100 v_boxx v_boxy v_boxz v_boxp v_boxt file lattice.out
thermo_style custom step temp pe ke etotal press lx ly lz press pxx pyy pzz pxy pxz pyz vol
thermo_modify flush yes
thermo 100
run 100000
PPPM initialization ...
  G vector (1/distance) = 0.352508
  grid = 8 8 8
  stencil order = 5
  estimated absolute RMS force accuracy = 4.29555e-05
  estimated relative force accuracy = 2.9831e-06
  using double precision FFTs
  3d grid and FFT values/proc = 3375 512
Memory usage per processor = 3.06549 Mbytes
Step Temp PotEng KinEng TotEng Press Lx Ly Lz Press Pxx Pyy Pzz Pxy Pxz Pyz Volume 
       0          900   -118.34768   0.81433891   -117.53334    10724.668    4.3277342    4.3277342    4.3277342    10724.668    5092.6557     9941.279     17140.07   -262.81664   -1011.0777    3430.0586    81.055361 
     100    455.15043   -117.84701   0.41182967   -117.43518    1934.0316     4.363818     4.363818     4.363818    1934.0316   -11437.875   -649.81302    17889.783    -1969.408     1481.757   -3980.3163    83.099784 
     200    704.57569   -117.84233   0.63751489   -117.20482   -24417.672    4.3815251    4.3815251    4.3815251   -24417.672   -35400.896   -40539.002    2686.8816    1613.5975   -4703.0182   -3095.5616    84.115478 
     300    1056.7944   -117.96236   0.95620981   -117.00615     13244.35    4.3511187    4.3511187    4.3511187     13244.35   -164.99177    8616.1814    31281.861    883.51172    683.05258     1308.884    82.376399 
     400    1307.1603   -118.06088    1.1827461   -116.87814   -18509.796     4.372844     4.372844     4.372844   -18509.796   -15759.554   -32441.425   -7328.4096   -1313.0762    2084.5787   -3559.1779    83.616491 
     500    1139.8466    -117.8155    1.0313572   -116.78415   -25143.516    4.3946233    4.3946233    4.3946233   -25143.516   -39422.215   -29360.041   -6648.2916    1069.0333    1528.0755    2825.1294    84.872105 
     600    737.68803   -117.40445   0.66747563   -116.73698    21738.305    4.3720053    4.3720053    4.3720053    21738.305    1265.9325    5029.8886    58919.093   -1221.4007    7660.6743   -3279.2048     83.56839 
     700    623.99635   -117.29775   0.56460501   -116.73314    18116.606    4.3702621    4.3702621    4.3702621    18116.606    8933.8348   -32715.019    78131.001    2434.7548   -6806.4117    7232.0459    83.468468 
     800    543.40829   -117.22986   0.49168724   -116.73818   -3112.4824    4.3880575    4.3880575    4.3880575   -3112.4824       -25304   -42747.958    58714.511    2934.8212    10358.898    -2070.584     84.49226 
     900    873.44998   -117.52808    0.7903159   -116.73776   -9226.3217    4.3737816    4.3737816    4.3737816   -9226.3217    14720.926   -46917.701    4517.8099   -1768.9363     -3109.53    -2113.157    83.670293 
    1000    1001.1844   -117.64797   0.90589266   -116.74208    1782.6159    4.3703243    4.3703243    4.3703243    1782.6159    6066.0671    5756.0429   -6474.2623   -1932.1178   -727.44261    5152.4331    83.472032 
    1100     770.7461   -117.43645   0.69738727   -116.73906    -6966.729    4.3875696    4.3875696    4.3875696    -6966.729   -11244.049    -29332.79    19676.652    3955.9013    661.53648   -21.878634     84.46408 
    1200    417.65075   -117.10698   0.37789917   -116.72908    10253.067    4.3744196    4.3744196    4.3744196    10253.067    12505.227   -42425.038    60679.013   -4183.8505   -10339.856   -2041.3369    83.706913 
    1300    732.15297   -117.39265   0.66246739   -116.73019   -7205.1931    4.3730954    4.3730954    4.3730954   -7205.1931   -19312.617   -32996.428    30693.466    -466.8475    5404.3622   -3423.6313    83.630913 
    1400    1102.7912   -117.72483   0.99782864     -116.727    -28181.19    4.3831959    4.3831959    4.3831959    -28181.19    -18161.46   -40178.325   -26203.785   -2719.9296   -7416.4207     6677.886    84.211743 
    1500    965.13433   -117.60365   0.87327383   -116.73038     14619.31    4.3678644    4.3678644    4.3678644     14619.31    3914.1311    24205.528     15738.27   -4766.7885    727.36871    899.08736    83.331162 
    1600    805.77109   -117.46315   0.72907861   -116.73407    12360.901     4.371825     4.371825     4.371825    12360.901   -18970.582   -13467.911    69521.197     4801.839    3301.2743    1622.6552     83.55805 
    1700    895.17207   -117.53265    0.8099705   -116.72268   -22895.889    4.3881068    4.3881068    4.3881068   -22895.889   -31127.815   -22412.362   -15147.489   -7828.8707   -3519.8297    7665.2671     84.49511 
    1800    1177.4689   -117.76979    1.0653986   -116.70439   -1443.4368    4.3664415    4.3664415    4.3664415   -1443.4368   -331.29073   -8746.8031    4747.7834   -7107.3378   -3193.6714    -7067.471    83.249752 
    1900    1002.9189   -117.62382   0.90746213   -116.71636    14670.974    4.3676394    4.3676394    4.3676394    14670.974   -13180.166    7033.6667    50159.422   -156.81613    -2607.986    5826.0034    83.318288 
    2000     569.6163   -117.24415    0.5154008   -116.72875    3569.5553    4.3867284    4.3867284    4.3867284    3569.5553   -29933.321   -23658.258    64300.245   -6660.0274    9861.5022    4544.0723    84.415506 
    2100    1022.0616   -117.65643   0.92478283   -116.73165    3825.0632    4.3671667    4.3671667    4.3671667    3825.0632   -14681.427    -15805.12    41961.737   -91.464097   -2068.6636    216.70497    83.291238 
    2200    1196.7798   -117.82474    1.0828716   -116.74187     2336.144    4.3671141    4.3671141    4.3671141     2336.144    -9425.975    17624.031   -1189.6239    4480.2142   -4430.4182    871.38243    83.288224 
    2300    1070.4797   -117.70707   0.96859257   -116.73848   -32914.442    4.3943261    4.3943261    4.3943261   -32914.442   -26747.511   -56385.661   -15610.155   -12116.113    3476.8882   -5163.0179    84.854883 
    2400    622.40953   -117.29237   0.56316922    -116.7292    16883.277     4.365725     4.365725     4.365725    16883.277   -16818.444   -15217.424      82685.7   -6745.7304    1179.8827    3054.4125    83.208774 
    2500    680.63741    -117.3577   0.61585503   -116.74185    11208.645    4.3633826    4.3633826    4.3633826    11208.645   -10998.222   -22681.461     67305.62     6817.352   -230.21911   -4242.9427    83.074914 
    2600    539.41249   -117.23409   0.48807176   -116.74601    3932.6395    4.3932625    4.3932625    4.3932625    3932.6395   -23906.636    -13266.31    48970.863   -7105.5843   -5758.4906    6105.5831    84.793284 
    2700    1179.3488   -117.80656    1.0670996   -116.73946   -14984.877     4.371856     4.371856     4.371856   -14984.877   -19546.951    -23402.75     -2004.93   -89.529582    4622.0832   -6345.9096    83.559831 
    2800    1075.7433   -117.71121   0.97335512   -116.73786   -8060.4065    4.3610571    4.3610571    4.3610571   -8060.4065   -12254.472   -17446.212    5519.4643     3238.762   -7762.3384   -469.85272    82.942153 
    2900    1101.5174   -117.74568    0.9966761     -116.749   -30845.164    4.3884167    4.3884167    4.3884167   -30845.164   -14891.824   -58096.862   -19546.806    649.22764    1665.8275    3267.3759    84.513014 
    3000    920.90571   -117.58171   0.83325484   -116.74845    2190.7629    4.3761749    4.3761749    4.3761749    2190.7629   -21206.984   -2928.1626    30707.435    7029.1348    -386.7572   -9788.3095    83.807716 
    3100    521.41576   -117.21468   0.47178794    -116.7429    38088.178    4.3571606    4.3571606    4.3571606    38088.178   -3623.9926    11735.866    106152.66   -2100.1268   -3648.8166     5023.302    82.720031 
    3200    483.86414   -117.19397   0.43781044   -116.75616   -3920.2072     4.384354     4.384354     4.384354   -3920.2072   -17678.492   -21911.697    27829.567    6491.0328    575.84887   -475.66928    84.278507 
    3300    1145.5131   -117.77627    1.0364843   -116.73979   -19754.802    4.3857664    4.3857664    4.3857664   -19754.802   -21269.967   -39147.181    1152.7439   -3167.7414   -6725.1048    6383.0979    84.359986 
    3400    1228.9835   -117.84602    1.1120101   -116.73401    7106.3277    4.3550442    4.3550442    4.3550442    7106.3277   -14163.744    29343.376    6139.3514   -2482.9568    5161.8473   -6997.6894    82.599552 
    3500    1235.6077   -117.87054    1.1180038   -116.75254   -15612.639    4.3696646    4.3696646    4.3696646   -15612.639    -25928.13   -9439.7009   -11470.086    3912.0924    -6755.722   -1199.5321    83.434237 
    3600    504.73829   -117.19915   0.45669781   -116.74245    8145.3669    4.3938357    4.3938357    4.3938357    8145.3669   -21096.812   -3110.6243    48643.537   -7722.8902    41.764315     3700.052     84.82648 
    3700    1136.5906   -117.74981     1.028411    -116.7214    1635.0141    4.3659012    4.3659012    4.3659012    1635.0141    -22890.69   -6352.8364    34148.569    8034.1019   -6970.3264   -7005.5089    83.218851 
    3800    1131.8558   -117.74857    1.0241269   -116.72445    11550.656    4.3533223    4.3533223    4.3533223    11550.656   -9377.5483    22395.742    21633.772     5375.385    2654.7385    10198.498    82.501615 
    3900    1168.6221   -117.80028    1.0573938   -116.74288    -26901.48     4.386231     4.386231     4.386231    -26901.48   -31274.054   -25508.942   -23921.444    1117.7324   -4218.8113   -11593.245    84.386799 
    4000    876.73135   -117.52536   0.79328495   -116.73208   -9384.0039    4.3827641    4.3827641    4.3827641   -9384.0039   -29137.737   -10374.745    11360.471    3779.7035   -721.95636    9330.3183    84.186854 
    4100    733.56152   -117.38557   0.66374188   -116.72183     45467.53    4.3454435    4.3454435    4.3454435     45467.53    4525.0771     26137.64    105739.87   -6319.5626    679.33474   -711.36441    82.054484 
    4200    568.06296   -117.25982   0.51399531   -116.74582    13122.711    4.3722084    4.3722084    4.3722084    13122.711   -2489.9831   -6541.8864    48400.003   -3973.0031   -9363.7343   -8784.1612     83.58004 
    4300    1076.8411   -117.70958   0.97434842   -116.73524   -35067.538    4.3939987    4.3939987    4.3939987   -35067.538   -34259.668   -49411.948   -21530.998    180.97179    9630.5535    8341.5641    84.835922 
    4400    1249.6677   -117.85834    1.1307256   -116.72761      9543.11    4.3512074    4.3512074    4.3512074      9543.11   -1905.0489    7463.3011    23071.078    4595.1349   -1992.2035   -15732.591    82.381436 
    4500    816.66983   -117.48292   0.73894003   -116.74398    10275.265    4.3576475    4.3576475    4.3576475    10275.265   -3000.9651    7150.4433    26676.316    1225.3055    970.86093    12379.267    82.747766 
    4600    430.70419   -117.11942    0.3897102   -116.72971   -5575.2308    4.3936192    4.3936192    4.3936192   -5575.2308   -22689.008   -48839.625    54802.941   -6880.9632   -552.01851   -4933.9724    84.813939 
    4700     1088.142   -117.70663   0.98457379   -116.72206   -15574.622    4.3676759    4.3676759    4.3676759   -15574.622   -12318.883   -40948.471    6543.4894   -216.90191   -2403.0215    2623.4819    83.320372 
    4800    1069.1818   -117.69067   0.96741814   -116.72325    12921.618    4.3490601    4.3490601    4.3490601    12921.618    2223.8075    27774.884    8766.1615    3664.3549    8804.8677    23.011068     82.25953 
    4900    946.61345   -117.60109   0.85651575   -116.74458   -24809.443    4.3865026    4.3865026    4.3865026   -24809.443   -27557.254   -35482.772   -11388.303    3003.9065   -8948.9964   -8456.2022    84.402474 
    5000    711.55107   -117.37751   0.64382636   -116.73368   -1718.5541    4.3752224    4.3752224    4.3752224   -1718.5541   -10978.633   -37805.179     43628.15    4558.8702   -2603.6068    359.21247    83.753008 
    5100    731.09421   -117.38113    0.6615094   -116.71962    24594.728    4.3503607    4.3503607    4.3503607    24594.728    6687.4738   -3817.8214    70914.531   -1659.4763    11882.686   -6407.9016    82.333351 
    5200    1073.8855    -117.7004   0.97167414   -116.72872   -20929.341    4.3776344    4.3776344    4.3776344   -20929.341   -37967.072   -9642.6917   -15178.258   -1535.0573   -1762.2483    8720.3106    83.891597 
    5300    913.17219    -117.5478   0.82625738   -116.72155   -12319.584    4.3833444    4.3833444    4.3833444   -12319.584   -27124.432   -9640.4426   -193.87802   -1644.0277   -3094.3911    -2388.713    84.220297 
    5400    755.23041   -117.39954   0.68334835   -116.71619    34612.242    4.3501526    4.3501526    4.3501526    34612.242   -1982.2921    -5637.442    111456.46   -2506.2254    57.740415    -3984.987    82.321538 
    5500    482.05844    -117.1813    0.4361766   -116.74512   -3498.4646    4.3728654    4.3728654    4.3728654   -3498.4646   -34738.585   -20832.015    45075.206    2095.9054    5338.6433    1282.6502    83.617721 
    5600    769.30702   -117.43496   0.69608515   -116.73888   -10823.742    4.3823735    4.3823735    4.3823735   -10823.742   -47576.019   -18375.519    33480.312   -445.14973    5159.4383   -3995.3053    84.164347 
    5700    1303.1439   -117.90966     1.179112   -116.73055   -3824.3499    4.3575949    4.3575949    4.3575949   -3824.3499   -19748.295    -493.6232    8768.8688    52.677917   -7936.9876    3324.3256     82.74477 
    5800    991.09076   -117.63559   0.89675975   -116.73883   -6979.3605    4.3655383    4.3655383    4.3655383   -6979.3605    -30854.39   -6280.1263    16196.434    3510.0617    10032.996   -6284.9053    83.198103 
    5900    497.51676   -117.18543   0.45016362   -116.73527   -7042.1972    4.3813811    4.3813811    4.3813811   -7042.1972   -46812.587   -16622.475     42308.47   -358.10548    12124.155    6901.0722    84.107183 
    6000    610.01119   -117.28651   0.55195094   -116.73456    21968.259    4.3604475    4.3604475    4.3604475    21968.259   -20454.952   -4823.6471    91183.376    -3127.492   -3126.9097     2362.385    82.907378 
    6100    938.45554   -117.58766    0.8491343   -116.73853    13227.158    4.3595373    4.3595373    4.3595373    13227.158   -25736.491    14813.126     50604.84   -2383.7242    -5430.199   -10152.694    82.855472 
    6200    1064.9422   -117.70292   0.96358205   -116.73934   -21415.663    4.3729639    4.3729639    4.3729639   -21415.663    -36849.25   -15727.021   -11670.719   -311.27433    8075.1419    2662.1245     83.62337 
    6300    846.24783   -117.49723   0.76570282   -116.73153    301.18574    4.3701758    4.3701758    4.3701758    301.18574   -12379.025    5545.7633    7736.8189    4408.4864    6141.1009    5074.9021    83.463527 
    6400    804.59715    -117.4499   0.72801641   -116.72188    26950.437    4.3636868    4.3636868    4.3636868    26950.437   -13222.653    10780.492    83293.472   -1202.6199   -446.46993    8805.0847    83.092289 
    6500    1147.7481   -117.75948    1.0385066   -116.72097   -8145.8411    4.3664465    4.3664465    4.3664465   -8145.8411   -29823.024   -9951.8216    15337.322   -5636.2698    7762.0366    1844.1783    83.250034 
    6600    1209.6456   -117.82417    1.0945127   -116.72966   -11835.849    4.3681024    4.3681024    4.3681024   -11835.849   -10855.941    1261.2304   -25912.838   -4282.0467   -3813.2067     -4217.51    83.344788 
    6700    924.82732   -117.57312    0.8368032   -116.73631    7131.0253    4.3712112    4.3712112    4.3712112    7131.0253    -5480.883    9353.2317    17520.727    1142.2956    4849.1265   -2172.3525    83.522865 
    6800    926.56591   -117.56741   0.83837631   -116.72903    4256.9061    4.3657031    4.3657031    4.3657031    4256.9061    -15264.31   -13247.918    41282.947    6319.2209     5574.256    6712.8112    83.207524 
    6900    963.91588   -117.59975   0.87217134   -116.72758    7200.9043    4.3657308    4.3657308    4.3657308    7200.9043   -11479.678    4373.3104    28709.081    1824.4787    4200.6515   -5693.4718    83.209105 
    7000    1274.5065   -117.88363    1.1532003   -116.73042    -21505.79    4.3740801    4.3740801    4.3740801    -21505.79   -13405.109   -33583.113   -17529.148   -552.56132   -1789.1804    1283.5381    83.687425 
    7100    786.40723   -117.44059   0.71155779   -116.72903     9189.114    4.3650007    4.3650007    4.3650007     9189.114   -8396.3265    6013.8837    29949.785   -5992.4372   -2560.3137    9050.3188     83.16737 
    7200    711.35346   -117.37099   0.64364756   -116.72735    12747.989     4.362632     4.362632     4.362632    12747.989   -21813.937   -16302.246     76360.15    5470.6245    1237.3068    -6975.219    83.032047 
    7300     921.9766   -117.57012   0.83422381    -116.7359   -17283.871    4.3806212    4.3806212    4.3806212   -17283.871   -35268.773   -23613.931    7031.0912     5009.463    2766.3328    9007.3727    84.063427 
    7400    1080.7364   -117.70486   0.97787296   -116.72699   -11420.304    4.3683114    4.3683114    4.3683114   -11420.304   -20809.903   -19182.659    5731.6497   -8718.3113   -9475.7542    2822.4008    83.356751 
    7500    691.01989   -117.34709   0.62524932   -116.72184    19272.925    4.3564096    4.3564096    4.3564096    19272.925   -11108.561    11077.596     57849.74    1874.7333     3076.114    4476.9887    82.677268 
    7600    553.78441   -117.22954   0.50107577   -116.72847   -8522.6787    4.3770265    4.3770265    4.3770265   -8522.6787   -49361.434   -9564.4468    33357.845   -1107.9452   -4154.1508   -2159.7362    83.856652 
    7700     902.0275   -117.53298   0.81617344    -116.7168   -25005.171    4.3749344    4.3749344    4.3749344   -25005.171   -51088.618   -19701.852   -4225.0432    -5244.418    2899.3591    7375.0069    83.736467 
    7800    959.71627   -117.57993   0.86837145   -116.71156    1890.0094    4.3547224    4.3547224    4.3547224    1890.0094   -21861.587   -10815.292    38346.907    6417.2081    1249.0569     12642.65    82.581245 
    7900    468.58011   -117.16031   0.42398114   -116.73633    8035.2146    4.3699509    4.3699509    4.3699509    8035.2146   -43626.763    11221.374    56511.033    1608.9307   -3976.2593   -6192.8919    83.450641 
    8000    618.88654   -117.29781   0.55998155   -116.73782    178.39388    4.3758572    4.3758572    4.3758572    178.39388   -35803.073   -13487.613    49825.867   -942.71753     6155.876    1113.7205    83.789466 
    8100    1006.9306   -117.63785   0.91109201   -116.72676   -12682.104    4.3650582    4.3650582    4.3650582   -12682.104   -28556.431   -12734.963    3245.0818    3087.2579    1310.1967     2665.031    83.170651 
    8200    971.24014   -117.60664   0.87879849   -116.72784   -12378.352    4.3687967    4.3687967    4.3687967   -12378.352   -44647.278    5793.2005    1719.0221    1764.6012    1674.1224    1270.8177    83.384531 
    8300    726.18666   -117.38326   0.65706895   -116.72619    9570.4352    4.3734277    4.3734277    4.3734277    9570.4352   -23519.096    3120.2871    49110.114   -2318.2675   -12928.988    5434.9847    83.649984 
    8400     807.0168    -117.4545   0.73020576    -116.7243    14553.778    4.3689123    4.3689123    4.3689123    14553.778    -8580.052   -5696.4529    57937.839    197.55491    888.14127   -4862.9915    83.391152 
    8500    1104.6592   -117.72834   0.99951885   -116.72882   -2731.3348    4.3686254    4.3686254    4.3686254   -2731.3348   -21440.993    7697.6483    5549.3407    4757.3968    9930.5436    9316.7895    83.374729 
    8600    1354.4931   -117.95731    1.2255738   -116.73174   -14655.117    4.3693491    4.3693491    4.3693491   -14655.117   -18942.477   -20539.817   -4483.0568    1651.7767   -6213.2274   -5603.6524     83.41617 
    8700    939.04996   -117.57539   0.84967214   -116.72571    14189.913    4.3686717    4.3686717    4.3686717    14189.913   -7670.2383    12737.761    37502.215    870.46882   -5405.9074   -749.30023    83.377375 
    8800    1107.2115   -117.72504    1.0018282   -116.72321    4003.6259    4.3653602    4.3653602    4.3653602    4003.6259   -4487.6503   -16701.964    33200.492    297.65151    3708.3218    12805.826    83.187918 
    8900    1222.2741   -117.83121    1.1059393   -116.72527    -5046.459    4.3683911    4.3683911    4.3683911    -5046.459   -7842.2366   -7686.4389    389.29862    4997.7064   -13084.403   -3578.7738    83.361311 
    9000    1024.9552   -117.64981   0.92740096   -116.72241      777.644    4.3783328    4.3783328    4.3783328      777.644   -16352.818    -9161.687    27847.437    10401.846    7616.1553    5850.4249    83.931755 
    9100      851.163   -117.48977   0.77015017   -116.71962    11658.749     4.365503     4.365503     4.365503    11658.749   -16007.097   -20610.149    71593.492    2542.8801    11052.602   -5003.3143    83.196079 
    9200    901.83431   -117.54858   0.81599864   -116.73258    7078.8685    4.3568752    4.3568752    4.3568752    7078.8685    -3216.099   -3982.6395    28435.344    2746.7017    -10242.21   -815.51458    82.703783 
    9300    1206.0876   -117.82815    1.0912934   -116.73686   -26665.922    4.3801185    4.3801185    4.3801185   -26665.922   -41969.511   -15040.821   -22987.433   -1755.2545    -9127.906    4280.4941    84.034491 
    9400    881.29546   -117.52225   0.79741465   -116.72484    -23.84622    4.3749059    4.3749059    4.3749059    -23.84622   -22529.902   -22399.493    44857.856   -602.69097    3469.9716   -5761.9071    83.734829 
    9500    599.78467    -117.2599   0.54269777    -116.7172     24543.49    4.3515437    4.3515437    4.3515437     24543.49   -4253.6121    1548.5354    76335.547    9185.8733    1394.3519   -3290.7578    82.400541 
    9600    691.96165   -117.36144   0.62610144   -116.73533   -10537.713    4.3733953    4.3733953    4.3733953   -10537.713   -53447.372   -10475.969    32310.203    6082.1491   -8715.8581     8443.594    83.648122 
    9700     1150.242   -117.76543    1.0407631   -116.72467   -38100.233    4.3813778    4.3813778    4.3813778   -38100.233    -63009.84   -32734.913   -18555.947    229.01431   -8071.1799    -9587.727    84.106991 
    9800    792.44837   -117.43748   0.71702394   -116.72046    14878.001    4.3514567    4.3514567    4.3514567    14878.001   -8266.6747    2910.7653    49989.912    4595.5141    1633.5208    5990.1828    82.395597 
    9900    440.71109   -117.13093   0.39876465   -116.73217    9764.6803    4.3652866    4.3652866    4.3652866    9764.6803   -28341.579    915.19915     56720.42     3494.385     924.1354   -4257.4938    83.183709 
   10000    954.14677   -117.58183   0.86333205    -116.7185   -31046.374    4.3825548    4.3825548    4.3825548   -31046.374   -66106.686   -23798.478   -3233.9579    1354.6923    3333.3786   -2435.3015    84.174797 
   10100    667.43449   -117.30756   0.60390875   -116.70365    4868.6899    4.3660757    4.3660757    4.3660757    4868.6899   -30584.771    1943.4241    43247.417    7336.2683   -3796.7246    -73.10959    83.228831 
   10200    731.59922   -117.36375   0.66196635   -116.70178    4697.0347    4.3644527    4.3644527    4.3644527    4697.0347   -23040.079    2936.6989    34194.484    5760.8461    1708.2264   -4160.4035     83.13605 
   10300    974.14417   -117.58279   0.88142612   -116.70137   -17990.136    4.3781712    4.3781712    4.3781712   -17990.136   -33778.339    -20706.28     514.2107   -2939.8141   -6167.8878    239.71889    83.922465 
   10400    769.99866   -117.39673   0.69671097   -116.70002    15567.638     4.363856     4.363856     4.363856    15567.638   -12395.218    3468.4659    55629.668    -626.4762   -730.04019     5805.396    83.101953 
   10500    1045.1323     -117.655   0.94565767   -116.70934    -12289.91    4.3679933    4.3679933    4.3679933    -12289.91   -29939.144   -12765.984    5835.3992    10477.522   -14147.305   -7919.7213    83.338542 
   10600    1209.2062   -117.81104    1.0941152   -116.71693   -19579.105    4.3722142    4.3722142    4.3722142   -19579.105   -32536.389   -7129.6132   -19071.314    6924.4764    837.80885    3536.8299    83.580372 
   10700    864.32514    -117.5044   0.78205955   -116.72234    30009.583    4.3618992    4.3618992    4.3618992    30009.583   -11059.176    13566.841    87521.082   -786.31648   -3411.0037   -5190.1292    82.990212 
   10800    849.16972   -117.49982   0.76834661   -116.73147   -1563.8851    4.3799285    4.3799285    4.3799285   -1563.8851   -25267.682   -20307.895    40883.922    5956.6954   -4026.6602    11348.189    84.023559 
   10900    1170.0539   -117.78672    1.0586894   -116.72803   -12969.074    4.3712939    4.3712939    4.3712939   -12969.074   -27067.061   -2547.5728   -9292.5901     412.3356   -328.87143    4083.1987    83.527601 
   11000    1205.9414   -117.81216    1.0911611     -116.721    11286.515    4.3574006    4.3574006    4.3574006    11286.515    -2967.333    18187.823    18639.055    4624.5065   -5510.4617   -6133.4316    82.733705 
   11100    773.67836   -117.42293   0.70004044   -116.72289   -35.166776    4.3812246    4.3812246    4.3812246   -35.166776   -32238.021   -17929.288    50061.808    14717.579   -389.65719    8703.8733     84.09817 
   11200    963.56992   -117.58827   0.87185832   -116.71642   -14256.638    4.3738732    4.3738732    4.3738732   -14256.638   -49118.463   -4143.0808    10491.629    3054.9918    8094.3517   -7647.6058    83.675546 
   11300    1214.1827    -117.8104     1.098618   -116.71179    2932.4848    4.3513616    4.3513616    4.3513616    2932.4848   -17247.413    15380.742    10664.126   -491.89578   -13077.049    2431.9315    82.390192 
   11400    478.89792     -117.163   0.43331691   -116.72968    5072.1377    4.3772161    4.3772161    4.3772161    5072.1377   -29842.404    2.5940775    45056.223     9105.225    4510.5985   -6077.9465    83.867553 
   11500    759.61335   -117.40286   0.68731412   -116.71555   -10495.337    4.3769156    4.3769156    4.3769156   -10495.337   -50269.345   -1994.3802    20777.712    4159.8115    7022.6316   -2621.2891    83.850277 
   11600    892.94163   -117.52222   0.80795236   -116.71427   -6670.1158    4.3609313    4.3609313    4.3609313   -6670.1158   -47486.654    12404.843    15071.463   -1650.7427   -3430.7995   -9430.0573    82.934977 
   11700    722.66082   -117.37991    0.6538787   -116.72603   -12115.672    4.3705053    4.3705053    4.3705053   -12115.672   -56458.634   -3979.7455    24091.363    6219.2188    4461.7503    10057.538    83.482403 
   11800    636.78909   -117.29551   0.57618015   -116.71933   -2462.4392    4.3773637    4.3773637    4.3773637   -2462.4392   -41007.871   -12789.287    46409.841    4285.0321    2714.4522   -6144.0706    83.876036 
   11900    834.14863   -117.46381   0.75475521   -116.70906    -4900.546    4.3709535    4.3709535    4.3709535    -4900.546   -30906.571    17481.182   -1276.2488    -431.8033   -9225.9508    15384.282    83.508092 
   12000    570.78102   -117.22527   0.51645466   -116.70881    11394.389    4.3629402    4.3629402    4.3629402    11394.389    -31366.22   -8562.9884    74112.374    8488.3851    249.86491   -372.30772    83.049644 
   12100    984.71159   -117.60401   0.89098774   -116.71303    -12143.74    4.3712434    4.3712434    4.3712434    -12143.74   -45277.357    14892.752   -6046.6151     856.9141   -4872.8173   -97.398184     83.52471 
   12200    707.05695   -117.35018   0.63975999   -116.71042    2249.5124    4.3827795    4.3827795    4.3827795    2249.5124   -35962.648   -9551.8531    52263.039    -2465.882    2709.8487    52.442138    84.187745 
   12300    1142.3167   -117.73762    1.0335921   -116.70403    5820.8437    4.3606782    4.3606782    4.3606782    5820.8437   -16436.034     5825.277    28073.288    10997.225   -2805.6052   -9557.8718    82.920538 
   12400    1105.7566   -117.71227    1.0005118   -116.71175    5131.5963    4.3623114    4.3623114    4.3623114    5131.5963   -15005.731    8245.8699     22154.65     7124.816    13984.035   -2246.1601    83.013742 
   12500    935.56491   -117.56312   0.84651879    -116.7166   -8461.4523     4.385659     4.385659     4.385659   -8461.4523   -30282.542   -36717.612    41615.797   -10722.017   -6083.0343   -2440.1445    84.353786 
   12600    938.57909   -117.56777   0.84924608   -116.71853    18428.088    4.3665418    4.3665418    4.3665418    18428.088   -13117.313   -1634.4428     70036.02   -809.61131   -9982.1295    2380.3563    83.255489 
   12700    1178.1645   -117.79978     1.066028   -116.73375    8095.0228    4.3607654    4.3607654    4.3607654    8095.0228   -14813.157   -835.81566    39934.041    9649.5172    5852.6828     5501.063    82.925512 
   12800    1179.5816   -117.80604    1.0673102   -116.73873   -28482.781    4.3832471    4.3832471    4.3832471   -28482.781   -38221.255    -36564.67   -10662.417   -2816.1667    4628.0101   -9886.3824    84.214694 
   12900    729.05936   -117.38001   0.65966823   -116.72035    21823.078     4.369446     4.369446     4.369446    21823.078   -3145.3647     3721.822    64892.775    3509.6035   -6169.8075    2607.2883     83.42172 
   13000    1195.0071   -117.79177    1.0812675   -116.71051   -6722.0525    4.3712017    4.3712017    4.3712017   -6722.0525   -25593.574   -11539.624    16967.041     2428.507    11223.329     2519.019    83.522319 
   13100    820.94712   -117.45303    0.7428102   -116.71022   -9378.8556    4.3780721    4.3780721    4.3780721   -9378.8556   -39673.789   -26982.291    38519.513   -9094.8866   -4690.3401   -6536.3859    83.916764 
   13200    640.69625   -117.28876   0.57971543   -116.70905    18228.392    4.3641127    4.3641127    4.3641127    18228.392   -3723.9879     6755.877    51653.286   -1757.7159    1107.0074    2868.3097    83.116619 
   13300    1089.0839   -117.69944   0.98542599   -116.71401   -19776.811    4.3794307    4.3794307    4.3794307   -19776.811   -52372.587   -17499.666    10541.821    5595.8046   -7092.6199    -1920.199    83.994909 
   13400    617.84154   -117.27185   0.55903601   -116.71281   -8146.8814      4.38251      4.38251      4.38251   -8146.8814   -65245.253    2646.4728    38158.136   -1757.6257    485.44297    375.54334    84.172211 
   13500    445.08884   -117.11504   0.40272573   -116.71232    29727.366    4.3573975    4.3573975    4.3573975    29727.366   -30379.672    8365.2034    111196.57   -3921.1371    3634.3379    13297.843    82.733525 
   13600    545.02621   -117.23052   0.49315117   -116.73737    4801.3503    4.3763304    4.3763304    4.3763304    4801.3503   -35938.728    5592.5985    44750.181    3786.9669   -4619.7467   -10067.183    83.816654 
   13700    981.07095   -117.61917   0.88769362   -116.73148    -32483.66    4.3788825    4.3788825    4.3788825    -32483.66   -68676.552   -15295.805   -13478.624   -1328.8064    -985.0475    6125.0012    83.963371 
   13800    466.55133   -117.14172   0.42214545   -116.71958    21055.056    4.3574301    4.3574301    4.3574301    21055.056   -27673.217    36436.683    54401.703   -8179.1616    5729.0139   -8944.1368    82.735382 
   13900    928.55501   -117.55912   0.84017608   -116.71894   -3781.0164    4.3754242    4.3754242    4.3754242   -3781.0164   -37541.017   -7047.8643    33245.832    625.40002   -6420.1525   -10976.965    83.764598 
   14000    974.79939   -117.59067   0.88201897   -116.70865   -13263.263    4.3820646    4.3820646    4.3820646   -13263.263   -42539.819     8878.644    -6128.614   -7332.3859    8361.5105    5215.8999    84.146554 
   14100    599.28423   -117.25034   0.54224496   -116.70809    17618.147    4.3598595    4.3598595    4.3598595    17618.147   -22995.262    16595.369    59254.334   -8785.4313    7010.7252   -2731.3955    82.873842 
   14200    1203.7907   -117.80675    1.0892152   -116.71753   -239.99083    4.3662931    4.3662931    4.3662931   -239.99083   -25824.274   -5005.6329    30109.934     6290.293    -4263.338    12063.208    83.241264 
   14300    1196.3084   -117.80887     1.082445   -116.72642   -17330.468    4.3864996    4.3864996    4.3864996   -17330.468   -41298.814    18542.027   -29234.617   -72.464188    6290.5561   -2427.2656    84.402297 
   14400    942.11935    -117.5786   0.85244939   -116.72615    13038.827    4.3632702    4.3632702    4.3632702    13038.827   -17620.555    4434.2633    52302.772   -14273.363   -1061.3084    -3757.995    83.068493 
   14500    848.16788   -117.49002   0.76744012   -116.72258    27465.803    4.3618488    4.3618488    4.3618488    27465.803   -5465.5526    42645.234    45217.728   -4385.5803   -6206.9546    4646.6109    82.987335 
   14600    1383.0899   -117.96979    1.2514488   -116.71834   -25749.628    4.3848988    4.3848988    4.3848988   -25749.628    -34472.27   -10660.908   -32115.708    6712.0445    4371.0758   -932.76565    84.309928 
   14700      950.496   -117.57734   0.86002875   -116.71731    2920.5256     4.367889     4.367889     4.367889    2920.5256     -20487.4    1295.1727    27953.804   -4821.9939   -3726.2998   -7722.9174    83.332569 
   14800    993.02547   -117.60921   0.89851031    -116.7107    23925.874    4.3543077    4.3543077    4.3543077    23925.874   -1035.2755    6586.8219    66226.076   -1735.1989    6512.8164    4076.2065    82.557656 
   14900    1249.6011   -117.84506    1.1306654    -116.7144   -30555.144    4.3852834    4.3852834    4.3852834   -30555.144    -41016.59   -26114.481   -24534.361   -436.86268   -1152.7224   -6331.8285    84.332116 
   15000    645.42132   -117.29623   0.58399077   -116.71223   -8200.2554    4.3748172    4.3748172    4.3748172   -8200.2554   -38080.507   -33504.494    46984.234   -8752.2629    3296.8854    14147.559    83.729741 
   15100    767.29159   -117.40543   0.69426155   -116.71117    24166.959    4.3469175    4.3469175    4.3469175    24166.959   -20215.267    31044.481    61671.663   -1622.3045    461.84143   -6874.7065    82.138015 
   15200    1043.4043   -117.67442   0.94409409   -116.73033   -21286.871    4.3803116    4.3803116    4.3803116   -21286.871   -43840.623    4530.5371   -24550.526    3114.2623    4610.0875    5841.9767    84.045606 
   15300    480.81647   -117.16069   0.43505285   -116.72563   -14855.893    4.3821315    4.3821315    4.3821315   -14855.893   -56692.307     2616.225    9508.4028   -3711.5991   -7972.9586    2600.4318    84.150403 
   15400    406.48893   -117.07521   0.36779972   -116.70741    36955.887    4.3434148    4.3434148    4.3434148    36955.887   -24189.553     75076.14    59981.075   -4060.5068     10419.18   -1743.7378    81.939618 
   15500    992.23534   -117.62072   0.89779539   -116.72293   -21887.136    4.3740401    4.3740401    4.3740401   -21887.136   -65298.166    12773.468    -13136.71    3556.9638   -5897.2371   -11998.177    83.685128 
   15600    317.03582   -116.99427   0.28686067   -116.70741   -1220.0397    4.3868481    4.3868481    4.3868481   -1220.0397    -39194.38    3177.7488    32356.512    3872.2917    1341.7777    4515.0483    84.422417 
   15700    999.79123   -117.59395   0.90463212   -116.68932    7272.3635    4.3541318    4.3541318    4.3541318    7272.3635    1110.1734    8969.6309    11737.286   -4743.6263   -10.957997    5745.4525    82.547649 
   15800    803.52082   -117.42929   0.72704252   -116.70225    3204.3488    4.3706494    4.3706494    4.3706494    3204.3488   -31485.411     3504.793    37593.665   -3235.8249     6391.389   -1359.9347    83.490661 
   15900    1064.8226   -117.66366   0.96347385   -116.70018   -32285.545    4.3791956    4.3791956    4.3791956   -32285.545   -35407.553   -39532.775   -21916.306    2454.4372    872.85433    10363.589    83.981387 
   16000    743.87427    -117.3719   0.67307307   -116.69883    17288.794    4.3595206    4.3595206    4.3595206    17288.794   -4948.4312    14633.725    42181.086   -5015.8988   -6075.2828    3644.4252     82.85452 
   16100    1135.4746   -117.73046    1.0274013   -116.70306   -6731.0336     4.376738     4.376738     4.376738   -6731.0336   -13202.463   -3569.6338   -3421.0035   -10459.431    4241.3196    1800.9343    83.840075 
   16200    916.10121   -117.52856   0.82890762   -116.69966    10358.793    4.3737696    4.3737696    4.3737696    10358.793   -9403.7848    19812.697    20667.466   -3034.3198    619.35941   -8248.4692    83.669604 
   16300    1022.7984   -117.62436   0.92544948   -116.69891    7486.9278    4.3603726    4.3603726    4.3603726    7486.9278   -2774.5989    30296.406   -5061.0239   -1444.2588    5456.3089    3385.4329    82.903107 
   16400     1003.755   -117.61662   0.90821864    -116.7084   -8912.2741    4.3780389    4.3780389    4.3780389   -8912.2741   -22019.069    -11372.12     6654.366    2279.3163   -392.45985    3518.2694    83.914853 
   16500    1294.3525   -117.87098    1.1711574   -116.69983   -5838.7743    4.3708811    4.3708811    4.3708811   -5838.7743   -14089.667    22080.248   -25506.904    1754.1647   -7610.7879   -528.14511    83.503941 
   16600    1046.0312   -117.64975   0.94647103   -116.70328    2730.3647    4.3626427    4.3626427    4.3626427    2730.3647   -3681.6193   -14753.127     26625.84    2493.1389    6818.7928   -2664.0753    83.032659 
   16700    1150.3923   -117.75131    1.0408991   -116.71041   -27162.569      4.37469      4.37469      4.37469   -27162.569    -14308.13   -34195.326   -32984.251    8962.2287    5988.5601    17712.488    83.722432 
   16800    1182.0046   -117.77454    1.0695026   -116.70503   -11002.306    4.3723628    4.3723628    4.3723628   -11002.306   -18529.543    -5012.093   -9465.2826    4064.8676    1292.4581   -4546.5462    83.588891 
   16900    938.89447   -117.55483   0.84953145    -116.7053     7922.706    4.3669797    4.3669797    4.3669797     7922.706   -20716.665     37071.73     7413.053    4101.9702   -4752.8386     288.7305    83.280539 
   17000    1066.2693   -117.67021   0.96478286   -116.70543    -8055.618    4.3672109    4.3672109    4.3672109    -8055.618   -18568.113    3834.8874   -9433.6279   -988.48938    4053.8295    9641.2565    83.293766 
   17100     768.2619   -117.40844   0.69513951    -116.7133    4949.6479    4.3723872    4.3723872    4.3723872    4949.6479   -17631.748      18354.5    14126.191    -7835.523   -1075.3017    4042.6976    83.590293 
   17200    1089.0098   -117.69661   0.98535897   -116.71125    -7952.407    4.3712489    4.3712489    4.3712489    -7952.407   -33664.568     30942.91   -21135.563   -573.62553   -10425.178   -1324.9294    83.525022 
   17300    818.85454   -117.45153   0.74091679   -116.71061    8975.5016    4.3633655    4.3633655    4.3633655    8975.5016   -24829.261   -1216.7664    52972.533   -12518.935    63.564472    5002.6862    83.073934 
   17400    836.06094   -117.47018   0.75648551   -116.71369   -25569.873       4.3749       4.3749       4.3749   -25569.873   -41663.002   -11195.645   -23850.973   -475.92057    7063.3489    7863.8476     83.73449 
   17500    967.62273   -117.58042   0.87552538    -116.7049   -10242.707    4.3666588    4.3666588    4.3666588   -10242.707   -29638.771    4612.3897   -5701.7413    2863.7356   -2391.6765     4241.733    83.262179 
   17600    705.11721   -117.34462   0.63800487   -116.70662    17848.173    4.3657539    4.3657539    4.3657539    17848.173   -15451.411    31130.203    37865.725    1972.2669    667.39817   -3605.7813    83.210429 
   17700    768.65534    -117.4015   0.69549551     -116.706   -23043.606    4.3776707    4.3776707    4.3776707   -23043.606   -49379.938    6219.3927   -25970.273    104.81798    8289.6254    8784.2481    83.893684 
   17800    584.99967   -117.23281   0.52931999   -116.70349    2461.7949    4.3611052    4.3611052    4.3611052    2461.7949   -41305.417    30588.619    18102.182   -3253.5383   -468.12094    4307.3424    82.944903 
   17900    1042.5436   -117.65231   0.94331539     -116.709   -8667.7469    4.3653506    4.3653506    4.3653506   -8667.7469   -34421.201    17741.858   -9323.8976    7527.9281   -1475.9863   -12398.634    83.187367 
   18000    648.14321   -117.29435    0.5864536   -116.70789   -1831.0202    4.3798682    4.3798682    4.3798682   -1831.0202   -14041.982   -460.46964    9009.3906    1419.9891   -4075.8957    9766.4885    84.020085 
   18100    1101.9242   -117.69948   0.99704422   -116.70243   -18533.706    4.3617333    4.3617333    4.3617333   -18533.706   -23719.363   -6987.9468   -24893.809    7219.1326     4072.907    15940.692    82.980743 
   18200    853.46095   -117.48341   0.77222941   -116.71118     8256.073    4.3601472    4.3601472    4.3601472     8256.073   -11179.322    16889.041      19058.5     353.9389    1670.6091   -2389.5681     82.89025 
   18300    955.96742   -117.57691   0.86497941   -116.71193   -10480.722     4.380128     4.380128     4.380128   -10480.722   -24422.139    14357.266   -21377.294   -458.10439    458.25852    1509.2196    84.035039 
   18400    958.65818   -117.57672   0.86741407    -116.7093    12985.844    4.3616453    4.3616453    4.3616453    12985.844      6590.73    23408.004    8958.7963   -5403.2412    2589.0083    9988.6059    82.975723 
   18500    799.94545   -117.43696   0.72380745   -116.71316    25196.281    4.3626342    4.3626342    4.3626342    25196.281    20488.052    51618.253    3482.5376   -5823.0395     1109.572     7085.071    83.032171 
   18600    1045.6298   -117.65266   0.94610786   -116.70655   -12772.844    4.3838298    4.3838298    4.3838298   -12772.844   -8898.6951   -10627.077    -18792.76    4256.0172    2655.0262   -5205.5276    84.248281 
   18700     1068.233   -117.66245   0.96655964   -116.69589    5319.1255     4.362791     4.362791     4.362791    5319.1255    7320.7688    6071.4263    2565.1815   -6812.7224    3306.8349    2024.9979    83.041127 
   18800    1048.6658   -117.64882   0.94885487   -116.69996    10155.831    4.3592962    4.3592962    4.3592962    10155.831    19309.276     16326.21   -5167.9924    8017.6074   -7933.5323    7232.9163    82.841728 
   18900    971.97001   -117.58228   0.87945889   -116.70282   -11527.599    4.3806357    4.3806357    4.3806357   -11527.599   -9444.9152   -18954.874   -6183.0074    3940.8055    2970.2001   -1954.9764    84.064266 
   19000    1066.5413   -117.66597   0.96502901   -116.70095   -5217.4349    4.3665781    4.3665781    4.3665781   -5217.4349    -8646.282   -5161.0587   -1844.9639   -2636.9582    2960.4649   -2694.1868    83.257565 
   19100    708.19577   -117.35042   0.64079041   -116.70962    21484.065    4.3579736    4.3579736    4.3579736    21484.065    15299.286    33111.539    16041.369    3496.3242   -1605.3211    14687.675    82.766344 
   19200    892.93327   -117.51896   0.80794479   -116.71102   -9845.3197    4.3757323    4.3757323    4.3757323   -9845.3197    -20420.11    24067.456   -33183.304    7633.8918   -3078.2856   -3120.1678     83.78229 
   19300    725.45097   -117.36143   0.65640328   -116.70503   -5643.2173    4.3726501    4.3726501    4.3726501   -5643.2173   -18484.331   -19644.711    21199.391    11605.543   -4035.3881   -4881.7772    83.605368 
   19400     906.4219   -117.51792   0.82014959   -116.69777   -5181.9384    4.3584707    4.3584707    4.3584707   -5181.9384    1727.2649   -7115.8407   -10157.239      -4126.1    7301.6338    6214.0638    82.794672 
   19500    629.74373    -117.2785   0.56980536   -116.70869    16413.144    4.3667274    4.3667274    4.3667274    16413.144    15174.198    17765.131    16300.104   -1689.3261   -9506.3189     3782.999    83.266101 
   19600    887.98354   -117.50894   0.80346617   -116.70547   -6166.2356    4.3729318    4.3729318    4.3729318   -6166.2356     -24969.3    3087.9041    3382.6886   -1981.3171    -3533.556   -11204.723    83.621529 
   19700    551.59902   -117.20475   0.49909839   -116.70565    6122.3508     4.361597     4.361597     4.361597    6122.3508   -6462.4386    9992.7009     14836.79    3156.8147    3481.8759   -3455.4953    82.972966 
   19800    645.27603   -117.29417   0.58385931   -116.71031    4255.8777    4.3635599    4.3635599    4.3635599    4255.8777    -24473.54    30441.922    6799.2511   -8449.5003   -5457.3685    9090.5309    83.085041 
   19900    779.35203   -117.41182   0.70517409   -116.70665    2809.4453    4.3752537    4.3752537    4.3752537    2809.4453   -12274.002    39543.974   -18841.636    3015.6707    777.39639   -2724.1967    83.754804 
   20000    650.07763   -117.29302    0.5882039   -116.70481   -3477.2768    4.3695278    4.3695278    4.3695278   -3477.2768   -10750.637   -18336.572    18655.378    5694.3295    3788.6428    -6881.529    83.426401 
   20100    775.46632   -117.40144   0.70165822   -116.69978   -6221.0478    4.3572225    4.3572225    4.3572225   -6221.0478   -22156.216    6235.9312    -2742.859    -4780.955    838.56996   -2644.9527     82.72356 
   20200    838.91831   -117.46714   0.75907091   -116.70807    996.27783    4.3681152    4.3681152    4.3681152    996.27783   -29208.013    22526.102    9670.7439    4282.9405    1003.0384    4879.1426    83.345519 
   20300        747.7   -117.38392   0.67653468   -116.70739   -7488.0881    4.3731756    4.3731756    4.3731756   -7488.0881   -28871.978    21581.409   -15173.695   -4354.3034    4059.1613   -4169.6183    83.635519 
   20400    634.20455   -117.27777    0.5738416   -116.70393     12668.49    4.3633708    4.3633708    4.3633708     12668.49    10460.056     17985.48    9559.9338    8673.7981   -1250.5537   -9454.0093    83.074237 
   20500    1015.5826   -117.62228   0.91892046   -116.70335   -6705.4017    4.3723998    4.3723998    4.3723998   -6705.4017   -24985.424    21042.703   -16173.484    131.21183    2910.7353     3127.619    83.591016 
   20600    749.76501   -117.38288   0.67840314   -116.70447    11288.159    4.3652091    4.3652091    4.3652091    11288.159   -3462.8955    16648.865    20678.508    -77.99568    2207.6702   -6930.0564     83.17928 
   20700    933.83843   -117.55271   0.84495663   -116.70776   -6548.9024    4.3661868    4.3661868    4.3661868   -6548.9024   -2170.4775    2564.5724   -20040.802   -4895.3498   -247.19372    765.54224    83.235181 
   20800    873.39907    -117.4946   0.79026983   -116.70433   -2315.7189    4.3780268    4.3780268    4.3780268   -2315.7189   -19099.155   -6073.9172    18225.915   -812.67007    -2676.905    6354.9935     83.91416 
   20900    1184.8265   -117.76812    1.0720559   -116.69607    17804.622    4.3528156    4.3528156    4.3528156    17804.622    27313.323    23090.428    3010.1151    7517.5281    -3452.005   -2755.7525    82.472813 
   21000    537.01783   -117.20503   0.48590502   -116.71913    18095.553    4.3668841    4.3668841    4.3668841    18095.553   -5844.4382    40228.201    19902.897   -3539.0892    3346.7157   -10465.055    83.275066 
   21100    1078.2817   -117.68013   0.97565194   -116.70448   -33929.002    4.3851709    4.3851709    4.3851709   -33929.002   -32318.884    -26722.59   -42745.533   -3461.2673   -2101.3629   -9064.5732    84.325623 
   21200    1121.1775   -117.70662    1.0144649   -116.69215    27661.579    4.3447758    4.3447758    4.3447758    27661.579    23113.719    18200.077     41670.94   -4582.9135   -3870.1412    1848.2442    82.016665 
   21300    889.60754   -117.51974    0.8049356   -116.71481   -405.83552    4.3671714    4.3671714    4.3671714   -405.83552   -1604.5146   -5479.7557    5866.7637    10772.268    8470.5954   -7281.0513    83.291506 
   21400    941.01134   -117.55854   0.85144684   -116.70709   -30082.194    4.3819594    4.3819594    4.3819594   -30082.194   -37473.771   -32101.104   -20671.708    4791.7443    232.11902   -16728.461    84.140492 
   21500    1005.3014   -117.60724   0.90961779   -116.69762    24662.408    4.3487433    4.3487433    4.3487433    24662.408    40596.789    1671.1217    31719.312   -10202.962     -1274.86    6399.9752    82.241555 
   21600    1286.6865   -117.87251     1.164221   -116.70829    -20281.66     4.370772     4.370772     4.370772    -20281.66   -16035.657   -19384.044    -25425.28    6259.4868    6119.0088    6716.4334    83.497692 
   21700    851.29269   -117.47917   0.77026752    -116.7089   -11409.866    4.3723617    4.3723617    4.3723617   -11409.866   -10931.558    -16053.35   -7244.6914    4492.5566    12732.801       2381.7    83.588829 
   21800    1194.0737   -117.77867     1.080423   -116.69824    11431.013     4.351105     4.351105     4.351105    11431.013     18440.98    21034.275   -5182.2153    6680.4087   -1034.3012   -10013.748    82.375617 
   21900    905.08493   -117.53339   0.81893987   -116.71445   -4605.9582    4.3829363    4.3829363    4.3829363   -4605.9582     -1916.33   -6548.2765    -5353.268   -1416.9202    3667.5469   -297.09992    84.196777 
   22000    1244.9728   -117.83651    1.1264775   -116.71003   -21575.257    4.3694999    4.3694999    4.3694999   -21575.257   -28115.736   -16550.165    -20059.87     -10853.5    3310.6472    1749.4176    83.424806 
   22100    648.07975   -117.28599   0.58639618   -116.69959     48117.75    4.3417248    4.3417248    4.3417248     48117.75    44843.362    58384.432    41125.457     1925.199    3347.5068    -9728.184    81.844005 
   22200    1037.6067   -117.65197   0.93884835   -116.71312   -26113.059     4.387402     4.387402     4.387402   -26113.059   -29527.424   -19864.145   -28947.607   -4607.7796   -6597.4299    2284.0187    84.454402 
   22300    1068.3979   -117.67212   0.96670883   -116.70541   -11732.299    4.3693958    4.3693958    4.3693958   -11732.299     4714.299   -6256.0322   -33655.165   -607.33233    64.018767     5209.622    83.418843 
   22400    893.60313   -117.49717   0.80855089   -116.68862     39987.45    4.3318298    4.3318298    4.3318298     39987.45    20391.903    66150.102    33420.346    7885.9326    6044.5164   -12936.003    81.285703 
   22500    968.94428   -117.58893   0.87672115   -116.71221   -30453.393    4.3869018    4.3869018    4.3869018   -30453.393   -21070.303    -35059.25   -35230.626   -489.14411    2812.8694    5059.0069     84.42552 
   22600    884.19279   -117.50418   0.80003622   -116.70414   -19412.775    4.3750857    4.3750857    4.3750857   -19412.775   -23439.176    1716.5819   -36515.732    2823.8816    4093.7895     21547.81    83.745157 
   22700    1009.5521   -117.59325     0.913464   -116.67978    24773.349    4.3322207    4.3322207    4.3322207    24773.349    32349.526    48298.484   -6327.9612    3274.6148   -2673.2371   -1118.8928    81.307706 
   22800    706.11318   -117.34811   0.63890604    -116.7092   -1413.8791    4.3776545    4.3776545    4.3776545   -1413.8791   -28297.857    29879.751   -5823.5317   -4193.1129    7853.3601   -19221.601    83.892756 
   22900    1038.9371   -117.64321   0.94005215   -116.70316   -23046.668    4.3781187    4.3781187    4.3781187   -23046.668   -31026.283   -4195.2093    -33918.51    1177.9508    7918.1481    12349.518    83.919446 
   23000    682.50488   -117.31017   0.61754475   -116.69263    26247.369    4.3406056    4.3406056    4.3406056    26247.369     21020.07     47462.88    10259.155   -1551.9081    -959.1564    21111.161     81.78073 
   23100    956.47584   -117.57567   0.86543944   -116.71023   -13150.581    4.3715055    4.3715055    4.3715055   -13150.581    -33867.97    9071.7123   -14655.486   -8724.7584    10027.922   -7939.5719    83.539733 
   23200    942.01403   -117.55351    0.8523541   -116.70116    1102.4915     4.376527     4.376527     4.376527    1102.4915   -14345.808    32313.608   -14660.325    2753.9997    1097.2179   -1877.4931    83.827946 
   23300    778.18068    -117.4027   0.70411423   -116.69858    25906.839      4.35067      4.35067      4.35067    25906.839    12398.523    53380.807    11941.189   -6823.5322   -3724.2211    27743.623    82.350915 
   23400    794.20719   -117.43118   0.71861536   -116.71256   -4032.5367    4.3685481    4.3685481    4.3685481   -4032.5367   -25546.084    16603.747   -3155.2725   -213.60946    7981.6682     3295.041    83.370301 
   23500    1209.3322   -117.79886    1.0942292   -116.70463   -11912.867    4.3685621    4.3685621    4.3685621   -11912.867   -23018.225   -7187.2863   -5533.0879   -2279.6269    467.21884   -10896.494    83.371104 
   23600    768.55187    -117.3989   0.69540188    -116.7035    24807.477    4.3535924    4.3535924    4.3535924    24807.477    2842.0386    57123.313    14457.078    195.83023    58.718929    11709.014    82.516973 
   23700    930.49983   -117.54998    0.8419358   -116.70805   -17939.962    4.3735806    4.3735806    4.3735806   -17939.962   -7638.5675   -25953.055   -20228.263   -3386.3567     5182.814    9682.3832    83.658755 
   23800    1160.5188   -117.75074    1.0500618   -116.70068   -8225.6846    4.3675562    4.3675562    4.3675562   -8225.6846   -24310.352    8139.9329   -8506.6349    8699.0017   -7067.1296   -9769.7642    83.313525 
   23900    869.09823   -117.49045   0.78637834   -116.70408    13796.486    4.3577216    4.3577216    4.3577216    13796.486    8839.6813    36868.826   -4319.0491    3839.5464    3027.9127    10693.751    82.751989 
   24000    887.81718   -117.51264   0.80331564   -116.70933   -19696.387    4.3705674    4.3705674    4.3705674   -19696.387   -12695.762    -21999.84   -24393.558    783.68146     3907.665    20043.978    83.485962 
   24100    959.88748     -117.573   0.86852636   -116.70447   -1284.8672    4.3659129    4.3659129    4.3659129   -1284.8672    7782.6892   -6427.8214   -5209.4692    7765.5038   -2340.5745    1981.2262    83.219518 
   24200    1118.4462   -117.71438    1.0119936   -116.70239    9307.3966    4.3593188    4.3593188    4.3593188    9307.3966    5008.0264    16701.151    6213.0128   -14883.331     1262.374    2213.3645    82.843015 
   24300    814.08751   -117.44915   0.73660348   -116.71255   -1558.6703    4.3664901    4.3664901    4.3664901   -1558.6703    5712.3664   -3670.5916   -6717.7855    5720.7981    -867.3755    10153.076    83.252532 
   24400    725.63477   -117.36951   0.65656959   -116.71294    1054.7469    4.3702507    4.3702507    4.3702507    1054.7469   -2057.7694    33933.429   -28711.419   -3350.8078    8703.9448    1328.7025    83.467819 
   24500     1221.907   -117.80721    1.1056072   -116.70161    4215.7564    4.3583199    4.3583199    4.3583199    4215.7564    7588.4072   -4705.6721    9764.5342    -8445.794    2001.9827   -7015.1649    82.786076 
   24600    610.08962   -117.26119   0.55202191   -116.70917    23428.404    4.3585384    4.3585384    4.3585384    23428.404    14522.064    54768.646    994.50195   -5603.8443   -6471.1656    9709.2913    82.798531 
   24700    757.13391   -117.40184   0.68507068   -116.71677   -27008.758    4.3777826    4.3777826    4.3777826   -27008.758   -16558.364   -15501.467   -48966.445    496.86773    11591.277    9287.1735    83.900118 
   24800    1072.8563   -117.67478   0.97074292   -116.70404    9623.9564    4.3537966    4.3537966    4.3537966    9623.9564    15625.917    23040.611   -9794.6593   -4553.3703    424.27475     2748.061    82.528584 
   24900    806.09766   -117.43754    0.7293741   -116.70817     15347.64    4.3548991    4.3548991    4.3548991     15347.64    4.6722608    45085.336    952.91061    1618.3244   -2026.7249     11088.81    82.591299 
   25000    401.09784   -117.07214   0.36292176   -116.70922   -21600.475    4.3842231    4.3842231    4.3842231   -21600.475    -18874.46    9952.1321   -55879.099     198.4044    14325.118    19623.818     84.27096 
   25100     1196.304   -117.78185     1.082441   -116.69941   -944.36026    4.3513201    4.3513201    4.3513201   -944.36026   -5570.6331     21901.91   -19164.358    9739.6937   -1658.3017   -938.07577    82.387838 
   25200     870.0631   -117.49797   0.78725138   -116.71072    17891.067    4.3511746    4.3511746    4.3511746    17891.067    32309.053    31136.685   -9772.5365   -4500.0441   -4158.3033    7757.5164    82.379575 
   25300    784.00604   -117.41658   0.70938514    -116.7072   -41017.563    4.3843465    4.3843465    4.3843465   -41017.563    -36676.36   -35384.544   -50991.784   -6947.8314    3317.1101    12462.862    84.278077 
   25400    722.28935   -117.35531   0.65354258   -116.70177    16464.036    4.3535137    4.3535137    4.3535137    16464.036    2129.6095     53699.64   -6437.1406   -2998.2248    2094.5239   -2541.9675    82.512502 
   25500    1019.2918   -117.62364    0.9222766   -116.70136    16287.323    4.3501045    4.3501045    4.3501045    16287.323   -2310.3385    54530.862   -3358.5563   -1774.9622    3124.9525   -2397.2046    82.318807 
   25600     658.6582   -117.31053   0.59596778   -116.71456   -15604.156    4.3786237    4.3786237    4.3786237   -15604.156    1303.7946   -7116.6242   -40999.638   -10163.436    57.482861    2935.9125    83.948486 
   25700    907.56905   -117.53095   0.82118755   -116.70976   -3985.2217     4.359505     4.359505     4.359505   -3985.2217    -5781.175    13445.467   -19619.957   -2720.3553    11923.491        10708    82.853628 
   25800    1072.1005   -117.67028   0.97005906   -116.70022    25306.546    4.3455425    4.3455425    4.3455425    25306.546    9592.6645    44214.768    22112.205    6796.4889   -2438.9921   -6092.7964    82.060092 
   25900    960.77917   -117.58048   0.86933319   -116.71114   -16340.536    4.3740588    4.3740588    4.3740588   -16340.536   -21181.702    2724.1241   -30564.029    3514.8562   -6670.0977    14946.457    83.686201 
   26000    781.33173   -117.41644   0.70696537   -116.70947   -849.34033    4.3673327    4.3673327    4.3673327   -849.34033    11611.446    3763.4251   -17922.892   -3367.9329    12861.672    6542.1246    83.300736 
   26100    1196.2197   -117.78426    1.0823647    -116.7019    27066.386    4.3408142    4.3408142    4.3408142    27066.386    3771.1935    61520.783    15907.181    2414.4318   -3396.8531   -5456.6408    81.792523 
   26200    995.06423   -117.61756   0.90035503   -116.71721   -3919.4914    4.3675546    4.3675546    4.3675546   -3919.4914    9844.8244   -11293.824   -10309.474    4754.3943   -1512.2434    12379.923    83.313434 
   26300    982.57077   -117.59471   0.88905068   -116.70566    -28123.01    4.3757632    4.3757632    4.3757632    -28123.01   -36765.032   -22976.088   -24627.909   -7111.4924    4825.3803    14469.363    83.784066 
   26400    966.30422     -117.567   0.87433236   -116.69267    39976.734    4.3392024    4.3392024    4.3392024    39976.734    53384.514    35861.253    30684.434   -954.66611   -547.06693   -9487.9666    81.701442 
   26500     1121.176   -117.72601    1.0144636   -116.71155   -10996.455    4.3613124    4.3613124    4.3613124   -10996.455   -26978.017   -2264.1477   -3747.1991   -1036.2106   -4264.6871   -6.6503238    82.956723 
   26600    706.23129   -117.34867   0.63901291   -116.70966   -19529.139    4.3735489    4.3735489    4.3735489   -19529.139   -29280.556   -11456.128   -17850.731    8859.4823    2518.6756    10561.709    83.656934 
   26700    982.94631   -117.58405   0.88939048   -116.69466    16843.588       4.3478       4.3478       4.3478    16843.588     7373.671    26771.504    16385.589   -7565.6525    11347.792    -1100.866    82.188051 
   26800    960.05486   -117.56842   0.86867782   -116.69974   -809.82356    4.3630777    4.3630777    4.3630777   -809.82356    2660.0357    6049.2566   -11138.763    2412.7147   -11169.955    3997.1653    83.057496 
   26900    769.97842   -117.40138   0.69669265   -116.70469   -8891.5533    4.3622815    4.3622815    4.3622815   -8891.5533   -12690.105   -2462.8789   -11521.676     7171.455    4161.2188    3106.9579    83.012035 
   27000    767.54399    -117.4015   0.69448993   -116.70701    6820.5883    4.3528649    4.3528649    4.3528649    6820.5883    15645.826    29345.546   -24529.607    3179.2591    10423.232    4194.2971    82.475614 
   27100    889.25491   -117.51054   0.80461653   -116.70592   -11187.613    4.3693383    4.3693383    4.3693383   -11187.613    7541.1396    3406.2618    -44510.24    7873.7364   -10359.555    37.878827     83.41555 
   27200    811.06705   -117.43637   0.73387051    -116.7025    2534.4932    4.3569103    4.3569103    4.3569103    2534.4932    16107.618   -4964.4898   -3539.6483    -408.7494   -12520.345    7952.9486    82.705776 
   27300    681.02235   -117.32157   0.61620333   -116.70537    3156.7808    4.3576929    4.3576929    4.3576929    3156.7808    12173.195    488.41821   -3191.2711    4950.7929    4012.9401    10271.767    82.750352 
   27400     935.1883   -117.54701   0.84617803   -116.70083   -13778.894    4.3710491    4.3710491    4.3710491   -13778.894   -24416.128    330.03076   -17250.585    929.31723    7851.8362    -3668.186    83.513573 
   27500    820.35355   -117.44257   0.74227313    -116.7003     8088.496    4.3602528    4.3602528    4.3602528     8088.496    24207.927   -3259.2774    3316.8386     3436.953   -14318.116    5647.4257    82.896273 
   27600    678.23235   -117.32064   0.61367888   -116.70696   -4290.0468    4.3639836    4.3639836    4.3639836   -4290.0468    345.52127   -1958.5572   -11257.104    4587.9407    7233.0452    17193.616    83.109241 
   27700     786.8585   -117.41439   0.71196611   -116.70243    8034.7102    4.3599397    4.3599397    4.3599397    8034.7102    33335.567   -3265.9463   -5965.4899    -7199.957    19527.709    5394.6044    82.878416 
   27800    957.71331    -117.5685   0.86655913   -116.70194    846.20436    4.3601779    4.3601779    4.3601779    846.20436    50275.872   -20772.049   -26965.209   -6291.0166   -1948.5577   -226.40482    82.892004 
   27900    742.11554   -117.38051   0.67148174   -116.70903   -13060.145    4.3713838    4.3713838    4.3713838   -13060.145    14560.056   -13431.785   -40308.705   -795.37163   -5591.2603    8941.4988    83.532755 
   28000    928.93135   -117.54441   0.84051661   -116.70389    10078.962    4.3538628    4.3538628    4.3538628    10078.962    20838.081    10431.308   -1032.5026    1732.3922    4137.4058   -515.58669    82.532349 
   28100    1341.8253   -117.91874    1.2141117   -116.70463   -11504.984    4.3601797    4.3601797    4.3601797   -11504.984    7286.6955   -18815.905   -22985.743   -3715.7398    1531.4598    3565.8451    82.892107 
   28200    923.42998    -117.5412   0.83553885   -116.70566   -20424.219    4.3756307    4.3756307    4.3756307   -20424.219   -5302.8872   -18625.619   -37344.151   -749.90075   -12970.698    14133.564    83.776456 
   28300    1010.3614   -117.61262   0.91419626   -116.69842    10777.396    4.3519911    4.3519911    4.3519911    10777.396    18553.305    26116.106   -12337.222    5947.6791    4889.3685   -1627.1461    82.425957 
   28400    1179.8998   -117.77078    1.0675982   -116.70318    5437.4688    4.3555385    4.3555385    4.3555385    5437.4688    14789.293   -8162.6205    9685.7343    2398.0217    13603.524   -4817.8366    82.627683 
   28500    836.84245    -117.4681   0.75719263    -116.7109    5170.6562    4.3621055    4.3621055    4.3621055    5170.6562    25066.187    318.11342   -9872.3322   -2475.1031   -4036.9058    3690.4584     83.00199 
   28600     928.5936   -117.55202   0.84021101   -116.71181    3847.7586    4.3604421    4.3604421    4.3604421    3847.7586    8097.5437    -2361.217    5806.9489    8664.0614     -3381.31    2699.4367    82.907068 
   28700     933.4312   -117.55217   0.84458817   -116.70758    197.18268    4.3653057    4.3653057    4.3653057    197.18268    12261.388   -5583.3815   -6086.4582    7333.0469     5040.222    2371.1839    83.184804 
   28800    1023.5548   -117.62963    0.9261339   -116.70349     14153.96    4.3491579    4.3491579    4.3491579     14153.96   -6323.5356    17905.397    30880.019   -10986.632    5290.7009   -910.80033    82.265078 
   28900    846.97342   -117.48181   0.76635935   -116.71545   -11268.518     4.369192     4.369192     4.369192   -11268.518   -15775.264   -19127.418    1097.1267   -8813.0518   -9456.3424    374.35488    83.407173 
   29000    928.47581   -117.54558   0.84010443   -116.70548   -2091.3089    4.3666411    4.3666411    4.3666411   -2091.3089   -1525.4025   -16014.891    11266.367    2929.3862   -4861.8536     -4416.72    83.261167 
   29100    1118.1681    -117.7068     1.011742   -116.69506    28908.588    4.3399022    4.3399022    4.3399022    28908.588    44540.635    21921.024    20264.106    547.04175    2281.8151    521.09803    81.740979 
   29200    667.63375   -117.31754   0.60408905   -116.71345   -14883.601    4.3737753    4.3737753    4.3737753   -14883.601   -9744.0482   -30898.418    -4008.337   -7573.8212   -6169.3709    13244.483    83.669928 
   29300    934.76199   -117.54738   0.84579229   -116.70159   -19719.877    4.3693584    4.3693584    4.3693584   -19719.877   -27418.703   -31970.307    229.37825   -6021.7909   -9331.6074   -3147.7758    83.416702 
   29400    1064.1869   -117.65144   0.96289868   -116.68854    40302.607    4.3398567    4.3398567    4.3398567    40302.607    67514.644    17470.446    35922.732    1366.9454    4434.6165   -1110.3637    81.738405 
   29500    916.87712   -117.53307   0.82960968   -116.70346   -27128.285    4.3760307    4.3760307    4.3760307   -27128.285   -32972.183   -35450.041   -12962.631   -6797.1127   -2920.3717    2676.1125    83.799431 
   29600    749.46519   -117.37973   0.67813185   -116.70159   -14692.953    4.3659209    4.3659209    4.3659209   -14692.953    -21867.92   -24852.601    2641.6606   -6382.9982   -783.54449   -2772.0927    83.219975 
   29700    1232.5493   -117.80359    1.1152365   -116.68836    22003.756     4.341117     4.341117     4.341117    22003.756    35752.378    10844.116    19414.775     6481.848    4726.1666    8920.5434    81.809636 
   29800    974.84921   -117.58807   0.88206405   -116.70601   -9119.2431    4.3714979    4.3714979    4.3714979   -9119.2431   -17285.108   -30063.048    19990.427   -6094.7072   -2918.2793    3946.8039    83.539296 
   29900    710.88175   -117.35782   0.64322075    -116.7146   -15909.513    4.3632086    4.3632086    4.3632086   -15909.513   -4325.2283   -23805.939   -19597.372   -15099.485    2404.1679    1019.3331    83.064973 
   30000    979.58313   -117.58837    0.8863474   -116.70202    12146.747    4.3430048    4.3430048    4.3430048    12146.747     11112.86    664.83529    24662.546    5093.5945   -13507.254     -13748.3    81.916411 
   30100     1097.339   -117.70159   0.99289541    -116.7087   -3580.1591    4.3686715    4.3686715    4.3686715   -3580.1591   -9256.4855   -18366.234    16882.242    8555.4656   -4852.0321    4981.2452    83.377368 
   30200     890.5761   -117.51211   0.80581197    -116.7063   -8844.5106    4.3650289    4.3650289    4.3650289   -8844.5106    3491.1127   -24916.673   -5107.9716   -3577.3707    3013.7538    7941.5795    83.168979 
   30300    676.14407   -117.31191   0.61178936   -116.70012    9626.3307    4.3468465    4.3468465    4.3468465    9626.3307    12107.803   -2407.2287    19178.418   -10804.177    -8310.468   -12807.531    82.133991 
   30400    1167.0161   -117.76096    1.0559407   -116.70502    -21909.26    4.3654472    4.3654472    4.3654472    -21909.26   -26404.143   -22098.425   -17225.212    5094.2761    2968.9261   -2314.9409    83.192892 
   30500    811.61336   -117.43506   0.73436483    -116.7007    9739.8021    4.3638251    4.3638251    4.3638251    9739.8021    4758.6898    1178.3342    23282.382    1269.3972   -6964.6171    652.02543    83.100187 
   30600    921.15076   -117.53353   0.83347657   -116.70006    1321.8359    4.3494319    4.3494319    4.3494319    1321.8359    17273.718   -5501.1159    -7807.095   -11207.851    -1478.196    5341.5223    82.280629 
   30700    809.56217   -117.44309   0.73250887   -116.71058   -18736.823    4.3677641    4.3677641    4.3677641   -18736.823   -27228.539   -13863.666   -15118.264    3732.6392   -8635.6414   -7422.3127    83.325421 
   30800    937.39205   -117.55312   0.84817202   -116.70494    5838.8928    4.3594368    4.3594368    4.3594368    5838.8928   -7158.8294    7710.7009    16964.807    6839.3112   -10404.805   -2690.2454    82.849744 
   30900    1031.6349   -117.63689   0.93344497   -116.70345    10193.136     4.350419     4.350419     4.350419    10193.136    4974.4227    8878.2678    16726.717   -10438.296    11714.904    2725.8564    82.336663 
   31000     624.4236   -117.27539   0.56499159    -116.7104   -25023.392    4.3676216    4.3676216    4.3676216   -25023.392   -40191.555   -5609.8317   -29268.788   -13562.547   -16495.675   -3407.1434    83.317266 
   31100    788.51575   -117.42105   0.71346562   -116.70758    -9189.105    4.3558444    4.3558444    4.3558444    -9189.105   -28125.004    19852.039    -19294.35    5970.5638   -11100.405    2425.9047    82.645093 
   31200    924.41459   -117.54398   0.83642975   -116.70755    22609.156    4.3584749    4.3584749    4.3584749    22609.156    9406.0257     14371.85    44049.592    6262.3591    8218.7084   -1894.5009     82.79491 
   31300     959.0422   -117.57647   0.86776154   -116.70871   -11276.475    4.3651333    4.3651333    4.3651333   -11276.475   -26725.289    5124.0907   -12228.226   -6220.2549   -12450.591   -2038.1382    83.174949 
   31400    381.77739   -117.05773    0.3454402   -116.71229    10824.013    4.3523527    4.3523527    4.3523527    10824.013    6603.7603    19721.899    6146.3791    5265.1569   -5741.0539   -2157.8453    82.446501 
   31500    981.13842   -117.60081   0.88775466   -116.71306   -10718.403    4.3666712    4.3666712    4.3666712   -10718.403    4521.9735   -15332.945   -21344.237    9376.7864   -6522.2722   -4210.6679     83.26289 
   31600    862.90817   -117.48902   0.78077745   -116.70825    23953.267    4.3583002    4.3583002    4.3583002    23953.267    12923.574    17095.172    41841.054    6129.0894   -1250.7288    3779.9094    82.784955 
   31700    673.19827   -117.31979   0.60912394   -116.71067    5041.4824    4.3495929    4.3495929    4.3495929    5041.4824    19490.335    8137.0942   -12502.982    1060.9695   -11412.202     1874.193    82.289769 
   31800    558.38116   -117.22055   0.50523501   -116.71531   -27705.364    4.3699769    4.3699769    4.3699769   -27705.364   -15409.788   -38431.697   -29274.607    4932.8508   -7557.2492   -7369.4257    83.452131 
   31900    954.08607   -117.56798   0.86327713    -116.7047    8358.6298     4.354972     4.354972     4.354972    8358.6298    3537.3115   -12120.795    33659.373     1667.438     13540.89    3620.3509    82.595444 
   32000    864.76026   -117.48942   0.78245326   -116.70697    15978.354    4.3509422    4.3509422    4.3509422    15978.354    3447.0627    11337.388    33150.611   -4328.9004   -12816.034    5877.3049    82.366373 
   32100    654.77861   -117.30152   0.59245745   -116.70906   -24566.704    4.3687539    4.3687539    4.3687539   -24566.704   -30273.167   -26165.698   -17261.248    1743.8194   -7963.2108   -6579.3113    83.382086 
   32200     750.3449   -117.38133   0.67892783    -116.7024   -9912.6436    4.3579904    4.3579904    4.3579904   -9912.6436   -11587.125   -37624.527    19473.721    225.75304    1665.1138   -4901.7912    82.767305 
   32300     728.0084   -117.36017    0.6587173   -116.70146    18885.403    4.3506643    4.3506643    4.3506643    18885.403    13717.303   -13892.155     56831.06   -3588.3901   -4586.1221   -867.95728    82.350589 
   32400    763.46396   -117.39833   0.69079824   -116.70754   -16545.315    4.3627613    4.3627613    4.3627613   -16545.315   -23956.763   -8703.7041   -16975.479   -1908.1085   -5759.6378      4272.47    83.039429 
   32500    462.96377   -117.12699   0.41889935   -116.70809   -4466.9002    4.3594663    4.3594663    4.3594663   -4466.9002   -11787.689   -27203.816    25590.804   -3916.7406   -6473.4259   -2451.6478    82.851424 
   32600     797.4446   -117.42782   0.72154463   -116.70627   -7131.8141    4.3531813    4.3531813    4.3531813   -7131.8141    8626.9506   -39898.115    9875.7216   -1044.6894    8166.2698   -6446.5092    82.493603 
   32700    626.13356   -117.27665   0.56653881   -116.71011   -5172.6838    4.3597237    4.3597237    4.3597237   -5172.6838    12339.794   -32796.221    4938.3759   -1376.9037   -10986.294    7980.7252    82.866101 
   32800    580.41013   -117.23624   0.52516728   -116.71107   -19054.235    4.3643413    4.3643413    4.3643413   -19054.235   -13945.552   -27352.911   -15864.241   -2641.8931   -11005.575   -4927.1467    83.129679 
   32900     774.5458   -117.40694   0.70082532   -116.70612    1584.3757    4.3497381    4.3497381    4.3497381    1584.3757    15246.765   -14776.165    4282.5266   -2610.8879    5995.2898   -7029.5849    82.298006 
   33000    663.17734   -117.31057   0.60005679   -116.71052    13881.013    4.3551769    4.3551769    4.3551769    13881.013    33407.232   -22703.322    30939.129   -1651.7377   -5521.3903    13571.235    82.607104 
   33100    722.81201   -117.36316    0.6540155   -116.70914   -25876.679    4.3706514    4.3706514    4.3706514   -25876.679   -34771.396   -33577.819   -9280.8228   -2480.6698   -15590.853    1518.2442     83.49078 
   33200      720.996   -117.35586   0.65237233   -116.70349    5287.5636    4.3504019    4.3504019    4.3504019    5287.5636   -3514.0589     -10356.4     29733.15    1668.5052   -4501.5823   -7005.4162    82.335693 
   33300    993.64819   -117.60618   0.89907376   -116.70711    4361.1444    4.3515838    4.3515838    4.3515838    4361.1444    12614.417   -13361.764    13830.781   -1599.8143    8136.9217    10701.181    82.402818 
   33400     749.0021   -117.38525   0.67771284   -116.70754   -10142.742    4.3703091    4.3703091    4.3703091   -10142.742   -29309.971   -22622.789    21504.535    670.11507   -6069.9697    5856.8902    83.471161 
   33500    914.23442   -117.53352   0.82721851    -116.7063   -1159.4545    4.3523473    4.3523473    4.3523473   -1159.4545   -777.79112   -4823.6125      2123.04    7664.6044   -8948.5111   -679.28292    82.446197 
   33600    872.16202   -117.50102   0.78915052   -116.71187    3200.0462    4.3553958    4.3553958    4.3553958    3200.0462    -4951.028   -14186.061    28737.227    -514.3689    6233.0571    9524.4717    82.619561 
[...]
   91300    776.76481   -117.41759   0.70283313   -116.71475    -11602.83     4.350268     4.350268     4.350268    -11602.83   -28196.139    15892.353   -22504.703    980.27835   -7892.0707   -2411.0404     82.32809 
   91400     1155.973   -117.75406    1.0459487   -116.70811    871.65268    4.3429727    4.3429727    4.3429727    871.65268   -5015.9305   -687.78136    8318.6699    -2877.373   -1798.2395    49.631661    81.914595 
   91500    1189.5355   -117.78402    1.0763167    -116.7077    2053.7653    4.3433404    4.3433404    4.3433404    2053.7653    11568.876   -7385.2049     1977.625   -12591.099   -2588.7485    7246.6164    81.935405 
   91600    618.35936   -117.27621   0.55950455   -116.71671   -7658.1854    4.3482285    4.3482285    4.3482285   -7658.1854   -14458.527     15751.83   -24267.859    5075.9319   -11007.985    4371.2593    82.212352 
   91700    817.03175   -117.45562    0.7392675   -116.71635    1138.8506     4.340697     4.340697     4.340697    1138.8506   -15030.646    25510.898   -7063.7004    4539.0879   -1305.8574   -718.23391    81.785898 
   91800       1343.2   -117.92515    1.2153556    -116.7098    5600.0691    4.3460989    4.3460989    4.3460989    5600.0691     14120.68    -11967.44    14646.967    -7539.802    5389.6047    1033.1374    82.091621 
   91900    998.53753   -117.61776   0.90349774   -116.71426   -5892.3072    4.3495932    4.3495932    4.3495932   -5892.3072   -2331.2206   -1814.0178   -13531.683    4024.4329   -10501.662    3553.8321    82.289785 
   92000    584.31191   -117.24661   0.52869769   -116.71791    1391.7304    4.3384253    4.3384253    4.3384253    1391.7304   -16452.211    30213.579   -9586.1764    2513.8178    -6052.314    2382.4329    81.657554 
   92100    1049.6823    -117.6646   0.94977456   -116.71483    2593.1219    4.3481282    4.3481282    4.3481282    2593.1219    8897.6664    1710.1855   -2828.4861    6687.0361    7789.4147     2280.508    82.206663 
   92200    1405.1797   -117.97769    1.2714361   -116.70625    -197.9791    4.3489768    4.3489768    4.3489768    -197.9791    13540.761   -14706.115    571.41631    3377.0349   -2766.4938    4548.9196    82.254807 
   92300    787.26102   -117.42615   0.71233031   -116.71382    13789.053    4.3352646    4.3352646    4.3352646    13789.053    27668.646    21562.356   -7863.8424   -2305.9055   -11539.162    550.33577    81.479213 
   92400    784.70929   -117.42822   0.71002145    -116.7182   -9790.4809    4.3497839    4.3497839    4.3497839   -9790.4809   -1467.2065    4421.3151   -32325.551     13467.81    7375.3637   -690.18495    82.300611 
   92500    1287.3533   -117.87324    1.1648243   -116.70842    5226.1453    4.3465332    4.3465332    4.3465332    5226.1453    19187.915   -4536.5022    1027.0234   -2403.9863    8348.8716    880.16029    82.116227 
   92600    1197.4131   -117.79197    1.0834446   -116.70852    18359.048    4.3354089    4.3354089    4.3354089    18359.048    33528.213    9388.0791    12160.853   -13337.425   -7299.6222    2450.8667    81.487349 
   92700    860.23703   -117.49302   0.77836054   -116.71466   -15405.657    4.3520496    4.3520496    4.3520496   -15405.657    -8175.039    4842.1243   -42884.057     5989.643    1348.5435    2374.2302    82.429279 
   92800     974.7841   -117.59239   0.88200514   -116.71038   -2192.8521    4.3460052    4.3460052    4.3460052   -2192.8521    12721.684    2295.3295    -21595.57   -2924.5515    7832.3563   -3321.3343    82.086306 
   92900    1197.9279   -117.79002    1.0839103   -116.70611    15499.596    4.3383742    4.3383742    4.3383742    15499.596    28197.602    6003.5923    12297.595   -13625.314    1543.9914   -2601.9998    81.654668 
   93000     975.2872   -117.59231   0.88246035   -116.70985   -6456.7496    4.3514133    4.3514133    4.3514133   -6456.7496    6783.7082   -4429.9817   -21723.975   -5698.8446   -4269.9275   -1033.2815    82.393133 
   93100    833.57843   -117.46547   0.75423928   -116.71123   -1592.1977    4.3434094    4.3434094    4.3434094   -1592.1977    9106.3008    17149.444   -31032.338    4122.6716    3683.7987   -2610.1415    81.939311 
   93200    1014.9004    -117.6283   0.91830317      -116.71    2162.2139    4.3400793    4.3400793    4.3400793    2162.2139    13849.468    1112.2863   -8475.1131   -8849.2841     1773.552    -342.8515    81.750988 
   93300    1070.6586   -117.67753   0.96875444   -116.70877   -4408.7107    4.3508653    4.3508653    4.3508653   -4408.7107     6484.366   -13119.945   -6590.5526   -19815.594   -10965.531   -1441.4802    82.362005 
   93400    895.59853   -117.52038   0.81035637   -116.71002    4792.9388    4.3435655    4.3435655    4.3435655    4792.9388    14246.447    16064.932   -15932.562     4751.359    4458.7837   -2350.5008    81.948146 
   93500    774.92202   -117.41296   0.70116573   -116.71179    4084.4569    4.3416271    4.3416271    4.3416271    4084.4569    23346.245     14567.76   -25660.635   -255.09053    12916.496   -6594.8934    81.838481 
   93600    907.13644   -117.53165   0.82079611   -116.71085   -4237.4636    4.3487569    4.3487569    4.3487569   -4237.4636    18288.428   -23375.252   -7625.5672    -22235.84    893.55477    -4236.699     82.24233 
   93700     930.2398   -117.55079   0.84170052   -116.70909    4238.0892    4.3435599    4.3435599    4.3435599    4238.0892    14629.944    275.80807   -2191.4845   -4624.6239    167.88923    2845.3284    81.947825 
   93800    755.38698   -117.39562   0.68349001   -116.71213   -4591.8517    4.3445053    4.3445053    4.3445053   -4591.8517    2307.5837    13620.384   -29703.523     3104.558    9634.5786   -1981.0036    82.001351 
   93900    790.56135   -117.42667   0.71531652   -116.71136    -9763.425    4.3478682    4.3478682    4.3478682    -9763.425    1734.7882   -8621.8142   -22403.249   -13153.746    5582.9633   -4470.5284    82.191917 
   94000    1034.8253   -117.64441   0.93633166   -116.70808    -3393.407     4.342156     4.342156     4.342156    -3393.407    11101.538   -16633.301   -4648.4577   -12268.174   -3283.8118    1339.4794    81.868391 
   94100    728.84968    -117.3735    0.6594785   -116.71402   -3193.9962     4.343953     4.343953     4.343953   -3193.9962    9902.6757     3875.959   -23360.623    4693.4387    421.85058   -880.47155    81.970081 
   94200    573.33718    -117.2349   0.51876753   -116.71614   -4442.8197    4.3490025    4.3490025    4.3490025   -4442.8197    17928.687     160.1641    -31417.31    1214.4807    914.23121   -6964.3743    82.256262 
   94300    992.46376    -117.6073   0.89800206    -116.7093    1528.9693    4.3444125    4.3444125    4.3444125    1528.9693    24503.741   -6112.9087   -13803.925   -10697.222    -1313.385    1609.9458    81.996094 
   94400    973.85869   -117.59107   0.88116781    -116.7099   -627.88355    4.3437158    4.3437158    4.3437158   -627.88355    26439.455   -8045.5259    -20277.58   -438.73502    299.41521    10822.595     81.95665 
   94500    606.88942   -117.26419    0.5491263   -116.71506   -13060.562    4.3503394    4.3503394    4.3503394   -13060.562   -3030.6722   -276.81859   -35874.194      9652.16    11102.079   -3077.7226    82.332146 
   94600     892.9478   -117.51836   0.80795793    -116.7104   -2678.0745    4.3445305    4.3445305    4.3445305   -2678.0745    11997.284    4195.4117   -24226.919   -712.20337    5177.4302    -2915.328    82.002776 
   94700    1045.4755   -117.65396   0.94596817   -116.70799    5016.5748    4.3423809    4.3423809    4.3423809    5016.5748    42115.412   -1163.7736   -25901.914   -1094.8648    -634.8079    11946.217    81.881116 
   94800    782.67129   -117.42197   0.70817743   -116.71379   -10184.682     4.347261     4.347261     4.347261   -10184.682    15393.066   -9012.2932    -36934.82    11078.623    4368.7258    6109.2948    82.157487 
   94900    597.84945    -117.2562   0.54094675   -116.71525     2035.213    4.3453975    4.3453975    4.3453975     2035.213    12563.492    8070.7155   -14528.568    5726.0605    3716.8553   -5333.1899     82.05188 
   95000    928.02942   -117.55122   0.83970052   -116.71152   -1193.6622    4.3415724    4.3415724    4.3415724   -1193.6622    15011.879    5458.7814   -24051.647   -400.78867   -1709.7838    7874.5893    81.835385 
   95100    918.38515   -117.54261   0.83097418   -116.71163   -118.01737    4.3439502    4.3439502    4.3439502   -118.01737     20139.14    -5371.424   -15121.769   -343.49943    20.638625    18324.867    81.969921 
   95200    766.43914    -117.4065   0.69349024   -116.71301   -7713.0864    4.3503954    4.3503954    4.3503954   -7713.0864   -11750.392   -7121.6032   -4267.2638    8803.1378    8626.2647   -2525.5458    82.335323 
   95300    750.89038    -117.3917    0.6794214   -116.71228    1089.4092    4.3401946    4.3401946    4.3401946    1089.4092    2970.1888    14794.637   -14496.599    4930.6479    3306.2076   -216.10786      81.7575 
   95400    764.38965   -117.40476   0.69163582   -116.71313    3712.9156    4.3420329    4.3420329    4.3420329    3712.9156    27575.713   -7707.0823   -8729.8843   -10880.353   -4257.7827    18576.142    81.861433 
   95500    881.49939   -117.50745   0.79759918   -116.70985   -10608.189    4.3533069    4.3533069    4.3533069   -10608.189   -953.15621    -12778.47   -18092.941    4072.4982    4617.5432    5424.4698    82.500741 
   95600    871.30005   -117.49692    0.7883706   -116.70855    7678.3099    4.3384935    4.3384935    4.3384935    7678.3099    20899.541    17195.151   -15059.762    12002.424    14716.408   -3456.1283    81.661405 
   95700    620.28688   -117.27675    0.5612486    -116.7155   -2674.5499    4.3402377    4.3402377    4.3402377   -2674.5499   -333.02721    5817.0891   -13507.712   -6376.6594    854.03603     11206.57    81.759935 
   95800    717.24393   -117.36315   0.64897738   -116.71417   -17092.911    4.3501703    4.3501703    4.3501703   -17092.911   -8657.1154    -12836.41   -29785.209   -17235.418   -6804.3432     14924.78    82.322541 
   95900    1008.0514   -117.61925   0.91210609   -116.70715   -977.70973    4.3449292    4.3449292    4.3449292   -977.70973    2302.8466    17623.894    -22859.87   -695.27901    4170.6239   -4124.3754    82.025352 
   96000    829.93357   -117.46014   0.75094133    -116.7092   -8138.2593    4.3446803    4.3446803    4.3446803   -8138.2593   -13308.839    11756.841   -22862.779    8566.2453     7840.215     1467.517    82.011259 
   96100    591.60185   -117.24901   0.53529378   -116.71372   -4152.2794    4.3400925    4.3400925    4.3400925   -4152.2794    -8453.577    14252.231   -18255.492    -11336.52   -3476.1094    18742.442     81.75173 
   96200    869.35717   -117.50165   0.78661263   -116.71504   -6944.1247    4.3473301    4.3473301    4.3473301   -6944.1247   -629.64425    1983.7752   -22186.505   -13930.713   -8301.0859    2247.3208    82.161406 
   96300    1158.5033   -117.75847    1.0482381   -116.71024   -4103.0831     4.346631     4.346631     4.346631   -4103.0831   -4319.5376    9025.7213   -17015.433    10821.106    4767.5646   -6637.7221    82.121774 
   96400    806.61387   -117.44337   0.72984118   -116.71353    14970.064    4.3348824    4.3348824    4.3348824    14970.064    21143.235    20102.012    3664.9454   -1385.3059    2399.1801     10913.01    81.457665 
   96500    636.74154   -117.29477   0.57613712   -116.71863   -13270.764     4.353264     4.353264     4.353264   -13270.764    -5404.331   -16775.198   -17632.764   -20793.668   -7887.1795    10516.004    82.498303 
   96600    1129.0652   -117.73106    1.0216019   -116.70946    -7755.576    4.3475085    4.3475085    4.3475085    -7755.576   -9785.3254    1153.6596   -14635.062   -3301.2613   -1772.5196   -4127.2693    82.171518 
   96700    1175.0036   -117.76727     1.063168   -116.70411    17923.318    4.3327918    4.3327918    4.3327918    17923.318    25525.859    27679.394    564.70068    8340.5183     2632.316    358.63645    81.339866 
   96800     701.7794   -117.35014   0.63498475   -116.71515   -16269.203    4.3537687    4.3537687    4.3537687   -16269.203    -17792.37   -21198.955   -9816.2842   -15684.957    3336.7491    16031.445    82.527001 
   96900    763.32386   -117.40796   0.69067147   -116.71729   -1276.5362    4.3428807    4.3428807    4.3428807   -1276.5362   -14358.256    10080.278    448.36951    -18274.49    -9111.558     4110.877    81.909392 
   97000    1305.8498   -117.89166    1.1815603    -116.7101    12304.843    4.3363341    4.3363341    4.3363341    12304.843    18481.233    24586.027   -6152.7331    1297.2965   -5441.1244   -6498.5569    81.539531 
   97100    1115.2517   -117.72238    1.0091031   -116.71327   -8219.2994    4.3517631    4.3517631    4.3517631   -8219.2994    2391.8605   -9322.9661   -17726.793   -849.33258    7205.2714    16003.783    82.413005 
   97200      602.237   -117.26262   0.54491669   -116.71771    11410.427    4.3411911    4.3411911    4.3411911    11410.427    8534.4764    8566.8079    17129.997   -20128.708   -6327.1326    15924.101     81.81383 
   97300    1011.7003   -117.62792   0.91540773   -116.71252    1217.7163     4.346858     4.346858     4.346858    1217.7163    3755.8193    9403.1051   -9505.7757   -5019.2053   -6362.7613   -498.05895    82.134639 
   97400    1273.0286   -117.85881     1.151863   -116.70695    1251.3076      4.34543      4.34543      4.34543    1251.3076    12832.017    3124.5534   -12202.648    5824.8269    1936.4314    1877.8907    82.053719 
   97500    984.92199   -117.60345   0.89117812   -116.71227    9850.4797     4.334567     4.334567     4.334567    9850.4797    26546.191   -1921.8007    4927.0491   -20483.891   -237.81416    11313.185    81.439885 
   97600    753.52857   -117.39932   0.68180849   -116.71751   -12788.685    4.3526654    4.3526654    4.3526654   -12788.685   -18384.176   -10232.024   -9749.8565   -16504.934   -11793.766    6255.1488    82.464277 
   97700    1078.9369   -117.68797   0.97624475   -116.71172   -2991.6364    4.3430583    4.3430583    4.3430583   -2991.6364   -7171.3129    13641.099   -15444.696    10097.104   -10832.002   -2542.7477    81.919439 
   97800      1126.53   -117.72832     1.019308   -116.70902    6670.6963    4.3359623    4.3359623    4.3359623    6670.6963    20322.977     2398.653   -2709.5413    2305.1158    6856.3608    10641.817    81.518559 
   97900    978.02377   -117.59626   0.88493646   -116.71132   -17804.483    4.3531452    4.3531452    4.3531452   -17804.483   -8631.9359   -24571.928   -20209.585   -12726.084   -6206.3447    4709.3537    82.491552 
   98000    916.02341   -117.53866   0.82883723   -116.70983    5134.1412    4.3410912    4.3410912    4.3410912    5134.1412   -2512.7143     15436.73    2478.4084   -2675.3434   -18364.672   -8734.6454    81.808179 
   98100    946.64102   -117.56631   0.85654068   -116.70977    3050.1635    4.3409061    4.3409061    4.3409061    3050.1635    8670.8168     7197.451   -6717.7771    7827.9674     4181.288    5796.2731    81.797714 
   98200    1018.0268   -117.62964     0.921132   -116.70851   -8936.8451    4.3492861    4.3492861    4.3492861   -8936.8451     5764.875   -21720.374   -10855.036   -2252.1446    7440.0542    14942.232    82.272357 
   98300    1001.3888   -117.61499   0.90607759   -116.70891    8820.1507    4.3394437    4.3394437    4.3394437    8820.1507     10692.87    404.20267    15363.379   -8769.0568   -12204.569    3955.8952    81.715075 
   98400    818.52479   -117.45513   0.74061843   -116.71451    1012.9204    4.3441928    4.3441928    4.3441928    1012.9204   -4717.1817    6161.5248    1594.4181    4240.9466   -7000.2997   -7009.5985    81.983657 
   98500    873.37337   -117.50356   0.79024658   -116.71331   -312.83376    4.3449742    4.3449742    4.3449742   -312.83376     3983.357   -3316.6677   -1605.1906    7112.9782     11796.21    8198.8551    82.027903 
   98600    1012.1143   -117.62511   0.91578224   -116.70933    6000.0937     4.343683     4.343683     4.343683    6000.0937    10669.622   -2086.5277     9417.187   -1984.5993    1279.8251    10370.166    81.954795 
   98700    950.94324   -117.56951   0.86043343   -116.70908   -6247.0632    4.3484567    4.3484567    4.3484567   -6247.0632   -4060.6066   -5330.6379    -9349.945   -3958.8763   -18775.809   -5899.4338    82.225295 
   98800    752.55925    -117.3922   0.68093143   -116.71127    7025.1542    4.3369249    4.3369249    4.3369249    7025.1542    5375.2718    12487.128     3213.063    3578.7067    3277.9094     5129.616    81.572862 
   98900    838.71315   -117.47276   0.75888528   -116.71388   -212.67634    4.3431526    4.3431526    4.3431526   -212.67634    5237.7672   -6269.5844    393.78812    7738.7591    16747.439    8884.5399    81.924775 
   99000    1013.0818   -117.62698   0.91665772   -116.71033   -13224.754    4.3514378    4.3514378    4.3514378   -13224.754    2859.7147   -24897.486   -17636.491    -4059.242   -12520.531   -3295.4461    82.394524 
   99100    839.90149    -117.4708   0.75996052   -116.71084    13118.362    4.3341941    4.3341941    4.3341941    13118.362    15856.222     9143.894    14354.971   -3118.7507   -7977.2494    -5751.978    81.418871 
   99200    653.68041   -117.30787   0.59146377    -116.7164   -6795.7606    4.3442745    4.3442745    4.3442745   -6795.7606   -9715.8586   -5868.1746   -4803.2484    8424.7061    18227.695    6806.1812    81.988278 
   99300     733.2658   -117.37606    0.6634743   -116.71258   -14819.362    4.3517237    4.3517237    4.3517237   -14819.362    3891.9126   -35621.291   -12728.708     5717.614    5969.2629    4722.5288    82.410762 
   99400    1052.4481   -117.65811   0.95227718   -116.70583    8000.6089    4.3345078    4.3345078    4.3345078    8000.6089    29879.162   -11955.167    6077.8322    357.28057   -6572.8053   -13109.147     81.43655 
   99500    754.66872   -117.39621   0.68284012   -116.71337   -1865.7253     4.343495     4.343495     4.343495   -1865.7253   -3458.4956   -4650.0453    2511.3649    3512.2978    11330.286   -748.17181    81.944155 
   99600    463.38501   -117.13618    0.4192805    -116.7169    -11952.49    4.3481859    4.3481859    4.3481859    -11952.49    6004.6308   -25638.867   -16223.235    6290.0912    20865.355    11071.352    82.209934 
   99700    793.47835    -117.4303   0.71795589   -116.71235    6973.8207    4.3395951    4.3395951    4.3395951    6973.8207    35072.136   -19151.146     5000.472    4135.3078    -115.0703   -3456.9274    81.723626 
   99800     1112.439    -117.7146    1.0065582   -116.70805   -362.86007    4.3437175    4.3437175    4.3437175   -362.86007    17821.541    -16270.94   -2639.1813   -3415.9319   -3711.8105    -5256.946    81.956749 
   99900    608.75467   -117.26738   0.55081402   -116.71657   -925.73575    4.3421363    4.3421363    4.3421363   -925.73575     16535.06   -19798.099    485.83211    3436.8545    21084.852    5926.7426    81.867279 
  100000    459.70739   -117.13601   0.41595291   -116.72006   -6059.0231    4.3433419    4.3433419    4.3433419   -6059.0231    12227.031    -23128.04   -7276.0604    6911.3218    7679.4301    7642.3377    81.935489 
Loop time of 22.5408 on 1 procs for 100000 steps with 8 atoms

Pair  time (%) = 7.02373 (31.1601)
Kspce time (%) = 5.52376 (24.5056)
Neigh time (%) = 0 (0)
Comm  time (%) = 1.10492 (4.90186)
Outpt time (%) = 0.0382535 (0.169708)
Other time (%) = 8.85012 (39.2627)

Nlocal:    8 ave 8 max 8 min
Histogram: 1 0 0 0 0 0 0 0 0 0
Nghost:    2189 ave 2189 max 2189 min
Histogram: 1 0 0 0 0 0 0 0 0 0
Neighs:    2056 ave 2056 max 2056 min
Histogram: 1 0 0 0 0 0 0 0 0 0

Total # of neighbors = 2056
Ave neighs/atom = 257
Neighbor list builds = 0
Dangerous builds = 0
unfix 20
unfix 21
print "seeds:3605424"
seeds:3605424
