LAMMPS (31 Mar 2017)
Reading data file ...
  triclinic box = (0 0 0) to (5.43 5.43 5.43) with tilt (0 0 0)
  1 by 1 by 1 MPI processor grid
  reading atoms ...
  8 atoms
8 atoms in group Si
Neighbor list info ...
  update every 1 steps, delay 0 steps, check yes
  max neighbors/atom: 2000, page size: 100000
  master list distance cutoff = 4.77118
  ghost atom cutoff = 4.77118
  binsize = 2.38559, bins = 3 3 3
  1 neighbor lists, perpetual/occasional/extra = 1 0 0
  (1) pair sw, perpetual
      attributes: full, newton on
      pair build: full/bin/atomonly
      stencil: full/bin/3d
      bin: standard
Setting up cg style minimization ...
  Unit style    : metal
Per MPI rank memory allocation (min/avg/max) = 3.937 | 3.937 | 3.937 Mbytes
Step PotEng Lx Ly Lz Xy Xz Yz Press Pxx Pyy Pzz Pxy Pxz Pyz c_eatoms 
       0   -26.373269         5.43         5.43         5.43            0            0            0    404.85535    404.85535    404.85535    404.85535 -6.5396094e-21            0 4.3399141e-15   -26.373269 
       3    -26.37328    5.4309498    5.4309498    5.4309498            0            0            0 -7.5262318e-10 -7.5212864e-10 -7.5212864e-10 -7.5361225e-10 -1.5884804e-10 -1.6132073e-10 -1.6132073e-10    -26.37328 
Loop time of 0.000360012 on 1 procs for 3 steps with 8 atoms

277.8% CPU use with 1 MPI tasks x no OpenMP threads

Minimization stats:
  Stopping criterion = energy tolerance
  Energy initial, next-to-last, final = 
        -26.3732693867     -26.3732799995     -26.3732799995
  Force two-norm initial, final = 0.12137 2.27259e-13
  Force max component initial, final = 0.12137 2.25704e-13
  Final line search alpha, max atom move = 1 2.25704e-13
  Iterations, force evaluations = 3 6

MPI task timing breakdown:
Section |  min time  |  avg time  |  max time  |%varavg| %total
---------------------------------------------------------------
Pair    | 0.00023317 | 0.00023317 | 0.00023317 |   0.0 | 64.77
Neigh   | 0          | 0          | 0          |   0.0 |  0.00
Comm    | 1.9073e-05 | 1.9073e-05 | 1.9073e-05 |   0.0 |  5.30
Output  | 0          | 0          | 0          |   0.0 |  0.00
Modify  | 0          | 0          | 0          |   0.0 |  0.00
Other   |            | 0.0001078  |            |       | 29.93

Nlocal:    8 ave 8 max 8 min
Histogram: 1 0 0 0 0 0 0 0 0 0
Nghost:    162 ave 162 max 162 min
Histogram: 1 0 0 0 0 0 0 0 0 0
Neighs:    0 ave 0 max 0 min
Histogram: 1 0 0 0 0 0 0 0 0 0
FullNghs:  224 ave 224 max 224 min
Histogram: 1 0 0 0 0 0 0 0 0 0

Total # of neighbors = 224
Ave neighs/atom = 28
Neighbor list builds = 0
Dangerous builds = 0
pypospack:output_section:begin
tot_energy = -26.3732799994968
num_atoms = 8
xx = 5.43094977840521
yy = 5.43094977840521
zz = 5.43094977840521
xy = 0
xz = 0
yz = 0
tot_press = -7.52623175349299e-10
pxx = -7.52128636761038e-10
pyy = -7.52128636761039e-10
pzz = -7.5361225252582e-10
pxy = -1.58848040196064e-10
pxz = -1.61320733137359e-10
pyz = -1.61320733137358e-10
pypospack:output_section:done
pypospack:lammps_sim:done
Total wall time: 0:00:00
