LAMMPS (31 Mar 2017)
# ---- initialize simulations
clear
units metal
dimension 3
boundary p p p
atom_style atomic
atom_modify map array
# ---- create atoms
read_data /home/prathyusha/repos/pypospack/dev/Si_uniform_sampling/Si.lmps_min_all/VBWM/lammps.structure
  triclinic box = (0 0 0) to (5.43 5.43 5.43) with tilt (0 0 0)
  1 by 1 by 1 MPI processor grid
  reading atoms ...
  8 atoms
# ---- define interatomic potential
include potential.mod
mass 1 28.086

group Si type 1
8 atoms in group Si

pair_style sw
pair_coeff * * Si.parameters Si


neighbor 1.0 bin
neigh_modify every 1 delay 0 check yes
# ---- define settings
compute eng all pe/atom
compute eatoms all reduce sum c_eng
# ---- run minimization
reset_timestep 0
fix 1 all box/relax iso 0.0 vmax 0.001
thermo 10
thermo_style custom step pe lx ly lz xy xz yz press pxx pyy pzz pxy pxz pyz c_eatoms
min_style cg
minimize 1e-25 1e-25 5000 10000
Neighbor list info ...
  update every 1 steps, delay 0 steps, check yes
  max neighbors/atom: 2000, page size: 100000
  master list distance cutoff = 4.77118
  ghost atom cutoff = 4.77118
  binsize = 2.38559, bins = 3 3 3
  1 neighbor lists, perpetual/occasional/extra = 1 0 0
  (1) pair sw, perpetual
      attributes: full, newton on
      pair build: full/bin/atomonly
      stencil: full/bin/3d
      bin: standard
Per MPI rank memory allocation (min/avg/max) = 3.937 | 3.937 | 3.937 Mbytes
Step PotEng Lx Ly Lz Xy Xz Yz Press Pxx Pyy Pzz Pxy Pxz Pyz c_eatoms 
       0   -34.692786         5.43         5.43         5.43            0            0            0    532.56802    532.56802    532.56802    532.56802 -3.4719321e-14 3.4719313e-14 2.6039485e-14   -34.692786 
       4     -34.6928    5.4309498    5.4309498    5.4309498            0            0            0 2.6531321e-10 2.6271104e-10 2.6271104e-10 2.7051754e-10 8.9635603e-11 8.9635603e-11 8.9635603e-11     -34.6928 
Loop time of 0.000434875 on 1 procs for 4 steps with 8 atoms

230.0% CPU use with 1 MPI tasks x no OpenMP threads

Minimization stats:
  Stopping criterion = energy tolerance
  Energy initial, next-to-last, final = 
        -34.6927860387     -34.6927999993     -34.6927999993
  Force two-norm initial, final = 0.159656 8.16061e-14
  Force max component initial, final = 0.159656 7.95648e-14
  Final line search alpha, max atom move = 1 7.95648e-14
  Iterations, force evaluations = 4 8

MPI task timing breakdown:
Section |  min time  |  avg time  |  max time  |%varavg| %total
---------------------------------------------------------------
Pair    | 0.00028443 | 0.00028443 | 0.00028443 |   0.0 | 65.41
Neigh   | 0          | 0          | 0          |   0.0 |  0.00
Comm    | 2.6941e-05 | 2.6941e-05 | 2.6941e-05 |   0.0 |  6.20
Output  | 0          | 0          | 0          |   0.0 |  0.00
Modify  | 0          | 0          | 0          |   0.0 |  0.00
Other   |            | 0.0001235  |            |       | 28.40

Nlocal:    8 ave 8 max 8 min
Histogram: 1 0 0 0 0 0 0 0 0 0
Nghost:    162 ave 162 max 162 min
Histogram: 1 0 0 0 0 0 0 0 0 0
Neighs:    0 ave 0 max 0 min
Histogram: 1 0 0 0 0 0 0 0 0 0
FullNghs:  224 ave 224 max 224 min
Histogram: 1 0 0 0 0 0 0 0 0 0

Total # of neighbors = 224
Ave neighs/atom = 28
Neighbor list builds = 0
Dangerous builds = 0
# ---- define output variables ----
variable natoms equal "count(all)"
variable tot_energy equal "c_eatoms"
variable length_x equal "lx"
variable length_y equal "ly"
variable length_z equal "lz"
variable tilt_xy equal "xy"
variable tilt_xz equal "xz"
variable tilt_yz equal "yz"
variable tot_press equal "press"
variable press_xx equal "pxx"
variable press_yy equal "pyy"
variable press_zz equal "pzz"
variable press_xy equal "pxy"
variable press_xz equal "pxz"
variable press_yz equal "pyz"

# ---- output ----
print "pypospack:output_section:begin"
pypospack:output_section:begin
print "tot_energy = ${tot_energy}"
tot_energy = -34.6927999993381
print "num_atoms = ${natoms}"
num_atoms = 8
print "xx = ${length_x}"
xx = 5.43094977840521
print "yy = ${length_y}"
yy = 5.43094977840521
print "zz = ${length_z}"
zz = 5.43094977840521
print "xy = ${tilt_xy}"
xy = 0
print "xz = ${tilt_xz}"
xz = 0
print "yz = ${tilt_yz}"
yz = 0
print "tot_press = ${tot_press}"
tot_press = 2.65313205873055e-10
print "pxx = ${press_xx}"
pxx = 2.62711037567131e-10
print "pyy = ${press_yy}"
pyy = 2.6271103756713e-10
print "pzz = ${press_zz}"
pzz = 2.70517542484904e-10
print "pxy = ${press_xy}"
pxy = 8.96356027711402e-11
print "pxz = ${press_xz}"
pxz = 8.96356027711272e-11
print "pyz = ${press_yz}"
pyz = 8.96356027711279e-11
print "pypospack:output_section:done"
pypospack:output_section:done
print "pypospack:lammps_sim:done"
pypospack:lammps_sim:done
Total wall time: 0:00:00
