    2    2    1    1
  0.9639684E+01  0.3009788E-09  0.3009788E-09  0.3009788E-09  0.5000000E-15
  1.000000000000000E-004
  CAR 
 automatically generated by pyflamestk   
      8    182     16
 
  0.4166667E-01  0.4166667E-01  0.4166667E-01  0.1157407E-02
    1      -13.737360   1.000000
    2        3.229006   1.000000
    3        3.344156   1.000000
    4        3.344156   1.000000
    5        7.904289   0.000000
    6       18.680433   0.000000
    7       19.020811   0.000000
    8       19.020814   0.000000
    9       23.195410   0.000000
   10       24.357929   0.000000
   11       24.357929   0.000000
   12       26.986248   0.000000
   13       27.263751   0.000000
   14       27.263752   0.000000
   15       40.419621   0.000000
   16       40.941892   0.000000
 
  0.1250000E+00  0.4166667E-01  0.4166667E-01  0.3472222E-02
    1      -13.645461   1.000000
    2        2.674700   1.000000
    3        3.240870   1.000000
    4        3.306570   1.000000
    5        8.470191   0.000000
    6       17.648041   0.000000
    7       19.203574   0.000000
    8       19.244430   0.000000
    9       23.362869   0.000000
   10       24.076033   0.000000
   11       24.571117   0.000000
   12       27.243415   0.000000
   13       27.820323   0.000000
   14       28.545228   0.000000
   15       39.303654   0.000000
   16       40.669571   0.000000
 
  0.2083333E+00  0.4166667E-01  0.4166667E-01  0.3472222E-02
    1      -13.431564   1.000000
    2        1.653609   1.000000
    3        3.084921   1.000000
    4        3.190247   1.000000
    5        9.448943   0.000000
    6       16.391819   0.000000
    7       19.490688   0.000000
    8       19.674868   0.000000
    9       22.599739   0.000000
   10       23.570012   0.000000
   11       25.408858   0.000000
   12       28.620500   0.000000
   13       29.557247   0.000000
   14       30.166829   0.000000
   15       37.742180   0.000000
   16       40.163096   0.000000
 
  0.2916667E+00  0.4166667E-01  0.4166667E-01  0.3472222E-02
    1      -13.137848   1.000000
    2        0.574612   1.000000
    3        2.912758   1.000000
    4        3.033472   1.000000
    5       10.360740   0.000000
    6       15.594055   0.000000
    7       19.561838   0.000000
    8       19.866202   0.000000
    9       22.681658   0.000000
   10       23.702181   0.000000
   11       25.003790   0.000000
   12       31.042169   0.000000
   13       31.527161   0.000000
   14       31.687603   0.000000
   15       36.725937   0.000000
   16       38.880637   0.000000
 
  0.3750000E+00  0.4166667E-01  0.4166667E-01  0.3472222E-02
    1      -12.833987   1.000000
    2       -0.342987   1.000000
    3        2.767476   1.000000
    4        2.880032   1.000000
    5       10.914450   0.000000
    6       15.380605   0.000000
    7       19.374087   0.000000
    8       19.666075   0.000000
    9       23.663224   0.000000
   10       24.395220   0.000000
   11       24.545701   0.000000
   12       32.122706   0.000000
   13       32.789292   0.000000
   14       32.941546   0.000000
   15       36.644685   0.000000
   16       38.356090   0.000000
 
  0.4583333E+00  0.4166667E-01  0.4166667E-01  0.3472222E-02
    1      -12.609966   1.000000
    2       -0.937296   1.000000
    3        2.681930   1.000000
    4        2.767529   1.000000
    5       11.109706   0.000000
    6       15.514779   0.000000
    7       19.172384   0.000000
    8       19.450441   0.000000
    9       24.154016   0.000000
   10       24.867545   0.000000
   11       25.203756   0.000000
   12       31.703156   0.000000
   13       33.308016   0.000000
   14       33.888586   0.000000
   15       35.192530   0.000000
   16       36.599470   0.000000
 
 -0.4583333E+00  0.4166667E-01  0.4166667E-01  0.3472222E-02
    1      -12.546840   1.000000
    2       -1.095330   1.000000
    3        2.674185   1.000000
    4        2.722640   1.000000
    5       11.138129   0.000000
    6       15.586154   0.000000
    7       19.113627   0.000000
    8       19.389118   0.000000
    9       24.065472   0.000000
   10       25.238002   0.000000
   11       25.514819   0.000000
   12       31.529200   0.000000
   13       33.485501   0.000000
   14       33.649232   0.000000
   15       35.449131   0.000000
   16       35.732745   0.000000
 
 -0.3750000E+00  0.4166667E-01  0.4166667E-01  0.3472222E-02
    1      -12.670069   1.000000
    2       -0.784566   1.000000
    3        2.746590   1.000000
    4        2.755175   1.000000
    5       11.071043   0.000000
    6       15.454363   0.000000
    7       19.241400   0.000000
    8       19.493549   0.000000
    9       24.179099   0.000000
   10       24.439562   0.000000
   11       25.136095   0.000000
   12       31.834396   0.000000
   13       33.144463   0.000000
   14       33.773752   0.000000
   15       35.495359   0.000000
   16       37.133535   0.000000
 
 -0.2916667E+00  0.4166667E-01  0.4166667E-01  0.3472222E-02
    1      -12.931064   1.000000
    2       -0.066227   1.000000
    3        2.857675   1.000000
    4        2.882854   1.000000
    5       10.775764   0.000000
    6       15.387745   0.000000
    7       19.514606   0.000000
    8       19.676372   0.000000
    9       23.216814   0.000000
   10       24.259263   0.000000
   11       24.643328   0.000000
   12       32.095953   0.000000
   13       32.408950   0.000000
   14       32.513382   0.000000
   15       37.377974   0.000000
   16       37.482507   0.000000
 
 -0.2083333E+00  0.4166667E-01  0.4166667E-01  0.3472222E-02
    1      -13.240879   1.000000
    2        0.925573   1.000000
    3        3.006835   1.000000
    4        3.051016   1.000000
    5       10.086839   0.000000
    6       15.785564   0.000000
    7       19.706015   0.000000
    8       19.720303   0.000000
    9       22.458195   0.000000
   10       23.687758   0.000000
   11       25.166840   0.000000
   12       30.386601   0.000000
   13       30.787608   0.000000
   14       31.189642   0.000000
   15       36.971440   0.000000
   16       39.302750   0.000000
 
 -0.1250000E+00  0.4166667E-01  0.4166667E-01  0.3472222E-02
    1      -13.514375   1.000000
    2        2.018241   1.000000
    3        3.166229   1.000000
    4        3.206558   1.000000
    5        9.112320   0.000000
    6       16.764892   0.000000
    7       19.460382   0.000000
    8       19.480746   0.000000
    9       22.649831   0.000000
   10       23.855411   0.000000
   11       25.364249   0.000000
   12       27.893331   0.000000
   13       28.955900   0.000000
   14       29.580101   0.000000
   15       38.297351   0.000000
   16       40.383154   0.000000
 
 -0.4166667E-01  0.4166667E-01  0.4166667E-01  0.3472222E-02
    1      -13.690962   1.000000
    2        2.953358   1.000000
    3        3.292340   1.000000
    4        3.304458   1.000000
    5        8.208090   0.000000
    6       18.076304   0.000000
    7       19.127558   0.000000
    8       19.128899   0.000000
    9       23.536573   0.000000
   10       24.011515   0.000000
   11       24.474435   0.000000
   12       27.126550   0.000000
   13       27.424999   0.000000
   14       28.027013   0.000000
   15       39.830916   0.000000
   16       40.785323   0.000000
 
  0.1250000E+00  0.1250000E+00  0.4166667E-01  0.3472222E-02
    1      -13.600856   1.000000
    2        2.514306   1.000000
    3        3.193076   1.000000
    4        3.205192   1.000000
    5        8.728148   0.000000
    6       17.232971   0.000000
    7       19.329130   0.000000
    8       19.329688   0.000000
    9       22.438315   0.000000
   10       24.705127   0.000000
   11       25.269127   0.000000
   12       27.506200   0.000000
   13       27.750673   0.000000
   14       28.917981   0.000000
   15       39.165929   0.000000
   16       40.470007   0.000000
 
  0.2083333E+00  0.1250000E+00  0.4166667E-01  0.6944444E-02
    1      -13.431327   1.000000
    2        1.791845   1.000000
    3        2.990748   1.000000
    4        3.116303   1.000000
    5        9.529507   0.000000
    6       16.243685   0.000000
    7       19.478943   0.000000
    8       19.735680   0.000000
    9       21.488585   0.000000
   10       24.596673   0.000000
   11       26.490784   0.000000
   12       28.403015   0.000000
   13       28.897574   0.000000
   14       30.120106   0.000000
   15       37.960767   0.000000
   16       39.951199   0.000000
 
  0.2916667E+00  0.1250000E+00  0.4166667E-01  0.6944444E-02
    1      -13.169522   1.000000
    2        0.855621   1.000000
    3        2.772850   1.000000
    4        2.969776   1.000000
    5       10.470150   0.000000
    6       15.449052   0.000000
    7       19.239053   0.000000
    8       20.011746   0.000000
    9       21.491262   0.000000
   10       24.560753   0.000000
   11       26.394464   0.000000
   12       30.286251   0.000000
   13       31.201612   0.000000
   14       31.476744   0.000000
   15       36.646146   0.000000
   16       38.784632   0.000000
 
  0.3750000E+00  0.1250000E+00  0.4166667E-01  0.6944444E-02
    1      -12.874280   1.000000
    2       -0.026193   1.000000
    3        2.572151   1.000000
    4        2.806374   1.000000
    5       11.189045   0.000000
    6       15.159681   0.000000
    7       18.702735   0.000000
    8       19.918527   0.000000
    9       22.410200   0.000000
   10       25.005166   0.000000
   11       26.006857   0.000000
   12       32.035474   0.000000
   13       32.289830   0.000000
   14       32.977427   0.000000
   15       36.219166   0.000000
   16       37.911720   0.000000
 
  0.4583333E+00  0.1250000E+00  0.4166667E-01  0.6944444E-02
    1      -12.626842   1.000000
    2       -0.674484   1.000000
    3        2.413733   1.000000
    4        2.688714   1.000000
    5       11.519054   0.000000
    6       15.314817   0.000000
    7       18.292891   0.000000
    8       19.723753   0.000000
    9       23.496521   0.000000
   10       25.395878   0.000000
   11       25.896752   0.000000
   12       32.173201   0.000000
   13       32.834451   0.000000
   14       34.340775   0.000000
   15       34.450251   0.000000
   16       38.602711   0.000000
 
 -0.4583333E+00  0.1250000E+00  0.4166667E-01  0.6944444E-02
    1      -12.510503   1.000000
    2       -0.955886   1.000000
    3        2.322037   1.000000
    4        2.655515   1.000000
    5       11.603251   0.000000
    6       15.497965   0.000000
    7       18.126867   0.000000
    8       19.615706   0.000000
    9       24.330168   0.000000
   10       25.184863   0.000000
   11       25.979539   0.000000
   12       32.426347   0.000000
   13       32.872123   0.000000
   14       33.123899   0.000000
   15       36.124822   0.000000
   16       36.623402   0.000000
 
 -0.3750000E+00  0.1250000E+00  0.4166667E-01  0.6944444E-02
    1      -12.570124   1.000000
    2       -0.810091   1.000000
    3        2.320350   1.000000
    4        2.711033   1.000000
    5       11.574270   0.000000
    6       15.416334   0.000000
    7       18.205928   0.000000
    8       19.677112   0.000000
    9       24.267370   0.000000
   10       24.900597   0.000000
   11       25.800163   0.000000
   12       32.382422   0.000000
   13       32.840609   0.000000
   14       33.940121   0.000000
   15       34.838174   0.000000
   16       37.963133   0.000000
 
 -0.2916667E+00  0.1250000E+00  0.4166667E-01  0.6944444E-02
    1      -12.782190   1.000000
    2       -0.270299   1.000000
    3        2.417904   1.000000
    4        2.837953   1.000000
    5       11.351426   0.000000
    6       15.226038   0.000000
    7       18.517964   0.000000
    8       19.913831   0.000000
    9       23.008974   0.000000
   10       24.758267   0.000000
   11       25.878354   0.000000
   12       32.356124   0.000000
   13       32.486589   0.000000
   14       33.319103   0.000000
   15       35.655573   0.000000
   16       38.992590   0.000000
 
 -0.2083333E+00  0.1250000E+00  0.4166667E-01  0.6944444E-02
    1      -13.071241   1.000000
    2        0.546345   1.000000
    3        2.606236   1.000000
    4        3.000195   1.000000
    5       10.749448   0.000000
    6       15.363747   0.000000
    7       18.968150   0.000000
    8       20.204895   0.000000
    9       21.843493   0.000000
   10       24.297550   0.000000
   11       26.239181   0.000000
   12       30.619533   0.000000
   13       31.902353   0.000000
   14       32.361347   0.000000
   15       35.989576   0.000000
   16       38.811291   0.000000
 
 -0.1250000E+00  0.1250000E+00  0.4166667E-01  0.6944444E-02
    1      -13.351971   1.000000
    2        1.466543   1.000000
    3        2.860398   1.000000
    4        3.149971   1.000000
    5        9.832725   0.000000
    6       16.019279   0.000000
    7       19.306137   0.000000
    8       19.991562   0.000000
    9       21.679524   0.000000
   10       24.073413   0.000000
   11       26.426498   0.000000
   12       28.758523   0.000000
   13       29.893663   0.000000
   14       30.738389   0.000000
   15       37.172648   0.000000
   16       39.868707   0.000000
 
 -0.4166667E-01  0.1250000E+00  0.4166667E-01  0.6944444E-02
    1      -13.557139   1.000000
    2        2.261769   1.000000
    3        3.135247   1.000000
    4        3.240976   1.000000
    5        8.934959   0.000000
    6       16.983197   0.000000
    7       19.336614   0.000000
    8       19.455578   0.000000
    9       22.512369   0.000000
   10       24.201726   0.000000
   11       25.470281   0.000000
   12       27.713961   0.000000
   13       28.219182   0.000000
   14       29.352923   0.000000
   15       38.634729   0.000000
   16       40.388445   0.000000
 
  0.2083333E+00  0.2083333E+00  0.4166667E-01  0.3472222E-02
    1      -13.313254   1.000000
    2        1.480722   1.000000
    3        2.896865   1.000000
    4        2.898236   1.000000
    5       10.071701   0.000000
    6       15.538272   0.000000
    7       19.740560   0.000000
    8       19.935123   0.000000
    9       20.323588   0.000000
   10       25.487165   0.000000
   11       28.081947   0.000000
   12       28.911119   0.000000
   13       29.198209   0.000000
   14       30.321122   0.000000
   15       38.039909   0.000000
   16       39.415221   0.000000
 
  0.2916667E+00  0.2083333E+00  0.4166667E-01  0.6944444E-02
    1      -13.100559   1.000000
    2        0.863128   1.000000
    3        2.634718   1.000000
    4        2.772558   1.000000
    5       10.883807   0.000000
    6       14.843969   0.000000
    7       18.804969   0.000000
    8       20.332727   0.000000
    9       20.603092   0.000000
   10       25.743530   0.000000
   11       28.608173   0.000000
   12       29.886245   0.000000
   13       30.883333   0.000000
   14       31.641620   0.000000
   15       37.022248   0.000000
   16       38.733193   0.000000
 
  0.3750000E+00  0.2083333E+00  0.4166667E-01  0.6944444E-02
    1      -12.840159   1.000000
    2        0.200429   1.000000
    3        2.328593   1.000000
    4        2.618685   1.000000
    5       11.704764   0.000000
    6       14.543068   0.000000
    7       17.874017   0.000000
    8       20.361478   0.000000
    9       21.412327   0.000000
   10       26.047948   0.000000
   11       28.374367   0.000000
   12       31.104811   0.000000
   13       31.901739   0.000000
   14       33.836350   0.000000
   15       36.206609   0.000000
   16       37.788865   0.000000
 
  0.4583333E+00  0.2083333E+00  0.4166667E-01  0.6944444E-02
    1      -12.599775   1.000000
    2       -0.335570   1.000000
    3        2.005201   1.000000
    4        2.516425   1.000000
    5       12.217568   0.000000
    6       14.783855   0.000000
    7       17.227672   0.000000
    8       20.214524   0.000000
    9       22.174433   0.000000
   10       26.388479   0.000000
   11       28.163075   0.000000
   12       31.296341   0.000000
   13       33.091632   0.000000
   14       34.251572   0.000000
   15       35.074857   0.000000
   16       40.189816   0.000000
 
 -0.4583333E+00  0.2083333E+00  0.4166667E-01  0.6944444E-02
    1      -12.454061   1.000000
    2       -0.623193   1.000000
    3        1.746201   1.000000
    4        2.499985   1.000000
    5       12.417901   0.000000
    6       15.215191   0.000000
    7       16.897848   0.000000
    8       20.060080   0.000000
    9       22.826246   0.000000
   10       26.135288   0.000000
   11       27.996461   0.000000
   12       31.746596   0.000000
   13       32.537359   0.000000
   14       33.835757   0.000000
   15       36.748472   0.000000
   16       38.703558   0.000000
 
 -0.3750000E+00  0.2083333E+00  0.4166667E-01  0.6944444E-02
    1      -12.454801   1.000000
    2       -0.598234   1.000000
    3        1.626148   1.000000
    4        2.570218   1.000000
    5       12.469112   0.000000
    6       15.314798   0.000000
    7       16.884946   0.000000
    8       20.035367   0.000000
    9       23.498301   0.000000
   10       25.033482   0.000000
   11       27.796665   0.000000
   12       32.194839   0.000000
   13       32.416264   0.000000
   14       34.235932   0.000000
   15       36.305232   0.000000
   16       38.932048   0.000000
 
 -0.2916667E+00  0.2083333E+00  0.4166667E-01  0.6944444E-02
    1      -12.601531   1.000000
    2       -0.284144   1.000000
    3        1.699743   1.000000
    4        2.707591   1.000000
    5       12.301528   0.000000
    6       15.070312   0.000000
    7       17.241578   0.000000
    8       20.204406   0.000000
    9       23.326522   0.000000
   10       24.305143   0.000000
   11       27.767522   0.000000
   12       32.101821   0.000000
   13       32.435751   0.000000
   14       34.184053   0.000000
   15       35.720356   0.000000
   16       41.054204   0.000000
 
 -0.2083333E+00  0.2083333E+00  0.4166667E-01  0.6944444E-02
    1      -12.842031   1.000000
    2        0.208332   1.000000
    3        1.997098   1.000000
    4        2.875936   1.000000
    5       11.700168   0.000000
    6       15.000419   0.000000
    7       17.928185   0.000000
    8       20.580545   0.000000
    9       21.874433   0.000000
   10       24.518654   0.000000
   11       27.778970   0.000000
   12       30.764518   0.000000
   13       32.331720   0.000000
   14       34.238548   0.000000
   15       35.213069   0.000000
   16       39.562199   0.000000
 
 -0.1250000E+00  0.2083333E+00  0.4166667E-01  0.6944444E-02
    1      -13.101947   1.000000
    2        0.746366   1.000000
    3        2.473846   1.000000
    4        3.026808   1.000000
    5       10.774374   0.000000
    6       15.351343   0.000000
    7       18.776071   0.000000
    8       20.628924   0.000000
    9       21.227719   0.000000
   10       24.309250   0.000000
   11       27.091186   0.000000
   12       29.730990   0.000000
   13       31.803262   0.000000
   14       32.456284   0.000000
   15       35.637856   0.000000
   16       39.451474   0.000000
 
 -0.4166667E-01  0.2083333E+00  0.4166667E-01  0.6944444E-02
    1      -13.314026   1.000000
    2        1.251137   1.000000
    3        2.947623   1.000000
    4        3.111074   1.000000
    5        9.914113   0.000000
    6       15.935001   0.000000
    7       19.472195   0.000000
    8       19.866037   0.000000
    9       21.996403   0.000000
   10       23.931404   0.000000
   11       25.754965   0.000000
   12       29.531374   0.000000
   13       30.209518   0.000000
   14       30.879200   0.000000
   15       37.131032   0.000000
   16       39.587543   0.000000
 
  0.2916667E+00  0.2916667E+00  0.4166667E-01  0.3472222E-02
    1      -12.945228   1.000000
    2        0.542445   1.000000
    3        2.540593   1.000000
    4        2.561754   1.000000
    5       11.465994   0.000000
    6       14.150239   0.000000
    7       18.009805   0.000000
    8       20.645170   0.000000
    9       20.712717   0.000000
   10       26.635615   0.000000
   11       30.223149   0.000000
   12       30.505660   0.000000
   13       30.696632   0.000000
   14       32.726642   0.000000
   15       37.703484   0.000000
   16       38.105821   0.000000
 
  0.3750000E+00  0.2916667E+00  0.4166667E-01  0.6944444E-02
    1      -12.738650   1.000000
    2        0.127163   1.000000
    3        2.271464   1.000000
    4        2.419240   1.000000
    5       12.176348   0.000000
    6       13.744688   0.000000
    7       17.173111   0.000000
    8       20.837749   0.000000
    9       21.178184   0.000000
   10       27.155812   0.000000
   11       30.155584   0.000000
   12       30.961270   0.000000
   13       31.779028   0.000000
   14       35.065996   0.000000
   15       36.663231   0.000000
   16       37.970505   0.000000
 
  0.4583333E+00  0.2916667E+00  0.4166667E-01  0.6944444E-02
    1      -12.533552   1.000000
    2       -0.183104   1.000000
    3        1.829556   1.000000
    4        2.321602   1.000000
    5       12.777369   0.000000
    6       13.931255   0.000000
    7       16.514281   0.000000
    8       20.736556   0.000000
    9       21.618382   0.000000
   10       27.537536   0.000000
   11       30.158108   0.000000
   12       30.720656   0.000000
   13       32.658034   0.000000
   14       35.470327   0.000000
   15       36.013579   0.000000
   16       40.237336   0.000000
 
 -0.4583333E+00  0.2916667E+00  0.4166667E-01  0.6944444E-02
    1      -12.389555   1.000000
    2       -0.291107   1.000000
    3        1.316559   1.000000
    4        2.311112   1.000000
    5       13.059427   0.000000
    6       14.664019   0.000000
    7       16.069841   0.000000
    8       20.506317   0.000000
    9       21.869355   0.000000
   10       27.375019   0.000000
   11       30.107508   0.000000
   12       30.783310   0.000000
   13       31.947703   0.000000
   14       35.325227   0.000000
   15       37.526287   0.000000
   16       40.983706   0.000000
 
 -0.3750000E+00  0.2916667E+00  0.4166667E-01  0.6944444E-02
    1      -12.353051   1.000000
    2       -0.196604   1.000000
    3        0.928939   1.000000
    4        2.387671   1.000000
    5       13.261282   0.000000
    6       15.183370   0.000000
    7       15.854889   0.000000
    8       20.355773   0.000000
    9       22.252235   0.000000
   10       26.150041   0.000000
   11       29.813520   0.000000
   12       31.177452   0.000000
   13       31.850881   0.000000
   14       35.695384   0.000000
   15       38.252325   0.000000
   16       39.790705   0.000000
 
 -0.2916667E+00  0.2916667E+00  0.4166667E-01  0.6944444E-02
    1      -12.435933   1.000000
    2       -0.088605   1.000000
    3        0.949656   1.000000
    4        2.531403   1.000000
    5       13.207819   0.000000
    6       15.047509   0.000000
    7       16.181453   0.000000
    8       20.357152   0.000000
    9       23.109297   0.000000
   10       24.470758   0.000000
   11       29.453706   0.000000
   12       31.463332   0.000000
   13       32.157166   0.000000
   14       35.258568   0.000000
   15       37.118528   0.000000
   16       41.350605   0.000000
 
 -0.2083333E+00  0.2916667E+00  0.4166667E-01  0.6944444E-02
    1      -12.609869   1.000000
    2       -0.079557   1.000000
    3        1.471692   1.000000
    4        2.706995   1.000000
    5       12.549767   0.000000
    6       14.925184   0.000000
    7       17.011658   0.000000
    8       20.397939   0.000000
    9       23.047722   0.000000
   10       24.121838   0.000000
   11       28.562345   0.000000
   12       31.531678   0.000000
   13       32.389108   0.000000
   14       34.124419   0.000000
   15       36.595793   0.000000
   16       41.000233   0.000000
 
 -0.1250000E+00  0.2916667E+00  0.4166667E-01  0.6944444E-02
    1      -12.821224   1.000000
    2        0.012667   1.000000
    3        2.176030   1.000000
    4        2.863356   1.000000
    5       11.559742   0.000000
    6       15.092152   0.000000
    7       18.140983   0.000000
    8       20.255039   0.000000
    9       22.361191   0.000000
   10       24.606673   0.000000
   11       26.918445   0.000000
   12       31.565471   0.000000
   13       32.392515   0.000000
   14       33.720153   0.000000
   15       35.565970   0.000000
   16       39.052687   0.000000
 
 -0.4166667E-01  0.2916667E+00  0.4166667E-01  0.6944444E-02
    1      -13.012545   1.000000
    2        0.247076   1.000000
    3        2.766027   1.000000
    4        2.947705   1.000000
    5       10.733742   0.000000
    6       15.379579   0.000000
    7       19.277536   0.000000
    8       19.876473   0.000000
    9       22.532976   0.000000
   10       24.275661   0.000000
   11       25.304551   0.000000
   12       31.612858   0.000000
   13       32.106038   0.000000
   14       32.259607   0.000000
   15       36.617648   0.000000
   16       38.047995   0.000000
 
  0.3750000E+00  0.3750000E+00  0.4166667E-01  0.3472222E-02
    1      -12.594219   1.000000
    2       -0.134419   1.000000
    3        2.233048   1.000000
    4        2.274440   1.000000
    5       12.559590   0.000000
    6       13.168484   0.000000
    7       16.615733   0.000000
    8       21.287738   0.000000
    9       21.319665   0.000000
   10       28.032697   0.000000
   11       29.417979   0.000000
   12       32.403682   0.000000
   13       32.609396   0.000000
   14       36.702284   0.000000
   15       37.349641   0.000000
   16       37.895481   0.000000
 
  0.4583333E+00  0.3750000E+00  0.4166667E-01  0.6944444E-02
    1      -12.444907   1.000000
    2       -0.328175   1.000000
    3        1.986581   1.000000
    4        2.154872   1.000000
    5       12.930664   0.000000
    6       13.117842   0.000000
    7       16.211477   0.000000
    8       21.221288   0.000000
    9       21.691563   0.000000
   10       28.590498   0.000000
   11       29.167038   0.000000
   12       32.408545   0.000000
   13       33.083447   0.000000
   14       37.132478   0.000000
   15       37.151630   0.000000
   16       40.187526   0.000000
 
 -0.4583333E+00  0.3750000E+00  0.4166667E-01  0.6944444E-02
    1      -12.333186   1.000000
    2       -0.312010   1.000000
    3        1.439065   1.000000
    4        2.141284   1.000000
    5       13.054901   0.000000
    6       13.903892   0.000000
    7       15.899082   0.000000
    8       20.860841   0.000000
    9       21.797942   0.000000
   10       28.817059   0.000000
   11       29.529524   0.000000
   12       31.199632   0.000000
   13       32.517549   0.000000
   14       37.261516   0.000000
   15       38.380658   0.000000
   16       41.896859   0.000000
 
 -0.3750000E+00  0.3750000E+00  0.4166667E-01  0.6944444E-02
    1      -12.292113   1.000000
    2       -0.034079   1.000000
    3        0.769851   1.000000
    4        2.217430   1.000000
    5       13.350384   0.000000
    6       14.779160   0.000000
    7       15.591790   0.000000
    8       20.503740   0.000000
    9       21.776946   0.000000
   10       27.860635   0.000000
   11       29.963007   0.000000
   12       31.103795   0.000000
   13       31.607088   0.000000
   14       37.712471   0.000000
   15       39.409917   0.000000
   16       40.241702   0.000000
 
 -0.2916667E+00  0.3750000E+00  0.4166667E-01  0.6944444E-02
    1      -12.332868   1.000000
    2        0.118387   1.000000
    3        0.533050   1.000000
    4        2.364234   1.000000
    5       13.491150   0.000000
    6       15.248155   0.000000
    7       15.536159   0.000000
    8       20.401171   0.000000
    9       22.146087   0.000000
   10       26.079255   0.000000
   11       30.404903   0.000000
   12       30.891232   0.000000
   13       31.712484   0.000000
   14       36.790915   0.000000
   15       37.823314   0.000000
   16       41.028463   0.000000
 
 -0.2083333E+00  0.3750000E+00  0.4166667E-01  0.6944444E-02
    1      -12.441778   1.000000
    2       -0.326784   1.000000
    3        1.244841   1.000000
    4        2.544794   1.000000
    5       12.907909   0.000000
    6       15.174641   0.000000
    7       16.430057   0.000000
    8       20.237193   0.000000
    9       23.228170   0.000000
   10       24.705840   0.000000
   11       28.755020   0.000000
   12       31.832353   0.000000
   13       32.232486   0.000000
   14       35.056930   0.000000
   15       36.441983   0.000000
   16       40.559003   0.000000
 
 -0.1250000E+00  0.3750000E+00  0.4166667E-01  0.6944444E-02
    1      -12.587011   1.000000
    2       -0.557677   1.000000
    3        2.016322   1.000000
    4        2.709221   1.000000
    5       11.936484   0.000000
    6       15.256838   0.000000
    7       17.665233   0.000000
    8       19.932323   0.000000
    9       23.766296   0.000000
   10       24.620859   0.000000
   11       26.735587   0.000000
   12       32.500743   0.000000
   13       32.608087   0.000000
   14       34.317572   0.000000
   15       34.762198   0.000000
   16       39.539579   0.000000
 
 -0.4166667E-01  0.3750000E+00  0.4166667E-01  0.6944444E-02
    1      -12.729717   1.000000
    2       -0.552258   1.000000
    3        2.627624   1.000000
    4        2.801210   1.000000
    5       11.165234   0.000000
    6       15.355439   0.000000
    7       18.949556   0.000000
    8       19.650782   0.000000
    9       23.689887   0.000000
   10       24.791060   0.000000
   11       25.097798   0.000000
   12       32.183165   0.000000
   13       32.825005   0.000000
   14       33.552978   0.000000
   15       35.535103   0.000000
   16       38.378335   0.000000
 
  0.4583333E+00  0.4583333E+00  0.4166667E-01  0.3472222E-02
    1      -12.359207   1.000000
    2       -0.503623   1.000000
    3        2.040590   1.000000
    4        2.096133   1.000000
    5       12.612849   0.000000