   2   2   0   0
  0.9563318E+01  0.3001819E-09  0.3001820E-09  0.3001819E-09  0.5000000E-15
  1.000000000000000E-004
  CAR 
 automatically generated by pyflamestk   
     44.07761765    -16.35528545  301      3.61275295      1.00000000
    -16.355  0.0000E+00  0.0000E+00
    -16.154  0.0000E+00  0.0000E+00
    -15.952  0.0000E+00  0.0000E+00
    -15.751  0.0000E+00  0.0000E+00
    -15.550  0.0000E+00  0.0000E+00
    -15.348  0.0000E+00  0.0000E+00
    -15.147  0.0000E+00  0.0000E+00
    -14.945  0.0000E+00  0.0000E+00
    -14.744  0.0000E+00  0.0000E+00
    -14.542  0.0000E+00  0.0000E+00
    -14.341  0.0000E+00  0.0000E+00
    -14.139  0.0000E+00  0.0000E+00
    -13.938  0.0000E+00  0.0000E+00
    -13.737  0.4469E-04  0.9003E-05
    -13.535  0.3043E+00  0.6130E-01
    -13.334  0.1072E-01  0.6346E-01
    -13.132  0.9252E+00  0.2498E+00
    -12.931  0.6779E+00  0.3864E+00
    -12.729  0.8032E+00  0.5482E+00
    -12.528  0.2517E+01  0.1055E+01
    -12.326  0.2883E+01  0.1636E+01
    -12.125  0.1808E+01  0.2000E+01
    -11.924  0.5656E-06  0.2000E+01
    -11.722  0.0000E+00  0.2000E+01
    -11.521  0.0000E+00  0.2000E+01
    -11.319  0.0000E+00  0.2000E+01
    -11.118  0.0000E+00  0.2000E+01
    -10.916  0.0000E+00  0.2000E+01
    -10.715  0.0000E+00  0.2000E+01
    -10.513  0.0000E+00  0.2000E+01
    -10.312  0.0000E+00  0.2000E+01
    -10.111  0.0000E+00  0.2000E+01
     -9.909  0.0000E+00  0.2000E+01
     -9.708  0.0000E+00  0.2000E+01
     -9.506  0.0000E+00  0.2000E+01
     -9.305  0.0000E+00  0.2000E+01
     -9.103  0.0000E+00  0.2000E+01
     -8.902  0.0000E+00  0.2000E+01
     -8.700  0.0000E+00  0.2000E+01
     -8.499  0.0000E+00  0.2000E+01
     -8.298  0.0000E+00  0.2000E+01
     -8.096  0.0000E+00  0.2000E+01
     -7.895  0.0000E+00  0.2000E+01
     -7.693  0.0000E+00  0.2000E+01
     -7.492  0.0000E+00  0.2000E+01
     -7.290  0.0000E+00  0.2000E+01
     -7.089  0.0000E+00  0.2000E+01
     -6.887  0.0000E+00  0.2000E+01
     -6.686  0.0000E+00  0.2000E+01
     -6.485  0.0000E+00  0.2000E+01
     -6.283  0.0000E+00  0.2000E+01
     -6.082  0.0000E+00  0.2000E+01
     -5.880  0.0000E+00  0.2000E+01
     -5.679  0.0000E+00  0.2000E+01
     -5.477  0.0000E+00  0.2000E+01
     -5.276  0.0000E+00  0.2000E+01
     -5.074  0.0000E+00  0.2000E+01
     -4.873  0.0000E+00  0.2000E+01
     -4.672  0.0000E+00  0.2000E+01
     -4.470  0.0000E+00  0.2000E+01
     -4.269  0.0000E+00  0.2000E+01
     -4.067  0.0000E+00  0.2000E+01
     -3.866  0.0000E+00  0.2000E+01
     -3.664  0.0000E+00  0.2000E+01
     -3.463  0.0000E+00  0.2000E+01
     -3.261  0.0000E+00  0.2000E+01
     -3.060  0.0000E+00  0.2000E+01
     -2.859  0.0000E+00  0.2000E+01
     -2.657  0.0000E+00  0.2000E+01
     -2.456  0.0000E+00  0.2000E+01
     -2.254  0.0000E+00  0.2000E+01
     -2.053  0.0000E+00  0.2000E+01
     -1.851  0.0000E+00  0.2000E+01
     -1.650  0.0000E+00  0.2000E+01
     -1.449  0.0000E+00  0.2000E+01
     -1.247  0.0000E+00  0.2000E+01
     -1.046  0.7066E-09  0.2000E+01
     -0.844  0.3399E+00  0.2068E+01
     -0.643  0.5946E+00  0.2188E+01
     -0.441  0.3240E+00  0.2254E+01
     -0.240  0.1805E+01  0.2617E+01
     -0.038  0.2168E+01  0.3054E+01
      0.163  0.2459E+01  0.3549E+01
      0.364  0.9708E+00  0.3745E+01
      0.566  0.2570E-01  0.3750E+01
      0.767  0.5090E-10  0.3750E+01
      0.969  0.3629E+00  0.3823E+01
      1.170  0.2706E+01  0.4368E+01
      1.372  0.6542E+00  0.4500E+01
      1.573  0.3393E-05  0.4500E+01
      1.775  0.2335E+01  0.4970E+01
      1.976  0.4607E+00  0.5063E+01
      2.177  0.2155E+01  0.5497E+01
      2.379  0.2484E+01  0.5998E+01
      2.580  0.3869E+01  0.6777E+01
      2.782  0.2038E+01  0.7187E+01
      2.983  0.2204E+01  0.7631E+01
      3.185  0.1209E+01  0.7875E+01
      3.386  0.5847E+00  0.7993E+01
      3.588  0.3585E-01  0.8000E+01
      3.789  0.0000E+00  0.8000E+01
      3.990  0.0000E+00  0.8000E+01
      4.192  0.0000E+00  0.8000E+01
      4.393  0.0000E+00  0.8000E+01
      4.595  0.0000E+00  0.8000E+01
      4.796  0.0000E+00  0.8000E+01
      4.998  0.0000E+00  0.8000E+01
      5.199  0.0000E+00  0.8000E+01
      5.401  0.0000E+00  0.8000E+01
      5.602  0.0000E+00  0.8000E+01
      5.803  0.0000E+00  0.8000E+01
      6.005  0.0000E+00  0.8000E+01
      6.206  0.0000E+00  0.8000E+01
      6.408  0.0000E+00  0.8000E+01
      6.609  0.0000E+00  0.8000E+01
      6.811  0.0000E+00  0.8000E+01
      7.012  0.0000E+00  0.8000E+01
      7.214  0.0000E+00  0.8000E+01
      7.415  0.0000E+00  0.8000E+01
      7.616  0.0000E+00  0.8000E+01
      7.818  0.0000E+00  0.8000E+01
      8.019  0.0000E+00  0.8000E+01
      8.221  0.0000E+00  0.8000E+01
      8.422  0.0000E+00  0.8000E+01
      8.624  0.5635E-08  0.8000E+01
      8.825  0.1785E+00  0.8036E+01
      9.027  0.1318E+00  0.8062E+01
      9.228  0.0000E+00  0.8062E+01
      9.429  0.0000E+00  0.8062E+01
      9.631  0.0000E+00  0.8062E+01
      9.832  0.0000E+00  0.8062E+01
     10.034  0.0000E+00  0.8062E+01
     10.235  0.2047E-06  0.8063E+01
     10.437  0.6898E+00  0.8201E+01
     10.638  0.2410E+00  0.8250E+01
     10.840  0.2614E-08  0.8250E+01
     11.041  0.1621E+00  0.8283E+01
     11.242  0.6090E+00  0.8405E+01
     11.444  0.4700E+00  0.8500E+01
     11.645  0.6468E-07  0.8500E+01
     11.847  0.6206E+00  0.8625E+01
     12.048  0.3101E+00  0.8687E+01
     12.250  0.2005E-02  0.8688E+01
     12.451  0.9267E+00  0.8875E+01
     12.653  0.1103E+00  0.8897E+01
     12.854  0.1759E+01  0.9251E+01
     13.055  0.9244E+00  0.9437E+01
     13.257  0.9049E+00  0.9620E+01
     13.458  0.2650E-01  0.9625E+01
     13.660  0.7892E+00  0.9784E+01
     13.861  0.8587E+00  0.9957E+01
     14.063  0.2044E+01  0.1037E+02
     14.264  0.3155E-01  0.1037E+02
     14.465  0.0000E+00  0.1038E+02
     14.667  0.3838E-11  0.1038E+02
     14.868  0.3365E+00  0.1044E+02
     15.070  0.3387E+01  0.1112E+02
     15.271  0.7515E-02  0.1113E+02
     15.473  0.1851E+01  0.1150E+02
     15.674  0.2485E+01  0.1200E+02
     15.876  0.1551E+01  0.1231E+02
     16.077  0.6311E-02  0.1231E+02
     16.278  0.1432E+01  0.1260E+02
     16.480  0.4230E+00  0.1269E+02
     16.681  0.0000E+00  0.1269E+02
     16.883  0.2053E-07  0.1269E+02
     17.084  0.1007E+01  0.1289E+02
     17.286  0.1080E+01  0.1311E+02
     17.487  0.1010E+01  0.1331E+02
     17.689  0.5661E-02  0.1331E+02
     17.890  0.1938E-05  0.1331E+02
     18.091  0.8034E+00  0.1347E+02
     18.293  0.1274E+00  0.1350E+02
     18.494  0.1111E-13  0.1350E+02
     18.696  0.2493E-01  0.1351E+02
     18.897  0.9058E+00  0.1369E+02
     19.099  0.7680E-04  0.1369E+02
     19.300  0.1010E-03  0.1369E+02
     19.502  0.6625E+00  0.1382E+02
     19.703  0.2220E+01  0.1427E+02
     19.904  0.1936E+01  0.1466E+02
     20.106  0.1049E+01  0.1487E+02
     20.307  0.1537E+01  0.1518E+02
     20.509  0.1283E+01  0.1544E+02
     20.710  0.9306E+00  0.1562E+02
     20.912  0.1801E+00  0.1566E+02
     21.113  0.7529E+00  0.1581E+02
     21.315  0.9352E+00  0.1600E+02
     21.516  0.9240E+00  0.1619E+02
     21.717  0.1771E+01  0.1654E+02
     21.919  0.9086E-01  0.1656E+02
     22.120  0.1047E-03  0.1656E+02
     22.322  0.9099E+00  0.1675E+02
     22.523  0.2079E-01  0.1675E+02
     22.725  0.8928E+00  0.1693E+02
     22.926  0.1880E+01  0.1731E+02
     23.128  0.3589E+00  0.1738E+02
     23.329  0.1522E+01  0.1769E+02
     23.530  0.9969E-05  0.1769E+02
     23.732  0.5793E+00  0.1780E+02
     23.933  0.9554E+00  0.1800E+02
     24.135  0.1663E-01  0.1800E+02
     24.336  0.3066E+00  0.1806E+02
     24.538  0.9064E+00  0.1824E+02
     24.739  0.6485E+00  0.1837E+02
     24.941  0.3605E-02  0.1838E+02
     25.142  0.1229E+01  0.1862E+02
     25.343  0.8818E-02  0.1863E+02
     25.545  0.1436E+01  0.1891E+02
     25.746  0.1293E+01  0.1917E+02
     25.948  0.6292E-01  0.1919E+02
     26.149  0.8440E+00  0.1936E+02
     26.351  0.1018E+01  0.1956E+02
     26.552  0.1581E+00  0.1959E+02
     26.754  0.2634E+01  0.2012E+02
     26.955  0.1311E-02  0.2013E+02
     27.156  0.9339E+00  0.2031E+02
     27.358  0.9267E+00  0.2050E+02
     27.559  0.3093E+00  0.2056E+02
     27.761  0.5901E-03  0.2056E+02
     27.962  0.0000E+00  0.2056E+02
     28.164  0.0000E+00  0.2056E+02
     28.365  0.0000E+00  0.2056E+02
     28.567  0.0000E+00  0.2056E+02
     28.768  0.1374E-03  0.2056E+02
     28.969  0.6261E+00  0.2069E+02
     29.171  0.2722E+01  0.2124E+02
     29.372  0.9928E+00  0.2144E+02
     29.574  0.6004E+00  0.2156E+02
     29.775  0.3334E+00  0.2162E+02
     29.977  0.1347E-06  0.2163E+02
     30.178  0.1696E+01  0.2197E+02
     30.379  0.1897E+01  0.2235E+02
     30.581  0.1216E+01  0.2259E+02
     30.782  0.7760E+00  0.2275E+02
     30.984  0.1051E-05  0.2275E+02
     31.185  0.3224E+00  0.2281E+02
     31.387  0.1539E+01  0.2312E+02
     31.588  0.5763E+00  0.2324E+02
     31.790  0.1529E+01  0.2355E+02
     31.991  0.2549E+01  0.2406E+02
     32.192  0.1228E+01  0.2431E+02
     32.394  0.1220E+01  0.2456E+02
     32.595  0.4266E+01  0.2541E+02
     32.797  0.1975E+00  0.2545E+02
     32.998  0.2710E+01  0.2600E+02
     33.200  0.9267E+00  0.2619E+02
     33.401  0.6340E+00  0.2631E+02
     33.603  0.1849E+01  0.2669E+02
     33.804  0.1559E-05  0.2669E+02
     34.005  0.0000E+00  0.2669E+02
     34.207  0.0000E+00  0.2669E+02
     34.408  0.0000E+00  0.2669E+02
     34.610  0.0000E+00  0.2669E+02
     34.811  0.8269E-09  0.2669E+02
     35.013  0.3713E+00  0.2676E+02
     35.214  0.2420E+01  0.2725E+02
     35.416  0.5348E-03  0.2725E+02
     35.617  0.7922E+00  0.2741E+02
     35.818  0.2777E+01  0.2797E+02
     36.020  0.6591E+00  0.2810E+02
     36.221  0.4255E+00  0.2819E+02
     36.423  0.7663E-03  0.2819E+02
     36.624  0.1914E+01  0.2857E+02
     36.826  0.8776E+00  0.2875E+02
     37.027  0.2037E+00  0.2879E+02
     37.229  0.4168E+00  0.2887E+02
     37.430  0.7323E+00  0.2902E+02
     37.631  0.1134E+01  0.2925E+02
     37.833  0.9256E+00  0.2944E+02
     38.034  0.7778E+00  0.2959E+02
     38.236  0.1085E+01  0.2981E+02
     38.437  0.8624E+00  0.2999E+02
     38.639  0.6841E-01  0.3000E+02
     38.840  0.3957E-11  0.3000E+02
     39.042  0.1691E+00  0.3003E+02
     39.243  0.3795E+01  0.3080E+02
     39.444  0.6930E-01  0.3081E+02
     39.646  0.0000E+00  0.3081E+02
     39.847  0.0000E+00  0.3081E+02
     40.049  0.2067E-15  0.3081E+02
     40.250  0.6917E-02  0.3081E+02
     40.452  0.9234E+00  0.3100E+02
     40.653  0.5149E-03  0.3100E+02
     40.855  0.1662E-10  0.3100E+02
     41.056  0.6949E-01  0.3101E+02
     41.257  0.1648E+01  0.3135E+02
     41.459  0.3246E+01  0.3200E+02
     41.660  0.2919E-03  0.3200E+02
     41.862  0.0000E+00  0.3200E+02
     42.063  0.0000E+00  0.3200E+02
     42.265  0.0000E+00  0.3200E+02
     42.466  0.0000E+00  0.3200E+02
     42.668  0.0000E+00  0.3200E+02
     42.869  0.0000E+00  0.3200E+02
     43.070  0.0000E+00  0.3200E+02
     43.272  0.0000E+00  0.3200E+02
     43.473  0.0000E+00  0.3200E+02
     43.675  0.0000E+00  0.3200E+02
     43.876  0.0000E+00  0.3200E+02
     44.078  0.0000E+00  0.3200E+02
