    2    2    1    1
  0.9563318E+01  0.3001819E-09  0.3001820E-09  0.3001819E-09  0.5000000E-15
  1.000000000000000E-004
  CAR 
 automatically generated by pyflamestk   
      8     10     16
 
  0.1250000E+00  0.1250000E+00  0.1250000E+00  0.3125000E-01
    1      -13.608335   1.000000
    2        2.467153   1.000000
    3        3.330487   1.000000
    4        3.330488   1.000000
    5        8.818380   0.000000
    6       17.413197   0.000000
    7       19.427201   0.000000
    8       19.427203   0.000000
    9       23.678779   0.000000
   10       23.678783   0.000000
   11       25.022337   0.000000
   12       27.456974   0.000000
   13       28.892156   0.000000
   14       28.892159   0.000000
   15       39.163394   0.000000
   16       41.082801   0.000000
 
  0.3750000E+00  0.1250000E+00  0.1250000E+00  0.9375000E-01
    1      -12.952144   1.000000
    2        0.296702   1.000000
    3        2.460796   1.000000
    4        3.023262   1.000000
    5       11.242845   0.000000
    6       15.358014   0.000000
    7       18.764048   0.000000
    8       20.429587   0.000000
    9       22.250761   0.000000
   10       24.483603   0.000000
   11       26.603722   0.000000
   12       31.266152   0.000000
   13       32.547910   0.000000
   14       33.411504   0.000000
   15       35.780675   0.000000
   16       39.081597   0.000000
 
 -0.3750000E+00  0.1250000E+00  0.1250000E+00  0.9375000E-01
    1      -12.513359   1.000000
    2       -0.831985   1.000000
    3        2.310032   1.000000
    4        2.682401   1.000000
    5       11.831495   0.000000
    6       15.580985   0.000000
    7       18.052767   0.000000
    8       19.868818   0.000000
    9       23.858990   0.000000
   10       26.112290   0.000000
   11       26.205685   0.000000
   12       32.484858   0.000000
   13       33.094939   0.000000
   14       33.431961   0.000000
   15       36.016096   0.000000
   16       37.723439   0.000000
 
 -0.1250000E+00  0.1250000E+00  0.1250000E+00  0.9375000E-01
    1      -13.242905   1.000000
    2        1.186277   1.000000
    3        2.952211   1.000000
    4        2.957887   1.000000
    5       10.413766   0.000000
    6       15.594496   0.000000
    7       19.557442   0.000000
    8       20.039108   0.000000
    9       21.213832   0.000000
   10       25.058844   0.000000
   11       27.061076   0.000000
   12       30.159502   0.000000
   13       30.443994   0.000000
   14       31.200297   0.000000
   15       37.422290   0.000000
   16       39.190868   0.000000
 
  0.3750000E+00  0.3750000E+00  0.1250000E+00  0.9375000E-01
    1      -12.715271   1.000000
    2        0.111042   1.000000
    3        2.261281   1.000000
    4        2.494619   1.000000
    5       12.350547   0.000000
    6       13.998039   0.000000
    7       17.310490   0.000000
    8       20.942286   0.000000
    9       21.397952   0.000000
   10       27.241209   0.000000
   11       30.346346   0.000000
   12       30.615190   0.000000
   13       32.528824   0.000000
   14       35.023972   0.000000
   15       36.674926   0.000000
   16       38.091734   0.000000
 
 -0.3750000E+00  0.3750000E+00  0.1250000E+00  0.1875000E+00
    1      -12.301362   1.000000
    2       -0.000800   1.000000
    3        0.999216   1.000000
    4        2.080330   1.000000
    5       13.871487   0.000000
    6       14.917374   0.000000
    7       15.707108   0.000000
    8       19.709719   0.000000
    9       23.159579   0.000000
   10       26.610618   0.000000
   11       30.172621   0.000000
   12       31.605741   0.000000
   13       32.865800   0.000000
   14       36.541041   0.000000
   15       39.109966   0.000000
   16       41.330668   0.000000
 
 -0.1250000E+00  0.3750000E+00  0.1250000E+00  0.1875000E+00
    1      -12.558904   1.000000
    2       -0.210566   1.000000
    3        1.740409   1.000000
    4        2.580944   1.000000
    5       12.708039   0.000000
    6       14.914131   0.000000
    7       17.080626   0.000000
    8       20.276189   0.000000
    9       22.844316   0.000000
   10       25.518560   0.000000
   11       29.054777   0.000000
   12       31.851127   0.000000
   13       32.431227   0.000000
   14       35.092358   0.000000
   15       35.737883   0.000000
   16       41.237627   0.000000
 
 -0.3750000E+00 -0.3750000E+00  0.1250000E+00  0.9375000E-01
    1      -12.337937   1.000000
    2       -0.367810   1.000000
    3        1.739137   1.000000
    4        2.194444   1.000000
    5       12.942149   0.000000
    6       13.623404   0.000000
    7       16.164325   0.000000
    8       21.651130   0.000000
    9       21.664535   0.000000
   10       29.118745   0.000000
   11       29.560881   0.000000
   12       32.141788   0.000000
   13       32.858452   0.000000
   14       38.006731   0.000000
   15       38.385940   0.000000
   16       41.315654   0.000000
 
  0.3750000E+00  0.3750000E+00  0.3750000E+00  0.3125000E-01
    1      -12.751420   1.000000
    2       -0.562819   1.000000
    3        2.878128   1.000000
    4        2.878128   1.000000
    5       11.038981   0.000000
    6       15.582521   0.000000
    7       19.663115   0.000000
    8       19.663118   0.000000
    9       24.255985   0.000000
   10       24.595912   0.000000
   11       24.595915   0.000000
   12       32.107167   0.000000
   13       33.437033   0.000000
   14       33.437036   0.000000
   15       37.042832   0.000000
   16       37.042838   0.000000
 
 -0.3750000E+00  0.3750000E+00  0.3750000E+00  0.9375000E-01
    1      -12.385282   1.000000
    2       -0.244351   1.000000
    3        1.102709   1.000000
    4        2.546645   1.000000
    5       13.189526   0.000000
    6       15.380790   0.000000
    7       16.274379   0.000000
    8       20.588060   0.000000
    9       22.663384   0.000000
   10       25.693484   0.000000
   11       29.276313   0.000000
   12       31.822018   0.000000
   13       32.246098   0.000000
   14       35.580300   0.000000
   15       37.459690   0.000000
   16       40.336316   0.000000
