LAMMPS (11 Aug 2017)
include init.mod
# ---- init.mod file
variable up equal 1.0e-6
units metal
dimension 3
boundary p p p
atom_style atomic
atom_modify map array
variable cfac equal 1.0e-4
variable cunits string GPa
# ---- define minimization parameters
variable etol equal 0.0
variable ftol equal 1.0e-10
variable maxiter equal 100
variable maxeval equal 1000
variable dmax equal 1.0e-2
# --- read data structure
read_data lammps.structure
  triclinic box = (0 0 0) to (3.5167 3.5167 3.5167) with tilt (0 -0 0)
  1 by 1 by 1 MPI processor grid
  reading atoms ...
  4 atoms
include potential.mod
mass 1 58.6934

group Ni type 1
4 atoms in group Ni

pair_style eam/alloy
pair_coeff * * /ufrc/phillpot/eragasa/pareto_optimization_3.5NN/rank_7/Ni_fcc.lmps_elastic/Ni.eam.alloy Ni

neighbor 1.0 bin
neigh_modify every 1 delay 0 check yes
thermo	1
thermo_style custom step temp pe press pxx pyy pzz pxy pxz pyz lx ly lz vol
thermo_modify norm no
# ---- Compute initial state
fix 3 all box/relax aniso 0.0
minimize ${etol} ${ftol} ${maxiter} ${maxeval}
minimize 0 ${ftol} ${maxiter} ${maxeval}
minimize 0 1e-10 ${maxiter} ${maxeval}
minimize 0 1e-10 100 ${maxeval}
minimize 0 1e-10 100 1000
Neighbor list info ...
  update every 1 steps, delay 0 steps, check yes
  max neighbors/atom: 2000, page size: 100000
  master list distance cutoff = 5.64464
  ghost atom cutoff = 5.64464
  binsize = 2.82232, bins = 2 2 2
  1 neighbor lists, perpetual/occasional/extra = 1 0 0
  (1) pair eam/alloy, perpetual
      attributes: half, newton on
      pair build: half/bin/newton/tri
      stencil: half/bin/3d/newton/tri
      bin: standard
Per MPI rank memory allocation (min/avg/max) = 4.086 | 4.086 | 4.086 Mbytes
Step Temp PotEng Press Pxx Pyy Pzz Pxy Pxz Pyz Lx Ly Lz Volume 
       0            0   -14.169475   -33918.248   -33918.248   -33918.248   -33918.248 1.2780994e-12 2.0449591e-12 -1.5337193e-12       3.5167       3.5167       3.5167    43.491658 
       1            0   -14.169749    -33462.44    -33462.44    -33462.44    -33462.44 -1.0227864e-12 -1.0994953e-11 -8.9493806e-12    3.5163483    3.5163483    3.5163483    43.478612 
       2            0    -14.17002   -33005.743   -33005.743   -33005.743   -33005.743 -2.0461866e-12 3.3250532e-12            0    3.5159967    3.5159967    3.5159967    43.465568 
       3            0   -14.170287   -32548.157   -32548.157   -32548.157   -32548.157 5.0658317e-11 4.6564715e-11 4.1447714e-11     3.515645     3.515645     3.515645    43.452527 
       4            0    -14.17055   -32089.679   -32089.679   -32089.679   -32089.679 -4.7858326e-11 -4.018052e-11 -4.1204227e-11    3.5152933    3.5152933    3.5152933    43.439489 
       5            0   -14.170809   -31630.308   -31630.308   -31630.308   -31630.308 7.680111e-13            0 4.3520629e-12    3.5149417    3.5149417    3.5149417    43.426453 
       6            0   -14.171064   -31170.044   -31170.044   -31170.044   -31170.044 2.304725e-12 -1.2804028e-12 -6.4020139e-12      3.51459      3.51459      3.51459     43.41342 
       7            0   -14.171316   -30708.885   -30708.885   -30708.885   -30708.885 8.0945752e-11 8.2738854e-11 1.0323145e-10    3.5142383    3.5142383    3.5142383    43.400389 
       8            0   -14.171564   -30246.828   -30246.828   -30246.828   -30246.828 -5.3809215e-12 -2.8185779e-12 -4.0997497e-12    3.5138866    3.5138866    3.5138866    43.387362 
       9            0   -14.171808   -29783.873   -29783.873   -29783.873   -29783.873 -4.6136035e-12 4.6136035e-12 -5.6388487e-12     3.513535     3.513535     3.513535    43.374336 
      10            0   -14.172048   -29320.019   -29320.019   -29320.019   -29320.019 -1.0255531e-12 5.1277657e-13 -7.6916485e-13    3.5131833    3.5131833    3.5131833    43.361313 
      11            0   -14.172284   -28855.264   -28855.264   -28855.264   -28855.264 3.3340488e-12 1.2823265e-12 -3.8469794e-12    3.5128316    3.5128316    3.5128316    43.348293 
      12            0   -14.172517   -28389.607   -28389.607   -28389.607   -28389.607 1.0492581e-10 9.132907e-11 8.9020189e-11      3.51248      3.51248      3.51248    43.335276 
      13            0   -14.172746   -27923.046   -27923.046   -27923.046   -27923.046 -5.1323881e-13 1.5397164e-12 4.1059105e-12    3.5121283    3.5121283    3.5121283    43.322261 
      14            0   -14.172971    -27455.58    -27455.58    -27455.58    -27455.58 -1.4631701e-11 4.8772336e-12 3.3370546e-12    3.5117766    3.5117766    3.5117766    43.309249 
      15            0   -14.173192   -26987.207   -26987.207   -26987.207   -26987.207 1.5406418e-12 6.5477277e-11 6.5477277e-11     3.511425     3.511425     3.511425    43.296239 
      16            0   -14.173409   -26517.927   -26517.927   -26517.927   -26517.927 8.989778e-12 5.9075684e-12 2.0548064e-12    3.5110733    3.5110733    3.5110733    43.283232 
      17            0   -14.173622   -26047.737   -26047.737   -26047.737   -26047.737 6.2433503e-11 5.0100959e-11 4.9073247e-11    3.5107216    3.5107216    3.5107216    43.270227 
      18            0   -14.173832   -25576.636   -25576.636   -25576.636   -25576.636 4.1120835e-12 -2.5700522e-12 5.1401044e-12    3.5103699    3.5103699    3.5103699    43.257226 
      19            0   -14.174037   -25104.624   -25104.624   -25104.624   -25104.624 5.604398e-11 5.4501485e-11 5.1673578e-11    3.5100183    3.5100183    3.5100183    43.244226 
      20            0   -14.174239   -24631.698   -24631.698   -24631.698   -24631.698 -4.1145562e-12 -1.3372308e-11 -1.1829349e-11    3.5096666    3.5096666    3.5096666     43.23123 
      21            0   -14.174437   -24157.857   -24157.857   -24157.857   -24157.857 5.5563209e-11 4.9903994e-11 5.2219127e-11    3.5093149    3.5093149    3.5093149    43.218236 
      22            0   -14.174631     -23683.1     -23683.1     -23683.1     -23683.1 5.1205572e-11 5.0948257e-11 4.8632427e-11    3.5089633    3.5089633    3.5089633    43.205244 
      23            0   -14.174821   -23207.425   -23207.425   -23207.425   -23207.425 1.5443509e-12 5.1478362e-13 5.1478362e-13    3.5086116    3.5086116    3.5086116    43.192255 
      24            0   -14.175007   -22730.831   -22730.831   -22730.831   -22730.831 3.8620383e-12 3.8620383e-12 -3.8620383e-12    3.5082599    3.5082599    3.5082599    43.179269 
      25            0   -14.175189   -22253.316   -22253.316   -22253.316   -22253.316 -5.2539519e-11 -3.2708426e-11 -3.8116906e-11    3.5079083    3.5079083    3.5079083    43.166285 
      26            0   -14.175368   -21774.879   -21774.879   -21774.879   -21774.879 -4.1477486e-11 -2.9111527e-11 -2.5762414e-11    3.5075566    3.5075566    3.5075566    43.153304 
      27            0   -14.175542   -21295.519   -21295.519   -21295.519   -21295.519 3.0924197e-12 2.0616131e-12 4.6386295e-12    3.5072049    3.5072049    3.5072049    43.140326 
      28            0   -14.175713   -20815.235   -20815.235   -20815.235   -20815.235 -2.5777918e-13 3.6089085e-12 5.928921e-12    3.5068532    3.5068532    3.5068532     43.12735 
      29            0   -14.175879   -20334.023   -20334.023   -20334.023   -20334.023 -5.1571348e-13 -3.6099944e-12 -4.6414214e-12    3.5065016    3.5065016    3.5065016    43.114377 
      30            0   -14.176042   -19851.884   -19851.884   -19851.884   -19851.884 -1.2896717e-12 -3.8690151e-12 3.6110808e-12    3.5061499    3.5061499    3.5061499    43.101406 
      31            0   -14.176201   -19368.817   -19368.817   -19368.817   -19368.817 -7.7403591e-13 -1.8060838e-12            0    3.5057982    3.5057982    3.5057982    43.088438 
      32            0   -14.176355   -18884.818   -18884.818   -18884.818   -18884.818 6.1941511e-12 -4.3875237e-12 -2.5808963e-12    3.5054466    3.5054466    3.5054466    43.075473 
      33            0   -14.176506   -18399.888   -18399.888   -18399.888   -18399.888 -4.6470117e-12 -5.679681e-12 -3.0980078e-12    3.5050949    3.5050949    3.5050949     43.06251 
      34            0   -14.176653   -17914.023   -17914.023   -17914.023   -17914.023 1.0329802e-11 -8.2638413e-12 -7.4891062e-12    3.5047432    3.5047432    3.5047432     43.04955 
      35            0   -14.176796   -17427.225   -17427.225   -17427.225   -17427.225 3.0998735e-12 4.3914875e-12 1.0332912e-12    3.5043916    3.5043916    3.5043916    43.036592 
      36            0   -14.176935    -16939.49    -16939.49    -16939.49    -16939.49 5.4264122e-12 -1.2403228e-11 -1.6020836e-11    3.5040399    3.5040399    3.5040399    43.023637 
      37            0    -14.17707   -16450.817   -16450.817   -16450.817   -16450.817            0 9.5637006e-12 8.2713087e-12    3.5036882    3.5036882    3.5036882    43.010685 
      38            0   -14.177201   -15961.205   -15961.205   -15961.205   -15961.205 -5.5331036e-11 -6.0243605e-11 -5.4813923e-11    3.5033365    3.5033365    3.5033365    42.997735 
      39            0   -14.177328   -15470.653   -15470.653   -15470.653   -15470.653 2.8449753e-12 -1.0345365e-11 1.9397559e-11    3.5029849    3.5029849    3.5029849    42.984788 
      40            0   -14.177451   -14979.158   -14979.158   -14979.158   -14979.158 -1.0348481e-12 -2.5871203e-12 -2.3284083e-12    3.5026332    3.5026332    3.5026332    42.971843 
      41            0    -14.17757    -14486.72    -14486.72    -14486.72    -14486.72 2.8466897e-12 5.4345894e-12 2.5878997e-13    3.5022815    3.5022815    3.5022815    42.958901 
      42            0   -14.177685   -13993.337   -13993.337   -13993.337   -13993.337 5.0220381e-11 4.8667173e-11 5.5915476e-11    3.5019299    3.5019299    3.5019299    42.945961 
      43            0   -14.177796   -13499.007   -13499.007   -13499.007   -13499.007 6.1888081e-11 5.4896541e-11 5.8003892e-11    3.5015782    3.5015782    3.5015782    42.933025 
      44            0   -14.177903    -13003.73    -13003.73    -13003.73    -13003.73 -8.2887674e-12 -1.8131679e-12 -1.5541439e-12    3.5012265    3.5012265    3.5012265     42.92009 
      45            0   -14.178006   -12507.503   -12507.503   -12507.503   -12507.503 -4.4047348e-12 -1.5546123e-12 -1.3473307e-11    3.5008749    3.5008749    3.5008749    42.907159 
      46            0   -14.178105   -12010.325   -12010.325   -12010.325   -12010.325 -6.1684875e-11 -5.9093073e-11 -5.8574713e-11    3.5005232    3.5005232    3.5005232     42.89423 
      47            0     -14.1782   -11512.196   -11512.196   -11512.196   -11512.196 -7.7777483e-13 -4.666649e-12 -8.5555231e-12    3.5001715    3.5001715    3.5001715    42.881303 
      48            0    -14.17829   -11013.112   -11013.112   -11013.112   -11013.112 1.0373457e-12 1.2966822e-12 2.0746915e-12    3.4998198    3.4998198    3.4998198    42.868379 
      49            0   -14.178377   -10513.073   -10513.073   -10513.073   -10513.073 4.9288779e-12 2.075317e-12 2.3347317e-12    3.4994682    3.4994682    3.4994682    42.855458 
      50            0    -14.17846   -10012.078   -10012.078   -10012.078   -10012.078 4.9303642e-12 2.8544214e-12 7.7847855e-13    3.4991165    3.4991165    3.4991165     42.84254 
      51            0   -14.178539   -9510.1242   -9510.1242   -9510.1242   -9510.1242 -8.5658465e-12 1.1161558e-11 -1.5574266e-11    3.4987648    3.4987648    3.4987648    42.829624 
      52            0   -14.178613   -9007.2112   -9007.2112   -9007.2112   -9007.2112 5.4266723e-11 5.7122866e-11 4.5178994e-11    3.4984132    3.4984132    3.4984132     42.81671 
      53            0   -14.178684   -8503.3365   -8503.3365   -8503.3365   -8503.3365 4.4153711e-12 -1.4025296e-11 -6.4931928e-12    3.4980615    3.4980615    3.4980615    42.803799 
      54            0    -14.17875   -7998.4992   -7998.4992   -7998.4992   -7998.4992 2.5980606e-13 1.0652048e-11 1.0652048e-11    3.4977098    3.4977098    3.4977098    42.790891 
      55            0   -14.178813   -7492.6985   -7492.6985   -7492.6985   -7492.6985 6.497111e-12 5.4575732e-12 3.8982666e-12    3.4973582    3.4973582    3.4973582    42.777985 
      56            0   -14.178871   -6985.9322   -6985.9322   -6985.9322   -6985.9322 5.3552348e-11 5.1472645e-11 5.381231e-11    3.4970065    3.4970065    3.4970065    42.765082 
      57            0   -14.178925   -6478.1982   -6478.1982   -6478.1982   -6478.1982 2.0543262e-11 4.6807433e-12 1.7422767e-11    3.4966548    3.4966548    3.4966548    42.752182 
      58            0   -14.178975   -5969.4958   -5969.4958   -5969.4958   -5969.4958 1.0899018e-10 1.0508839e-10 1.0430803e-10    3.4963031    3.4963031    3.4963031    42.739284 
      59            0   -14.179021   -5459.8239   -5459.8239   -5459.8239   -5459.8239 3.9029742e-11 4.0070535e-11 3.9810337e-11    3.4959515    3.4959515    3.4959515    42.726389 
      60            0   -14.179063   -4949.1805   -4949.1805   -4949.1805   -4949.1805 1.6397439e-11 -1.0931626e-11 1.5356332e-11    3.4955998    3.4955998    3.4955998    42.713496 
      61            0   -14.179101   -4437.5636   -4437.5636   -4437.5636   -4437.5636 -5.9100673e-11 -6.2485293e-11 -6.378707e-11    3.4952481    3.4952481    3.4952481    42.700606 
      62            0   -14.179135   -3924.9721   -3924.9721   -3924.9721   -3924.9721 -7.8130197e-13 4.1669438e-12 5.2086798e-13    3.4948965    3.4948965    3.4948965    42.687718 
      63            0   -14.179164   -3411.4052   -3411.4052   -3411.4052   -3411.4052 -4.1160994e-11 -4.4287146e-11 -4.3245095e-11    3.4945448    3.4945448    3.4945448    42.674833 
      64            0    -14.17919   -2896.8609   -2896.8609   -2896.8609   -2896.8609 -2.6059129e-13 3.3876867e-12 4.1694606e-12    3.4941931    3.4941931    3.4941931    42.661951 
      65            0   -14.179211    -2381.337    -2381.337    -2381.337    -2381.337 -2.6066998e-13 -2.6066998e-13 1.3033499e-12    3.4938415    3.4938415    3.4938415    42.649071 
      66            0   -14.179228   -1864.8325   -1864.8325   -1864.8325   -1864.8325 -6.9359158e-11 -6.7273168e-11 -5.1628245e-11    3.4934898    3.4934898    3.4934898    42.636194 
      67            0   -14.179241   -1347.3467   -1347.3467   -1347.3467   -1347.3467 -1.3563029e-11 -1.7214613e-11 -1.2519719e-11    3.4931381    3.4931381    3.4931381     42.62332 
      68            0   -14.179249   -828.87758   -828.87758   -828.87758   -828.87758 -4.6963128e-12 -1.8263439e-12 -1.5654376e-12    3.4927864    3.4927864    3.4927864    42.610448 
      69            0   -14.179254     -309.423     -309.423     -309.423     -309.423 -9.1344781e-12 -1.5659105e-12 -5.2197018e-13    3.4924348    3.4924348    3.4924348    42.597578 
      70            0   -14.179255    1.0644634    1.0644634    1.0644634    1.0644634 1.2790575e-11 -2.3492893e-12 -1.827225e-12    3.4922249    3.4922249    3.4922249    42.589899 
      71            0   -14.179255 -0.092020995 -0.092020995 -0.092020995 -0.092020995 1.1224375e-11 -2.6103197e-13 -1.5661918e-12    3.4922257    3.4922257    3.4922257    42.589927 
      72            0   -14.179255 -0.00010761354 -0.00010761354 -0.00010761355 -0.00010761354 6.2386645e-11 7.3872052e-11 7.4655148e-11    3.4922256    3.4922256    3.4922256    42.589925 
      73            0   -14.179255 0.00062416767 0.00062416771 0.00062416768 0.00062416762 1.2111884e-10 5.9254261e-11 7.5438244e-11    3.4922256    3.4922256    3.4922256    42.589925 
      74            0   -14.179255 1.444377e-10 6.6824188e-11 1.8481065e-10 1.8167826e-10 -8.8750875e-12 -6.0037357e-12 -1.0441279e-11    3.4922256    3.4922256    3.4922256    42.589925 
Loop time of 0.00251794 on 1 procs for 74 steps with 4 atoms

42.3% CPU use with 1 MPI tasks x no OpenMP threads

Minimization stats:
  Stopping criterion = force tolerance
  Energy initial, next-to-last, final = 
        -14.1694749488     -14.1792548079     -14.1792548079
  Force two-norm initial, final = 1.59474 1.04296e-14
  Force max component initial, final = 0.920723 4.94717e-15
  Final line search alpha, max atom move = 1 4.94717e-15
  Iterations, force evaluations = 74 79

MPI task timing breakdown:
Section |  min time  |  avg time  |  max time  |%varavg| %total
---------------------------------------------------------------
Pair    | 0.00069308 | 0.00069308 | 0.00069308 |   0.0 | 27.53
Neigh   | 0          | 0          | 0          |   0.0 |  0.00
Comm    | 0.00014234 | 0.00014234 | 0.00014234 |   0.0 |  5.65
Output  | 0.0012186  | 0.0012186  | 0.0012186  |   0.0 | 48.40
Modify  | 0          | 0          | 0          |   0.0 |  0.00
Other   |            | 0.000464   |            |       | 18.43

Nlocal:    4 ave 4 max 4 min
Histogram: 1 0 0 0 0 0 0 0 0 0
Nghost:    360 ave 360 max 360 min
Histogram: 1 0 0 0 0 0 0 0 0 0
Neighs:    156 ave 156 max 156 min
Histogram: 1 0 0 0 0 0 0 0 0 0

Total # of neighbors = 156
Ave neighs/atom = 39
Neighbor list builds = 0
Dangerous builds = 0

variable tmp equal pxx
variable pxx0 equal ${tmp}
variable pxx0 equal 6.68241884069535e-11
variable tmp equal pyy
variable pyy0 equal ${tmp}
variable pyy0 equal 1.84810646062981e-10
variable tmp equal pzz
variable pzz0 equal ${tmp}
variable pzz0 equal 1.81678262231405e-10
variable tmp equal pyz
variable pyz0 equal ${tmp}
variable pyz0 equal -1.04412794385865e-11
variable tmp equal pxz
variable pxz0 equal ${tmp}
variable pxz0 equal -6.00373567718723e-12
variable tmp equal pxy
variable pxy0 equal ${tmp}
variable pxy0 equal -8.87508752279852e-12

variable tmp equal lx
variable lx0 equal ${tmp}
variable lx0 equal 3.49222560559887
variable tmp equal ly
variable ly0 equal ${tmp}
variable ly0 equal 3.49222560559887
variable tmp equal lz
variable lz0 equal ${tmp}
variable lz0 equal 3.49222560559887

 # ---- define the derivatives w.r.t. strain components
variable d1 equal -(v_pxx1-${pxx0})/(v_delta/v_len0)*${cfac}
variable d1 equal -(v_pxx1-6.68241884069535e-11)/(v_delta/v_len0)*${cfac}
variable d1 equal -(v_pxx1-6.68241884069535e-11)/(v_delta/v_len0)*0.0001
variable d2 equal -(v_pyy1-${pyy0})/(v_delta/v_len0)*${cfac}
variable d2 equal -(v_pyy1-1.84810646062981e-10)/(v_delta/v_len0)*${cfac}
variable d2 equal -(v_pyy1-1.84810646062981e-10)/(v_delta/v_len0)*0.0001
variable d3 equal -(v_pzz1-${pzz0})/(v_delta/v_len0)*${cfac}
variable d3 equal -(v_pzz1-1.81678262231405e-10)/(v_delta/v_len0)*${cfac}
variable d3 equal -(v_pzz1-1.81678262231405e-10)/(v_delta/v_len0)*0.0001
variable d4 equal -(v_pyz1-${pyz0})/(v_delta/v_len0)*${cfac}
variable d4 equal -(v_pyz1--1.04412794385865e-11)/(v_delta/v_len0)*${cfac}
variable d4 equal -(v_pyz1--1.04412794385865e-11)/(v_delta/v_len0)*0.0001
variable d5 equal -(v_pxz1-${pxz0})/(v_delta/v_len0)*${cfac}
variable d5 equal -(v_pxz1--6.00373567718723e-12)/(v_delta/v_len0)*${cfac}
variable d5 equal -(v_pxz1--6.00373567718723e-12)/(v_delta/v_len0)*0.0001
variable d6 equal -(v_pxy1-${pxy0})/(v_delta/v_len0)*${cfac}
variable d6 equal -(v_pxy1--8.87508752279852e-12)/(v_delta/v_len0)*${cfac}
variable d6 equal -(v_pxy1--8.87508752279852e-12)/(v_delta/v_len0)*0.0001

# ---- write restart files
unfix 3
write_restart restart.equil
# ---- uxx Perturbation
variable dir equal 1
include displace.mod
# NOTE: This script should not need to be
# modified. See in.elastic for more info.
# Find which reference length to use

if "${dir} == 1" then    "variable len0 equal ${lx0}"
variable len0 equal ${lx0}
variable len0 equal 3.49222560559887
if "${dir} == 2" then    "variable len0 equal ${ly0}"
if "${dir} == 3" then    "variable len0 equal ${lz0}"
if "${dir} == 4" then    "variable len0 equal ${lz0}"
if "${dir} == 5" then    "variable len0 equal ${lz0}"
if "${dir} == 6" then    "variable len0 equal ${ly0}"

# Reset box and simulation parameters

clear
read_restart restart.equil remap
  triclinic box = (0.0122372 0.0122372 0.0122372) to (3.50446 3.50446 3.50446) with tilt (0 -0 0)
  1 by 1 by 1 MPI processor grid
  4 atoms
include potential.mod
mass 1 58.6934

group Ni type 1
4 atoms in group Ni

pair_style eam/alloy
pair_coeff * * /ufrc/phillpot/eragasa/pareto_optimization_3.5NN/rank_7/Ni_fcc.lmps_elastic/Ni.eam.alloy Ni

neighbor 1.0 bin
neigh_modify every 1 delay 0 check yes
thermo	1
thermo_style custom step temp pe press pxx pyy pzz pxy pxz pyz lx ly lz vol
thermo_modify norm no

# Negative deformation

variable delta equal -${up}*${len0}
variable delta equal -1e-06*${len0}
variable delta equal -1e-06*3.49222560559887
if "${dir} == 1" then    "change_box all x delta 0 ${delta} remap units box"
change_box all x delta 0 ${delta} remap units box
change_box all x delta 0 -3.49222560559887e-06 remap units box
  triclinic box = (0.0122372 0.0122372 0.0122372) to (3.50446 3.50446 3.50446) with tilt (0 -0 0)
if "${dir} == 2" then    "change_box all y delta 0 ${delta} remap units box"
if "${dir} == 3" then    "change_box all z delta 0 ${delta} remap units box"
if "${dir} == 4" then    "change_box all yz delta ${delta} remap units box"
if "${dir} == 5" then    "change_box all xz delta ${delta} remap units box"
if "${dir} == 6" then    "change_box all xy delta ${delta} remap units box"

# Relax atoms positions

minimize ${etol} ${ftol} ${maxiter} ${maxeval}
minimize 0 ${ftol} ${maxiter} ${maxeval}
minimize 0 1e-10 ${maxiter} ${maxeval}
minimize 0 1e-10 100 ${maxeval}
minimize 0 1e-10 100 1000
Neighbor list info ...
  update every 1 steps, delay 0 steps, check yes
  max neighbors/atom: 2000, page size: 100000
  master list distance cutoff = 5.64464
  ghost atom cutoff = 5.64464
  binsize = 2.82232, bins = 2 2 2
  1 neighbor lists, perpetual/occasional/extra = 1 0 0
  (1) pair eam/alloy, perpetual
      attributes: half, newton on
      pair build: half/bin/newton/tri
      stencil: half/bin/3d/newton/tri
      bin: standard
Per MPI rank memory allocation (min/avg/max) = 4.086 | 4.086 | 4.086 Mbytes
Step Temp PotEng Press Pxx Pyy Pzz Pxy Pxz Pyz Lx Ly Lz Volume 
      74            0   -14.179255    1.7230497    2.1663095    1.5014198    1.5014198 -5.2206449e-13 -2.6103225e-13 -2.8713547e-12    3.4922221    3.4922256    3.4922256    42.589883 
      75            0   -14.179255    1.7230497    2.1663095    1.5014198    1.5014198 -5.3772643e-11 -3.3934192e-12 5.4294707e-11    3.4922221    3.4922256    3.4922256    42.589883 
Loop time of 4.60148e-05 on 1 procs for 1 steps with 4 atoms

78.2% CPU use with 1 MPI tasks x no OpenMP threads

Minimization stats:
  Stopping criterion = force tolerance
  Energy initial, next-to-last, final = 
        -14.1792548079     -14.1792548079     -14.1792548079
  Force two-norm initial, final = 9.29158e-15 5.72382e-15
  Force max component initial, final = 3.63251e-15 4.28477e-15
  Final line search alpha, max atom move = 1 4.28477e-15
  Iterations, force evaluations = 1 2

MPI task timing breakdown:
Section |  min time  |  avg time  |  max time  |%varavg| %total
---------------------------------------------------------------
Pair    | 3.0041e-05 | 3.0041e-05 | 3.0041e-05 |   0.0 | 65.28
Neigh   | 0          | 0          | 0          |   0.0 |  0.00
Comm    | 5.722e-06  | 5.722e-06  | 5.722e-06  |   0.0 | 12.44
Output  | 0          | 0          | 0          |   0.0 |  0.00
Modify  | 0          | 0          | 0          |   0.0 |  0.00
Other   |            | 1.025e-05  |            |       | 22.28

Nlocal:    4 ave 4 max 4 min
Histogram: 1 0 0 0 0 0 0 0 0 0
Nghost:    360 ave 360 max 360 min
Histogram: 1 0 0 0 0 0 0 0 0 0
Neighs:    156 ave 156 max 156 min
Histogram: 1 0 0 0 0 0 0 0 0 0

Total # of neighbors = 156
Ave neighs/atom = 39
Neighbor list builds = 0
Dangerous builds = 0

# Obtain new stress tensor

variable tmp equal pxx
variable pxx1 equal ${tmp}
variable pxx1 equal 2.16630951668991
variable tmp equal pyy
variable pyy1 equal ${tmp}
variable pyy1 equal 1.50141975719732
variable tmp equal pzz
variable pzz1 equal ${tmp}
variable pzz1 equal 1.50141975725944
variable tmp equal pxy
variable pxy1 equal ${tmp}
variable pxy1 equal -5.37726428813633e-11
variable tmp equal pxz
variable pxz1 equal ${tmp}
variable pxz1 equal -3.39341921095982e-12
variable tmp equal pyz
variable pyz1 equal ${tmp}
variable pyz1 equal 5.42947073753571e-11

# Compute elastic constant from pressure tensor

variable C1neg equal ${d1}
variable C1neg equal 216.630951662309
variable C2neg equal ${d2}
variable C2neg equal 150.141975701251
variable C3neg equal ${d3}
variable C3neg equal 150.141975707776
variable C4neg equal ${d4}
variable C4neg equal 6.47359868139436e-09
variable C5neg equal ${d5}
variable C5neg equal 2.61031646622741e-10
variable C6neg equal ${d6}
variable C6neg equal -4.48975553585648e-09

# Reset box and simulation parameters

clear
read_restart restart.equil remap
  triclinic box = (0.0122372 0.0122372 0.0122372) to (3.50446 3.50446 3.50446) with tilt (0 -0 0)
  1 by 1 by 1 MPI processor grid
  4 atoms
include potential.mod
mass 1 58.6934

group Ni type 1
4 atoms in group Ni

pair_style eam/alloy
pair_coeff * * /ufrc/phillpot/eragasa/pareto_optimization_3.5NN/rank_7/Ni_fcc.lmps_elastic/Ni.eam.alloy Ni

neighbor 1.0 bin
neigh_modify every 1 delay 0 check yes
thermo	1
thermo_style custom step temp pe press pxx pyy pzz pxy pxz pyz lx ly lz vol
thermo_modify norm no

# Positive deformation

variable delta equal ${up}*${len0}
variable delta equal 1e-06*${len0}
variable delta equal 1e-06*3.49222560559887
if "${dir} == 1" then    "change_box all x delta 0 ${delta} remap units box"
change_box all x delta 0 ${delta} remap units box
change_box all x delta 0 3.49222560559887e-06 remap units box
  triclinic box = (0.0122372 0.0122372 0.0122372) to (3.50447 3.50446 3.50446) with tilt (0 -0 0)
if "${dir} == 2" then    "change_box all y delta 0 ${delta} remap units box"
if "${dir} == 3" then    "change_box all z delta 0 ${delta} remap units box"
if "${dir} == 4" then    "change_box all yz delta ${delta} remap units box"
if "${dir} == 5" then    "change_box all xz delta ${delta} remap units box"
if "${dir} == 6" then    "change_box all xy delta ${delta} remap units box"

# Relax atoms positions

minimize ${etol} ${ftol} ${maxiter} ${maxeval}
minimize 0 ${ftol} ${maxiter} ${maxeval}
minimize 0 1e-10 ${maxiter} ${maxeval}
minimize 0 1e-10 100 ${maxeval}
minimize 0 1e-10 100 1000
Neighbor list info ...
  update every 1 steps, delay 0 steps, check yes
  max neighbors/atom: 2000, page size: 100000
  master list distance cutoff = 5.64464
  ghost atom cutoff = 5.64464
  binsize = 2.82232, bins = 2 2 2
  1 neighbor lists, perpetual/occasional/extra = 1 0 0
  (1) pair eam/alloy, perpetual
      attributes: half, newton on
      pair build: half/bin/newton/tri
      stencil: half/bin/3d/newton/tri
      bin: standard
Per MPI rank memory allocation (min/avg/max) = 4.086 | 4.086 | 4.086 Mbytes
Step Temp PotEng Press Pxx Pyy Pzz Pxy Pxz Pyz Lx Ly Lz Volume 
      74            0   -14.179255   -1.7230361   -2.1662953   -1.5014065   -1.5014065 -4.9334996e-11 9.6581738e-12 -1.8533252e-11    3.4922291    3.4922256    3.4922256    42.589968 
      75            0   -14.179255   -1.7230361   -2.1662953   -1.5014065   -1.5014065 -3.9154759e-12 -2.6103172e-12 -3.6544441e-12    3.4922291    3.4922256    3.4922256    42.589968 
Loop time of 4.60148e-05 on 1 procs for 1 steps with 4 atoms

84.8% CPU use with 1 MPI tasks x no OpenMP threads

Minimization stats:
  Stopping criterion = force tolerance
  Energy initial, next-to-last, final = 
        -14.1792548079     -14.1792548079     -14.1792548079
  Force two-norm initial, final = 1.0906e-14 2.77485e-16
  Force max component initial, final = 4.02456e-15 1.94289e-16
  Final line search alpha, max atom move = 1 1.94289e-16
  Iterations, force evaluations = 1 2

MPI task timing breakdown:
Section |  min time  |  avg time  |  max time  |%varavg| %total
---------------------------------------------------------------
Pair    | 2.9087e-05 | 2.9087e-05 | 2.9087e-05 |   0.0 | 63.21
Neigh   | 0          | 0          | 0          |   0.0 |  0.00
Comm    | 5.722e-06  | 5.722e-06  | 5.722e-06  |   0.0 | 12.44
Output  | 0          | 0          | 0          |   0.0 |  0.00
Modify  | 0          | 0          | 0          |   0.0 |  0.00
Other   |            | 1.121e-05  |            |       | 24.35

Nlocal:    4 ave 4 max 4 min
Histogram: 1 0 0 0 0 0 0 0 0 0
Nghost:    360 ave 360 max 360 min
Histogram: 1 0 0 0 0 0 0 0 0 0
Neighs:    156 ave 156 max 156 min
Histogram: 1 0 0 0 0 0 0 0 0 0

Total # of neighbors = 156
Ave neighs/atom = 39
Neighbor list builds = 0
Dangerous builds = 0

# Obtain new stress tensor

variable tmp equal pe
variable e1 equal ${tmp}
variable e1 equal -14.1792548078995
variable tmp equal press
variable p1 equal ${tmp}
variable p1 equal -1.72303607052854
variable tmp equal pxx
variable pxx1 equal ${tmp}
variable pxx1 equal -2.16629525258759
variable tmp equal pyy
variable pyy1 equal ${tmp}
variable pyy1 equal -1.50140647948857
variable tmp equal pzz
variable pzz1 equal ${tmp}
variable pzz1 equal -1.50140647950945
variable tmp equal pxy
variable pxy1 equal ${tmp}
variable pxy1 equal -3.91547587399406e-12
variable tmp equal pxz
variable pxz1 equal ${tmp}
variable pxz1 equal -2.61031724932937e-12
variable tmp equal pyz
variable pyz1 equal ${tmp}
variable pyz1 equal -3.65444414906112e-12

# Compute elastic constant from pressure tensor

variable C1pos equal ${d1}
variable C1pos equal 216.629525265441
variable C2pos equal ${d2}
variable C2pos equal 150.140647967338
variable C3pos equal ${d3}
variable C3pos equal 150.140647969113
variable C4pos equal ${d4}
variable C4pos equal -6.78683528952538e-10
variable C5pos equal ${d5}
variable C5pos equal -3.39341842785786e-10
variable C6pos equal ${d6}
variable C6pos equal -4.95961164880446e-10

# Combine positive and negative

variable C1${dir} equal 0.5*(${C1neg}+${C1pos})
variable C11 equal 0.5*(${C1neg}+${C1pos})
variable C11 equal 0.5*(216.630951662309+${C1pos})
variable C11 equal 0.5*(216.630951662309+216.629525265441)
variable C2${dir} equal 0.5*(${C2neg}+${C2pos})
variable C21 equal 0.5*(${C2neg}+${C2pos})
variable C21 equal 0.5*(150.141975701251+${C2pos})
variable C21 equal 0.5*(150.141975701251+150.140647967338)
variable C3${dir} equal 0.5*(${C3neg}+${C3pos})
variable C31 equal 0.5*(${C3neg}+${C3pos})
variable C31 equal 0.5*(150.141975707776+${C3pos})
variable C31 equal 0.5*(150.141975707776+150.140647969113)
variable C4${dir} equal 0.5*(${C4neg}+${C4pos})
variable C41 equal 0.5*(${C4neg}+${C4pos})
variable C41 equal 0.5*(6.47359868139436e-09+${C4pos})
variable C41 equal 0.5*(6.47359868139436e-09+-6.78683528952538e-10)
variable C5${dir} equal 0.5*(${C5neg}+${C5pos})
variable C51 equal 0.5*(${C5neg}+${C5pos})
variable C51 equal 0.5*(2.61031646622741e-10+${C5pos})
variable C51 equal 0.5*(2.61031646622741e-10+-3.39341842785786e-10)
variable C6${dir} equal 0.5*(${C6neg}+${C6pos})
variable C61 equal 0.5*(${C6neg}+${C6pos})
variable C61 equal 0.5*(-4.48975553585648e-09+${C6pos})
variable C61 equal 0.5*(-4.48975553585648e-09+-4.95961164880446e-10)

# Delete dir to make sure it is not reused

variable dir delete
# ---- uyy Perturbation
variable dir equal 2
include displace.mod
# NOTE: This script should not need to be
# modified. See in.elastic for more info.
# Find which reference length to use

if "${dir} == 1" then    "variable len0 equal ${lx0}"
if "${dir} == 2" then    "variable len0 equal ${ly0}"
variable len0 equal ${ly0}
variable len0 equal 3.49222560559887
if "${dir} == 3" then    "variable len0 equal ${lz0}"
if "${dir} == 4" then    "variable len0 equal ${lz0}"
if "${dir} == 5" then    "variable len0 equal ${lz0}"
if "${dir} == 6" then    "variable len0 equal ${ly0}"

# Reset box and simulation parameters

clear
read_restart restart.equil remap
  triclinic box = (0.0122372 0.0122372 0.0122372) to (3.50446 3.50446 3.50446) with tilt (0 -0 0)
  1 by 1 by 1 MPI processor grid
  4 atoms
include potential.mod
mass 1 58.6934

group Ni type 1
4 atoms in group Ni

pair_style eam/alloy
pair_coeff * * /ufrc/phillpot/eragasa/pareto_optimization_3.5NN/rank_7/Ni_fcc.lmps_elastic/Ni.eam.alloy Ni

neighbor 1.0 bin
neigh_modify every 1 delay 0 check yes
thermo	1
thermo_style custom step temp pe press pxx pyy pzz pxy pxz pyz lx ly lz vol
thermo_modify norm no

# Negative deformation

variable delta equal -${up}*${len0}
variable delta equal -1e-06*${len0}
variable delta equal -1e-06*3.49222560559887
if "${dir} == 1" then    "change_box all x delta 0 ${delta} remap units box"
if "${dir} == 2" then    "change_box all y delta 0 ${delta} remap units box"
change_box all y delta 0 ${delta} remap units box
change_box all y delta 0 -3.49222560559887e-06 remap units box
  triclinic box = (0.0122372 0.0122372 0.0122372) to (3.50446 3.50446 3.50446) with tilt (0 -0 0)
if "${dir} == 3" then    "change_box all z delta 0 ${delta} remap units box"
if "${dir} == 4" then    "change_box all yz delta ${delta} remap units box"
if "${dir} == 5" then    "change_box all xz delta ${delta} remap units box"
if "${dir} == 6" then    "change_box all xy delta ${delta} remap units box"

# Relax atoms positions

minimize ${etol} ${ftol} ${maxiter} ${maxeval}
minimize 0 ${ftol} ${maxiter} ${maxeval}
minimize 0 1e-10 ${maxiter} ${maxeval}
minimize 0 1e-10 100 ${maxeval}
minimize 0 1e-10 100 1000
Neighbor list info ...
  update every 1 steps, delay 0 steps, check yes
  max neighbors/atom: 2000, page size: 100000
  master list distance cutoff = 5.64464
  ghost atom cutoff = 5.64464
  binsize = 2.82232, bins = 2 2 2
  1 neighbor lists, perpetual/occasional/extra = 1 0 0
  (1) pair eam/alloy, perpetual
      attributes: half, newton on
      pair build: half/bin/newton/tri
      stencil: half/bin/3d/newton/tri
      bin: standard
Per MPI rank memory allocation (min/avg/max) = 4.086 | 4.086 | 4.086 Mbytes
Step Temp PotEng Press Pxx Pyy Pzz Pxy Pxz Pyz Lx Ly Lz Volume 
      74            0   -14.179255    1.7230497    1.5014198    2.1663095    1.5014198 2.6103225e-12 -8.8750964e-12 1.8272257e-11    3.4922256    3.4922221    3.4922256    42.589883 
      75            0   -14.179255    1.7230497    1.5014198    2.1663095    1.5014198 5.7166062e-11 -3.6544515e-12 6.5258062e-12    3.4922256    3.4922221    3.4922256    42.589883 
Loop time of 4.3869e-05 on 1 procs for 1 steps with 4 atoms

86.6% CPU use with 1 MPI tasks x no OpenMP threads

Minimization stats:
  Stopping criterion = force tolerance
  Energy initial, next-to-last, final = 
        -14.1792548079     -14.1792548079     -14.1792548079
  Force two-norm initial, final = 6.53457e-15 1.6818e-15
  Force max component initial, final = 3.38098e-15 9.29812e-16
  Final line search alpha, max atom move = 1 9.29812e-16
  Iterations, force evaluations = 1 2

MPI task timing breakdown:
Section |  min time  |  avg time  |  max time  |%varavg| %total
---------------------------------------------------------------
Pair    | 2.7895e-05 | 2.7895e-05 | 2.7895e-05 |   0.0 | 63.59
Neigh   | 0          | 0          | 0          |   0.0 |  0.00
Comm    | 5.9605e-06 | 5.9605e-06 | 5.9605e-06 |   0.0 | 13.59
Output  | 0          | 0          | 0          |   0.0 |  0.00
Modify  | 0          | 0          | 0          |   0.0 |  0.00
Other   |            | 1.001e-05  |            |       | 22.83

Nlocal:    4 ave 4 max 4 min
Histogram: 1 0 0 0 0 0 0 0 0 0
Nghost:    360 ave 360 max 360 min
Histogram: 1 0 0 0 0 0 0 0 0 0
Neighs:    156 ave 156 max 156 min
Histogram: 1 0 0 0 0 0 0 0 0 0

Total # of neighbors = 156
Ave neighs/atom = 39
Neighbor list builds = 0
Dangerous builds = 0

# Obtain new stress tensor

variable tmp equal pxx
variable pxx1 equal ${tmp}
variable pxx1 equal 1.50141975745521
variable tmp equal pyy
variable pyy1 equal ${tmp}
variable pyy1 equal 2.1663095169619
variable tmp equal pzz
variable pzz1 equal ${tmp}
variable pzz1 equal 1.5014197575069
variable tmp equal pxy
variable pxy1 equal ${tmp}
variable pxy1 equal 5.71660620923231e-11
variable tmp equal pxz
variable pxz1 equal ${tmp}
variable pxz1 equal -3.65445145795673e-12
variable tmp equal pyz
variable pyz1 equal ${tmp}
variable pyz1 equal 6.52580617492273e-12

# Compute elastic constant from pressure tensor

variable C1neg equal ${d1}
variable C1neg equal 150.141975738839
variable C2neg equal ${d2}
variable C2neg equal 216.630951677709
variable C3neg equal ${d3}
variable C3neg equal 150.141975732522
variable C4neg equal ${d4}
variable C4neg equal 1.69670856135092e-09
variable C5neg equal ${d5}
variable C5neg equal 2.3492842192305e-10
variable C6neg equal ${d6}
variable C6neg equal 6.60411496151216e-09

# Reset box and simulation parameters

clear
read_restart restart.equil remap
  triclinic box = (0.0122372 0.0122372 0.0122372) to (3.50446 3.50446 3.50446) with tilt (0 -0 0)
  1 by 1 by 1 MPI processor grid
  4 atoms
include potential.mod
mass 1 58.6934

group Ni type 1
4 atoms in group Ni

pair_style eam/alloy
pair_coeff * * /ufrc/phillpot/eragasa/pareto_optimization_3.5NN/rank_7/Ni_fcc.lmps_elastic/Ni.eam.alloy Ni

neighbor 1.0 bin
neigh_modify every 1 delay 0 check yes
thermo	1
thermo_style custom step temp pe press pxx pyy pzz pxy pxz pyz lx ly lz vol
thermo_modify norm no

# Positive deformation

variable delta equal ${up}*${len0}
variable delta equal 1e-06*${len0}
variable delta equal 1e-06*3.49222560559887
if "${dir} == 1" then    "change_box all x delta 0 ${delta} remap units box"
if "${dir} == 2" then    "change_box all y delta 0 ${delta} remap units box"
change_box all y delta 0 ${delta} remap units box
change_box all y delta 0 3.49222560559887e-06 remap units box
  triclinic box = (0.0122372 0.0122372 0.0122372) to (3.50446 3.50447 3.50446) with tilt (0 -0 0)
if "${dir} == 3" then    "change_box all z delta 0 ${delta} remap units box"
if "${dir} == 4" then    "change_box all yz delta ${delta} remap units box"
if "${dir} == 5" then    "change_box all xz delta ${delta} remap units box"
if "${dir} == 6" then    "change_box all xy delta ${delta} remap units box"

# Relax atoms positions

minimize ${etol} ${ftol} ${maxiter} ${maxeval}
minimize 0 ${ftol} ${maxiter} ${maxeval}
minimize 0 1e-10 ${maxiter} ${maxeval}
minimize 0 1e-10 100 ${maxeval}
minimize 0 1e-10 100 1000
Neighbor list info ...
  update every 1 steps, delay 0 steps, check yes
  max neighbors/atom: 2000, page size: 100000
  master list distance cutoff = 5.64464
  ghost atom cutoff = 5.64464
  binsize = 2.82232, bins = 2 2 2
  1 neighbor lists, perpetual/occasional/extra = 1 0 0
  (1) pair eam/alloy, perpetual
      attributes: half, newton on
      pair build: half/bin/newton/tri
      stencil: half/bin/3d/newton/tri
      bin: standard
Per MPI rank memory allocation (min/avg/max) = 4.086 | 4.086 | 4.086 Mbytes
Step Temp PotEng Press Pxx Pyy Pzz Pxy Pxz Pyz Lx Ly Lz Volume 
      74            0   -14.179255   -1.7230361   -1.5014065   -2.1662953   -1.5014065 6.5257931e-12 -7.8309517e-12 7.7787454e-11    3.4922256    3.4922291    3.4922256    42.589968 
      75            0   -14.179255   -1.7230361   -1.5014065   -2.1662953   -1.5014065 -2.6103172e-13 -1.8011189e-11 6.0037297e-11    3.4922256    3.4922291    3.4922256    42.589968 
Loop time of 4.41074e-05 on 1 procs for 1 steps with 4 atoms

88.4% CPU use with 1 MPI tasks x no OpenMP threads

Minimization stats:
  Stopping criterion = force tolerance
  Energy initial, next-to-last, final = 
        -14.1792548079     -14.1792548079     -14.1792548079
  Force two-norm initial, final = 5.83374e-15 1.74513e-15
  Force max component initial, final = 3.28904e-15 1.02696e-15
  Final line search alpha, max atom move = 1 1.02696e-15
  Iterations, force evaluations = 1 2

MPI task timing breakdown:
Section |  min time  |  avg time  |  max time  |%varavg| %total
---------------------------------------------------------------
Pair    | 2.7657e-05 | 2.7657e-05 | 2.7657e-05 |   0.0 | 62.70
Neigh   | 0          | 0          | 0          |   0.0 |  0.00
Comm    | 6.1989e-06 | 6.1989e-06 | 6.1989e-06 |   0.0 | 14.05
Output  | 0          | 0          | 0          |   0.0 |  0.00
Modify  | 0          | 0          | 0          |   0.0 |  0.00
Other   |            | 1.025e-05  |            |       | 23.24

Nlocal:    4 ave 4 max 4 min
Histogram: 1 0 0 0 0 0 0 0 0 0
Nghost:    360 ave 360 max 360 min
Histogram: 1 0 0 0 0 0 0 0 0 0
Neighs:    156 ave 156 max 156 min
Histogram: 1 0 0 0 0 0 0 0 0 0

Total # of neighbors = 156
Ave neighs/atom = 39
Neighbor list builds = 0
Dangerous builds = 0

# Obtain new stress tensor

variable tmp equal pe
variable e1 equal ${tmp}
variable e1 equal -14.1792548078995
variable tmp equal press
variable p1 equal ${tmp}
variable p1 equal -1.72303607060946
variable tmp equal pxx
variable pxx1 equal ${tmp}
variable pxx1 equal -1.50140647953869
variable tmp equal pyy
variable pyy1 equal ${tmp}
variable pyy1 equal -2.1662952526706
variable tmp equal pzz
variable pzz1 equal ${tmp}
variable pzz1 equal -1.50140647961908
variable tmp equal pxy
variable pxy1 equal ${tmp}
variable pxy1 equal -2.61031724932937e-13
variable tmp equal pxz
variable pxz1 equal ${tmp}
variable pxz1 equal -1.80111890203727e-11
variable tmp equal pyz
variable pyz1 equal ${tmp}
variable pyz1 equal 6.00372967345756e-11

# Compute elastic constant from pressure tensor

variable C1pos equal ${d1}
variable C1pos equal 150.140647960551
variable C2pos equal ${d2}
variable C2pos equal 216.629525285541
variable C3pos equal ${d3}
variable C3pos equal 150.140647980076
variable C4pos equal ${d4}
variable C4pos equal -7.04785761731621e-09
variable C5pos equal ${d5}
variable C5pos equal 1.20074533431855e-09
variable C6pos equal ${d6}
variable C6pos equal -8.61405579786559e-10

# Combine positive and negative

variable C1${dir} equal 0.5*(${C1neg}+${C1pos})
variable C12 equal 0.5*(${C1neg}+${C1pos})
variable C12 equal 0.5*(150.141975738839+${C1pos})
variable C12 equal 0.5*(150.141975738839+150.140647960551)
variable C2${dir} equal 0.5*(${C2neg}+${C2pos})
variable C22 equal 0.5*(${C2neg}+${C2pos})
variable C22 equal 0.5*(216.630951677709+${C2pos})
variable C22 equal 0.5*(216.630951677709+216.629525285541)
variable C3${dir} equal 0.5*(${C3neg}+${C3pos})
variable C32 equal 0.5*(${C3neg}+${C3pos})
variable C32 equal 0.5*(150.141975732522+${C3pos})
variable C32 equal 0.5*(150.141975732522+150.140647980076)
variable C4${dir} equal 0.5*(${C4neg}+${C4pos})
variable C42 equal 0.5*(${C4neg}+${C4pos})
variable C42 equal 0.5*(1.69670856135092e-09+${C4pos})
variable C42 equal 0.5*(1.69670856135092e-09+-7.04785761731621e-09)
variable C5${dir} equal 0.5*(${C5neg}+${C5pos})
variable C52 equal 0.5*(${C5neg}+${C5pos})
variable C52 equal 0.5*(2.3492842192305e-10+${C5pos})
variable C52 equal 0.5*(2.3492842192305e-10+1.20074533431855e-09)
variable C6${dir} equal 0.5*(${C6neg}+${C6pos})
variable C62 equal 0.5*(${C6neg}+${C6pos})
variable C62 equal 0.5*(6.60411496151216e-09+${C6pos})
variable C62 equal 0.5*(6.60411496151216e-09+-8.61405579786559e-10)

# Delete dir to make sure it is not reused

variable dir delete
# ---- uzz Perturbation
variable dir equal 3
include displace.mod
# NOTE: This script should not need to be
# modified. See in.elastic for more info.
# Find which reference length to use

if "${dir} == 1" then    "variable len0 equal ${lx0}"
if "${dir} == 2" then    "variable len0 equal ${ly0}"
if "${dir} == 3" then    "variable len0 equal ${lz0}"
variable len0 equal ${lz0}
variable len0 equal 3.49222560559887
if "${dir} == 4" then    "variable len0 equal ${lz0}"
if "${dir} == 5" then    "variable len0 equal ${lz0}"
if "${dir} == 6" then    "variable len0 equal ${ly0}"

# Reset box and simulation parameters

clear
read_restart restart.equil remap
  triclinic box = (0.0122372 0.0122372 0.0122372) to (3.50446 3.50446 3.50446) with tilt (0 -0 0)
  1 by 1 by 1 MPI processor grid
  4 atoms
include potential.mod
mass 1 58.6934

group Ni type 1
4 atoms in group Ni

pair_style eam/alloy
pair_coeff * * /ufrc/phillpot/eragasa/pareto_optimization_3.5NN/rank_7/Ni_fcc.lmps_elastic/Ni.eam.alloy Ni

neighbor 1.0 bin
neigh_modify every 1 delay 0 check yes
thermo	1
thermo_style custom step temp pe press pxx pyy pzz pxy pxz pyz lx ly lz vol
thermo_modify norm no

# Negative deformation

variable delta equal -${up}*${len0}
variable delta equal -1e-06*${len0}
variable delta equal -1e-06*3.49222560559887
if "${dir} == 1" then    "change_box all x delta 0 ${delta} remap units box"
if "${dir} == 2" then    "change_box all y delta 0 ${delta} remap units box"
if "${dir} == 3" then    "change_box all z delta 0 ${delta} remap units box"
change_box all z delta 0 ${delta} remap units box
change_box all z delta 0 -3.49222560559887e-06 remap units box
  triclinic box = (0.0122372 0.0122372 0.0122372) to (3.50446 3.50446 3.50446) with tilt (0 -0 0)
if "${dir} == 4" then    "change_box all yz delta ${delta} remap units box"
if "${dir} == 5" then    "change_box all xz delta ${delta} remap units box"
if "${dir} == 6" then    "change_box all xy delta ${delta} remap units box"

# Relax atoms positions

minimize ${etol} ${ftol} ${maxiter} ${maxeval}
minimize 0 ${ftol} ${maxiter} ${maxeval}
minimize 0 1e-10 ${maxiter} ${maxeval}
minimize 0 1e-10 100 ${maxeval}
minimize 0 1e-10 100 1000
Neighbor list info ...
  update every 1 steps, delay 0 steps, check yes
  max neighbors/atom: 2000, page size: 100000
  master list distance cutoff = 5.64464
  ghost atom cutoff = 5.64464
  binsize = 2.82232, bins = 2 2 2
  1 neighbor lists, perpetual/occasional/extra = 1 0 0
  (1) pair eam/alloy, perpetual
      attributes: half, newton on
      pair build: half/bin/newton/tri
      stencil: half/bin/3d/newton/tri
      bin: standard
Per MPI rank memory allocation (min/avg/max) = 4.086 | 4.086 | 4.086 Mbytes
Step Temp PotEng Press Pxx Pyy Pzz Pxy Pxz Pyz Lx Ly Lz Volume 
      74            0   -14.179255    1.7230497    1.5014198    1.5014198    2.1663095 -5.7427094e-12 2.6103225e-13 5.1945417e-11    3.4922256    3.4922256    3.4922221    42.589883 
      75            0   -14.179255    1.7230497    1.5014198    1.5014198    2.1663095 -1.044129e-12 -1.044129e-11 -3.6544515e-12    3.4922256    3.4922256    3.4922221    42.589883 
Loop time of 4.41074e-05 on 1 procs for 1 steps with 4 atoms

90.7% CPU use with 1 MPI tasks x no OpenMP threads

Minimization stats:
  Stopping criterion = force tolerance
  Energy initial, next-to-last, final = 
        -14.1792548079     -14.1792548079     -14.1792548079
  Force two-norm initial, final = 9.62653e-15 5.14802e-15
  Force max component initial, final = 4.34722e-15 3.75221e-15
  Final line search alpha, max atom move = 1 3.75221e-15
  Iterations, force evaluations = 1 2

MPI task timing breakdown:
Section |  min time  |  avg time  |  max time  |%varavg| %total
---------------------------------------------------------------
Pair    | 2.9087e-05 | 2.9087e-05 | 2.9087e-05 |   0.0 | 65.95
Neigh   | 0          | 0          | 0          |   0.0 |  0.00
Comm    | 5.9605e-06 | 5.9605e-06 | 5.9605e-06 |   0.0 | 13.51
Output  | 0          | 0          | 0          |   0.0 |  0.00
Modify  | 0          | 0          | 0          |   0.0 |  0.00
Other   |            | 9.06e-06   |            |       | 20.54

Nlocal:    4 ave 4 max 4 min
Histogram: 1 0 0 0 0 0 0 0 0 0
Nghost:    360 ave 360 max 360 min
Histogram: 1 0 0 0 0 0 0 0 0 0
Neighs:    156 ave 156 max 156 min
Histogram: 1 0 0 0 0 0 0 0 0 0

Total # of neighbors = 156
Ave neighs/atom = 39
Neighbor list builds = 0
Dangerous builds = 0

# Obtain new stress tensor

variable tmp equal pxx
variable pxx1 equal ${tmp}
variable pxx1 equal 1.50141975738943
variable tmp equal pyy
variable pyy1 equal ${tmp}
variable pyy1 equal 1.50141975726936
variable tmp equal pzz
variable pzz1 equal ${tmp}
variable pzz1 equal 2.16630951669017
variable tmp equal pxy
variable pxy1 equal ${tmp}
variable pxy1 equal -1.04412898798764e-12
variable tmp equal pxz
variable pxz1 equal ${tmp}
variable pxz1 equal -1.04412898798764e-11
variable tmp equal pyz
variable pyz1 equal ${tmp}
variable pyz1 equal -3.65445145795673e-12

# Compute elastic constant from pressure tensor

variable C1neg equal ${d1}
variable C1neg equal 150.141975732261
variable C2neg equal ${d2}
variable C2neg equal 150.141975708455
variable C3neg equal ${d3}
variable C3neg equal 216.630951650849
variable C4neg equal ${d4}
variable C4neg equal 6.78682798062977e-10
variable C5neg equal ${d5}
variable C5neg equal -4.43755420268917e-10
variable C6neg equal ${d6}
variable C6neg equal 7.83095853481088e-10

# Reset box and simulation parameters

clear
read_restart restart.equil remap
  triclinic box = (0.0122372 0.0122372 0.0122372) to (3.50446 3.50446 3.50446) with tilt (0 -0 0)
  1 by 1 by 1 MPI processor grid
  4 atoms
include potential.mod
mass 1 58.6934

group Ni type 1
4 atoms in group Ni

pair_style eam/alloy
pair_coeff * * /ufrc/phillpot/eragasa/pareto_optimization_3.5NN/rank_7/Ni_fcc.lmps_elastic/Ni.eam.alloy Ni

neighbor 1.0 bin
neigh_modify every 1 delay 0 check yes
thermo	1
thermo_style custom step temp pe press pxx pyy pzz pxy pxz pyz lx ly lz vol
thermo_modify norm no

# Positive deformation

variable delta equal ${up}*${len0}
variable delta equal 1e-06*${len0}
variable delta equal 1e-06*3.49222560559887
if "${dir} == 1" then    "change_box all x delta 0 ${delta} remap units box"
if "${dir} == 2" then    "change_box all y delta 0 ${delta} remap units box"
if "${dir} == 3" then    "change_box all z delta 0 ${delta} remap units box"
change_box all z delta 0 ${delta} remap units box
change_box all z delta 0 3.49222560559887e-06 remap units box
  triclinic box = (0.0122372 0.0122372 0.0122372) to (3.50446 3.50446 3.50447) with tilt (0 -0 0)
if "${dir} == 4" then    "change_box all yz delta ${delta} remap units box"
if "${dir} == 5" then    "change_box all xz delta ${delta} remap units box"
if "${dir} == 6" then    "change_box all xy delta ${delta} remap units box"

# Relax atoms positions

minimize ${etol} ${ftol} ${maxiter} ${maxeval}
minimize 0 ${ftol} ${maxiter} ${maxeval}
minimize 0 1e-10 ${maxiter} ${maxeval}
minimize 0 1e-10 100 ${maxeval}
minimize 0 1e-10 100 1000
Neighbor list info ...
  update every 1 steps, delay 0 steps, check yes
  max neighbors/atom: 2000, page size: 100000
  master list distance cutoff = 5.64464
  ghost atom cutoff = 5.64464
  binsize = 2.82232, bins = 2 2 2
  1 neighbor lists, perpetual/occasional/extra = 1 0 0
  (1) pair eam/alloy, perpetual
      attributes: half, newton on
      pair build: half/bin/newton/tri
      stencil: half/bin/3d/newton/tri
      bin: standard
Per MPI rank memory allocation (min/avg/max) = 4.086 | 4.086 | 4.086 Mbytes
Step Temp PotEng Press Pxx Pyy Pzz Pxy Pxz Pyz Lx Ly Lz Volume 
      74            0   -14.179255   -1.7230361   -1.5014065   -1.5014065   -2.1662953 -4.4375393e-12 9.9192055e-12 1.3834681e-11    3.4922256    3.4922256    3.4922291    42.589968 
      75            0   -14.179255   -1.7230361   -1.5014065   -1.5014065   -2.1662953 -1.5661903e-12 1.5661903e-12 5.9515233e-11    3.4922256    3.4922256    3.4922291    42.589968 
Loop time of 4.98295e-05 on 1 procs for 1 steps with 4 atoms

90.3% CPU use with 1 MPI tasks x no OpenMP threads

Minimization stats:
  Stopping criterion = force tolerance
  Energy initial, next-to-last, final = 
        -14.1792548079     -14.1792548079     -14.1792548079
  Force two-norm initial, final = 4.99483e-15 1.50145e-15
  Force max component initial, final = 3.00975e-15 9.18536e-16
  Final line search alpha, max atom move = 1 9.18536e-16
  Iterations, force evaluations = 1 2

MPI task timing breakdown:
Section |  min time  |  avg time  |  max time  |%varavg| %total
---------------------------------------------------------------
Pair    | 3.1948e-05 | 3.1948e-05 | 3.1948e-05 |   0.0 | 64.11
Neigh   | 0          | 0          | 0          |   0.0 |  0.00
Comm    | 5.9605e-06 | 5.9605e-06 | 5.9605e-06 |   0.0 | 11.96
Output  | 0          | 0          | 0          |   0.0 |  0.00
Modify  | 0          | 0          | 0          |   0.0 |  0.00
Other   |            | 1.192e-05  |            |       | 23.92

Nlocal:    4 ave 4 max 4 min
Histogram: 1 0 0 0 0 0 0 0 0 0
Nghost:    360 ave 360 max 360 min
Histogram: 1 0 0 0 0 0 0 0 0 0
Neighs:    156 ave 156 max 156 min
Histogram: 1 0 0 0 0 0 0 0 0 0

Total # of neighbors = 156
Ave neighs/atom = 39
Neighbor list builds = 0
Dangerous builds = 0

# Obtain new stress tensor

variable tmp equal pe
variable e1 equal ${tmp}
variable e1 equal -14.1792548078995
variable tmp equal press
variable p1 equal ${tmp}
variable p1 equal -1.72303607060632
variable tmp equal pxx
variable pxx1 equal ${tmp}
variable pxx1 equal -1.50140647954626
variable tmp equal pyy
variable pyy1 equal ${tmp}
variable pyy1 equal -1.50140647959298
variable tmp equal pzz
variable pzz1 equal ${tmp}
variable pzz1 equal -2.16629525267974
variable tmp equal pxy
variable pxy1 equal ${tmp}
variable pxy1 equal -1.56619034959762e-12
variable tmp equal pxz
variable pxz1 equal ${tmp}
variable pxz1 equal 1.56619034959762e-12
variable tmp equal pyz
variable pyz1 equal ${tmp}
variable pyz1 equal 5.95152332847097e-11

# Compute elastic constant from pressure tensor

variable C1pos equal ${d1}
variable C1pos equal 150.140647961308
variable C2pos equal ${d2}
variable C2pos equal 150.140647977779
variable C3pos equal ${d3}
variable C3pos equal 216.629525286142
variable C4pos equal ${d4}
variable C4pos equal -6.99565127232962e-09
variable C5pos equal ${d5}
variable C5pos equal -7.56992602678485e-10
variable C6pos equal ${d6}
variable C6pos equal -7.3088971732009e-10

# Combine positive and negative

variable C1${dir} equal 0.5*(${C1neg}+${C1pos})
variable C13 equal 0.5*(${C1neg}+${C1pos})
variable C13 equal 0.5*(150.141975732261+${C1pos})
variable C13 equal 0.5*(150.141975732261+150.140647961308)
variable C2${dir} equal 0.5*(${C2neg}+${C2pos})
variable C23 equal 0.5*(${C2neg}+${C2pos})
variable C23 equal 0.5*(150.141975708455+${C2pos})
variable C23 equal 0.5*(150.141975708455+150.140647977779)
variable C3${dir} equal 0.5*(${C3neg}+${C3pos})
variable C33 equal 0.5*(${C3neg}+${C3pos})
variable C33 equal 0.5*(216.630951650849+${C3pos})
variable C33 equal 0.5*(216.630951650849+216.629525286142)
variable C4${dir} equal 0.5*(${C4neg}+${C4pos})
variable C43 equal 0.5*(${C4neg}+${C4pos})
variable C43 equal 0.5*(6.78682798062977e-10+${C4pos})
variable C43 equal 0.5*(6.78682798062977e-10+-6.99565127232962e-09)
variable C5${dir} equal 0.5*(${C5neg}+${C5pos})
variable C53 equal 0.5*(${C5neg}+${C5pos})
variable C53 equal 0.5*(-4.43755420268917e-10+${C5pos})
variable C53 equal 0.5*(-4.43755420268917e-10+-7.56992602678485e-10)
variable C6${dir} equal 0.5*(${C6neg}+${C6pos})
variable C63 equal 0.5*(${C6neg}+${C6pos})
variable C63 equal 0.5*(7.83095853481088e-10+${C6pos})
variable C63 equal 0.5*(7.83095853481088e-10+-7.3088971732009e-10)

# Delete dir to make sure it is not reused

variable dir delete
# ---- uyz Perturbation
variable dir equal 4
include displace.mod
# NOTE: This script should not need to be
# modified. See in.elastic for more info.
# Find which reference length to use

if "${dir} == 1" then    "variable len0 equal ${lx0}"
if "${dir} == 2" then    "variable len0 equal ${ly0}"
if "${dir} == 3" then    "variable len0 equal ${lz0}"
if "${dir} == 4" then    "variable len0 equal ${lz0}"
variable len0 equal ${lz0}
variable len0 equal 3.49222560559887
if "${dir} == 5" then    "variable len0 equal ${lz0}"
if "${dir} == 6" then    "variable len0 equal ${ly0}"

# Reset box and simulation parameters

clear
read_restart restart.equil remap
  triclinic box = (0.0122372 0.0122372 0.0122372) to (3.50446 3.50446 3.50446) with tilt (0 -0 0)
  1 by 1 by 1 MPI processor grid
  4 atoms
include potential.mod
mass 1 58.6934

group Ni type 1
4 atoms in group Ni

pair_style eam/alloy
pair_coeff * * /ufrc/phillpot/eragasa/pareto_optimization_3.5NN/rank_7/Ni_fcc.lmps_elastic/Ni.eam.alloy Ni

neighbor 1.0 bin
neigh_modify every 1 delay 0 check yes
thermo	1
thermo_style custom step temp pe press pxx pyy pzz pxy pxz pyz lx ly lz vol
thermo_modify norm no

# Negative deformation

variable delta equal -${up}*${len0}
variable delta equal -1e-06*${len0}
variable delta equal -1e-06*3.49222560559887
if "${dir} == 1" then    "change_box all x delta 0 ${delta} remap units box"
if "${dir} == 2" then    "change_box all y delta 0 ${delta} remap units box"
if "${dir} == 3" then    "change_box all z delta 0 ${delta} remap units box"
if "${dir} == 4" then    "change_box all yz delta ${delta} remap units box"
change_box all yz delta ${delta} remap units box
change_box all yz delta -3.49222560559887e-06 remap units box
  triclinic box = (0.0122372 0.0122372 0.0122372) to (3.50446 3.50446 3.50446) with tilt (0 -0 -3.49223e-06)
if "${dir} == 5" then    "change_box all xz delta ${delta} remap units box"
if "${dir} == 6" then    "change_box all xy delta ${delta} remap units box"

# Relax atoms positions

minimize ${etol} ${ftol} ${maxiter} ${maxeval}
minimize 0 ${ftol} ${maxiter} ${maxeval}
minimize 0 1e-10 ${maxiter} ${maxeval}
minimize 0 1e-10 100 ${maxeval}
minimize 0 1e-10 100 1000
Neighbor list info ...
  update every 1 steps, delay 0 steps, check yes
  max neighbors/atom: 2000, page size: 100000
  master list distance cutoff = 5.64464
  ghost atom cutoff = 5.64464
  binsize = 2.82232, bins = 2 2 2
  1 neighbor lists, perpetual/occasional/extra = 1 0 0
  (1) pair eam/alloy, perpetual
      attributes: half, newton on
      pair build: half/bin/newton/tri
      stencil: half/bin/3d/newton/tri
      bin: standard
Per MPI rank memory allocation (min/avg/max) = 4.086 | 4.086 | 4.086 Mbytes
Step Temp PotEng Press Pxx Pyy Pzz Pxy Pxz Pyz Lx Ly Lz Volume 
      74            0   -14.179255 2.0611922e-06 -6.0812596e-07 2.5250736e-06 4.2666289e-06 5.0640205e-11 -6.8912444e-11    1.0369563    3.4922256    3.4922256    3.4922256    42.589925 
      75            0   -14.179255 2.0614569e-06 -6.0783647e-07 2.5253156e-06 4.2668915e-06 -5.4816717e-12 -7.8309596e-13    1.0369563    3.4922256    3.4922256    3.4922256    42.589925 
Loop time of 5.10216e-05 on 1 procs for 1 steps with 4 atoms

90.2% CPU use with 1 MPI tasks x no OpenMP threads

Minimization stats:
  Stopping criterion = force tolerance
  Energy initial, next-to-last, final = 
        -14.1792548079     -14.1792548079     -14.1792548079
  Force two-norm initial, final = 7.03228e-15 1.64296e-15
  Force max component initial, final = 4.14252e-15 9.57567e-16
  Final line search alpha, max atom move = 1 9.57567e-16
  Iterations, force evaluations = 1 2

MPI task timing breakdown:
Section |  min time  |  avg time  |  max time  |%varavg| %total
---------------------------------------------------------------
Pair    | 3.1948e-05 | 3.1948e-05 | 3.1948e-05 |   0.0 | 62.62
Neigh   | 0          | 0          | 0          |   0.0 |  0.00
Comm    | 6.9141e-06 | 6.9141e-06 | 6.9141e-06 |   0.0 | 13.55
Output  | 0          | 0          | 0          |   0.0 |  0.00
Modify  | 0          | 0          | 0          |   0.0 |  0.00
Other   |            | 1.216e-05  |            |       | 23.83

Nlocal:    4 ave 4 max 4 min
Histogram: 1 0 0 0 0 0 0 0 0 0
Nghost:    360 ave 360 max 360 min
Histogram: 1 0 0 0 0 0 0 0 0 0
Neighs:    156 ave 156 max 156 min
Histogram: 1 0 0 0 0 0 0 0 0 0

Total # of neighbors = 156
Ave neighs/atom = 39
Neighbor list builds = 0
Dangerous builds = 0

# Obtain new stress tensor

variable tmp equal pxx
variable pxx1 equal ${tmp}
variable pxx1 equal -6.07836472197453e-07
variable tmp equal pyy
variable pyy1 equal ${tmp}
variable pyy1 equal 2.52531557651319e-06
variable tmp equal pzz
variable pzz1 equal ${tmp}
variable pzz1 equal 4.266891490255e-06
variable tmp equal pxy
variable pxy1 equal ${tmp}
variable pxy1 equal -5.48167170525791e-12
variable tmp equal pxz
variable pxz1 equal ${tmp}
variable pxz1 equal -7.83095957893987e-13
variable tmp equal pyz
variable pyz1 equal ${tmp}
variable pyz1 equal 1.03695625578653

# Compute elastic constant from pressure tensor

variable C1neg equal ${d1}
variable C1neg equal -6.0790329638586e-05
variable C2neg equal ${d2}
variable C2neg equal 0.000252513076586713
variable C3neg equal ${d3}
variable C3neg equal 0.000426670981199277
variable C4neg equal ${d4}
variable C4neg equal 103.695625579697
variable C5neg equal ${d5}
variable C5neg equal 5.22063971929324e-10
variable C6neg equal ${d6}
variable C6neg equal 3.39341581754061e-10

# Reset box and simulation parameters

clear
read_restart restart.equil remap
  triclinic box = (0.0122372 0.0122372 0.0122372) to (3.50446 3.50446 3.50446) with tilt (0 -0 0)
  1 by 1 by 1 MPI processor grid
  4 atoms
include potential.mod
mass 1 58.6934

group Ni type 1
4 atoms in group Ni

pair_style eam/alloy
pair_coeff * * /ufrc/phillpot/eragasa/pareto_optimization_3.5NN/rank_7/Ni_fcc.lmps_elastic/Ni.eam.alloy Ni

neighbor 1.0 bin
neigh_modify every 1 delay 0 check yes
thermo	1
thermo_style custom step temp pe press pxx pyy pzz pxy pxz pyz lx ly lz vol
thermo_modify norm no

# Positive deformation

variable delta equal ${up}*${len0}
variable delta equal 1e-06*${len0}
variable delta equal 1e-06*3.49222560559887
if "${dir} == 1" then    "change_box all x delta 0 ${delta} remap units box"
if "${dir} == 2" then    "change_box all y delta 0 ${delta} remap units box"
if "${dir} == 3" then    "change_box all z delta 0 ${delta} remap units box"
if "${dir} == 4" then    "change_box all yz delta ${delta} remap units box"
change_box all yz delta ${delta} remap units box
change_box all yz delta 3.49222560559887e-06 remap units box
  triclinic box = (0.0122372 0.0122372 0.0122372) to (3.50446 3.50446 3.50446) with tilt (0 -0 3.49223e-06)
if "${dir} == 5" then    "change_box all xz delta ${delta} remap units box"
if "${dir} == 6" then    "change_box all xy delta ${delta} remap units box"

# Relax atoms positions

minimize ${etol} ${ftol} ${maxiter} ${maxeval}
minimize 0 ${ftol} ${maxiter} ${maxeval}
minimize 0 1e-10 ${maxiter} ${maxeval}
minimize 0 1e-10 100 ${maxeval}
minimize 0 1e-10 100 1000
Neighbor list info ...
  update every 1 steps, delay 0 steps, check yes
  max neighbors/atom: 2000, page size: 100000
  master list distance cutoff = 5.64464
  ghost atom cutoff = 5.64464
  binsize = 2.82232, bins = 2 2 2
  1 neighbor lists, perpetual/occasional/extra = 1 0 0
  (1) pair eam/alloy, perpetual
      attributes: half, newton on
      pair build: half/bin/newton/tri
      stencil: half/bin/3d/newton/tri
      bin: standard
Per MPI rank memory allocation (min/avg/max) = 4.086 | 4.086 | 4.086 Mbytes
Step Temp PotEng Press Pxx Pyy Pzz Pxy Pxz Pyz Lx Ly Lz Volume 
      74            0   -14.179255 2.0613845e-06 -6.0793436e-07 2.5253226e-06 4.2667652e-06 -4.9596077e-12 -5.6904973e-11   -1.0369563    3.4922256    3.4922256    3.4922256    42.589925 
      75            0   -14.179255 2.0615181e-06 -6.0778923e-07 2.5255048e-06 4.2668388e-06 -2.8452486e-11 -1.3051599e-11   -1.0369563    3.4922256    3.4922256    3.4922256    42.589925 
Loop time of 5.07832e-05 on 1 procs for 1 steps with 4 atoms

88.6% CPU use with 1 MPI tasks x no OpenMP threads

Minimization stats:
  Stopping criterion = force tolerance
  Energy initial, next-to-last, final = 
        -14.1792548079     -14.1792548079     -14.1792548079
  Force two-norm initial, final = 2.13791e-14 5.51068e-15
  Force max component initial, final = 1.29775e-14 3.08087e-15
  Final line search alpha, max atom move = 1 3.08087e-15
  Iterations, force evaluations = 1 2

MPI task timing breakdown:
Section |  min time  |  avg time  |  max time  |%varavg| %total
---------------------------------------------------------------
Pair    | 3.2187e-05 | 3.2187e-05 | 3.2187e-05 |   0.0 | 63.38
Neigh   | 0          | 0          | 0          |   0.0 |  0.00
Comm    | 5.722e-06  | 5.722e-06  | 5.722e-06  |   0.0 | 11.27
Output  | 0          | 0          | 0          |   0.0 |  0.00
Modify  | 0          | 0          | 0          |   0.0 |  0.00
Other   |            | 1.287e-05  |            |       | 25.35

Nlocal:    4 ave 4 max 4 min
Histogram: 1 0 0 0 0 0 0 0 0 0
Nghost:    360 ave 360 max 360 min
Histogram: 1 0 0 0 0 0 0 0 0 0
Neighs:    156 ave 156 max 156 min
Histogram: 1 0 0 0 0 0 0 0 0 0

Total # of neighbors = 156
Ave neighs/atom = 39
Neighbor list builds = 0
Dangerous builds = 0

# Obtain new stress tensor

variable tmp equal pe
variable e1 equal ${tmp}
variable e1 equal -14.1792548079144
variable tmp equal press
variable p1 equal ${tmp}
variable p1 equal 2.06151812036295e-06
variable tmp equal pxx
variable pxx1 equal ${tmp}
variable pxx1 equal -6.07789225407993e-07
variable tmp equal pyy
variable pyy1 equal ${tmp}
variable pyy1 equal 2.52550482470301e-06
variable tmp equal pzz
variable pzz1 equal ${tmp}
variable pzz1 equal 4.26683876179384e-06
variable tmp equal pxy
variable pxy1 equal ${tmp}
variable pxy1 equal -2.84524864701482e-11
variable tmp equal pxz
variable pxz1 equal ${tmp}
variable pxz1 equal -1.30515992982331e-11
variable tmp equal pyz
variable pyz1 equal ${tmp}
variable pyz1 equal -1.03695625562782

# Compute elastic constant from pressure tensor

variable C1pos equal ${d1}
variable C1pos equal 6.078560495964e-05
variable C2pos equal ${d2}
variable C2pos equal -0.000252532001405695
variable C3pos equal ${d3}
variable C3pos equal -0.000426665708353161
variable C4pos equal ${d4}
variable C4pos equal 103.695625561738
variable C5pos equal ${d5}
variable C5pos equal 7.04786362104587e-10
variable C6pos equal ${d6}
variable C6pos equal 1.95773989473497e-09

# Combine positive and negative

variable C1${dir} equal 0.5*(${C1neg}+${C1pos})
variable C14 equal 0.5*(${C1neg}+${C1pos})
variable C14 equal 0.5*(-6.0790329638586e-05+${C1pos})
variable C14 equal 0.5*(-6.0790329638586e-05+6.078560495964e-05)
variable C2${dir} equal 0.5*(${C2neg}+${C2pos})
variable C24 equal 0.5*(${C2neg}+${C2pos})
variable C24 equal 0.5*(0.000252513076586713+${C2pos})
variable C24 equal 0.5*(0.000252513076586713+-0.000252532001405695)
variable C3${dir} equal 0.5*(${C3neg}+${C3pos})
variable C34 equal 0.5*(${C3neg}+${C3pos})
variable C34 equal 0.5*(0.000426670981199277+${C3pos})
variable C34 equal 0.5*(0.000426670981199277+-0.000426665708353161)
variable C4${dir} equal 0.5*(${C4neg}+${C4pos})
variable C44 equal 0.5*(${C4neg}+${C4pos})
variable C44 equal 0.5*(103.695625579697+${C4pos})
variable C44 equal 0.5*(103.695625579697+103.695625561738)
variable C5${dir} equal 0.5*(${C5neg}+${C5pos})
variable C54 equal 0.5*(${C5neg}+${C5pos})
variable C54 equal 0.5*(5.22063971929324e-10+${C5pos})
variable C54 equal 0.5*(5.22063971929324e-10+7.04786362104587e-10)
variable C6${dir} equal 0.5*(${C6neg}+${C6pos})
variable C64 equal 0.5*(${C6neg}+${C6pos})
variable C64 equal 0.5*(3.39341581754061e-10+${C6pos})
variable C64 equal 0.5*(3.39341581754061e-10+1.95773989473497e-09)

# Delete dir to make sure it is not reused

variable dir delete
# ---- uxz Perturbation
variable dir equal 5
include displace.mod
# NOTE: This script should not need to be
# modified. See in.elastic for more info.
# Find which reference length to use

if "${dir} == 1" then    "variable len0 equal ${lx0}"
if "${dir} == 2" then    "variable len0 equal ${ly0}"
if "${dir} == 3" then    "variable len0 equal ${lz0}"
if "${dir} == 4" then    "variable len0 equal ${lz0}"
if "${dir} == 5" then    "variable len0 equal ${lz0}"
variable len0 equal ${lz0}
variable len0 equal 3.49222560559887
if "${dir} == 6" then    "variable len0 equal ${ly0}"

# Reset box and simulation parameters

clear
read_restart restart.equil remap
  triclinic box = (0.0122372 0.0122372 0.0122372) to (3.50446 3.50446 3.50446) with tilt (0 -0 0)
  1 by 1 by 1 MPI processor grid
  4 atoms
include potential.mod
mass 1 58.6934

group Ni type 1
4 atoms in group Ni

pair_style eam/alloy
pair_coeff * * /ufrc/phillpot/eragasa/pareto_optimization_3.5NN/rank_7/Ni_fcc.lmps_elastic/Ni.eam.alloy Ni

neighbor 1.0 bin
neigh_modify every 1 delay 0 check yes
thermo	1
thermo_style custom step temp pe press pxx pyy pzz pxy pxz pyz lx ly lz vol
thermo_modify norm no

# Negative deformation

variable delta equal -${up}*${len0}
variable delta equal -1e-06*${len0}
variable delta equal -1e-06*3.49222560559887
if "${dir} == 1" then    "change_box all x delta 0 ${delta} remap units box"
if "${dir} == 2" then    "change_box all y delta 0 ${delta} remap units box"
if "${dir} == 3" then    "change_box all z delta 0 ${delta} remap units box"
if "${dir} == 4" then    "change_box all yz delta ${delta} remap units box"
if "${dir} == 5" then    "change_box all xz delta ${delta} remap units box"
change_box all xz delta ${delta} remap units box
change_box all xz delta -3.49222560559887e-06 remap units box
  triclinic box = (0.0122372 0.0122372 0.0122372) to (3.50446 3.50446 3.50446) with tilt (0 -3.49223e-06 0)
if "${dir} == 6" then    "change_box all xy delta ${delta} remap units box"

# Relax atoms positions

minimize ${etol} ${ftol} ${maxiter} ${maxeval}
minimize 0 ${ftol} ${maxiter} ${maxeval}
minimize 0 1e-10 ${maxiter} ${maxeval}
minimize 0 1e-10 100 ${maxeval}
minimize 0 1e-10 100 1000
Neighbor list info ...
  update every 1 steps, delay 0 steps, check yes
  max neighbors/atom: 2000, page size: 100000
  master list distance cutoff = 5.64464
  ghost atom cutoff = 5.64464
  binsize = 2.82232, bins = 2 2 2
  1 neighbor lists, perpetual/occasional/extra = 1 0 0
  (1) pair eam/alloy, perpetual
      attributes: half, newton on
      pair build: half/bin/newton/tri
      stencil: half/bin/3d/newton/tri
      bin: standard
Per MPI rank memory allocation (min/avg/max) = 4.086 | 4.086 | 4.086 Mbytes
Step Temp PotEng Press Pxx Pyy Pzz Pxy Pxz Pyz Lx Ly Lz Volume 
      74            0   -14.179255 2.0612799e-06 2.5251968e-06 -6.0804295e-07 4.2666858e-06 -2.7669391e-11    1.0369563 -6.0037357e-11    3.4922256    3.4922256    3.4922256    42.589925 
      75            0   -14.179255 2.0613201e-06 2.5252276e-06 -6.0801946e-07 4.2667521e-06 4.3853374e-11    1.0369563 2.6103199e-13    3.4922256    3.4922256    3.4922256    42.589925 
Loop time of 5.10216e-05 on 1 procs for 1 steps with 4 atoms

90.2% CPU use with 1 MPI tasks x no OpenMP threads

Minimization stats:
  Stopping criterion = force tolerance
  Energy initial, next-to-last, final = 
        -14.1792548079     -14.1792548079     -14.1792548079
  Force two-norm initial, final = 8.02321e-15 3.31937e-15
  Force max component initial, final = 3.81205e-15 2.08167e-15
  Final line search alpha, max atom move = 1 2.08167e-15
  Iterations, force evaluations = 1 2

MPI task timing breakdown:
Section |  min time  |  avg time  |  max time  |%varavg| %total
---------------------------------------------------------------
Pair    | 3.1948e-05 | 3.1948e-05 | 3.1948e-05 |   0.0 | 62.62
Neigh   | 0          | 0          | 0          |   0.0 |  0.00
Comm    | 7.1526e-06 | 7.1526e-06 | 7.1526e-06 |   0.0 | 14.02
Output  | 0          | 0          | 0          |   0.0 |  0.00
Modify  | 0          | 0          | 0          |   0.0 |  0.00
Other   |            | 1.192e-05  |            |       | 23.36

Nlocal:    4 ave 4 max 4 min
Histogram: 1 0 0 0 0 0 0 0 0 0
Nghost:    360 ave 360 max 360 min
Histogram: 1 0 0 0 0 0 0 0 0 0
Neighs:    156 ave 156 max 156 min
Histogram: 1 0 0 0 0 0 0 0 0 0

Total # of neighbors = 156
Ave neighs/atom = 39
Neighbor list builds = 0
Dangerous builds = 0

# Obtain new stress tensor

variable tmp equal pxx
variable pxx1 equal ${tmp}
variable pxx1 equal 2.52522760873392e-06
variable tmp equal pyy
variable pyy1 equal ${tmp}
variable pyy1 equal -6.08019455619614e-07
variable tmp equal pzz
variable pzz1 equal ${tmp}
variable pzz1 equal 4.2667520991745e-06
variable tmp equal pxy
variable pxy1 equal ${tmp}
variable pxy1 equal 4.38533736420633e-11
variable tmp equal pxz
variable pxz1 equal ${tmp}
variable pxz1 equal 1.03695625579279
variable tmp equal pyz
variable pyz1 equal ${tmp}
variable pyz1 equal 2.61031985964662e-13

# Compute elastic constant from pressure tensor

variable C1neg equal ${d1}
variable C1neg equal 0.000252516078454551
variable C2neg equal ${d2}
variable C2neg equal -6.08204266265677e-05
variable C3neg equal ${d3}
variable C3neg equal 0.000426657042091227
variable C4neg equal ${d4}
variable C4neg equal 1.07023114245512e-09
variable C5neg equal ${d5}
variable C5neg equal 103.695625579879
variable C6neg equal ${d6}
variable C6neg equal 5.27284611648618e-09

# Reset box and simulation parameters

clear
read_restart restart.equil remap
  triclinic box = (0.0122372 0.0122372 0.0122372) to (3.50446 3.50446 3.50446) with tilt (0 -0 0)
  1 by 1 by 1 MPI processor grid
  4 atoms
include potential.mod
mass 1 58.6934

group Ni type 1
4 atoms in group Ni

pair_style eam/alloy
pair_coeff * * /ufrc/phillpot/eragasa/pareto_optimization_3.5NN/rank_7/Ni_fcc.lmps_elastic/Ni.eam.alloy Ni

neighbor 1.0 bin
neigh_modify every 1 delay 0 check yes
thermo	1
thermo_style custom step temp pe press pxx pyy pzz pxy pxz pyz lx ly lz vol
thermo_modify norm no

# Positive deformation

variable delta equal ${up}*${len0}
variable delta equal 1e-06*${len0}
variable delta equal 1e-06*3.49222560559887
if "${dir} == 1" then    "change_box all x delta 0 ${delta} remap units box"
if "${dir} == 2" then    "change_box all y delta 0 ${delta} remap units box"
if "${dir} == 3" then    "change_box all z delta 0 ${delta} remap units box"
if "${dir} == 4" then    "change_box all yz delta ${delta} remap units box"
if "${dir} == 5" then    "change_box all xz delta ${delta} remap units box"
change_box all xz delta ${delta} remap units box
change_box all xz delta 3.49222560559887e-06 remap units box
  triclinic box = (0.0122372 0.0122372 0.0122372) to (3.50446 3.50446 3.50446) with tilt (0 3.49223e-06 0)
if "${dir} == 6" then    "change_box all xy delta ${delta} remap units box"

# Relax atoms positions

minimize ${etol} ${ftol} ${maxiter} ${maxeval}
minimize 0 ${ftol} ${maxiter} ${maxeval}
minimize 0 1e-10 ${maxiter} ${maxeval}
minimize 0 1e-10 100 ${maxeval}
minimize 0 1e-10 100 1000
Neighbor list info ...
  update every 1 steps, delay 0 steps, check yes
  max neighbors/atom: 2000, page size: 100000
  master list distance cutoff = 5.64464
  ghost atom cutoff = 5.64464
  binsize = 2.82232, bins = 2 2 2
  1 neighbor lists, perpetual/occasional/extra = 1 0 0
  (1) pair eam/alloy, perpetual
      attributes: half, newton on
      pair build: half/bin/newton/tri
      stencil: half/bin/3d/newton/tri
      bin: standard
Per MPI rank memory allocation (min/avg/max) = 4.086 | 4.086 | 4.086 Mbytes
Step Temp PotEng Press Pxx Pyy Pzz Pxy Pxz Pyz Lx Ly Lz Volume 
      74            0   -14.179255 2.0614093e-06 2.5253801e-06 -6.0794193e-07 4.2667897e-06 -5.2206397e-12   -1.0369563 -6.1603549e-11    3.4922256    3.4922256    3.4922256    42.589925 
      75            0   -14.179255 2.061279e-06 2.5251895e-06 -6.0805182e-07 4.2666994e-06 5.2989493e-11   -1.0369563 -6.0037357e-12    3.4922256    3.4922256    3.4922256    42.589925 
Loop time of 4.60148e-05 on 1 procs for 1 steps with 4 atoms

100.0% CPU use with 1 MPI tasks x no OpenMP threads

Minimization stats:
  Stopping criterion = force tolerance
  Energy initial, next-to-last, final = 
        -14.1792548079     -14.1792548079     -14.1792548079
  Force two-norm initial, final = 1.77384e-14 3.95304e-15
  Force max component initial, final = 9.27036e-15 2.16493e-15
  Final line search alpha, max atom move = 1 2.16493e-15
  Iterations, force evaluations = 1 2

MPI task timing breakdown:
Section |  min time  |  avg time  |  max time  |%varavg| %total
---------------------------------------------------------------
Pair    | 2.7895e-05 | 2.7895e-05 | 2.7895e-05 |   0.0 | 60.62
Neigh   | 0          | 0          | 0          |   0.0 |  0.00
Comm    | 7.1526e-06 | 7.1526e-06 | 7.1526e-06 |   0.0 | 15.54
Output  | 0          | 0          | 0          |   0.0 |  0.00
Modify  | 0          | 0          | 0          |   0.0 |  0.00
Other   |            | 1.097e-05  |            |       | 23.83

Nlocal:    4 ave 4 max 4 min
Histogram: 1 0 0 0 0 0 0 0 0 0
Nghost:    360 ave 360 max 360 min
Histogram: 1 0 0 0 0 0 0 0 0 0
Neighs:    156 ave 156 max 156 min
Histogram: 1 0 0 0 0 0 0 0 0 0

Total # of neighbors = 156
Ave neighs/atom = 39
Neighbor list builds = 0
Dangerous builds = 0

# Obtain new stress tensor

variable tmp equal pe
variable e1 equal ${tmp}
variable e1 equal -14.1792548079144
variable tmp equal press
variable p1 equal ${tmp}
variable p1 equal 2.06127901506381e-06
variable tmp equal pxx
variable pxx1 equal ${tmp}
variable pxx1 equal 2.52518949806397e-06
variable tmp equal pyy
variable pyy1 equal ${tmp}
variable pyy1 equal -6.08051823585874e-07
variable tmp equal pzz
variable pzz1 equal ${tmp}
variable pzz1 equal 4.26669937071333e-06
variable tmp equal pxy
variable pxy1 equal ${tmp}
variable pxy1 equal 5.29894931508264e-11
variable tmp equal pxz
variable pxz1 equal ${tmp}
variable pxz1 equal -1.03695625569204
variable tmp equal pyz
variable pyz1 equal ${tmp}
variable pyz1 equal -6.00373567718723e-12

# Compute elastic constant from pressure tensor

variable C1pos equal ${d1}
variable C1pos equal -0.000252512267387556
variable C2pos equal ${d2}
variable C2pos equal 6.08236634231937e-05
variable C3pos equal ${d3}
variable C3pos equal -0.00042665176924511
variable C4pos equal ${d4}
variable C4pos equal -4.43754376139927e-10
variable C5pos equal ${d5}
variable C5pos equal 103.695625568604
variable C6pos equal ${d6}
variable C6pos equal -6.18645806736249e-09

# Combine positive and negative

variable C1${dir} equal 0.5*(${C1neg}+${C1pos})
variable C15 equal 0.5*(${C1neg}+${C1pos})
variable C15 equal 0.5*(0.000252516078454551+${C1pos})
variable C15 equal 0.5*(0.000252516078454551+-0.000252512267387556)
variable C2${dir} equal 0.5*(${C2neg}+${C2pos})
variable C25 equal 0.5*(${C2neg}+${C2pos})
variable C25 equal 0.5*(-6.08204266265677e-05+${C2pos})
variable C25 equal 0.5*(-6.08204266265677e-05+6.08236634231937e-05)
variable C3${dir} equal 0.5*(${C3neg}+${C3pos})
variable C35 equal 0.5*(${C3neg}+${C3pos})
variable C35 equal 0.5*(0.000426657042091227+${C3pos})
variable C35 equal 0.5*(0.000426657042091227+-0.00042665176924511)
variable C4${dir} equal 0.5*(${C4neg}+${C4pos})
variable C45 equal 0.5*(${C4neg}+${C4pos})
variable C45 equal 0.5*(1.07023114245512e-09+${C4pos})
variable C45 equal 0.5*(1.07023114245512e-09+-4.43754376139927e-10)
variable C5${dir} equal 0.5*(${C5neg}+${C5pos})
variable C55 equal 0.5*(${C5neg}+${C5pos})
variable C55 equal 0.5*(103.695625579879+${C5pos})
variable C55 equal 0.5*(103.695625579879+103.695625568604)
variable C6${dir} equal 0.5*(${C6neg}+${C6pos})
variable C65 equal 0.5*(${C6neg}+${C6pos})
variable C65 equal 0.5*(5.27284611648618e-09+${C6pos})
variable C65 equal 0.5*(5.27284611648618e-09+-6.18645806736249e-09)

# Delete dir to make sure it is not reused

variable dir delete
# ---- uxy Perturbation
variable dir equal 6
include displace.mod
# NOTE: This script should not need to be
# modified. See in.elastic for more info.
# Find which reference length to use

if "${dir} == 1" then    "variable len0 equal ${lx0}"
if "${dir} == 2" then    "variable len0 equal ${ly0}"
if "${dir} == 3" then    "variable len0 equal ${lz0}"
if "${dir} == 4" then    "variable len0 equal ${lz0}"
if "${dir} == 5" then    "variable len0 equal ${lz0}"
if "${dir} == 6" then    "variable len0 equal ${ly0}"
variable len0 equal ${ly0}
variable len0 equal 3.49222560559887

# Reset box and simulation parameters

clear
read_restart restart.equil remap
  triclinic box = (0.0122372 0.0122372 0.0122372) to (3.50446 3.50446 3.50446) with tilt (0 -0 0)
  1 by 1 by 1 MPI processor grid
  4 atoms
include potential.mod
mass 1 58.6934

group Ni type 1
4 atoms in group Ni

pair_style eam/alloy
pair_coeff * * /ufrc/phillpot/eragasa/pareto_optimization_3.5NN/rank_7/Ni_fcc.lmps_elastic/Ni.eam.alloy Ni

neighbor 1.0 bin
neigh_modify every 1 delay 0 check yes
thermo	1
thermo_style custom step temp pe press pxx pyy pzz pxy pxz pyz lx ly lz vol
thermo_modify norm no

# Negative deformation

variable delta equal -${up}*${len0}
variable delta equal -1e-06*${len0}
variable delta equal -1e-06*3.49222560559887
if "${dir} == 1" then    "change_box all x delta 0 ${delta} remap units box"
if "${dir} == 2" then    "change_box all y delta 0 ${delta} remap units box"
if "${dir} == 3" then    "change_box all z delta 0 ${delta} remap units box"
if "${dir} == 4" then    "change_box all yz delta ${delta} remap units box"
if "${dir} == 5" then    "change_box all xz delta ${delta} remap units box"
if "${dir} == 6" then    "change_box all xy delta ${delta} remap units box"
change_box all xy delta ${delta} remap units box
change_box all xy delta -3.49222560559887e-06 remap units box
  triclinic box = (0.0122372 0.0122372 0.0122372) to (3.50446 3.50446 3.50446) with tilt (-3.49223e-06 -0 0)

# Relax atoms positions

minimize ${etol} ${ftol} ${maxiter} ${maxeval}
minimize 0 ${ftol} ${maxiter} ${maxeval}
minimize 0 1e-10 ${maxiter} ${maxeval}
minimize 0 1e-10 100 ${maxeval}
minimize 0 1e-10 100 1000
Neighbor list info ...
  update every 1 steps, delay 0 steps, check yes
  max neighbors/atom: 2000, page size: 100000
  master list distance cutoff = 5.64464
  ghost atom cutoff = 5.64464
  binsize = 2.82232, bins = 2 2 2
  1 neighbor lists, perpetual/occasional/extra = 1 0 0
  (1) pair eam/alloy, perpetual
      attributes: half, newton on
      pair build: half/bin/newton/tri
      stencil: half/bin/3d/newton/tri
      bin: standard
Per MPI rank memory allocation (min/avg/max) = 4.086 | 4.086 | 4.086 Mbytes
Step Temp PotEng Press Pxx Pyy Pzz Pxy Pxz Pyz Lx Ly Lz Volume 
      74            0   -14.179255 2.0612957e-06 2.5251879e-06 4.2667273e-06 -6.0802807e-07    1.0369563 -7.3088956e-11 -6.4996965e-11    3.4922256    3.4922256    3.4922256    42.589925 
      75            0   -14.179255 2.0613641e-06 2.5252963e-06 4.2667819e-06 -6.0798578e-07    1.0369563 5.2206397e-12 5.2206397e-13    3.4922256    3.4922256    3.4922256    42.589925 
Loop time of 4.48227e-05 on 1 procs for 1 steps with 4 atoms

91.5% CPU use with 1 MPI tasks x no OpenMP threads

Minimization stats:
  Stopping criterion = force tolerance
  Energy initial, next-to-last, final = 
        -14.1792548079     -14.1792548079     -14.1792548079
  Force two-norm initial, final = 8.59904e-15 3.18644e-15
  Force max component initial, final = 3.8268e-15 2.33147e-15
  Final line search alpha, max atom move = 1 2.33147e-15
  Iterations, force evaluations = 1 2

MPI task timing breakdown:
Section |  min time  |  avg time  |  max time  |%varavg| %total
---------------------------------------------------------------
Pair    | 2.8133e-05 | 2.8133e-05 | 2.8133e-05 |   0.0 | 62.77
Neigh   | 0          | 0          | 0          |   0.0 |  0.00
Comm    | 4.7684e-06 | 4.7684e-06 | 4.7684e-06 |   0.0 | 10.64
Output  | 0          | 0          | 0          |   0.0 |  0.00
Modify  | 0          | 0          | 0          |   0.0 |  0.00
Other   |            | 1.192e-05  |            |       | 26.60

Nlocal:    4 ave 4 max 4 min
Histogram: 1 0 0 0 0 0 0 0 0 0
Nghost:    360 ave 360 max 360 min
Histogram: 1 0 0 0 0 0 0 0 0 0
Neighs:    156 ave 156 max 156 min
Histogram: 1 0 0 0 0 0 0 0 0 0

Total # of neighbors = 156
Ave neighs/atom = 39
Neighbor list builds = 0
Dangerous builds = 0

# Obtain new stress tensor

variable tmp equal pxx
variable pxx1 equal ${tmp}
variable pxx1 equal 2.52529626014623e-06
variable tmp equal pyy
variable pyy1 equal ${tmp}
variable pyy1 equal 4.26678185682089e-06
variable tmp equal pzz
variable pzz1 equal ${tmp}
variable pzz1 equal -6.07985782493425e-07
variable tmp equal pxy
variable pxy1 equal ${tmp}
variable pxy1 equal 1.03695625576852
variable tmp equal pxz
variable pxz1 equal ${tmp}
variable pxz1 equal 5.22063971929324e-12
variable tmp equal pyz
variable pyz1 equal ${tmp}
variable pyz1 equal 5.22063971929324e-13

# Compute elastic constant from pressure tensor

variable C1neg equal ${d1}
variable C1neg equal 0.000252522943595782
variable C2neg equal ${d2}
variable C2neg equal 0.000426659704617483
variable C3neg equal ${d3}
variable C3neg equal -6.08167460755656e-05
variable C4neg equal ${d4}
variable C4neg equal 1.09633434105158e-09
variable C5neg equal ${d5}
variable C5neg equal 1.12243753964805e-09
variable C6neg equal ${d6}
variable C6neg equal 103.69562557774

# Reset box and simulation parameters

clear
read_restart restart.equil remap
  triclinic box = (0.0122372 0.0122372 0.0122372) to (3.50446 3.50446 3.50446) with tilt (0 -0 0)
  1 by 1 by 1 MPI processor grid
  4 atoms
include potential.mod
mass 1 58.6934

group Ni type 1
4 atoms in group Ni

pair_style eam/alloy
pair_coeff * * /ufrc/phillpot/eragasa/pareto_optimization_3.5NN/rank_7/Ni_fcc.lmps_elastic/Ni.eam.alloy Ni

neighbor 1.0 bin
neigh_modify every 1 delay 0 check yes
thermo	1
thermo_style custom step temp pe press pxx pyy pzz pxy pxz pyz lx ly lz vol
thermo_modify norm no

# Positive deformation

variable delta equal ${up}*${len0}
variable delta equal 1e-06*${len0}
variable delta equal 1e-06*3.49222560559887
if "${dir} == 1" then    "change_box all x delta 0 ${delta} remap units box"
if "${dir} == 2" then    "change_box all y delta 0 ${delta} remap units box"
if "${dir} == 3" then    "change_box all z delta 0 ${delta} remap units box"
if "${dir} == 4" then    "change_box all yz delta ${delta} remap units box"
if "${dir} == 5" then    "change_box all xz delta ${delta} remap units box"
if "${dir} == 6" then    "change_box all xy delta ${delta} remap units box"
change_box all xy delta ${delta} remap units box
change_box all xy delta 3.49222560559887e-06 remap units box
  triclinic box = (0.0122372 0.0122372 0.0122372) to (3.50446 3.50446 3.50446) with tilt (3.49223e-06 -0 0)

# Relax atoms positions

minimize ${etol} ${ftol} ${maxiter} ${maxeval}
minimize 0 ${ftol} ${maxiter} ${maxeval}
minimize 0 1e-10 ${maxiter} ${maxeval}
minimize 0 1e-10 100 ${maxeval}
minimize 0 1e-10 100 1000
Neighbor list info ...
  update every 1 steps, delay 0 steps, check yes
  max neighbors/atom: 2000, page size: 100000
  master list distance cutoff = 5.64464
  ghost atom cutoff = 5.64464
  binsize = 2.82232, bins = 2 2 2
  1 neighbor lists, perpetual/occasional/extra = 1 0 0
  (1) pair eam/alloy, perpetual
      attributes: half, newton on
      pair build: half/bin/newton/tri
      stencil: half/bin/3d/newton/tri
      bin: standard
Per MPI rank memory allocation (min/avg/max) = 4.086 | 4.086 | 4.086 Mbytes
Step Temp PotEng Press Pxx Pyy Pzz Pxy Pxz Pyz Lx Ly Lz Volume 
      74            0   -14.179255 2.0614456e-06 2.5254273e-06 4.2668928e-06 -6.0798317e-07   -1.0369563 4.6463694e-11 -6.1864581e-11    3.4922256    3.4922256    3.4922256    42.589925 
      75            0   -14.179255 2.0614268e-06 2.5253589e-06 4.266797e-06 -6.0787563e-07   -1.0369563 5.9515293e-11 -8.0919916e-12    3.4922256    3.4922256    3.4922256    42.589925 
Loop time of 4.50611e-05 on 1 procs for 1 steps with 4 atoms

93.2% CPU use with 1 MPI tasks x no OpenMP threads

Minimization stats:
  Stopping criterion = force tolerance
  Energy initial, next-to-last, final = 
        -14.1792548079     -14.1792548079     -14.1792548079
  Force two-norm initial, final = 1.89187e-14 3.67633e-15
  Force max component initial, final = 1.00475e-14 2.2482e-15
  Final line search alpha, max atom move = 1 2.2482e-15
  Iterations, force evaluations = 1 2

MPI task timing breakdown:
Section |  min time  |  avg time  |  max time  |%varavg| %total
---------------------------------------------------------------
Pair    | 2.7895e-05 | 2.7895e-05 | 2.7895e-05 |   0.0 | 61.90
Neigh   | 0          | 0          | 0          |   0.0 |  0.00
Comm    | 6.1989e-06 | 6.1989e-06 | 6.1989e-06 |   0.0 | 13.76
Output  | 0          | 0          | 0          |   0.0 |  0.00
Modify  | 0          | 0          | 0          |   0.0 |  0.00
Other   |            | 1.097e-05  |            |       | 24.34

Nlocal:    4 ave 4 max 4 min
Histogram: 1 0 0 0 0 0 0 0 0 0
Nghost:    360 ave 360 max 360 min
Histogram: 1 0 0 0 0 0 0 0 0 0
Neighs:    156 ave 156 max 156 min
Histogram: 1 0 0 0 0 0 0 0 0 0

Total # of neighbors = 156
Ave neighs/atom = 39
Neighbor list builds = 0
Dangerous builds = 0

# Obtain new stress tensor

variable tmp equal pe
variable e1 equal ${tmp}
variable e1 equal -14.1792548079144
variable tmp equal press
variable p1 equal ${tmp}
variable p1 equal 2.06142675916786e-06
variable tmp equal pxx
variable pxx1 equal ${tmp}
variable pxx1 equal 2.52535890782286e-06
variable tmp equal pyy
variable pyy1 equal ${tmp}
variable pyy1 equal 4.26679699667608e-06
variable tmp equal pzz
variable pzz1 equal ${tmp}
variable pzz1 equal -6.07875626995348e-07
variable tmp equal pxy
variable pxy1 equal ${tmp}
variable pxy1 equal -1.03695625567559
variable tmp equal pxz
variable pxz1 equal ${tmp}
variable pxz1 equal 5.9515292799943e-11
variable tmp equal pyz
variable pyz1 equal ${tmp}
variable pyz1 equal -8.09199156490453e-12

# Compute elastic constant from pressure tensor

variable C1pos equal ${d1}
variable C1pos equal -0.000252529208363445
variable C2pos equal ${d2}
variable C2pos equal -0.000426661218603002
variable C3pos equal ${d3}
variable C3pos equal 6.08057305257579e-05
variable C4pos equal ${d4}
variable C4pos equal -2.34928787368197e-10
variable C5pos equal ${d5}
variable C5pos equal -6.55190284771302e-09
variable C6pos equal ${d6}
variable C6pos equal 103.695625566672

# Combine positive and negative

variable C1${dir} equal 0.5*(${C1neg}+${C1pos})
variable C16 equal 0.5*(${C1neg}+${C1pos})
variable C16 equal 0.5*(0.000252522943595782+${C1pos})
variable C16 equal 0.5*(0.000252522943595782+-0.000252529208363445)
variable C2${dir} equal 0.5*(${C2neg}+${C2pos})
variable C26 equal 0.5*(${C2neg}+${C2pos})
variable C26 equal 0.5*(0.000426659704617483+${C2pos})
variable C26 equal 0.5*(0.000426659704617483+-0.000426661218603002)
variable C3${dir} equal 0.5*(${C3neg}+${C3pos})
variable C36 equal 0.5*(${C3neg}+${C3pos})
variable C36 equal 0.5*(-6.08167460755656e-05+${C3pos})
variable C36 equal 0.5*(-6.08167460755656e-05+6.08057305257579e-05)
variable C4${dir} equal 0.5*(${C4neg}+${C4pos})
variable C46 equal 0.5*(${C4neg}+${C4pos})
variable C46 equal 0.5*(1.09633434105158e-09+${C4pos})
variable C46 equal 0.5*(1.09633434105158e-09+-2.34928787368197e-10)
variable C5${dir} equal 0.5*(${C5neg}+${C5pos})
variable C56 equal 0.5*(${C5neg}+${C5pos})
variable C56 equal 0.5*(1.12243753964805e-09+${C5pos})
variable C56 equal 0.5*(1.12243753964805e-09+-6.55190284771302e-09)
variable C6${dir} equal 0.5*(${C6neg}+${C6pos})
variable C66 equal 0.5*(${C6neg}+${C6pos})
variable C66 equal 0.5*(103.69562557774+${C6pos})
variable C66 equal 0.5*(103.69562557774+103.695625566672)

# Delete dir to make sure it is not reused

variable dir delete

# ---- Output final values
variable C11all equal ${C11}
variable C11all equal 216.630238463875
variable C22all equal ${C22}
variable C22all equal 216.630238481625
variable C33all equal ${C33}
variable C33all equal 216.630238468496
variable C12all equal 0.5*(${C12}+${C21})
variable C12all equal 0.5*(150.141311849695+${C21})
variable C12all equal 0.5*(150.141311849695+150.141311834294)
variable C13all equal 0.5*(${C13}+${C31})
variable C13all equal 0.5*(150.141311846785+${C31})
variable C13all equal 0.5*(150.141311846785+150.141311838444)
variable C23all equal 0.5*(${C23}+${C32})
variable C23all equal 0.5*(150.141311843117+${C32})
variable C23all equal 0.5*(150.141311843117+150.141311856299)
variable C44all equal ${C44}
variable C44all equal 103.695625570717
variable C55all equal ${C55}
variable C55all equal 103.695625574242
variable C66all equal ${C66}
variable C66all equal 103.695625572206
variable C14all equal 0.5*(${C14}+${C41})
variable C14all equal 0.5*(-2.36233947299849e-09+${C41})
variable C14all equal 0.5*(-2.36233947299849e-09+2.89745757622091e-09)
variable C15all equal 0.5*(${C15}+${C51})
variable C15all equal 0.5*(1.90553349751284e-09+${C51})
variable C15all equal 0.5*(1.90553349751284e-09+-3.91550980815225e-11)
variable C16all equal 0.5*(${C16}+${C61})
variable C16all equal 0.5*(-3.1323838315105e-09+${C61})
variable C16all equal 0.5*(-3.1323838315105e-09+-2.49285835036846e-09)
variable C24all equal 0.5*(${C24}+${C42})
variable C24all equal 0.5*(-9.46240949099364e-09+${C42})
variable C24all equal 0.5*(-9.46240949099364e-09+-2.67557452798265e-09)
variable C25all equal 0.5*(${C25}+${C52})
variable C25all equal 0.5*(1.61839831299746e-09+${C52})
variable C25all equal 0.5*(1.61839831299746e-09+7.178368781208e-10)
variable C26all equal 0.5*(${C26}+${C62})
variable C26all equal 0.5*(-7.569927595191e-10+${C62})
variable C26all equal 0.5*(-7.569927595191e-10+2.8713546908628e-09)
variable C34all equal 0.5*(${C34}+${C43})
variable C34all equal 0.5*(2.63642305800256e-09+${C43})
variable C34all equal 0.5*(2.63642305800256e-09+-3.15848423713332e-09)
variable C35all equal 0.5*(${C35}+${C53})
variable C35all equal 0.5*(2.63642305849045e-09+${C53})
variable C35all equal 0.5*(2.63642305849045e-09+-6.00374011473701e-10)
variable C36all equal 0.5*(${C36}+${C63})
variable C36all equal 0.5*(-5.50777490385088e-09+${C63})
variable C36all equal 0.5*(-5.50777490385088e-09+2.6103068080499e-11)
variable C45all equal 0.5*(${C45}+${C54})
variable C45all equal 0.5*(3.13238383157597e-10+${C54})
variable C45all equal 0.5*(3.13238383157597e-10+6.13425167016956e-10)
variable C46all equal 0.5*(${C46}+${C64})
variable C46all equal 0.5*(4.30702776841692e-10+${C64})
variable C46all equal 0.5*(4.30702776841692e-10+1.14854073824452e-09)
variable C56all equal 0.5*(${C56}+${C65})
variable C56all equal 0.5*(-2.71473265403249e-09+${C65})
variable C56all equal 0.5*(-2.71473265403249e-09+-4.56805975438155e-10)

print "c11 = ${C11all} ${cunits}"
c11 = 216.630238463875 GPa
print "c22 = ${C22all} ${cunits}"
c22 = 216.630238481625 GPa
print "c33 = ${C33all} ${cunits}"
c33 = 216.630238468496 GPa
print "c12 = ${C12all} ${cunits}"
c12 = 150.141311841994 GPa
print "c13 = ${C13all} ${cunits}"
c13 = 150.141311842614 GPa
print "c23 = ${C23all} ${cunits}"
c23 = 150.141311849708 GPa
print "c44 = ${C44all} ${cunits}"
c44 = 103.695625570717 GPa
print "c55 = ${C55all} ${cunits}"
c55 = 103.695625574242 GPa
print "c66 = ${C66all} ${cunits}"
c66 = 103.695625572206 GPa
print "c14 = ${C14all} ${cunits}"
c14 = 2.6755905161121e-10 GPa
print "c15 = ${C15all} ${cunits}"
c15 = 9.33189199715659e-10 GPa
print "c16 = ${C16all} ${cunits}"
c16 = -2.81262109093948e-09 GPa
print "c24 = ${C24all} ${cunits}"
c24 = -6.06899200948814e-09 GPa
print "c25 = ${C25all} ${cunits}"
c25 = 1.16811759555913e-09 GPa
print "c26 = ${C26all} ${cunits}"
c26 = 1.05718096567185e-09 GPa
print "c34 = ${C34all} ${cunits}"
c34 = -2.6103058956538e-10 GPa
print "c35 = ${C35all} ${cunits}"
c35 = 1.01802452350837e-09 GPa
print "c36 = ${C36all} ${cunits}"
c36 = -2.74083591788519e-09 GPa
print "c45 = ${C45all} ${cunits}"
c45 = 4.63331775087276e-10 GPa
print "c46 = ${C46all} ${cunits}"
c46 = 7.89621757543106e-10 GPa
print "c56 = ${C56all} ${cunits}"
c56 = -1.58576931473532e-09 GPa
print "lammps_sim_done"
lammps_sim_done
Total wall time: 0:00:00
