# ['Ni']

28 atoms
1 atom types

    0.0000     2.2952 xlo xhi
    0.0000     3.9753 ylo yhi
    0.0000    26.2358 zlo zhi

    0.0000     0.0000     0.0000 xy xz yz

Atoms

1 1     0.0000     0.0000     0.0000
2 1     1.1476     1.9877     0.0000
3 1     1.1476     0.6626     1.8740
4 1     0.0000     2.6502     1.8740
5 1     0.0000     1.3251     3.7480
6 1     1.1476     3.3128     3.7480
7 1     0.0000     0.0000     5.6220
8 1     1.1476     1.9877     5.6220
9 1     1.1476     0.6626     7.4959
10 1     0.0000     2.6502     7.4959
11 1     0.0000     1.3251     9.3699
12 1     1.1476     3.3128     9.3699
13 1     0.0000     0.0000    11.2439
14 1     1.1476     1.9877    11.2439
15 1     0.0000     1.3251    13.1179
16 1     1.1476     3.3128    13.1179
17 1     0.0000     0.0000    14.9919
18 1     1.1476     1.9877    14.9919
19 1     1.1476     0.6626    16.8659
20 1     0.0000     2.6502    16.8659
21 1     0.0000     1.3251    18.7399
22 1     1.1476     3.3128    18.7399
23 1     0.0000     0.0000    20.6139
24 1     1.1476     1.9877    20.6139
25 1     1.1476     0.6626    22.4879
26 1     0.0000     2.6502    22.4879
27 1     0.0000     1.3251    24.3618
28 1     1.1476     3.3128    24.3618
