LAMMPS (11 Aug 2017)
Reading data file ...
  triclinic box = (0 0 0) to (3.5167 3.5167 3.5167) with tilt (0 -0 0)
  1 by 1 by 1 MPI processor grid
  reading atoms ...
  4 atoms
4 atoms in group Ni
Neighbor list info ...
  update every 1 steps, delay 0 steps, check yes
  max neighbors/atom: 2000, page size: 100000
  master list distance cutoff = 11
  ghost atom cutoff = 11
  binsize = 5.5, bins = 1 1 1
  1 neighbor lists, perpetual/occasional/extra = 1 0 0
  (1) pair eam/alloy, perpetual
      attributes: half, newton on
      pair build: half/bin/newton/tri
      stencil: half/bin/3d/newton/tri
      bin: standard
Setting up cg style minimization ...
  Unit style    : metal
  Current step  : 0
WARNING: Energy due to 3 extra global DOFs will be included in minimizer energies
Per MPI rank memory allocation (min/avg/max) = 4.307 | 4.307 | 4.307 Mbytes
Step PotEng Xhi Xlo Yhi Ylo Zhi Xy Xz Yz Press Pxx Pyy Pzz Pxy Pxz Pyz c_eatoms 
       0   -18.174276       3.5167            0       3.5167            0       3.5167            0           -0            0   -10028.095   -10028.095   -10028.095   -10028.095 -1.5751265e-11 -3.6312253e-12 4.4089438e-12   -18.174276 
      10   -18.175008    3.5135597 0.0031403082    3.5135597 0.0031403082    3.5135597            0           -0            0 -5.4298529e-11 -1.2780538e-10 -9.8012667e-11 6.2922459e-11 1.1777444e-12 -2.9308651e-11 -3.42061e-12   -18.175008 
      14   -18.175008    3.5135597 0.0031403082    3.5135597 0.0031403082    3.5135597            0           -0            0 -1.8619166e-11 -1.0653238e-10 2.6473243e-11 2.4201641e-11 2.4844378e-11 -1.6399164e-10 -6.5466427e-11   -18.175008 
Loop time of 0.00277495 on 1 procs for 14 steps with 4 atoms

100.0% CPU use with 1 MPI tasks x no OpenMP threads

Minimization stats:
  Stopping criterion = energy tolerance
  Energy initial, next-to-last, final = 
        -18.1742756716     -18.1750075121     -18.1750075121
  Force two-norm initial, final = 0.471493 9.04664e-15
  Force max component initial, final = 0.272216 3.83027e-15
  Final line search alpha, max atom move = 1 3.83027e-15
  Iterations, force evaluations = 14 27

MPI task timing breakdown:
Section |  min time  |  avg time  |  max time  |%varavg| %total
---------------------------------------------------------------
Pair    | 0.001894   | 0.001894   | 0.001894   |   0.0 | 68.25
Neigh   | 0          | 0          | 0          |   0.0 |  0.00
Comm    | 0.00021958 | 0.00021958 | 0.00021958 |   0.0 |  7.91
Output  | 1.5974e-05 | 1.5974e-05 | 1.5974e-05 |   0.0 |  0.58
Modify  | 0          | 0          | 0          |   0.0 |  0.00
Other   |            | 0.0006454  |            |       | 23.26

Nlocal:    4 ave 4 max 4 min
Histogram: 1 0 0 0 0 0 0 0 0 0
Nghost:    1684 ave 1684 max 1684 min
Histogram: 1 0 0 0 0 0 0 0 0 0
Neighs:    1060 ave 1060 max 1060 min
Histogram: 1 0 0 0 0 0 0 0 0 0

Total # of neighbors = 1060
Ave neighs/atom = 265
Neighbor list builds = 0
Dangerous builds = 0
pypospack:output_section:begin
tot_energy = -18.1750075120527
num_atoms = 4
a11 = 3.51041938363928
a22 = 3.51041938363928
a33 = 3.51041938363928
a12 = 0
a13 = -0
a23 = 0
tot_press = -1.86191661020783e-11
pxx = -1.06532381587238e-10
pyy = 2.64732425205666e-11
pzz = 2.42016407604362e-11
pxy = 2.48443776318842e-11
pxz = -1.63991639908232e-10
pyz = -6.54664270829359e-11
pypospack:output_section:done
pypospack:lammps_sim:done
Total wall time: 0:00:00
