# ['Ni']

107 atoms
1 atom types

    0.0000    10.5397 xlo xhi
    0.0000    10.5397 ylo yhi
    0.0000    10.5397 zlo zhi

    0.0000    -0.0000    -0.0000 xy xz yz

Atoms

1 1     1.7566     1.7566     0.0000
2 1     1.7566     0.0000     1.7566
3 1     0.0000     1.7566     1.7566
4 1     0.0000     0.0000     3.5132
5 1     1.7566     1.7566     3.5132
6 1     1.7566     0.0000     5.2699
7 1     0.0000     1.7566     5.2699
8 1     0.0000     0.0000     7.0265
9 1     1.7566     1.7566     7.0265
10 1     1.7566     0.0000     8.7831
11 1     0.0000     1.7566     8.7831
12 1     0.0000     3.5132     0.0000
13 1     1.7566     5.2699     0.0000
14 1     1.7566     3.5132     1.7566
15 1     0.0000     5.2699     1.7566
16 1     0.0000     3.5132     3.5132
17 1     1.7566     5.2699     3.5132
18 1     1.7566     3.5132     5.2699
19 1     0.0000     5.2699     5.2699
20 1     0.0000     3.5132     7.0265
21 1     1.7566     5.2699     7.0265
22 1     1.7566     3.5132     8.7831
23 1     0.0000     5.2699     8.7831
24 1     0.0000     7.0265     0.0000
25 1     1.7566     8.7831     0.0000
26 1     1.7566     7.0265     1.7566
27 1     0.0000     8.7831     1.7566
28 1     0.0000     7.0265     3.5132
29 1     1.7566     8.7831     3.5132
30 1     1.7566     7.0265     5.2699
31 1     0.0000     8.7831     5.2699
32 1     0.0000     7.0265     7.0265
33 1     1.7566     8.7831     7.0265
34 1     1.7566     7.0265     8.7831
35 1     0.0000     8.7831     8.7831
36 1     3.5132     0.0000     0.0000
37 1     5.2699     1.7566     0.0000
38 1     5.2699     0.0000     1.7566
39 1     3.5132     1.7566     1.7566
40 1     3.5132     0.0000     3.5132
41 1     5.2699     1.7566     3.5132
42 1     5.2699     0.0000     5.2699
43 1     3.5132     1.7566     5.2699
44 1     3.5132     0.0000     7.0265
45 1     5.2699     1.7566     7.0265
46 1     5.2699     0.0000     8.7831
47 1     3.5132     1.7566     8.7831
48 1     3.5132     3.5132     0.0000
49 1     5.2699     5.2699     0.0000
50 1     5.2699     3.5132     1.7566
51 1     3.5132     5.2699     1.7566
52 1     3.5132     3.5132     3.5132
53 1     5.2699     5.2699     3.5132
54 1     5.2699     3.5132     5.2699
55 1     3.5132     5.2699     5.2699
56 1     3.5132     3.5132     7.0265
57 1     5.2699     5.2699     7.0265
58 1     5.2699     3.5132     8.7831
59 1     3.5132     5.2699     8.7831
60 1     3.5132     7.0265     0.0000
61 1     5.2699     8.7831     0.0000
62 1     5.2699     7.0265     1.7566
63 1     3.5132     8.7831     1.7566
64 1     3.5132     7.0265     3.5132
65 1     5.2699     8.7831     3.5132
66 1     5.2699     7.0265     5.2699
67 1     3.5132     8.7831     5.2699
68 1     3.5132     7.0265     7.0265
69 1     5.2699     8.7831     7.0265
70 1     5.2699     7.0265     8.7831
71 1     3.5132     8.7831     8.7831
72 1     7.0265     0.0000     0.0000
73 1     8.7831     1.7566     0.0000
74 1     8.7831     0.0000     1.7566
75 1     7.0265     1.7566     1.7566
76 1     7.0265     0.0000     3.5132
77 1     8.7831     1.7566     3.5132
78 1     8.7831     0.0000     5.2699
79 1     7.0265     1.7566     5.2699
80 1     7.0265     0.0000     7.0265
81 1     8.7831     1.7566     7.0265
82 1     8.7831     0.0000     8.7831
83 1     7.0265     1.7566     8.7831
84 1     7.0265     3.5132     0.0000
85 1     8.7831     5.2699     0.0000
86 1     8.7831     3.5132     1.7566
87 1     7.0265     5.2699     1.7566
88 1     7.0265     3.5132     3.5132
89 1     8.7831     5.2699     3.5132
90 1     8.7831     3.5132     5.2699
91 1     7.0265     5.2699     5.2699
92 1     7.0265     3.5132     7.0265
93 1     8.7831     5.2699     7.0265
94 1     8.7831     3.5132     8.7831
95 1     7.0265     5.2699     8.7831
96 1     7.0265     7.0265     0.0000
97 1     8.7831     8.7831     0.0000
98 1     8.7831     7.0265     1.7566
99 1     7.0265     8.7831     1.7566
100 1     7.0265     7.0265     3.5132
101 1     8.7831     8.7831     3.5132
102 1     8.7831     7.0265     5.2699
103 1     7.0265     8.7831     5.2699
104 1     7.0265     7.0265     7.0265
105 1     8.7831     8.7831     7.0265
106 1     8.7831     7.0265     8.7831
107 1     7.0265     8.7831     8.7831
