# ['Ni']

20 atoms
1 atom types

    0.0000     3.5610 xlo xhi
    0.0000     3.5610 ylo yhi
    0.0000    35.6105 zlo zhi

    0.0000    -0.0000     0.0000 xy xz yz

Atoms

1 1     0.0000     0.0000     0.0000
2 1     1.7805     1.7805     0.0000
3 1     1.7805     0.0000     1.7805
4 1     0.0000     1.7805     1.7805
5 1     0.0000     0.0000     3.5610
6 1     1.7805     1.7805     3.5610
7 1     1.7805     0.0000     5.3416
8 1     0.0000     1.7805     5.3416
9 1     0.0000     0.0000     7.1221
10 1     1.7805     1.7805     7.1221
11 1     1.7805     0.0000     8.9026
12 1     0.0000     1.7805     8.9026
13 1     0.0000     0.0000    10.6831
14 1     1.7805     1.7805    10.6831
15 1     1.7805     0.0000    12.4637
16 1     0.0000     1.7805    12.4637
17 1     0.0000     0.0000    14.2442
18 1     1.7805     1.7805    14.2442
19 1     1.7805     0.0000    16.0247
20 1     0.0000     1.7805    16.0247
