# ['Ni']

107 atoms
1 atom types

    0.0000    25.8510 xlo xhi
    0.0000    25.8510 ylo yhi
    0.0000    25.8510 zlo zhi

    0.0000    -0.0000    -0.0000 xy xz yz

Atoms

1 1     4.3085     4.3085     0.0000
2 1     4.3085     0.0000     4.3085
3 1     0.0000     4.3085     4.3085
4 1     0.0000     0.0000     8.6170
5 1     4.3085     4.3085     8.6170
6 1     4.3085     0.0000    12.9255
7 1     0.0000     4.3085    12.9255
8 1     0.0000     0.0000    17.2340
9 1     4.3085     4.3085    17.2340
10 1     4.3085     0.0000    21.5425
11 1     0.0000     4.3085    21.5425
12 1     0.0000     8.6170     0.0000
13 1     4.3085    12.9255     0.0000
14 1     4.3085     8.6170     4.3085
15 1     0.0000    12.9255     4.3085
16 1     0.0000     8.6170     8.6170
17 1     4.3085    12.9255     8.6170
18 1     4.3085     8.6170    12.9255
19 1     0.0000    12.9255    12.9255
20 1     0.0000     8.6170    17.2340
21 1     4.3085    12.9255    17.2340
22 1     4.3085     8.6170    21.5425
23 1     0.0000    12.9255    21.5425
24 1     0.0000    17.2340     0.0000
25 1     4.3085    21.5425     0.0000
26 1     4.3085    17.2340     4.3085
27 1     0.0000    21.5425     4.3085
28 1     0.0000    17.2340     8.6170
29 1     4.3085    21.5425     8.6170
30 1     4.3085    17.2340    12.9255
31 1     0.0000    21.5425    12.9255
32 1     0.0000    17.2340    17.2340
33 1     4.3085    21.5425    17.2340
34 1     4.3085    17.2340    21.5425
35 1     0.0000    21.5425    21.5425
36 1     8.6170     0.0000     0.0000
37 1    12.9255     4.3085     0.0000
38 1    12.9255     0.0000     4.3085
39 1     8.6170     4.3085     4.3085
40 1     8.6170     0.0000     8.6170
41 1    12.9255     4.3085     8.6170
42 1    12.9255     0.0000    12.9255
43 1     8.6170     4.3085    12.9255
44 1     8.6170     0.0000    17.2340
45 1    12.9255     4.3085    17.2340
46 1    12.9255     0.0000    21.5425
47 1     8.6170     4.3085    21.5425
48 1     8.6170     8.6170     0.0000
49 1    12.9255    12.9255     0.0000
50 1    12.9255     8.6170     4.3085
51 1     8.6170    12.9255     4.3085
52 1     8.6170     8.6170     8.6170
53 1    12.9255    12.9255     8.6170
54 1    12.9255     8.6170    12.9255
55 1     8.6170    12.9255    12.9255
56 1     8.6170     8.6170    17.2340
57 1    12.9255    12.9255    17.2340
58 1    12.9255     8.6170    21.5425
59 1     8.6170    12.9255    21.5425
60 1     8.6170    17.2340     0.0000
61 1    12.9255    21.5425     0.0000
62 1    12.9255    17.2340     4.3085
63 1     8.6170    21.5425     4.3085
64 1     8.6170    17.2340     8.6170
65 1    12.9255    21.5425     8.6170
66 1    12.9255    17.2340    12.9255
67 1     8.6170    21.5425    12.9255
68 1     8.6170    17.2340    17.2340
69 1    12.9255    21.5425    17.2340
70 1    12.9255    17.2340    21.5425
71 1     8.6170    21.5425    21.5425
72 1    17.2340     0.0000     0.0000
73 1    21.5425     4.3085     0.0000
74 1    21.5425     0.0000     4.3085
75 1    17.2340     4.3085     4.3085
76 1    17.2340     0.0000     8.6170
77 1    21.5425     4.3085     8.6170
78 1    21.5425     0.0000    12.9255
79 1    17.2340     4.3085    12.9255
80 1    17.2340     0.0000    17.2340
81 1    21.5425     4.3085    17.2340
82 1    21.5425     0.0000    21.5425
83 1    17.2340     4.3085    21.5425
84 1    17.2340     8.6170     0.0000
85 1    21.5425    12.9255     0.0000
86 1    21.5425     8.6170     4.3085
87 1    17.2340    12.9255     4.3085
88 1    17.2340     8.6170     8.6170
89 1    21.5425    12.9255     8.6170
90 1    21.5425     8.6170    12.9255
91 1    17.2340    12.9255    12.9255
92 1    17.2340     8.6170    17.2340
93 1    21.5425    12.9255    17.2340
94 1    21.5425     8.6170    21.5425
95 1    17.2340    12.9255    21.5425
96 1    17.2340    17.2340     0.0000
97 1    21.5425    21.5425     0.0000
98 1    21.5425    17.2340     4.3085
99 1    17.2340    21.5425     4.3085
100 1    17.2340    17.2340     8.6170
101 1    21.5425    21.5425     8.6170
102 1    21.5425    17.2340    12.9255
103 1    17.2340    21.5425    12.9255
104 1    17.2340    17.2340    17.2340
105 1    21.5425    21.5425    17.2340
106 1    21.5425    17.2340    21.5425
107 1    17.2340    21.5425    21.5425
