# ['Ni']

28 atoms
1 atom types

    0.0000     2.5190 xlo xhi
    0.0000     4.3631 ylo yhi
    0.0000    28.7950 zlo zhi

    0.0000     0.0000     0.0000 xy xz yz

Atoms

1 1     0.0000     0.0000     0.0000
2 1     1.2595     2.1816     0.0000
3 1     1.2595     0.7272     2.0568
4 1     0.0000     2.9087     2.0568
5 1     0.0000     1.4544     4.1136
6 1     1.2595     3.6359     4.1136
7 1     0.0000     0.0000     6.1704
8 1     1.2595     2.1816     6.1704
9 1     1.2595     0.7272     8.2271
10 1     0.0000     2.9087     8.2271
11 1     0.0000     1.4544    10.2839
12 1     1.2595     3.6359    10.2839
13 1     0.0000     0.0000    12.3407
14 1     1.2595     2.1816    12.3407
15 1     0.0000     1.4544    14.3975
16 1     1.2595     3.6359    14.3975
17 1     0.0000     0.0000    16.4543
18 1     1.2595     2.1816    16.4543
19 1     1.2595     0.7272    18.5111
20 1     0.0000     2.9087    18.5111
21 1     0.0000     1.4544    20.5679
22 1     1.2595     3.6359    20.5679
23 1     0.0000     0.0000    22.6247
24 1     1.2595     2.1816    22.6247
25 1     1.2595     0.7272    24.6815
26 1     0.0000     2.9087    24.6815
27 1     0.0000     1.4544    26.7382
28 1     1.2595     3.6359    26.7382
