LAMMPS (11 Aug 2017)
Reading data file ...
  triclinic box = (0 0 0) to (3.5167 3.5167 3.5167) with tilt (0 -0 0)
  1 by 1 by 1 MPI processor grid
  reading atoms ...
  4 atoms
4 atoms in group Ni
Neighbor list info ...
  update every 1 steps, delay 0 steps, check yes
  max neighbors/atom: 2000, page size: 100000
  master list distance cutoff = 5.64464
  ghost atom cutoff = 5.64464
  binsize = 2.82232, bins = 2 2 2
  1 neighbor lists, perpetual/occasional/extra = 1 0 0
  (1) pair eam/alloy, perpetual
      attributes: half, newton on
      pair build: half/bin/newton/tri
      stencil: half/bin/3d/newton/tri
      bin: standard
Setting up cg style minimization ...
  Unit style    : metal
  Current step  : 0
WARNING: Energy due to 3 extra global DOFs will be included in minimizer energies
Per MPI rank memory allocation (min/avg/max) = 4.211 | 4.211 | 4.211 Mbytes
Step PotEng Xhi Xlo Yhi Ylo Zhi Xy Xz Yz Press Pxx Pyy Pzz Pxy Pxz Pyz c_eatoms 
       0   -19.318679       3.5167            0       3.5167            0       3.5167            0           -0            0   -330393.74   -330393.74   -330393.74   -330393.74 -2.4795129e-11 3.8342983e-13 -1.3420044e-11   -19.318679 
      10   -19.573905    3.4991165    0.0175835    3.4991165    0.0175835    3.4991165            0           -0            0   -301441.04   -301441.04   -301441.04   -301441.04 5.9275002e-12 1.2381889e-11 2.4105167e-11   -19.573905 
      20   -19.798186     3.481533     0.035167     3.481533     0.035167     3.481533            0           -0            0   -264761.56   -264761.56   -264761.56   -264761.56 3.3405773e-11 5.105923e-11 4.8343314e-11   -19.798186 
      30    -19.98616    3.4639495    0.0527505    3.4639495    0.0527505    3.4639495            0           -0            0   -219089.34   -219089.34   -219089.34   -219089.34 -4.3692212e-11 -2.8287907e-11 1.624454e-11    -19.98616 
      40   -20.131813     3.446366     0.070334     3.446366     0.070334     3.446366            0           -0            0   -162967.08   -162967.08   -162967.08   -162967.08 1.7335333e-12 -9.5344332e-12 -8.3787443e-12   -20.131813 
      50   -20.228403    3.4287825    0.0879175    3.4287825    0.0879175    3.4287825            0           -0            0   -94717.623   -94717.623   -94717.623   -94717.623 2.3553254e-11 6.797648e-11 6.3802486e-11   -20.228403 
      60   -20.268379     3.411199     0.105501     3.411199     0.105501     3.411199            0           -0            0    -12410.96    -12410.96    -12410.96    -12410.96 2.4620738e-12 -3.0775922e-13 -1.969659e-11   -20.268379 
      70   -20.268988    3.4088052   0.10789483    3.4088052   0.10789483    3.4088052            0           -0            0 -1.0392982e-09 -9.4461051e-10 -1.1050336e-09 -1.0682506e-09 -6.1820059e-13 -5.8729056e-12 -6.4911062e-12   -20.268988 
      75   -20.268988    3.4088052   0.10789483    3.4088052   0.10789483    3.4088052            0           -0            0 -7.4184071e-10 -7.9531506e-10 -8.0582447e-10 -6.243826e-10 -6.4911062e-12 6.0583658e-11 7.4184071e-12   -20.268988 
Loop time of 0.00152206 on 1 procs for 75 steps with 4 atoms

100.1% CPU use with 1 MPI tasks x no OpenMP threads

Minimization stats:
  Stopping criterion = energy tolerance
  Energy initial, next-to-last, final = 
        -19.3186792275     -20.2689884181     -20.2689884181
  Force two-norm initial, final = 15.5342 3.18233e-14
  Force max component initial, final = 8.96866 1.92723e-14
  Final line search alpha, max atom move = 1 1.92723e-14
  Iterations, force evaluations = 75 89

MPI task timing breakdown:
Section |  min time  |  avg time  |  max time  |%varavg| %total
---------------------------------------------------------------
Pair    | 0.00078511 | 0.00078511 | 0.00078511 |   0.0 | 51.58
Neigh   | 0          | 0          | 0          |   0.0 |  0.00
Comm    | 0.0001545  | 0.0001545  | 0.0001545  |   0.0 | 10.15
Output  | 7.391e-05  | 7.391e-05  | 7.391e-05  |   0.0 |  4.86
Modify  | 0          | 0          | 0          |   0.0 |  0.00
Other   |            | 0.0005085  |            |       | 33.41

Nlocal:    4 ave 4 max 4 min
Histogram: 1 0 0 0 0 0 0 0 0 0
Nghost:    360 ave 360 max 360 min
Histogram: 1 0 0 0 0 0 0 0 0 0
Neighs:    156 ave 156 max 156 min
Histogram: 1 0 0 0 0 0 0 0 0 0

Total # of neighbors = 156
Ave neighs/atom = 39
Neighbor list builds = 0
Dangerous builds = 0
pypospack:output_section:begin
tot_energy = -20.2689884181307
num_atoms = 4
a11 = 3.30091033663336
a22 = 3.30091033663336
a33 = 3.30091033663336
a12 = 0
a13 = -0
a23 = 0
tot_press = -7.41840711521915e-10
pxx = -7.95315062810786e-10
pyy = -8.0582447289068e-10
pzz = -6.24382598864278e-10
pxy = -6.49110622581675e-12
pxz = 6.0583658107623e-11
pyz = 7.41840711521915e-12
pypospack:output_section:done
pypospack:lammps_sim:done
Total wall time: 0:00:00
