 vasp.5.4.1 24Jun15 (build Jun 05 2017 10:38:15) complex                        
  
 executed on           IFC91_ompi date 2017.08.29  20:25:38
 running on   16 total cores
 distrk:  each k-point on   16 cores,    1 groups
 distr:  one band on NCORES_PER_BAND=   1 cores,   16 groups


--------------------------------------------------------------------------------------------------------


 INCAR:
 POTCAR:    PAW_PBE O_h 06Feb2004                 
 POTCAR:    PAW_PBE Mg 13Apr2007                  

 ----------------------------------------------------------------------------- 
|                                                                             |
|           W    W    AA    RRRRR   N    N  II  N    N   GGGG   !!!           |
|           W    W   A  A   R    R  NN   N  II  NN   N  G    G  !!!           |
|           W    W  A    A  R    R  N N  N  II  N N  N  G       !!!           |
|           W WW W  AAAAAA  RRRRR   N  N N  II  N  N N  G  GGG   !            |
|           WW  WW  A    A  R   R   N   NN  II  N   NN  G    G                |
|           W    W  A    A  R    R  N    N  II  N    N   GGGG   !!!           |
|                                                                             |
|      For optimal performance we recommend to set                            |
|        NCORE= 4 - approx SQRT( number of cores)                             |
|      NCORE specifies how many cores store one orbital (NPAR=cpu/NCORE).     |
|      This setting can  greatly improve the performance of VASP for DFT.     |
|      The default, NPAR=number of cores might be grossly inefficient         |
|      on modern multi-core architectures or massively parallel machines.     |
|      Do your own testing !!!!                                               |
|      Unfortunately you need to use the default for GW and RPA calculations. |
|      (for HF NCORE is supported but not extensively tested yet)             |
|                                                                             |
 ----------------------------------------------------------------------------- 

 POTCAR:    PAW_PBE O_h 06Feb2004                 
   VRHFIN =O: s2p4                                                              
   LEXCH  = PE                                                                  
   EATOM  =   432.3788 eV,   31.7789 Ry                                         
                                                                                
   TITEL  = PAW_PBE O_h 06Feb2004                                               
   LULTRA =        F    use ultrasoft PP ?                                      
   IUNSCR =        1    unscreen: 0-lin 1-nonlin 2-no                           
   RPACOR =     .800    partial core radius                                     
   POMASS =   16.000; ZVAL   =    6.000    mass and valenz                      
   RCORE  =    1.100    outmost cutoff radius                                   
   RWIGS  =    1.400; RWIGS  =     .741    wigner-seitz radius (au A)           
   ENMAX  =  700.000; ENMIN  =  500.000 eV                                      
   ICORE  =        2    local potential                                         
   LCOR   =        T    correct aug charges                                     
   LPAW   =        T    paw PP                                                  
   EAUG   =  888.804                                                            
   DEXC   =     .000                                                            
   RMAX   =    1.666    core radius for proj-oper                               
   RAUG   =    1.300    factor for augmentation sphere                          
   RDEP   =    1.125    radius for radial grids                                 
   QCUT   =   -7.501; QGAM   =   15.002    optimization parameters              
                                                                                
   Description                                                                  
     l     E      TYP  RCUT    TYP  RCUT                                        
     0   .000     23  1.100                                                     
     0   .000     23  1.100                                                     
     1   .000     23  1.100                                                     
     1   .000     23  1.100                                                     
     2   .000      7  1.100                                                     
  local pseudopotential read in
  partial core-charges read in
  atomic valenz-charges read in
  non local Contribution for L=           0  read in
    real space projection operators read in
  non local Contribution for L=           0  read in
    real space projection operators read in
  non local Contribution for L=           1  read in
    real space projection operators read in
  non local Contribution for L=           1  read in
    real space projection operators read in
    PAW grid and wavefunctions read in
 
   number of l-projection  operators is LMAX  =           4
   number of lm-projection operators is LMMAX =           8
 
 POTCAR:    PAW_PBE Mg 13Apr2007                  
   VRHFIN =Mg: s2p0                                                             
   LEXCH  = PE                                                                  
   EATOM  =    23.0369 eV,    1.6932 Ry                                         
                                                                                
   TITEL  = PAW_PBE Mg 13Apr2007                                                
   LULTRA =        F    use ultrasoft PP ?                                      
   IUNSCR =        1    unscreen: 0-lin 1-nonlin 2-no                           
   RPACOR =    1.500    partial core radius                                     
   POMASS =   24.305; ZVAL   =    2.000    mass and valenz                      
   RCORE  =    2.000    outmost cutoff radius                                   
   RWIGS  =    2.880; RWIGS  =    1.524    wigner-seitz radius (au A)           
   ENMAX  =  126.143; ENMIN  =   94.607 eV                                      
   RCLOC  =    1.506    cutoff for local pot                                    
   LCOR   =        T    correct aug charges                                     
   LPAW   =        T    paw PP                                                  
   EAUG   =  454.734                                                            
   DEXC   =     .000                                                            
   RMAX   =    4.105    core radius for proj-oper                               
   RAUG   =    1.300    factor for augmentation sphere                          
   RDEP   =    2.025    radius for radial grids                                 
   QCUT   =   -3.045; QGAM   =    6.090    optimization parameters              
                                                                                
   Description                                                                  
     l     E      TYP  RCUT    TYP  RCUT                                        
     0   .000     23  2.000                                                     
     0  2.000     23  2.000                                                     
     1   .100     23  2.000                                                     
     1  2.000     23  2.000                                                     
     2   .000     23  2.000                                                     
  local pseudopotential read in
  partial core-charges read in
  atomic valenz-charges read in
  non local Contribution for L=           0  read in
    real space projection operators read in
  non local Contribution for L=           0  read in
    real space projection operators read in
  non local Contribution for L=           1  read in
    real space projection operators read in
  non local Contribution for L=           1  read in
    real space projection operators read in
  non local Contribution for L=           2  read in
    real space projection operators read in
    PAW grid and wavefunctions read in
 
   number of l-projection  operators is LMAX  =           5
   number of lm-projection operators is LMMAX =          13
 
  PAW_PBE O_h 06Feb2004                 :
 energy of atom  1       EATOM= -432.3788
 kinetic energy error for atom=    0.0170 (will be added to EATOM!!)
  PAW_PBE Mg 13Apr2007                  :
 energy of atom  2       EATOM=  -23.0369
 kinetic energy error for atom=    0.0000 (will be added to EATOM!!)
 
 
 POSCAR: Mg1 O1                                  
  positions in direct lattice
  No initial velocities read in
 exchange correlation table for  LEXCH =        8
   RHO(1)=    0.500       N(1)  =     2000
   RHO(2)=  100.500       N(2)  =     4000
 


--------------------------------------------------------------------------------------------------------


 ion  position               nearest neighbor table
   1  0.500  0.500  0.500-   2 2.12   2 2.12   2 2.12   2 2.12   2 2.12   2 2.12
   2  0.000  0.000  0.000-   1 2.12   1 2.12   1 2.12   1 2.12   1 2.12   1 2.12
 
  LATTYP: Found a face centered cubic cell.
 ALAT       =     4.2452137554
  
  Lattice vectors:
  
 A1 = (   3.0018190000,   0.0000000000,   0.0000000000)
 A2 = (   1.5009100000,   2.5996520000,   0.0000000000)
 A3 = (   1.5009100000,   0.8665510000,   2.4509750000)


Analysis of symmetry for initial positions (statically):
=====================================================================
 Subroutine PRICEL returns:
 Original cell was already a primitive cell.
 

 Routine SETGRP: Setting up the symmetry group for a 
 face centered cubic supercell.


 Subroutine GETGRP returns: Found 48 space group operations
 (whereof 48 operations were pure point group operations)
 out of a pool of 48 trial point group operations.


The static configuration has the point symmetry O_h .


Analysis of symmetry for dynamics (positions and initial velocities):
=====================================================================
 Subroutine PRICEL returns:
 Original cell was already a primitive cell.
 

 Routine SETGRP: Setting up the symmetry group for a 
 face centered cubic supercell.


 Subroutine GETGRP returns: Found 48 space group operations
 (whereof 48 operations were pure point group operations)
 out of a pool of 48 trial point group operations.


The dynamic configuration has the point symmetry O_h .


 Subroutine INISYM returns: Found 48 space group operations
 (whereof 48 operations are pure point group operations),
 and found     1 'primitive' translations

 
 
 KPOINTS: Automatic Mesh                          

Automatic generation of k-mesh.
Space group operators:
 irot       det(A)        alpha          n_x          n_y          n_z        tau_x        tau_y        tau_z
    1     1.000000     0.000000     1.000000     0.000000     0.000000     0.000000     0.000000     0.000000
    2    -1.000000     0.000000     1.000000     0.000000     0.000000     0.000000     0.000000     0.000000
    3     1.000000   120.000000    -0.816497    -0.471404    -0.333333     0.000000     0.000000     0.000000
    4    -1.000000   120.000000    -0.816497    -0.471404    -0.333333     0.000000     0.000000     0.000000
    5     1.000000   120.000000     0.816497     0.471405     0.333333     0.000000     0.000000     0.000000
    6    -1.000000   120.000000     0.816497     0.471405     0.333333     0.000000     0.000000     0.000000
    7     1.000000    90.000000    -0.707107    -0.408248     0.577350     0.000000     0.000000     0.000000
    8    -1.000000    90.000000    -0.707107    -0.408248     0.577350     0.000000     0.000000     0.000000
    9     1.000000   180.000000     1.000000    -0.000000    -0.000000     0.000000     0.000000     0.000000
   10    -1.000000   180.000000     1.000000    -0.000000    -0.000000     0.000000     0.000000     0.000000
   11     1.000000    90.000000     0.707107    -0.408248     0.577350     0.000000     0.000000     0.000000
   12    -1.000000    90.000000     0.707107    -0.408248     0.577350     0.000000     0.000000     0.000000
   13     1.000000   180.000000    -0.707107    -0.408248     0.577350     0.000000     0.000000     0.000000
   14    -1.000000   180.000000    -0.707107    -0.408248     0.577350     0.000000     0.000000     0.000000
   15     1.000000   120.000000     0.816497    -0.471405    -0.333333     0.000000     0.000000     0.000000
   16    -1.000000   120.000000     0.816497    -0.471405    -0.333333     0.000000     0.000000     0.000000
   17     1.000000   120.000000    -0.000000    -0.942809     0.333334     0.000000     0.000000     0.000000
   18    -1.000000   120.000000    -0.000000    -0.942809     0.333334     0.000000     0.000000     0.000000
   19     1.000000    90.000000     0.707107     0.408248    -0.577350     0.000000     0.000000     0.000000
   20    -1.000000    90.000000     0.707107     0.408248    -0.577350     0.000000     0.000000     0.000000
   21     1.000000    90.000000    -0.000000    -0.816497    -0.577350     0.000000     0.000000     0.000000
   22    -1.000000    90.000000    -0.000000    -0.816497    -0.577350     0.000000     0.000000     0.000000
   23     1.000000   180.000000     0.500000     0.866025    -0.000000     0.000000     0.000000     0.000000
   24    -1.000000   180.000000     0.500000     0.866025    -0.000000     0.000000     0.000000     0.000000
   25     1.000000   120.000000    -0.000000     0.942809    -0.333333     0.000000     0.000000     0.000000
   26    -1.000000   120.000000    -0.000000     0.942809    -0.333333     0.000000     0.000000     0.000000
   27     1.000000   120.000000     0.000000    -0.000000    -1.000000     0.000000     0.000000     0.000000
   28    -1.000000   120.000000     0.000000    -0.000000    -1.000000     0.000000     0.000000     0.000000
   29     1.000000   180.000000     0.000000    -0.816497    -0.577350     0.000000     0.000000     0.000000
   30    -1.000000   180.000000     0.000000    -0.816497    -0.577350     0.000000     0.000000     0.000000
   31     1.000000    90.000000    -0.707107     0.408248    -0.577350     0.000000     0.000000     0.000000
   32    -1.000000    90.000000    -0.707107     0.408248    -0.577350     0.000000     0.000000     0.000000
   33     1.000000   180.000000    -0.500000    -0.288675    -0.816497     0.000000     0.000000     0.000000
   34    -1.000000   180.000000    -0.500000    -0.288675    -0.816497     0.000000     0.000000     0.000000
   35     1.000000    90.000000     0.000000     0.816497     0.577350     0.000000     0.000000     0.000000
   36    -1.000000    90.000000     0.000000     0.816497     0.577350     0.000000     0.000000     0.000000
   37     1.000000   120.000000    -0.816496     0.471405     0.333333     0.000000     0.000000     0.000000
   38    -1.000000   120.000000    -0.816496     0.471405     0.333333     0.000000     0.000000     0.000000
   39     1.000000   180.000000    -0.707107     0.408248    -0.577350     0.000000     0.000000     0.000000
   40    -1.000000   180.000000    -0.707107     0.408248    -0.577350     0.000000     0.000000     0.000000
   41     1.000000   120.000000     0.000000    -0.000000     1.000000     0.000000     0.000000     0.000000
   42    -1.000000   120.000000     0.000000    -0.000000     1.000000     0.000000     0.000000     0.000000
   43     1.000000   180.000000     0.000000    -0.577350     0.816497     0.000000     0.000000     0.000000
   44    -1.000000   180.000000     0.000000    -0.577350     0.816497     0.000000     0.000000     0.000000
   45     1.000000   180.000000    -0.500000     0.866025    -0.000000     0.000000     0.000000     0.000000
   46    -1.000000   180.000000    -0.500000     0.866025    -0.000000     0.000000     0.000000     0.000000
   47     1.000000   180.000000    -0.500000     0.288675     0.816497     0.000000     0.000000     0.000000
   48    -1.000000   180.000000    -0.500000     0.288675     0.816497     0.000000     0.000000     0.000000
 
 Subroutine IBZKPT returns following result:
 ===========================================
 
 Found     10 irreducible k-points:
 
 Following reciprocal coordinates:
            Coordinates               Weight
  0.125000  0.125000  0.125000     96.000000
  0.375000  0.125000  0.125000    288.000000
 -0.375000  0.125000  0.125000    288.000000
 -0.125000  0.125000  0.125000    288.000000
  0.375000  0.375000  0.125000    288.000000
 -0.375000  0.375000  0.125000    576.000000
 -0.125000  0.375000  0.125000    576.000000
 -0.375000 -0.375000  0.125000    288.000000
  0.375000  0.375000  0.375000     96.000000
 -0.375000  0.375000  0.375000    288.000000
 
 Following cartesian coordinates:
            Coordinates               Weight
  0.041641  0.024042  0.017000     96.000000
  0.124924 -0.024042 -0.017000    288.000000
 -0.124924  0.120208  0.085000    288.000000
 -0.041641  0.072125  0.051000    288.000000
  0.124924  0.072125 -0.051000    288.000000
 -0.124924  0.216375  0.051000    576.000000
 -0.041641  0.168292  0.017000    576.000000
 -0.124924 -0.072125  0.153000    288.000000
  0.124924  0.072125  0.051000     96.000000
 -0.124924  0.216375  0.153000    288.000000
 


--------------------------------------------------------------------------------------------------------




 Dimension of arrays:
   k-points           NKPTS =     10   k-points in BZ     NKDIM =     10   number of bands    NBANDS=     16
   number of dos      NEDOS =    301   number of ions     NIONS =      2
   non local maximal  LDIM  =      5   non local SUM 2l+1 LMDIM =     13
   total plane-waves  NPLWV =  32768
   max r-space proj   IRMAX =      1   max aug-charges    IRDMAX=  17965
   dimension x,y,z NGX =    32 NGY =   32 NGZ =   32
   dimension x,y,z NGXF=    40 NGYF=   40 NGZF=   40
   support grid    NGXF=    40 NGYF=   40 NGZF=   40
   ions per type =               1   1
 NGX,Y,Z   is equivalent  to a cutoff of  17.72, 17.72, 17.72 a.u.
 NGXF,Y,Z  is equivalent  to a cutoff of  22.15, 22.15, 22.15 a.u.


 I would recommend the setting:
   dimension x,y,z NGX =    32 NGY =   32 NGZ =   32
 SYSTEM =  automatically generated by pyflamestk   
 POSCAR =  Mg1 O1                                  

 Startparameter for this run:
   NWRITE =      2    write-flag & timer
   PREC   = high      normal or accurate (medium, high low for compatibility)
   ISTART =      0    job   : 0-new  1-cont  2-samecut
   ICHARG =      0    charge: 1-file 2-atom 10-const
   ISPIN  =      1    spin polarized calculation?
   LNONCOLLINEAR =      F non collinear calculations
   LSORBIT =      F    spin-orbit coupling
   INIWAV =      1    electr: 0-lowe 1-rand  2-diag
   LASPH  =      F    aspherical Exc in radial PAW
   METAGGA=      F    non-selfconsistent MetaGGA calc.

 Electronic Relaxation 1
   ENCUT  = 1050.0 eV  77.17 Ry    8.78 a.u.   7.93  7.93  7.93*2*pi/ulx,y,z
   ENINI  = 1050.0     initial cutoff
   ENAUG  =  888.8 eV  augmentation charge cutoff
   NELM   =     40;   NELMIN=  2; NELMDL= -5     # of ELM steps 
   EDIFF  = 0.1E-05   stopping-criterion for ELM
   LREAL  =      F    real-space projection
   NLSPLINE    = F    spline interpolate recip. space projectors
   LCOMPAT=      F    compatible to vasp.4.4
   GGA_COMPAT  = T    GGA compatible to vasp.4.4-vasp.4.6
   LMAXPAW     = -100 max onsite density
   LMAXMIX     =    2 max onsite mixed and CHGCAR
   VOSKOWN=      0    Vosko Wilk Nusair interpolation
   ROPT   =    0.00000   0.00000
 Ionic relaxation
   EDIFFG = 0.1E-04   stopping-criterion for IOM
   NSW    =      0    number of steps for IOM
   NBLOCK =      1;   KBLOCK =      1    inner block; outer block 
   IBRION =     -1    ionic relax: 0-MD 1-quasi-New 2-CG
   NFREE  =      0    steps in history (QN), initial steepest desc. (CG)
   ISIF   =      2    stress and relaxation
   IWAVPR =     10    prediction:  0-non 1-charg 2-wave 3-comb
   ISYM   =      2    0-nonsym 1-usesym 2-fastsym
   LCORR  =      T    Harris-Foulkes like correction to forces

   POTIM  = 0.5000    time-step for ionic-motion
   TEIN   =    0.0    initial temperature
   TEBEG  =    0.0;   TEEND  =   0.0 temperature during run
   SMASS  =  -3.00    Nose mass-parameter (am)
   estimated Nose-frequenzy (Omega)   =  0.10E-29 period in steps =****** mass=  -0.206E-27a.u.
   SCALEE = 1.0000    scale energy and forces
   NPACO  =    256;   APACO  = 16.0  distance and # of slots for P.C.
   PSTRESS=    0.0 pullay stress

  Mass of Ions in am
   POMASS =  16.00 24.30
  Ionic Valenz
   ZVAL   =   6.00  2.00
  Atomic Wigner-Seitz radii
   RWIGS  =  -1.00 -1.00
  virtual crystal weights 
   VCA    =   1.00  1.00
   NELECT =       8.0000    total number of electrons
   NUPDOWN=      -1.0000    fix difference up-down

 DOS related values:
   EMIN   =  10.00;   EMAX   =-10.00  energy-range for DOS
   EFERMI =   0.00
   ISMEAR =     0;   SIGMA  =   0.05  broadening in eV -4-tet -1-fermi 0-gaus

 Electronic relaxation 2 (details)
   IALGO  =     38    algorithm
   LDIAG  =      T    sub-space diagonalisation (order eigenvalues)
   LSUBROT=      F    optimize rotation matrix (better conditioning)
   TURBO    =      0    0=normal 1=particle mesh
   IRESTART =      0    0=no restart 2=restart with 2 vectors
   NREBOOT  =      0    no. of reboots
   NMIN     =      0    reboot dimension
   EREF     =   0.00    reference energy to select bands
   IMIX   =      4    mixing-type and parameters
     AMIX     =   0.40;   BMIX     =  1.00
     AMIX_MAG =   1.60;   BMIX_MAG =  1.00
     AMIN     =   0.10
     WC   =   100.;   INIMIX=   1;  MIXPRE=   1;  MAXMIX= -45

 Intra band minimization:
   WEIMIN = 0.0000     energy-eigenvalue tresh-hold
   EBREAK =  0.16E-07  absolut break condition
   DEPER  =   0.30     relativ break condition  

   TIME   =   0.40     timestep for ELM

  volume/ion in A,a.u.               =       9.56        64.54
  Fermi-wavevector in a.u.,A,eV,Ry     =   1.224312  2.313613 20.394301  1.498939
  Thomas-Fermi vector in A             =   2.359391
 
 Write flags
   LWAVE  =      F    write WAVECAR
   LCHARG =      F    write CHGCAR
   LVTOT  =      F    write LOCPOT, total local potential
   LVHAR  =      F    write LOCPOT, Hartree potential only
   LELF   =      F    write electronic localiz. function (ELF)
   LORBIT =      0    0 simple, 1 ext, 2 COOP (PROOUT)


 Dipole corrections
   LMONO  =      F    monopole corrections only (constant potential shift)
   LDIPOL =      F    correct potential (dipole corrections)
   IDIPOL =      0    1-x, 2-y, 3-z, 4-all directions 
   EPSILON=  1.0000000 bulk dielectric constant

 Exchange correlation treatment:
   GGA     =    --    GGA type
   LEXCH   =     8    internal setting for exchange type
   VOSKOWN=      0    Vosko Wilk Nusair interpolation
   LHFCALC =     F    Hartree Fock is set to
   LHFONE  =     F    Hartree Fock one center treatment
   AEXX    =    0.0000 exact exchange contribution

 Linear response parameters
   LEPSILON=     F    determine dielectric tensor
   LRPA    =     F    only Hartree local field effects (RPA)
   LNABLA  =     F    use nabla operator in PAW spheres
   LVEL    =     F    velocity operator in full k-point grid
   LINTERFAST=   F  fast interpolation
   KINTER  =     0    interpolate to denser k-point grid
   CSHIFT  =0.1000    complex shift for real part using Kramers Kronig
   OMEGAMAX=  -1.0    maximum frequency
   DEG_THRESHOLD= 0.2000000E-02 threshold for treating states as degnerate
   RTIME   =    0.100 relaxation time in fs

 Orbital magnetization related:
   ORBITALMAG=     F  switch on orbital magnetization
   LCHIMAG   =     F  perturbation theory with respect to B field
   DQ        =  0.001000  dq finite difference perturbation B field



--------------------------------------------------------------------------------------------------------


 Static calculation
 charge density and potential will be updated during run
 non-spin polarized calculation
 Variant of blocked Davidson
 Davidson routine will perform the subspace rotation
 perform sub-space diagonalisation
    after iterative eigenvector-optimisation
 modified Broyden-mixing scheme, WC =      100.0
 initial mixing is a Kerker type mixing with AMIX =  0.4000 and BMIX =      1.0000
 Hartree-type preconditioning will be used
 using additional bands           12
 reciprocal scheme for non local part
 use partial core corrections
 calculate Harris-corrections to forces 
   (improved forces if not selfconsistent)
 use gradient corrections 
 use of overlap-Matrix (Vanderbilt PP)
 Gauss-broadening in eV      SIGMA  =   0.05


--------------------------------------------------------------------------------------------------------


  energy-cutoff  :     1050.00
  volume of cell :       19.13
      direct lattice vectors                 reciprocal lattice vectors
     3.001819000  0.000000000  0.000000000     0.333131345 -0.192333499 -0.136000318
     1.500910000  2.599652000  0.000000000     0.000000000  0.384666871 -0.136000352
     1.500910000  0.866551000  2.450975000     0.000000000  0.000000000  0.408000898

  length of vectors
     3.001819000  3.001819673  3.001819434     0.408000925  0.408000854  0.408000898


 
 k-points in units of 2pi/SCALE and weight: Automatic Mesh                          
   0.04164142  0.02404167  0.01700003       0.031
   0.12492425 -0.02404170 -0.01700005       0.094
  -0.12492425  0.12020842  0.08500019       0.094
  -0.04164142  0.07212505  0.05100011       0.094
   0.12492425  0.07212501 -0.05100014       0.094
  -0.12492425  0.21637514  0.05100010       0.188
  -0.04164142  0.16829176  0.01700002       0.188
  -0.12492425 -0.07212501  0.15300036       0.094
   0.12492425  0.07212501  0.05100009       0.031
  -0.12492425  0.21637514  0.15300032       0.094
 
 k-points in reciprocal lattice and weights: Automatic Mesh                          
   0.12500000  0.12500000  0.12500000       0.031
   0.37500000  0.12500000  0.12500000       0.094
  -0.37500000  0.12500000  0.12500000       0.094
  -0.12500000  0.12500000  0.12500000       0.094
   0.37500000  0.37500000  0.12500000       0.094
  -0.37500000  0.37500000  0.12500000       0.188
  -0.12500000  0.37500000  0.12500000       0.188
  -0.37500000 -0.37500000  0.12500000       0.094
   0.37500000  0.37500000  0.37500000       0.031
  -0.37500000  0.37500000  0.37500000       0.094
 
 position of ions in fractional coordinates (direct lattice) 
   0.50000000  0.50000000  0.50000000
   0.00000000  0.00000000  0.00000000
 
 position of ions in cartesian coordinates  (Angst):
   3.00181950  1.73310150  1.22548750
   0.00000000  0.00000000  0.00000000
 


--------------------------------------------------------------------------------------------------------


 k-point  1 :   0.1250 0.1250 0.1250  plane waves:    1456
 k-point  2 :   0.3750 0.1250 0.1250  plane waves:    1478
 k-point  3 :  -0.3750 0.1250 0.1250  plane waves:    1476
 k-point  4 :  -0.1250 0.1250 0.1250  plane waves:    1467
 k-point  5 :   0.3750 0.3750 0.1250  plane waves:    1474
 k-point  6 :  -0.3750 0.3750 0.1250  plane waves:    1483
 k-point  7 :  -0.1250 0.3750 0.1250  plane waves:    1483
 k-point  8 :  -0.3750-0.3750 0.1250  plane waves:    1483
 k-point  9 :   0.3750 0.3750 0.3750  plane waves:    1471
 k-point 10 :  -0.3750 0.3750 0.3750  plane waves:    1490

 maximum and minimum number of plane-waves per node :      1490     1456

 maximum number of plane-waves:      1490
 maximum index in each direction: 
   IXMAX=    8   IYMAX=    8   IZMAX=    7
   IXMIN=   -8   IYMIN=   -8   IZMIN=   -8

 WARNING: aliasing errors must be expected set NGX to  34 to avoid them
 WARNING: aliasing errors must be expected set NGY to  34 to avoid them
 NGZ is ok and might be reduce to  32
 aliasing errors are usually negligible using standard VASP settings
 and one can safely disregard these warnings

 serial   3D FFT for wavefunctions
 parallel 3D FFT for charge:
    minimum data exchange during FFTs selected (reduces bandwidth)


 total amount of memory used by VASP on root node    35362. kBytes
========================================================================

   base      :      30000. kBytes
   nonl-proj :       3176. kBytes
   fftplans  :        320. kBytes
   grid      :       1605. kBytes
   one-center:         16. kBytes
   wavefun   :        245. kBytes
 
     INWAV:  cpu time    0.0010: real time    0.0001
 Broyden mixing: mesh for mixing (old mesh)
   NGX = 15   NGY = 15   NGZ = 15
  (NGX  = 40   NGY  = 40   NGZ  = 40)
  gives a total of   3375 points

 charge density for first step will be calculated from the start-wavefunctions


--------------------------------------------------------------------------------------------------------


 Maximum index for augmentation-charges         1453 (set IRDMAX)


--------------------------------------------------------------------------------------------------------


 initial charge from wavefunction
 First call to EWALD:  gamma=   0.663
 Maximum number of real-space cells 3x 3x 3
 Maximum number of reciprocal cells 3x 3x 3

 FEWALD executed in parallel
    FEWALD:  cpu time    0.0020: real time    0.0015


----------------------------------------- Iteration    1(   1)  ---------------------------------------


    POTLOK:  cpu time    0.0060: real time    0.0064
    SETDIJ:  cpu time    0.0030: real time    0.0028
     EDDAV:  cpu time    0.0560: real time    0.0561
       DOS:  cpu time    0.0000: real time    0.0002
    --------------------------------------------
      LOOP:  cpu time    0.0690: real time    0.0803

 eigenvalue-minimisations  :   336
 total energy-change (2. order) :-0.2212778E+03  (-0.1014363E+04)
 number of electron       8.0000000 magnetization 
 augmentation part       -0.9636253 magnetization 

 Free energy of the ion-electron system (eV)
  ---------------------------------------------------
  alpha Z        PSCENC =        15.91937336
  Ewald energy   TEWEN  =      -355.39410472
  -Hartree energ DENC   =       -33.93514313
  -exchange      EXHF   =         0.00000000
  -V(xc)+E(xc)   XCENC  =       -29.21534578
  PAW double counting   =    189277.48418195  -189223.79937911
  entropy T*S    EENTRO =        -0.00000000
  eigenvalues    EBANDS =      -327.73612172
  atomic energy  EATOM  =       455.39873264
  Solvation  Ediel_sol  =         0.00000000
  ---------------------------------------------------
  free energy    TOTEN  =      -221.27780650 eV

  energy without entropy =     -221.27780650  energy(sigma->0) =     -221.27780650


--------------------------------------------------------------------------------------------------------




----------------------------------------- Iteration    1(   2)  ---------------------------------------


     EDDAV:  cpu time    0.0720: real time    0.0715
       DOS:  cpu time    0.0000: real time    0.0002
    --------------------------------------------
      LOOP:  cpu time    0.0720: real time    0.0737

 eigenvalue-minimisations  :   432
 total energy-change (2. order) :-0.8375529E+02  (-0.8375529E+02)
 number of electron       8.0000000 magnetization 
 augmentation part       -0.9636253 magnetization 

 Free energy of the ion-electron system (eV)
  ---------------------------------------------------
  alpha Z        PSCENC =        15.91937336
  Ewald energy   TEWEN  =      -355.39410472
  -Hartree energ DENC   =       -33.93514313
  -exchange      EXHF   =         0.00000000
  -V(xc)+E(xc)   XCENC  =       -29.21534578
  PAW double counting   =    189277.48418195  -189223.79937911
  entropy T*S    EENTRO =        -0.00000000
  eigenvalues    EBANDS =      -411.49140814
  atomic energy  EATOM  =       455.39873264
  Solvation  Ediel_sol  =         0.00000000
  ---------------------------------------------------
  free energy    TOTEN  =      -305.03309292 eV

  energy without entropy =     -305.03309292  energy(sigma->0) =     -305.03309292


--------------------------------------------------------------------------------------------------------




----------------------------------------- Iteration    1(   3)  ---------------------------------------


     EDDAV:  cpu time    0.0590: real time    0.0590
       DOS:  cpu time    0.0010: real time    0.0002
    --------------------------------------------
      LOOP:  cpu time    0.0600: real time    0.0623

 eigenvalue-minimisations  :   368
 total energy-change (2. order) :-0.6497182E+00  (-0.6497182E+00)
 number of electron       8.0000000 magnetization 
 augmentation part       -0.9636253 magnetization 

 Free energy of the ion-electron system (eV)
  ---------------------------------------------------
  alpha Z        PSCENC =        15.91937336
  Ewald energy   TEWEN  =      -355.39410472
  -Hartree energ DENC   =       -33.93514313
  -exchange      EXHF   =         0.00000000
  -V(xc)+E(xc)   XCENC  =       -29.21534578
  PAW double counting   =    189277.48418195  -189223.79937911
  entropy T*S    EENTRO =        -0.00000000
  eigenvalues    EBANDS =      -412.14112630
  atomic energy  EATOM  =       455.39873264
  Solvation  Ediel_sol  =         0.00000000
  ---------------------------------------------------
  free energy    TOTEN  =      -305.68281108 eV

  energy without entropy =     -305.68281108  energy(sigma->0) =     -305.68281108


--------------------------------------------------------------------------------------------------------




----------------------------------------- Iteration    1(   4)  ---------------------------------------


     EDDAV:  cpu time    0.1010: real time    0.1013
       DOS:  cpu time    0.0000: real time    0.0002
    --------------------------------------------
      LOOP:  cpu time    0.1010: real time    0.1049

 eigenvalue-minimisations  :   576
 total energy-change (2. order) :-0.2112813E-02  (-0.2112813E-02)
 number of electron       8.0000000 magnetization 
 augmentation part       -0.9636253 magnetization 

 Free energy of the ion-electron system (eV)
  ---------------------------------------------------
  alpha Z        PSCENC =        15.91937336
  Ewald energy   TEWEN  =      -355.39410472
  -Hartree energ DENC   =       -33.93514313
  -exchange      EXHF   =         0.00000000
  -V(xc)+E(xc)   XCENC  =       -29.21534578
  PAW double counting   =    189277.48418195  -189223.79937911
  entropy T*S    EENTRO =        -0.00000000
  eigenvalues    EBANDS =      -412.14323911
  atomic energy  EATOM  =       455.39873264
  Solvation  Ediel_sol  =         0.00000000
  ---------------------------------------------------
  free energy    TOTEN  =      -305.68492389 eV

  energy without entropy =     -305.68492389  energy(sigma->0) =     -305.68492389


--------------------------------------------------------------------------------------------------------




----------------------------------------- Iteration    1(   5)  ---------------------------------------


     EDDAV:  cpu time    0.0600: real time    0.0592
       DOS:  cpu time    0.0000: real time    0.0002
    CHARGE:  cpu time    0.0110: real time    0.0111
    MIXING:  cpu time    0.0000: real time    0.0004
    --------------------------------------------
      LOOP:  cpu time    0.0710: real time    0.0739

 eigenvalue-minimisations  :   368
 total energy-change (2. order) :-0.2345489E-06  (-0.2345571E-06)
 number of electron       7.9999984 magnetization 
 augmentation part        0.6000426 magnetization 

 Broyden mixing:
  rms(total) = 0.95339E+01    rms(broyden)= 0.95125E+01
  rms(prec ) = 0.28979E+02
  weight for this iteration     100.00

 Free energy of the ion-electron system (eV)
  ---------------------------------------------------
  alpha Z        PSCENC =        15.91937336
  Ewald energy   TEWEN  =      -355.39410472
  -Hartree energ DENC   =       -33.93514313
  -exchange      EXHF   =         0.00000000
  -V(xc)+E(xc)   XCENC  =       -29.21534578
  PAW double counting   =    189277.48418195  -189223.79937911
  entropy T*S    EENTRO =        -0.00000000
  eigenvalues    EBANDS =      -412.14323935
  atomic energy  EATOM  =       455.39873264
  Solvation  Ediel_sol  =         0.00000000
  ---------------------------------------------------
  free energy    TOTEN  =      -305.68492412 eV

  energy without entropy =     -305.68492412  energy(sigma->0) =     -305.68492412


--------------------------------------------------------------------------------------------------------




----------------------------------------- Iteration    1(   6)  ---------------------------------------


    POTLOK:  cpu time    0.0040: real time    0.0047
    SETDIJ:  cpu time    0.0030: real time    0.0026
     EDDAV:  cpu time    0.0500: real time    0.0499
       DOS:  cpu time    0.0000: real time    0.0002
    CHARGE:  cpu time    0.0110: real time    0.0106
    MIXING:  cpu time    0.0000: real time    0.0004
    --------------------------------------------
      LOOP:  cpu time    0.0690: real time    0.0715

 eigenvalue-minimisations  :   320
 total energy-change (2. order) : 0.2387705E+03  (-0.2817833E+02)
 number of electron       7.9999993 magnetization 
 augmentation part        0.2539058 magnetization 

 Broyden mixing:
  rms(total) = 0.41217E+01    rms(broyden)= 0.41192E+01
  rms(prec ) = 0.13398E+02
  weight for this iteration     100.00

 eigenvalues of (default mixing * dielectric matrix)
  average eigenvalue GAMMA=   1.4840
  1.4840

 Free energy of the ion-electron system (eV)
  ---------------------------------------------------
  alpha Z        PSCENC =        15.91937336
  Ewald energy   TEWEN  =      -355.39410472
  -Hartree energ DENC   =       -68.99034184
  -exchange      EXHF   =         0.00000000
  -V(xc)+E(xc)   XCENC  =       -25.63983945
  PAW double counting   =    424420.74092834  -424370.99246033
  entropy T*S    EENTRO =        -0.00000000
  eigenvalues    EBANDS =      -137.95668855
  atomic energy  EATOM  =       455.39873264
  Solvation  Ediel_sol  =         0.00000000
  ---------------------------------------------------
  free energy    TOTEN  =       -66.91440054 eV

  energy without entropy =      -66.91440054  energy(sigma->0) =      -66.91440054


--------------------------------------------------------------------------------------------------------




----------------------------------------- Iteration    1(   7)  ---------------------------------------


    POTLOK:  cpu time    0.0050: real time    0.0043
    SETDIJ:  cpu time    0.0020: real time    0.0025
     EDDAV:  cpu time    0.0810: real time    0.0807
       DOS:  cpu time    0.0000: real time    0.0002
    CHARGE:  cpu time    0.0110: real time    0.0107
    MIXING:  cpu time    0.0000: real time    0.0003
    --------------------------------------------
      LOOP:  cpu time    0.0990: real time    0.1022

 eigenvalue-minimisations  :   496
 total energy-change (2. order) : 0.4435155E+02  (-0.3769415E+02)
 number of electron       8.0000001 magnetization 
 augmentation part       -0.0129616 magnetization 

 Broyden mixing:
  rms(total) = 0.25961E+01    rms(broyden)= 0.25945E+01
  rms(prec ) = 0.68949E+01
  weight for this iteration     100.00

 eigenvalues of (default mixing * dielectric matrix)
  average eigenvalue GAMMA=   1.3408
  1.3408  1.3408

 Free energy of the ion-electron system (eV)
  ---------------------------------------------------
  alpha Z        PSCENC =        15.91937336
  Ewald energy   TEWEN  =      -355.39410472
  -Hartree energ DENC   =      -177.96425020
  -exchange      EXHF   =         0.00000000
  -V(xc)+E(xc)   XCENC  =       -18.72327025
  PAW double counting   =     60574.29583699   -60526.05769476
  entropy T*S    EENTRO =        -0.00000000
  eigenvalues    EBANDS =         9.96252500
  atomic energy  EATOM  =       455.39873264
  Solvation  Ediel_sol  =         0.00000000
  ---------------------------------------------------
  free energy    TOTEN  =       -22.56285194 eV

  energy without entropy =      -22.56285194  energy(sigma->0) =      -22.56285194


--------------------------------------------------------------------------------------------------------




----------------------------------------- Iteration    1(   8)  ---------------------------------------


    POTLOK:  cpu time    0.0050: real time    0.0045
    SETDIJ:  cpu time    0.0030: real time    0.0025
     EDDAV:  cpu time    0.0530: real time    0.0534
       DOS:  cpu time    0.0000: real time    0.0002
    CHARGE:  cpu time    0.0100: real time    0.0105
    MIXING:  cpu time    0.0010: real time    0.0003
    --------------------------------------------
      LOOP:  cpu time    0.0720: real time    0.0747

 eigenvalue-minimisations  :   336
 total energy-change (2. order) : 0.1998584E+01  (-0.1697594E+02)
 number of electron       7.9999996 magnetization 
 augmentation part        0.1459527 magnetization 

 Broyden mixing:
  rms(total) = 0.16665E+01    rms(broyden)= 0.16663E+01
  rms(prec ) = 0.58373E+01
  weight for this iteration     100.00

 eigenvalues of (default mixing * dielectric matrix)
  average eigenvalue GAMMA=   1.5630
  2.5883  1.3370  0.7637

 Free energy of the ion-electron system (eV)
  ---------------------------------------------------
  alpha Z        PSCENC =        15.91937336
  Ewald energy   TEWEN  =      -355.39410472
  -Hartree energ DENC   =      -102.06539825
  -exchange      EXHF   =         0.00000000
  -V(xc)+E(xc)   XCENC  =       -23.77347161
  PAW double counting   =     70145.84372546   -70095.82031773
  entropy T*S    EENTRO =        -0.00000000
  eigenvalues    EBANDS =       -60.67280734
  atomic energy  EATOM  =       455.39873264
  Solvation  Ediel_sol  =         0.00000000
  ---------------------------------------------------
  free energy    TOTEN  =       -20.56426818 eV

  energy without entropy =      -20.56426818  energy(sigma->0) =      -20.56426818


--------------------------------------------------------------------------------------------------------




----------------------------------------- Iteration    1(   9)  ---------------------------------------


    POTLOK:  cpu time    0.0050: real time    0.0045
    SETDIJ:  cpu time    0.0020: real time    0.0025
     EDDAV:  cpu time    0.0490: real time    0.0486
       DOS:  cpu time    0.0000: real time    0.0002
    CHARGE:  cpu time    0.0100: real time    0.0104
    MIXING:  cpu time    0.0010: real time    0.0003
    --------------------------------------------
      LOOP:  cpu time    0.0670: real time    0.0696

 eigenvalue-minimisations  :   320
 total energy-change (2. order) : 0.8582576E+01  (-0.2892979E+01)
 number of electron       7.9999998 magnetization 
 augmentation part        0.0819778 magnetization 

 Broyden mixing:
  rms(total) = 0.26171E+00    rms(broyden)= 0.26153E+00
  rms(prec ) = 0.72659E+00
  weight for this iteration     100.00

 eigenvalues of (default mixing * dielectric matrix)
  average eigenvalue GAMMA=   1.4870
  2.5727  1.3121  1.3121  0.7511

 Free energy of the ion-electron system (eV)
  ---------------------------------------------------
  alpha Z        PSCENC =        15.91937336
  Ewald energy   TEWEN  =      -355.39410472
  -Hartree energ DENC   =      -137.52459977
  -exchange      EXHF   =         0.00000000
  -V(xc)+E(xc)   XCENC  =       -20.92787232
  PAW double counting   =      1104.08265757    -1053.57178759
  entropy T*S    EENTRO =        -0.00000000
  eigenvalues    EBANDS =       -19.96409169
  atomic energy  EATOM  =       455.39873264
  Solvation  Ediel_sol  =         0.00000000
  ---------------------------------------------------
  free energy    TOTEN  =       -11.98169250 eV

  energy without entropy =      -11.98169250  energy(sigma->0) =      -11.98169250


--------------------------------------------------------------------------------------------------------




----------------------------------------- Iteration    1(  10)  ---------------------------------------


    POTLOK:  cpu time    0.0040: real time    0.0043
    SETDIJ:  cpu time    0.0030: real time    0.0025
     EDDAV:  cpu time    0.0670: real time    0.0669
       DOS:  cpu time    0.0000: real time    0.0002
    CHARGE:  cpu time    0.0100: real time    0.0107
    MIXING:  cpu time    0.0010: real time    0.0003
    --------------------------------------------
      LOOP:  cpu time    0.0850: real time    0.0882

 eigenvalue-minimisations  :   416
 total energy-change (2. order) :-0.6948426E-02  (-0.2406728E+00)
 number of electron       7.9999999 magnetization 
 augmentation part        0.0612854 magnetization 

 Broyden mixing:
  rms(total) = 0.19980E+00    rms(broyden)= 0.19966E+00
  rms(prec ) = 0.63160E+00
  weight for this iteration     100.00

 eigenvalues of (default mixing * dielectric matrix)
  average eigenvalue GAMMA=   1.6422
  2.7135  2.5496  1.2235  0.8622  0.8622

 Free energy of the ion-electron system (eV)
  ---------------------------------------------------
  alpha Z        PSCENC =        15.91937336
  Ewald energy   TEWEN  =      -355.39410472
  -Hartree energ DENC   =      -145.14768710
  -exchange      EXHF   =         0.00000000
  -V(xc)+E(xc)   XCENC  =       -20.43431403
  PAW double counting   =       839.38140656     -789.06518041
  entropy T*S    EENTRO =        -0.00000000
  eigenvalues    EBANDS =       -12.64686724
  atomic energy  EATOM  =       455.39873264
  Solvation  Ediel_sol  =         0.00000000
  ---------------------------------------------------
  free energy    TOTEN  =       -11.98864093 eV

  energy without entropy =      -11.98864093  energy(sigma->0) =      -11.98864093


--------------------------------------------------------------------------------------------------------




----------------------------------------- Iteration    1(  11)  ---------------------------------------


    POTLOK:  cpu time    0.0050: real time    0.0045
    SETDIJ:  cpu time    0.0020: real time    0.0025
     EDDAV:  cpu time    0.0550: real time    0.0551
       DOS:  cpu time    0.0000: real time    0.0002
    CHARGE:  cpu time    0.0110: real time    0.0103
    MIXING:  cpu time    0.0000: real time    0.0003
    --------------------------------------------
      LOOP:  cpu time    0.0730: real time    0.0761

 eigenvalue-minimisations  :   352
 total energy-change (2. order) : 0.6587588E-01  (-0.7237726E-01)
 number of electron       7.9999998 magnetization 
 augmentation part        0.0725521 magnetization 

 Broyden mixing:
  rms(total) = 0.36785E-01    rms(broyden)= 0.36746E-01
  rms(prec ) = 0.13528E+00
  weight for this iteration     100.00

 eigenvalues of (default mixing * dielectric matrix)
  average eigenvalue GAMMA=   1.5762
  2.8946  2.5348  1.3114  0.8434  0.9365  0.9365

 Free energy of the ion-electron system (eV)
  ---------------------------------------------------
  alpha Z        PSCENC =        15.91937336
  Ewald energy   TEWEN  =      -355.39410472
  -Hartree energ DENC   =      -140.40519393
  -exchange      EXHF   =         0.00000000
  -V(xc)+E(xc)   XCENC  =       -20.72300360
  PAW double counting   =       669.08958346     -618.70063406
  entropy T*S    EENTRO =        -0.00000000
  eigenvalues    EBANDS =       -17.10751820
  atomic energy  EATOM  =       455.39873264
  Solvation  Ediel_sol  =         0.00000000
  ---------------------------------------------------
  free energy    TOTEN  =       -11.92276505 eV

  energy without entropy =      -11.92276505  energy(sigma->0) =      -11.92276505


--------------------------------------------------------------------------------------------------------




----------------------------------------- Iteration    1(  12)  ---------------------------------------


    POTLOK:  cpu time    0.0050: real time    0.0043
    SETDIJ:  cpu time    0.0020: real time    0.0025
     EDDAV:  cpu time    0.0650: real time    0.0652
       DOS:  cpu time    0.0010: real time    0.0002
    CHARGE:  cpu time    0.0100: real time    0.0105
    MIXING:  cpu time    0.0010: real time    0.0004
    --------------------------------------------
      LOOP:  cpu time    0.0840: real time    0.0864

 eigenvalue-minimisations  :   400
 total energy-change (2. order) : 0.2944045E-02  (-0.2701638E-02)
 number of electron       7.9999999 magnetization 
 augmentation part        0.0707047 magnetization 

 Broyden mixing:
  rms(total) = 0.27741E-02    rms(broyden)= 0.27701E-02
  rms(prec ) = 0.10015E-01
  weight for this iteration     100.00

 eigenvalues of (default mixing * dielectric matrix)
  average eigenvalue GAMMA=   1.5265
  2.8687  2.5336  1.4443  1.2088  0.8376  0.8376  0.9547

 Free energy of the ion-electron system (eV)
  ---------------------------------------------------
  alpha Z        PSCENC =        15.91937336
  Ewald energy   TEWEN  =      -355.39410472
  -Hartree energ DENC   =      -141.30203763
  -exchange      EXHF   =         0.00000000
  -V(xc)+E(xc)   XCENC  =       -20.65437668
  PAW double counting   =       602.60236858     -552.22831409
  entropy T*S    EENTRO =        -0.00000000
  eigenvalues    EBANDS =       -16.26146247
  atomic energy  EATOM  =       455.39873264
  Solvation  Ediel_sol  =         0.00000000
  ---------------------------------------------------
  free energy    TOTEN  =       -11.91982100 eV

  energy without entropy =      -11.91982100  energy(sigma->0) =      -11.91982100


--------------------------------------------------------------------------------------------------------




----------------------------------------- Iteration    1(  13)  ---------------------------------------


    POTLOK:  cpu time    0.0040: real time    0.0045
    SETDIJ:  cpu time    0.0030: real time    0.0025
     EDDAV:  cpu time    0.0650: real time    0.0654
       DOS:  cpu time    0.0010: real time    0.0002
    CHARGE:  cpu time    0.0100: real time    0.0105
    MIXING:  cpu time    0.0000: real time    0.0004
    --------------------------------------------
      LOOP:  cpu time    0.0830: real time    0.0871

 eigenvalue-minimisations  :   400
 total energy-change (2. order) :-0.4150627E-04  (-0.8077629E-04)
 number of electron       7.9999999 magnetization 
 augmentation part        0.0703389 magnetization 

 Broyden mixing:
  rms(total) = 0.45748E-02    rms(broyden)= 0.45731E-02
  rms(prec ) = 0.12749E-01
  weight for this iteration     100.00

 eigenvalues of (default mixing * dielectric matrix)
  average eigenvalue GAMMA=   1.6813
  3.2881  2.6927  2.5253  1.2842  0.8917  0.8917  0.8995  0.9770

 Free energy of the ion-electron system (eV)
  ---------------------------------------------------
  alpha Z        PSCENC =        15.91937336
  Ewald energy   TEWEN  =      -355.39410472
  -Hartree energ DENC   =      -141.42659294
  -exchange      EXHF   =         0.00000000
  -V(xc)+E(xc)   XCENC  =       -20.64695998
  PAW double counting   =       620.00648157     -569.63489690
  entropy T*S    EENTRO =        -0.00000000
  eigenvalues    EBANDS =       -16.14189554
  atomic energy  EATOM  =       455.39873264
  Solvation  Ediel_sol  =         0.00000000
  ---------------------------------------------------
  free energy    TOTEN  =       -11.91986251 eV

  energy without entropy =      -11.91986251  energy(sigma->0) =      -11.91986251


--------------------------------------------------------------------------------------------------------




----------------------------------------- Iteration    1(  14)  ---------------------------------------


    POTLOK:  cpu time    0.0040: real time    0.0045
    SETDIJ:  cpu time    0.0030: real time    0.0026
     EDDAV:  cpu time    0.0760: real time    0.0765
       DOS:  cpu time    0.0000: real time    0.0002
    CHARGE:  cpu time    0.0110: real time    0.0107
    MIXING:  cpu time    0.0010: real time    0.0005
    --------------------------------------------
      LOOP:  cpu time    0.0960: real time    0.0983

 eigenvalue-minimisations  :   464
 total energy-change (2. order) : 0.2706301E-04  (-0.2625719E-04)
 number of electron       7.9999999 magnetization 
 augmentation part        0.0705823 magnetization 

 Broyden mixing:
  rms(total) = 0.99493E-03    rms(broyden)= 0.99388E-03
  rms(prec ) = 0.25080E-02
  weight for this iteration     100.00

 eigenvalues of (default mixing * dielectric matrix)
  average eigenvalue GAMMA=   1.5824
  2.9690  2.6714  2.5195  1.2263  1.2263  0.8837  0.8837  0.9071  0.9546

 Free energy of the ion-electron system (eV)
  ---------------------------------------------------
  alpha Z        PSCENC =        15.91937336
  Ewald energy   TEWEN  =      -355.39410472
  -Hartree energ DENC   =      -141.35951088
  -exchange      EXHF   =         0.00000000
  -V(xc)+E(xc)   XCENC  =       -20.65101013
  PAW double counting   =       636.70158297     -586.32784087
  entropy T*S    EENTRO =        -0.00000000
  eigenvalues    EBANDS =       -16.20705781
  atomic energy  EATOM  =       455.39873264
  Solvation  Ediel_sol  =         0.00000000
  ---------------------------------------------------
  free energy    TOTEN  =       -11.91983545 eV

  energy without entropy =      -11.91983545  energy(sigma->0) =      -11.91983545


--------------------------------------------------------------------------------------------------------




----------------------------------------- Iteration    1(  15)  ---------------------------------------


    POTLOK:  cpu time    0.0040: real time    0.0045
    SETDIJ:  cpu time    0.0030: real time    0.0025
     EDDAV:  cpu time    0.0550: real time    0.0556
       DOS:  cpu time    0.0010: real time    0.0002
    CHARGE:  cpu time    0.0100: real time    0.0101
    MIXING:  cpu time    0.0000: real time    0.0005
    --------------------------------------------
      LOOP:  cpu time    0.0730: real time    0.0769

 eigenvalue-minimisations  :   352
 total energy-change (2. order) : 0.4669985E-06  (-0.1425425E-05)
 number of electron       7.9999999 magnetization 
 augmentation part        0.0705314 magnetization 

 Broyden mixing:
  rms(total) = 0.30233E-03    rms(broyden)= 0.30227E-03
  rms(prec ) = 0.11359E-02
  weight for this iteration     100.00

 eigenvalues of (default mixing * dielectric matrix)
  average eigenvalue GAMMA=   1.6893
  3.2013  2.8268  2.5237  2.4429  1.2798  0.8894  0.8894  1.0138  0.8835  0.9429

 Free energy of the ion-electron system (eV)
  ---------------------------------------------------
  alpha Z        PSCENC =        15.91937336
  Ewald energy   TEWEN  =      -355.39410472
  -Hartree energ DENC   =      -141.37630751
  -exchange      EXHF   =         0.00000000
  -V(xc)+E(xc)   XCENC  =       -20.65018027
  PAW double counting   =       634.21667807     -583.84340722
  entropy T*S    EENTRO =        -0.00000000
  eigenvalues    EBANDS =       -16.19061934
  atomic energy  EATOM  =       455.39873264
  Solvation  Ediel_sol  =         0.00000000
  ---------------------------------------------------
  free energy    TOTEN  =       -11.91983498 eV

  energy without entropy =      -11.91983498  energy(sigma->0) =      -11.91983498


--------------------------------------------------------------------------------------------------------




----------------------------------------- Iteration    1(  16)  ---------------------------------------


    POTLOK:  cpu time    0.0040: real time    0.0042
    SETDIJ:  cpu time    0.0020: real time    0.0024
     EDDAV:  cpu time    0.0280: real time    0.0279
       DOS:  cpu time    0.0000: real time    0.0002
    --------------------------------------------
      LOOP:  cpu time    0.0350: real time    0.0380

 eigenvalue-minimisations  :   160
 total energy-change (2. order) : 0.4618039E-07  (-0.7060591E-07)
 number of electron       7.9999999 magnetization 
 augmentation part        0.0705314 magnetization 

 Free energy of the ion-electron system (eV)
  ---------------------------------------------------
  alpha Z        PSCENC =        15.91937336
  Ewald energy   TEWEN  =      -355.39410472
  -Hartree energ DENC   =      -141.37096260
  -exchange      EXHF   =         0.00000000
  -V(xc)+E(xc)   XCENC  =       -20.65062811
  PAW double counting   =       632.12681794     -581.75350725
  entropy T*S    EENTRO =        -0.00000000
  eigenvalues    EBANDS =       -16.19555619
  atomic energy  EATOM  =       455.39873264
  Solvation  Ediel_sol  =         0.00000000
  ---------------------------------------------------
  free energy    TOTEN  =       -11.91983493 eV

  energy without entropy =      -11.91983493  energy(sigma->0) =      -11.91983493


--------------------------------------------------------------------------------------------------------




 average (electrostatic) potential at core
  the test charge radii are     0.5955  1.0714
  (the norm of the test charge is              1.0000)
       1-108.4535       2 -34.8734
 
 
 
 E-fermi :   3.6364     XC(G=0): -10.9722     alpha+bet :-13.2242


 k-point     1 :       0.1250    0.1250    0.1250
  band No.  band energies     occupation 
      1     -13.5730      2.00000
      2       2.4686      2.00000
      3       3.3152      2.00000
      4       3.3152      2.00000
      5       8.8337      0.00000
      6      17.4123      0.00000
      7      19.4288      0.00000
      8      19.4288      0.00000
      9      23.6792      0.00000
     10      23.6792      0.00000
     11      25.0177      0.00000
     12      27.4551      0.00000
     13      28.8862      0.00000
     14      28.8862      0.00000
     15      39.1506      0.00000
     16      41.0528      0.00000

 k-point     2 :       0.3750    0.1250    0.1250
  band No.  band energies     occupation 
      1     -12.9139      2.00000
      2       0.2961      2.00000
      3       2.4535      2.00000
      4       3.0168      2.00000
      5      11.2500      0.00000
      6      15.3506      0.00000
      7      18.7627      0.00000
      8      20.4304      0.00000
      9      22.2510      0.00000
     10      24.4818      0.00000
     11      26.6003      0.00000
     12      31.2614      0.00000
     13      32.5352      0.00000
     14      33.4104      0.00000
     15      35.7809      0.00000
     16      39.0742      0.00000

 k-point     3 :      -0.3750    0.1250    0.1250
  band No.  band energies     occupation 
      1     -12.4729      2.00000
      2      -0.8377      2.00000
      3       2.3023      2.00000
      4       2.6772      2.00000
      5      11.8372      0.00000
      6      15.5614      0.00000
      7      18.0521      0.00000
      8      19.8683      0.00000
      9      23.8583      0.00000
     10      26.1080      0.00000
     11      26.2041      0.00000
     12      32.4878      0.00000
     13      33.0839      0.00000
     14      33.4293      0.00000
     15      36.0108      0.00000
     16      37.7217      0.00000

 k-point     4 :      -0.1250    0.1250    0.1250
  band No.  band energies     occupation 
      1     -13.2060      2.00000
      2       1.1852      2.00000
      3       2.9445      2.00000
      4       2.9483      2.00000
      5      10.4224      0.00000
      6      15.5914      0.00000
      7      19.5568      0.00000
      8      20.0374      0.00000
      9      21.2128      0.00000
     10      25.0587      0.00000
     11      27.0579      0.00000
     12      30.1559      0.00000
     13      30.4407      0.00000
     14      31.1940      0.00000
     15      37.4160      0.00000
     16      39.1781      0.00000

 k-point     5 :       0.3750    0.3750    0.1250
  band No.  band energies     occupation 
      1     -12.6759      2.00000
      2       0.1097      2.00000
      3       2.2530      2.00000
      4       2.4862      2.00000
      5      12.3530      0.00000
      6      13.9950      0.00000
      7      17.3064      0.00000
      8      20.9363      0.00000
      9      21.3933      0.00000
     10      27.2393      0.00000
     11      30.3451      0.00000
     12      30.6139      0.00000
     13      32.5274      0.00000
     14      35.0192      0.00000
     15      36.6723      0.00000
     16      38.0884      0.00000

 k-point     6 :      -0.3750    0.3750    0.1250
  band No.  band energies     occupation 
      1     -12.2597      2.00000
      2      -0.0086      2.00000
      3       0.9919      2.00000
      4       2.0745      2.00000
      5      13.8671      0.00000
      6      14.9058      0.00000
      7      15.6977      0.00000
      8      19.7112      0.00000
      9      23.1567      0.00000
     10      26.6099      0.00000
     11      30.1732      0.00000
     12      31.5956      0.00000
     13      32.8637      0.00000
     14      36.5379      0.00000
     15      39.1094      0.00000
     16      41.3287      0.00000

 k-point     7 :      -0.1250    0.3750    0.1250
  band No.  band energies     occupation 
      1     -12.5187      2.00000
      2      -0.2119      2.00000
      3       1.7348      2.00000
      4       2.5755      2.00000
      5      12.7110      0.00000
      6      14.9048      0.00000
      7      17.0788      0.00000
      8      20.2742      0.00000
      9      22.8436      0.00000
     10      25.5181      0.00000
     11      29.0530      0.00000
     12      31.8447      0.00000
     13      32.4265      0.00000
     14      35.0912      0.00000
     15      35.7341      0.00000
     16      41.2357      0.00000

 k-point     8 :      -0.3750   -0.3750    0.1250
  band No.  band energies     occupation 
      1     -12.2964      2.00000
      2      -0.3732      2.00000
      3       1.7346      2.00000
      4       2.1915      2.00000
      5      12.9415      0.00000
      6      13.6241      0.00000
      7      16.1484      0.00000
      8      21.6473      0.00000
      9      21.6582      0.00000
     10      29.1270      0.00000
     11      29.5586      0.00000
     12      32.1415      0.00000
     13      32.8561      0.00000
     14      38.0049      0.00000
     15      38.3866      0.00000
     16      41.3176      0.00000

 k-point     9 :       0.3750    0.3750    0.3750
  band No.  band energies     occupation 
      1     -12.7122      2.00000
      2      -0.5672      2.00000
      3       2.8725      2.00000
      4       2.8725      2.00000
      5      11.0474      0.00000
      6      15.5668      0.00000
      7      19.6639      0.00000
      8      19.6639      0.00000
      9      24.2533      0.00000
     10      24.5932      0.00000
     11      24.5932      0.00000
     12      32.1079      0.00000
     13      33.4278      0.00000
     14      33.4278      0.00000
     15      37.0417      0.00000
     16      37.0417      0.00000

 k-point    10 :      -0.3750    0.3750    0.3750
  band No.  band energies     occupation 
      1     -12.3441      2.00000
      2      -0.2508      2.00000
      3       1.0979      2.00000
      4       2.5451      2.00000
      5      13.1900      0.00000
      6      15.3640      0.00000
      7      16.2700      0.00000
      8      20.5860      0.00000
      9      22.6698      0.00000
     10      25.6943      0.00000
     11      29.2732      0.00000
     12      31.8150      0.00000
     13      32.2378      0.00000
     14      35.5766      0.00000
     15      37.4612      0.00000
     16      40.3350      0.00000


--------------------------------------------------------------------------------------------------------


 soft charge-density along one line, spin component           1
         0         1         2         3         4         5         6         7         8         9
 total charge-density along one line
 
 pseudopotential strength for first ion, spin component:           1
 25.182  -0.005  -0.000  -0.000  -0.000   0.000   0.000   0.000
 -0.005   0.001  -0.000  -0.000  -0.000  -0.000  -0.000  -0.000
 -0.000  -0.000  -8.627   0.000   0.000   0.014   0.000   0.000
 -0.000  -0.000   0.000  -8.627   0.000   0.000   0.014   0.000
 -0.000  -0.000   0.000   0.000  -8.627   0.000   0.000   0.014
  0.000  -0.000   0.014   0.000   0.000   0.018   0.000   0.000
  0.000  -0.000   0.000   0.014   0.000   0.000   0.018   0.000
  0.000  -0.000   0.000   0.000   0.014   0.000   0.000   0.018
 total augmentation occupancy for first ion, spin component:           1
  1.787   2.154   0.000   0.000   0.000   0.000   0.000   0.000
  2.154   4.167   0.000   0.000   0.000   0.000   0.000   0.000
  0.000   0.000   1.498   0.000   0.000  -0.973  -0.000  -0.000
  0.000   0.000   0.000   1.498   0.000  -0.000  -0.973  -0.000
  0.000   0.000   0.000   0.000   1.498  -0.000  -0.000  -0.973
  0.000   0.000  -0.973  -0.000  -0.000   0.695   0.000   0.000
  0.000   0.000  -0.000  -0.973  -0.000   0.000   0.695   0.000
  0.000   0.000  -0.000  -0.000  -0.973   0.000   0.000   0.695


------------------------ aborting loop because EDIFF is reached ----------------------------------------


    CHARGE:  cpu time    0.0100: real time    0.0098
    FORLOC:  cpu time    0.0010: real time    0.0002
    FORNL :  cpu time    0.0060: real time    0.0065
    STRESS:  cpu time    0.0640: real time    0.0639
    FORCOR:  cpu time    0.0030: real time    0.0034
    FORHAR:  cpu time    0.0010: real time    0.0008
    MIXING:  cpu time    0.0010: real time    0.0005
    OFIELD:  cpu time    0.0000: real time    0.0000

  FORCE on cell =-STRESS in cart. coord.  units (eV):
  Direction    XX          YY          ZZ          XY          YZ          ZX
  --------------------------------------------------------------------------------------
  Alpha Z    15.91937    15.91937    15.91937
  Ewald    -118.46471  -118.46474  -118.46473     0.00000    -0.00002     0.00000
  Hartree    47.12086    47.12087    47.12086     0.00000     0.00001     0.00000
  E(xc)     -36.97441   -36.97441   -36.97441    -0.00000     0.00000    -0.00000
  Local     -88.70213   -88.70216   -88.70213    -0.00002    -0.00001    -0.00001
  n-local    -9.04185    -9.24764   -10.37345     0.23256     0.47399    -1.15344
  augment     0.84202     0.84203     0.84203    -0.00000    -0.00000    -0.00000
  Kinetic   185.87602   188.89902   194.73774     0.68034    -1.76559     4.00285
  Fock        0.00000     0.00000     0.00000     0.00000     0.00000     0.00000
  -------------------------------------------------------------------------------------
  Total       0.02426     0.02426     0.02426     0.00000     0.00000     0.00000
  in kB       2.03213     2.03213     2.03213     0.00000     0.00000     0.00000
  external pressure =        2.03 kB  Pullay stress =        0.00 kB


 VOLUME and BASIS-vectors are now :
 -----------------------------------------------------------------------------
  energy-cutoff  :     1050.00
  volume of cell :       19.13
      direct lattice vectors                 reciprocal lattice vectors
     3.001819000  0.000000000  0.000000000     0.333131345 -0.192333499 -0.136000318
     1.500910000  2.599652000  0.000000000     0.000000000  0.384666871 -0.136000352
     1.500910000  0.866551000  2.450975000     0.000000000  0.000000000  0.408000898

  length of vectors
     3.001819000  3.001819673  3.001819434     0.408000925  0.408000854  0.408000898


 FORCES acting on ions
    electron-ion (+dipol)            ewald-force                    non-local-force                 convergence-correction
 -----------------------------------------------------------------------------------------------
   0.750E-12 0.785E-12 0.377E-12   -.125E-14 0.936E-15 0.445E-15   0.146E-23 -.180E-24 -.632E-24   0.358E-14 -.265E-14 -.696E-14
   -.819E-15 -.925E-15 -.105E-14   0.194E-15 -.884E-15 -.477E-15   -.499E-24 0.941E-25 -.258E-24   -.454E-16 0.256E-16 0.157E-17
 -----------------------------------------------------------------------------------------------
   0.750E-12 0.784E-12 0.376E-12   -.105E-14 0.525E-16 -.315E-16   0.962E-24 -.862E-25 -.890E-24   0.354E-14 -.262E-14 -.696E-14
 
 
 POSITION                                       TOTAL-FORCE (eV/Angst)
 -----------------------------------------------------------------------------------
      3.00182      1.73310      1.22549        -0.000000      0.000000      0.000000
      0.00000      0.00000      0.00000         0.000000     -0.000000     -0.000000
 -----------------------------------------------------------------------------------
    total drift:                                0.000000      0.000000      0.000000


--------------------------------------------------------------------------------------------------------



  FREE ENERGIE OF THE ION-ELECTRON SYSTEM (eV)
  ---------------------------------------------------
  free  energy   TOTEN  =       -11.91983493 eV

  energy  without entropy=      -11.91983493  energy(sigma->0) =      -11.91983493
 


--------------------------------------------------------------------------------------------------------


    POTLOK:  cpu time    0.0070: real time    0.0068


--------------------------------------------------------------------------------------------------------


     LOOP+:  cpu time    1.3078: real time    1.3702
    4ORBIT:  cpu time    0.0000: real time    0.0000

 total amount of memory used by VASP on root node    35362. kBytes
========================================================================

   base      :      30000. kBytes
   nonl-proj :       3176. kBytes
   fftplans  :        320. kBytes
   grid      :       1605. kBytes
   one-center:         16. kBytes
   wavefun   :        245. kBytes
 
  
  
 General timing and accounting informations for this job:
 ========================================================
  
                  Total CPU time used (sec):        2.643
                            User time (sec):        1.910
                          System time (sec):        0.733
                         Elapsed time (sec):        3.085
  
                   Maximum memory used (kb):       65148.
                   Average memory used (kb):           0.
  
                          Minor page faults:        36105
                          Major page faults:            7
                 Voluntary context switches:         1100
