# ['Ni']

20 atoms
1 atom types

    0.0000     3.5160 xlo xhi
    0.0000     3.5160 ylo yhi
    0.0000    35.1604 zlo zhi

    0.0000    -0.0000     0.0000 xy xz yz

Atoms

1 1     0.0000     0.0000     0.0000
2 1     1.7580     1.7580     0.0000
3 1     1.7580     0.0000     1.7580
4 1     0.0000     1.7580     1.7580
5 1     0.0000     0.0000     3.5160
6 1     1.7580     1.7580     3.5160
7 1     1.7580     0.0000     5.2741
8 1     0.0000     1.7580     5.2741
9 1     0.0000     0.0000     7.0321
10 1     1.7580     1.7580     7.0321
11 1     1.7580     0.0000     8.7901
12 1     0.0000     1.7580     8.7901
13 1     0.0000     0.0000    10.5481
14 1     1.7580     1.7580    10.5481
15 1     1.7580     0.0000    12.3061
16 1     0.0000     1.7580    12.3061
17 1     0.0000     0.0000    14.0642
18 1     1.7580     1.7580    14.0642
19 1     1.7580     0.0000    15.8222
20 1     0.0000     1.7580    15.8222
