# ['Ni']

28 atoms
1 atom types

    0.0000     2.5180 xlo xhi
    0.0000     4.3614 ylo yhi
    0.0000    28.7836 zlo zhi

    0.0000     0.0000     0.0000 xy xz yz

Atoms

1 1     0.0000     0.0000     0.0000
2 1     1.2590     2.1807     0.0000
3 1     1.2590     0.7269     2.0560
4 1     0.0000     2.9076     2.0560
5 1     0.0000     1.4538     4.1119
6 1     1.2590     3.6345     4.1119
7 1     0.0000     0.0000     6.1679
8 1     1.2590     2.1807     6.1679
9 1     1.2590     0.7269     8.2239
10 1     0.0000     2.9076     8.2239
11 1     0.0000     1.4538    10.2799
12 1     1.2590     3.6345    10.2799
13 1     0.0000     0.0000    12.3358
14 1     1.2590     2.1807    12.3358
15 1     0.0000     1.4538    14.3918
16 1     1.2590     3.6345    14.3918
17 1     0.0000     0.0000    16.4478
18 1     1.2590     2.1807    16.4478
19 1     1.2590     0.7269    18.5037
20 1     0.0000     2.9076    18.5037
21 1     0.0000     1.4538    20.5597
22 1     1.2590     3.6345    20.5597
23 1     0.0000     0.0000    22.6157
24 1     1.2590     2.1807    22.6157
25 1     1.2590     0.7269    24.6717
26 1     0.0000     2.9076    24.6717
27 1     0.0000     1.4538    26.7276
28 1     1.2590     3.6345    26.7276
