# ['Ni']

28 atoms
1 atom types

    0.0000     2.0850 xlo xhi
    0.0000     3.6114 ylo yhi
    0.0000    23.8339 zlo zhi

    0.0000     0.0000     0.0000 xy xz yz

Atoms

1 1     0.0000     0.0000     0.0000
2 1     1.0425     1.8057     0.0000
3 1     1.0425     0.6019     1.7024
4 1     0.0000     2.4076     1.7024
5 1     0.0000     1.2038     3.4048
6 1     1.0425     3.0095     3.4048
7 1     0.0000     0.0000     5.1073
8 1     1.0425     1.8057     5.1073
9 1     1.0425     0.6019     6.8097
10 1     0.0000     2.4076     6.8097
11 1     0.0000     1.2038     8.5121
12 1     1.0425     3.0095     8.5121
13 1     0.0000     0.0000    10.2145
14 1     1.0425     1.8057    10.2145
15 1     0.0000     1.2038    11.9170
16 1     1.0425     3.0095    11.9170
17 1     0.0000     0.0000    13.6194
18 1     1.0425     1.8057    13.6194
19 1     1.0425     0.6019    15.3218
20 1     0.0000     2.4076    15.3218
21 1     0.0000     1.2038    17.0242
22 1     1.0425     3.0095    17.0242
23 1     0.0000     0.0000    18.7266
24 1     1.0425     1.8057    18.7266
25 1     1.0425     0.6019    20.4291
26 1     0.0000     2.4076    20.4291
27 1     0.0000     1.2038    22.1315
28 1     1.0425     3.0095    22.1315
