LAMMPS (11 Aug 2017)
# ---- initialize simulations
clear
units metal
dimension 3
boundary p p p
atom_style atomic
atom_modify map array
# ---- create atoms
read_data /home/eragasa/repos/pypospack/tests/tests_integration/task/lammps/LammpsStructuralMinimization/dev__eam_Ni__file/Ni_fcc.lmps_min_all/lammps.structure
  triclinic box = (0 0 0) to (3.5167 3.5167 3.5167) with tilt (0 -0 0)
  1 by 1 by 1 MPI processor grid
  reading atoms ...
  4 atoms
# ---- define interatomic potential
include potential.mod
mass 1 58.6934

group Ni type 1
4 atoms in group Ni

pair_style eam/alloy
pair_coeff * * /home/eragasa/repos/pypospack/tests/tests_integration/task/lammps/LammpsStructuralMinimization/dev__eam_Ni__file/Ni_fcc.lmps_min_all/Ni.eam.alloy Ni

neighbor 1.0 bin
neigh_modify every 1 delay 0 check yes
# ---- define settings
compute eng all pe/atom
compute eatoms all reduce sum c_eng
# ---- run minimization
reset_timestep 0
fix 1 all box/relax iso 0.0 vmax 0.001
thermo 10
thermo_style custom step pe lx ly lz xy xz yz press pxx pyy pzz pxy pxz pyz c_eatoms
min_style cg
minimize 1e-25 1e-25 5000 10000
Neighbor list info ...
  update every 1 steps, delay 0 steps, check yes
  max neighbors/atom: 2000, page size: 100000
  master list distance cutoff = 6.80375
  ghost atom cutoff = 6.80375
  binsize = 3.40187, bins = 2 2 2
  1 neighbor lists, perpetual/occasional/extra = 1 0 0
  (1) pair eam/alloy, perpetual
      attributes: half, newton on
      pair build: half/bin/newton/tri
      stencil: half/bin/3d/newton/tri
      bin: standard
Per MPI rank memory allocation (min/avg/max) = 4.211 | 4.211 | 4.211 Mbytes
Step PotEng Lx Ly Lz Xy Xz Yz Press Pxx Pyy Pzz Pxy Pxz Pyz c_eatoms 
       0   -17.799805       3.5167       3.5167       3.5167            0           -0            0    5119.1598    5119.1598    5119.1598    5119.1598 6.3904972e-13 1.1502895e-12 6.2626873e-12   -17.799805 
       8        -17.8    3.5199994    3.5199994    3.5199994            0           -0            0 -1.1380301e-09 -1.1460701e-09 -1.1342172e-09 -1.133803e-09 -9.2401885e-13 -3.5686245e-12 4.5627414e-11        -17.8 
Loop time of 0.000828028 on 1 procs for 8 steps with 4 atoms

120.8% CPU use with 1 MPI tasks x no OpenMP threads

Minimization stats:
  Stopping criterion = energy tolerance
  Energy initial, next-to-last, final = 
        -17.7998045661     -17.7999999934     -17.7999999934
  Force two-norm initial, final = 0.416888 9.28734e-14
  Force max component initial, final = 0.416884 9.28507e-14
  Final line search alpha, max atom move = 1 9.28507e-14
  Iterations, force evaluations = 8 16

MPI task timing breakdown:
Section |  min time  |  avg time  |  max time  |%varavg| %total
---------------------------------------------------------------
Pair    | 0.00054622 | 0.00054622 | 0.00054622 |   0.0 | 65.97
Neigh   | 0          | 0          | 0          |   0.0 |  0.00
Comm    | 6.4373e-05 | 6.4373e-05 | 6.4373e-05 |   0.0 |  7.77
Output  | 0          | 0          | 0          |   0.0 |  0.00
Modify  | 0          | 0          | 0          |   0.0 |  0.00
Other   |            | 0.0002174  |            |       | 26.26

Nlocal:    4 ave 4 max 4 min
Histogram: 1 0 0 0 0 0 0 0 0 0
Nghost:    360 ave 360 max 360 min
Histogram: 1 0 0 0 0 0 0 0 0 0
Neighs:    268 ave 268 max 268 min
Histogram: 1 0 0 0 0 0 0 0 0 0

Total # of neighbors = 268
Ave neighs/atom = 67
Neighbor list builds = 0
Dangerous builds = 0
# ---- define output variables ----
variable natoms equal "count(all)"
variable tot_energy equal "c_eatoms"
variable length_x equal "lx"
variable length_y equal "ly"
variable length_z equal "lz"
variable tilt_xy equal "xy"
variable tilt_xz equal "xz"
variable tilt_yz equal "yz"
variable tot_press equal "press"
variable press_xx equal "pxx"
variable press_yy equal "pyy"
variable press_zz equal "pzz"
variable press_xy equal "pxy"
variable press_xz equal "pxz"
variable press_yz equal "pyz"

# ---- output ----
print "pypospack:output_section:begin"
pypospack:output_section:begin
print "tot_energy = ${tot_energy}"
tot_energy = -17.7999999933955
print "num_atoms = ${natoms}"
num_atoms = 4
print "xx = ${length_x}"
xx = 3.51999943754043
print "yy = ${length_y}"
yy = 3.51999943754043
print "zz = ${length_z}"
zz = 3.51999943754043
print "xy = ${tilt_xy}"
xy = 0
print "xz = ${tilt_xz}"
xz = -0
print "yz = ${tilt_yz}"
yz = 0
print "tot_press = ${tot_press}"
tot_press = -1.13803011857119e-09
print "pxx = ${press_xx}"
pxx = -1.14607014501745e-09
print "pyy = ${press_yy}"
pyy = -1.13421721302243e-09
print "pzz = ${press_zz}"
pzz = -1.13380299767368e-09
print "pxy = ${press_xy}"
pxy = -9.24018854893682e-13
print "pxz = ${press_xz}"
pxz = -3.56862454303767e-12
print "pyz = ${press_yz}"
pyz = 4.56274138002673e-11
print "pypospack:output_section:done"
pypospack:output_section:done
print "pypospack:lammps_sim:done"
pypospack:lammps_sim:done
Total wall time: 0:00:00
