    2    2    1    1
  0.9563318E+01  0.3001819E-09  0.3001820E-09  0.3001819E-09  0.5000000E-15
  1.000000000000000E-004
  CAR 
 automatically generated by pyflamestk   
      8     10     16
 
  0.1250000E+00  0.1250000E+00  0.1250000E+00  0.3125000E-01
    1      -13.579710   1.000000
    2        2.469340   1.000000
    3        3.315651   1.000000
    4        3.315652   1.000000
    5        8.831225   0.000000
    6       17.413487   0.000000
    7       19.429156   0.000000
    8       19.429159   0.000000
    9       23.678872   0.000000
   10       23.678876   0.000000
   11       25.020030   0.000000
   12       27.456122   0.000000
   13       28.886702   0.000000
   14       28.886706   0.000000
   15       39.154272   0.000000
   16       41.057770   0.000000
 
  0.3750000E+00  0.1250000E+00  0.1250000E+00  0.9375000E-01
    1      -12.921249   1.000000
    2        0.296401   1.000000
    3        2.453836   1.000000
    4        3.017957   1.000000
    5       11.249014   0.000000
    6       15.352588   0.000000
    7       18.763309   0.000000
    8       20.430606   0.000000
    9       22.251377   0.000000
   10       24.482571   0.000000
   11       26.601497   0.000000
   12       31.261987   0.000000
   13       32.536886   0.000000
   14       33.411318   0.000000
   15       35.780862   0.000000
   16       39.076042   0.000000
 
 -0.3750000E+00  0.1250000E+00  0.1250000E+00  0.9375000E-01
    1      -12.480624   1.000000
    2       -0.837060   1.000000
    3        2.304125   1.000000
    4        2.679062   1.000000
    5       11.836933   0.000000
    6       15.565042   0.000000
    7       18.052572   0.000000
    8       19.868809   0.000000
    9       23.859217   0.000000
   10       26.109912   0.000000
   11       26.205202   0.000000
   12       32.486668   0.000000
   13       33.086103   0.000000
   14       33.429468   0.000000
   15       36.011735   0.000000
   16       37.721902   0.000000
 
 -0.1250000E+00  0.1250000E+00  0.1250000E+00  0.9375000E-01
    1      -13.213094   1.000000
    2        1.184729   1.000000
    3        2.945368   1.000000
    4        2.949017   1.000000
    5       10.420604   0.000000
    6       15.592937   0.000000
    7       19.557165   0.000000
    8       20.037963   0.000000
    9       21.213183   0.000000
   10       25.058419   0.000000
   11       27.059234   0.000000
   12       30.156575   0.000000
   13       30.442217   0.000000
   14       31.194606   0.000000
   15       37.416784   0.000000
   16       39.181066   0.000000
 
  0.3750000E+00  0.3750000E+00  0.1250000E+00  0.9375000E-01
    1      -12.683474   1.000000
    2        0.110406   1.000000
    3        2.254137   1.000000
    4        2.486654   1.000000
    5       12.353133   0.000000
    6       13.996652   0.000000
    7       17.307647   0.000000
    8       20.937435   0.000000
    9       21.394610   0.000000
   10       27.239163   0.000000
   11       30.345869   0.000000
   12       30.613673   0.000000
   13       32.528177   0.000000
   14       35.021113   0.000000
   15       36.672678   0.000000
   16       38.089223   0.000000
 
 -0.3750000E+00  0.3750000E+00  0.1250000E+00  0.1875000E+00
    1      -12.267729   1.000000
    2       -0.008416   1.000000
    3        0.993275   1.000000
    4        2.076400   1.000000
    5       13.868746   0.000000
    6       14.907575   0.000000
    7       15.699786   0.000000
    8       19.710878   0.000000
    9       23.157808   0.000000
   10       26.610617   0.000000
   11       30.172066   0.000000
   12       31.597291   0.000000
   13       32.865194   0.000000
   14       36.538616   0.000000
   15       39.109630   0.000000
   16       41.329447   0.000000
 
 -0.1250000E+00  0.3750000E+00  0.1250000E+00  0.1875000E+00
    1      -12.526383   1.000000
    2       -0.210969   1.000000
    3        1.735500   1.000000
    4        2.577156   1.000000
    5       12.711258   0.000000
    6       14.907802   0.000000
    7       17.079520   0.000000
    8       20.275121   0.000000
    9       22.844393   0.000000
   10       25.518603   0.000000
   11       29.054058   0.000000
   12       31.845577   0.000000
   13       32.427161   0.000000
   14       35.091353   0.000000
   15       35.735596   0.000000
   16       41.236592   0.000000
 
 -0.3750000E+00 -0.3750000E+00  0.1250000E+00  0.9375000E-01
    1      -12.304423   1.000000
    2       -0.372820   1.000000
    3        1.735263   1.000000
    4        2.191811   1.000000
    5       12.942616   0.000000
    6       13.624020   0.000000
    7       16.151503   0.000000
    8       21.648329   0.000000
    9       21.659775   0.000000
   10       29.123825   0.000000
   11       29.558522   0.000000
   12       32.142078   0.000000
   13       32.857626   0.000000
   14       38.005374   0.000000
   15       38.386697   0.000000
   16       41.317318   0.000000
 
  0.3750000E+00  0.3750000E+00  0.3750000E+00  0.3125000E-01
    1      -12.719708   1.000000
    2       -0.566686   1.000000
    3        2.873413   1.000000
    4        2.873414   1.000000
    5       11.046360   0.000000
    6       15.570284   0.000000
    7       19.664083   0.000000
    8       19.664086   0.000000
    9       24.254587   0.000000
   10       24.594084   0.000000
   11       24.594087   0.000000
   12       32.107883   0.000000
   13       33.429122   0.000000
   14       33.429125   0.000000
   15       37.041699   0.000000
   16       37.041705   0.000000
 
 -0.3750000E+00  0.3750000E+00  0.3750000E+00  0.9375000E-01
    1      -12.352000   1.000000
    2       -0.250399   1.000000
    3        1.098453   1.000000
    4        2.545864   1.000000
    5       13.190507   0.000000
    6       15.366701   0.000000
    7       16.270963   0.000000
    8       20.586823   0.000000
    9       22.668866   0.000000
   10       25.694951   0.000000
   11       29.274324   0.000000
   12       31.815759   0.000000
   13       32.239071   0.000000
   14       35.577473   0.000000
   15       37.461036   0.000000
   16       40.335387   0.000000
