# ['Ni']

28 atoms
1 atom types

    0.0000     2.4808 xlo xhi
    0.0000     4.2969 ylo yhi
    0.0000    28.3584 zlo zhi

    0.0000     0.0000     0.0000 xy xz yz

Atoms

1 1     0.0000     0.0000     0.0000
2 1     1.2404     2.1485     0.0000
3 1     1.2404     0.7162     2.0256
4 1     0.0000     2.8646     2.0256
5 1     0.0000     1.4323     4.0512
6 1     1.2404     3.5808     4.0512
7 1     0.0000     0.0000     6.0768
8 1     1.2404     2.1485     6.0768
9 1     1.2404     0.7162     8.1024
10 1     0.0000     2.8646     8.1024
11 1     0.0000     1.4323    10.1280
12 1     1.2404     3.5808    10.1280
13 1     0.0000     0.0000    12.1536
14 1     1.2404     2.1485    12.1536
15 1     0.0000     1.4323    14.1792
16 1     1.2404     3.5808    14.1792
17 1     0.0000     0.0000    16.2048
18 1     1.2404     2.1485    16.2048
19 1     1.2404     0.7162    18.2304
20 1     0.0000     2.8646    18.2304
21 1     0.0000     1.4323    20.2560
22 1     1.2404     3.5808    20.2560
23 1     0.0000     0.0000    22.2816
24 1     1.2404     2.1485    22.2816
25 1     1.2404     0.7162    24.3072
26 1     0.0000     2.8646    24.3072
27 1     0.0000     1.4323    26.3328
28 1     1.2404     3.5808    26.3328
