LAMMPS (11 Aug 2017)
Reading data file ...
  triclinic box = (0 0 0) to (3.5069 3.5069 35.0686) with tilt (0 -0 0)
  1 by 1 by 1 MPI processor grid
  reading atoms ...
  20 atoms
20 atoms in group Ni
Neighbor list info ...
  update every 1 steps, delay 0 steps, check yes
  max neighbors/atom: 2000, page size: 100000
  master list distance cutoff = 11
  ghost atom cutoff = 11
  binsize = 5.5, bins = 1 1 7
  1 neighbor lists, perpetual/occasional/extra = 1 0 0
  (1) pair eam/alloy, perpetual
      attributes: half, newton on
      pair build: half/bin/newton/tri
      stencil: half/bin/3d/newton/tri
      bin: standard
Setting up cg style minimization ...
  Unit style    : metal
  Current step  : 0
Per MPI rank memory allocation (min/avg/max) = 4.357 | 4.357 | 4.357 Mbytes
Step PotEng Lx Ly Lz Xy Xz Yz Press Pxx Pyy Pzz Pxy Pxz Pyz c_eatoms 
       0   -84.435687       3.5069       3.5069      35.0686            0           -0            0    5021.3116   -674.55908   -674.55908    16413.053 -2.721615e-09 5.1959159e-12 6.5280395e-12   -84.435687 
       1   -84.510532       3.5069       3.5069      35.0686            0           -0            0    534.18181   -4097.2071   -4097.2071    9796.9597 -3.405625e-08 -8.6865039e-12 -2.9462619e-11   -84.510532 
       2    -84.52765       3.5069       3.5069      35.0686            0           -0            0   -1558.9948   -5818.4652   -5818.4652    6959.9462 2.3050796e-08 2.8249109e-12 -2.1924521e-11    -84.52765 
       3   -84.534869       3.5069       3.5069      35.0686            0           -0            0    -2087.865   -6371.1182   -6371.1182    6478.6415 2.2272435e-09 -2.1514474e-11 -9.6503414e-12   -84.534869 
       4    -84.53717       3.5069       3.5069      35.0686            0           -0            0   -2548.6158    -6777.484    -6777.484    5909.1205 1.2437212e-09 5.1607224e-12 -4.0263496e-11    -84.53717 
       5   -84.537792       3.5069       3.5069      35.0686            0           -0            0   -3235.1941   -7317.9005   -7317.9005    4930.2187 4.3439086e-09 -3.08082e-11 2.4872868e-11   -84.537792 
       6   -84.538904       3.5069       3.5069      35.0686            0           -0            0   -4597.2168   -8496.3241   -8496.3241    3200.9978 5.174911e-09 5.3363307e-11 -2.323855e-11   -84.538904 
       7   -84.540467       3.5069       3.5069      35.0686            0           -0            0   -6323.9472   -10052.063   -10052.063    1132.2852 3.6424578e-09 3.7684882e-11 7.1152545e-11   -84.540467 
       8   -84.541089       3.5069       3.5069      35.0686            0           -0            0   -7001.0682   -10666.849   -10666.849    330.49267 1.2799195e-09 3.6182732e-11 -5.365033e-13   -84.541089 
       9   -84.541752       3.5069       3.5069      35.0686            0           -0            0   -7553.8712   -11174.966   -11174.966   -311.68193 6.8158073e-09 -9.2735499e-12 6.3744148e-12   -84.541752 
      10   -84.541764       3.5069       3.5069      35.0686            0           -0            0   -7518.4408   -11150.786   -11150.786    -253.7499 2.1204406e-10 4.3829363e-11 -2.5640774e-11   -84.541764 
      11   -84.541766       3.5069       3.5069      35.0686            0           -0            0   -7495.3256   -11132.301   -11132.301   -221.37489 6.9783075e-10 -2.9601223e-11 -1.1128218e-11   -84.541766 
      12   -84.541767       3.5069       3.5069      35.0686            0           -0            0   -7456.5863   -11099.294   -11099.294   -171.17126 4.5337196e-09 -5.1535959e-11 3.4988621e-12   -84.541767 
      13   -84.541769       3.5069       3.5069      35.0686            0           -0            0   -7417.4129   -11065.599   -11065.599   -121.04143 2.6237628e-10 -5.4031445e-11 -1.8280791e-11   -84.541769 
      14   -84.541771       3.5069       3.5069      35.0686            0           -0            0    -7359.493   -11011.622   -11011.622   -55.235272 4.0942912e-08 -3.5714768e-12 3.2125463e-11   -84.541771 
      15   -84.541773       3.5069       3.5069      35.0686            0           -0            0   -7316.0294   -10973.563   -10973.563  -0.96135012 1.3498788e-09 -3.1583989e-11 4.2245155e-11   -84.541773 
      16   -84.541773       3.5069       3.5069      35.0686            0           -0            0   -7313.2525   -10971.324   -10971.324    2.8903814 -3.5084101e-10 -5.8556193e-11 1.3282148e-11   -84.541773 
      17   -84.541773       3.5069       3.5069      35.0686            0           -0            0   -7313.0843   -10971.204   -10971.204    3.1550847 2.1467999e-11 -5.1711974e-11 2.3333795e-11   -84.541773 
      18   -84.541773       3.5069       3.5069      35.0686            0           -0            0    -7313.395   -10971.478   -10971.478    2.7705545 7.795171e-11 4.0903008e-12 5.2762877e-11   -84.541773 
      19   -84.541773       3.5069       3.5069      35.0686            0           -0            0   -7313.9092   -10971.895   -10971.895    2.0614537 -1.5723765e-12 2.0885602e-11 1.1457434e-11   -84.541773 
      20   -84.541773       3.5069       3.5069      35.0686            0           -0            0   -7314.1151   -10972.068   -10972.068    1.7910975 -1.1637635e-11 9.2968145e-12 2.4004864e-11   -84.541773 
      21   -84.541773       3.5069       3.5069      35.0686            0           -0            0   -7314.4338   -10972.365   -10972.365    1.4278818 -2.1947174e-11 4.631676e-11 -3.864752e-13   -84.541773 
      22   -84.541773       3.5069       3.5069      35.0686            0           -0            0   -7314.6324   -10972.546   -10972.546    1.1944364 -1.898597e-11 -4.9196828e-12 2.3121483e-11   -84.541773 
      23   -84.541773       3.5069       3.5069      35.0686            0           -0            0    -7314.795   -10972.701   -10972.701    1.0169893 6.6137127e-11 3.4333285e-11 3.480987e-11   -84.541773 
      24   -84.541773       3.5069       3.5069      35.0686            0           -0            0   -7315.2061    -10973.07    -10973.07   0.52180132 -5.5768622e-11 -2.1849485e-11 -2.4738415e-12   -84.541773 
      25   -84.541773       3.5069       3.5069      35.0686            0           -0            0   -7315.5658   -10973.377   -10973.377  0.057020441 4.2524406e-11 1.2600177e-11 -2.0436273e-11   -84.541773 
      26   -84.541773       3.5069       3.5069      35.0686            0           -0            0   -7315.6104   -10973.414   -10973.414 -0.0022764654 3.4172039e-11 -2.3379937e-12 1.4420592e-11   -84.541773 
      27   -84.541773       3.5069       3.5069      35.0686            0           -0            0   -7315.6213   -10973.424   -10973.424 -0.015092185 8.0510328e-12 -6.9905932e-11 -4.7391371e-12   -84.541773 
      28   -84.541773       3.5069       3.5069      35.0686            0           -0            0   -7315.6224   -10973.425   -10973.425 -0.016726798 3.5298532e-11 2.5864432e-11 -1.3384153e-11   -84.541773 
      29   -84.541773       3.5069       3.5069      35.0686            0           -0            0   -7315.6225   -10973.425   -10973.425 -0.016772806 -1.8024958e-11 1.0092998e-11 1.1899507e-11   -84.541773 
      30   -84.541773       3.5069       3.5069      35.0686            0           -0            0   -7315.6234   -10973.426   -10973.426 -0.018367707 -4.8532075e-11 -6.6642759e-13 -3.3698188e-13   -84.541773 
      31   -84.541773       3.5069       3.5069      35.0686            0           -0            0   -7315.6218   -10973.424   -10973.424 -0.016582553 5.4203193e-12 1.5249062e-11 -2.791595e-11   -84.541773 
      32   -84.541773       3.5069       3.5069      35.0686            0           -0            0    -7315.613   -10973.417   -10973.417 -0.0058911988 -2.4108618e-11 2.6842398e-11 -2.4086547e-11   -84.541773 
      33   -84.541773       3.5069       3.5069      35.0686            0           -0            0    -7315.609   -10973.413   -10973.413 -0.00081917833 -1.1859146e-11 -3.7882548e-11 2.1499021e-11   -84.541773 
      34   -84.541773       3.5069       3.5069      35.0686            0           -0            0   -7315.6084   -10973.413   -10973.413 4.0197076e-05 -3.9273196e-12 1.8509284e-11 1.6063954e-11   -84.541773 
      35   -84.541773       3.5069       3.5069      35.0686            0           -0            0   -7315.6084   -10973.413   -10973.413 0.00012918355 4.009434e-14 -7.9433599e-12 -1.2642791e-11   -84.541773 
      36   -84.541773       3.5069       3.5069      35.0686            0           -0            0   -7315.6083   -10973.413   -10973.413 0.00021305683 -1.3044304e-11 -2.2402673e-12 1.0338295e-11   -84.541773 
      37   -84.541773       3.5069       3.5069      35.0686            0           -0            0   -7315.6083   -10973.413   -10973.413 0.00021054201 -1.8252962e-13 -1.1941762e-11 -7.2061002e-12   -84.541773 
      38   -84.541773       3.5069       3.5069      35.0686            0           -0            0   -7315.6083   -10973.413   -10973.413 0.00017891159 -5.8258442e-12 1.373674e-11 -1.7180607e-11   -84.541773 
      39   -84.541773       3.5069       3.5069      35.0686            0           -0            0   -7315.6084   -10973.413   -10973.413 0.00011134492 -1.9759681e-11 -2.9726262e-11 8.1886915e-13   -84.541773 
      40   -84.541773       3.5069       3.5069      35.0686            0           -0            0   -7315.6084   -10973.413   -10973.413 7.5969264e-05 1.0357373e-11 3.1419872e-13 -5.3464487e-11   -84.541773 
      41   -84.541773       3.5069       3.5069      35.0686            0           -0            0   -7315.6084   -10973.413   -10973.413 5.8600337e-05 -5.7060457e-12 3.4503785e-11 9.7782172e-12   -84.541773 
      42   -84.541773       3.5069       3.5069      35.0686            0           -0            0   -7315.6085   -10973.413   -10973.413 1.2672238e-05 3.9777097e-12 4.8022506e-12 -3.2598344e-11   -84.541773 
      43   -84.541773       3.5069       3.5069      35.0686            0           -0            0   -7315.6085   -10973.413   -10973.413 -3.4978725e-06 -5.6761402e-12 1.5264366e-11 -2.9461505e-11   -84.541773 
      44   -84.541773       3.5069       3.5069      35.0686            0           -0            0   -7315.6085   -10973.413   -10973.413 -3.7259734e-06 -3.7393551e-11 5.1728119e-11 4.2020914e-11   -84.541773 
      45   -84.541773       3.5069       3.5069      35.0686            0           -0            0   -7315.6085   -10973.413   -10973.413 -2.8008359e-06 -5.4007535e-11 -3.7579237e-11 2.019009e-11   -84.541773 
      46   -84.541773       3.5069       3.5069      35.0686            0           -0            0   -7315.6085   -10973.413   -10973.413 -1.9012048e-06 -1.5383967e-11 2.290782e-11 4.980324e-11   -84.541773 
      47   -84.541773       3.5069       3.5069      35.0686            0           -0            0   -7315.6085   -10973.413   -10973.413 -1.6348545e-06 -6.0164839e-11 2.9856842e-11 -2.8066167e-11   -84.541773 
      48   -84.541773       3.5069       3.5069      35.0686            0           -0            0   -7315.6085   -10973.413   -10973.413 -1.5208171e-06 3.0956575e-11 1.3653012e-11 -1.0302782e-11   -84.541773 
      49   -84.541773       3.5069       3.5069      35.0686            0           -0            0   -7315.6085   -10973.413   -10973.413 -1.2395273e-06 9.090553e-12 -8.3858137e-12 7.8641766e-12   -84.541773 
      50   -84.541773       3.5069       3.5069      35.0686            0           -0            0   -7315.6085   -10973.413   -10973.413 -2.1741606e-07 2.8471286e-11 -1.6391047e-11 4.7120151e-11   -84.541773 
      51   -84.541773       3.5069       3.5069      35.0686            0           -0            0   -7315.6085   -10973.413   -10973.413 2.2359052e-08 -7.3320912e-12 1.4011095e-11 -2.6099584e-12   -84.541773 
      52   -84.541773       3.5069       3.5069      35.0686            0           -0            0   -7315.6085   -10973.413   -10973.413 4.0062525e-08 -1.1224382e-11 -3.013005e-11 3.1457298e-11   -84.541773 
      53   -84.541773       3.5069       3.5069      35.0686            0           -0            0   -7315.6085   -10973.413   -10973.413 3.0308563e-08 -2.1236092e-12 -7.8660158e-12 1.0828729e-11   -84.541773 
      54   -84.541773       3.5069       3.5069      35.0686            0           -0            0   -7315.6085   -10973.413   -10973.413 2.0478391e-08 2.0542953e-12 3.3192188e-11 6.1530275e-12   -84.541773 
      55   -84.541773       3.5069       3.5069      35.0686            0           -0            0   -7315.6085   -10973.413   -10973.413 1.8059009e-08 -8.4799309e-12 -6.6833366e-12 1.727646e-11   -84.541773 
      56   -84.541773       3.5069       3.5069      35.0686            0           -0            0   -7315.6085   -10973.413   -10973.413 1.5677335e-08 2.7021817e-11 -2.4044191e-12 1.5602645e-11   -84.541773 
      57   -84.541773       3.5069       3.5069      35.0686            0           -0            0   -7315.6085   -10973.413   -10973.413 7.1104943e-09 5.0673777e-11 1.1305674e-11 4.6679274e-11   -84.541773 
      58   -84.541773       3.5069       3.5069      35.0686            0           -0            0   -7315.6085   -10973.413   -10973.413 4.4053593e-09 2.9623097e-11 3.4213139e-11 4.7897979e-11   -84.541773 
      59   -84.541773       3.5069       3.5069      35.0686            0           -0            0   -7315.6085   -10973.413   -10973.413 3.2778538e-09 1.4238639e-11 -3.3665259e-12 7.4994024e-11   -84.541773 
      60   -84.541773       3.5069       3.5069      35.0686            0           -0            0   -7315.6085   -10973.413   -10973.413 3.3157165e-09 -1.3438822e-11 4.3140269e-11 2.3499301e-11   -84.541773 
      61   -84.541773       3.5069       3.5069      35.0686            0           -0            0   -7315.6085   -10973.413   -10973.413 3.0546917e-09 -6.1157871e-13 4.2333928e-11 5.5463805e-11   -84.541773 
      62   -84.541773       3.5069       3.5069      35.0686            0           -0            0   -7315.6085   -10973.413   -10973.413 2.8040831e-09 4.1803803e-11 4.3263994e-11 5.0804674e-11   -84.541773 
      63   -84.541773       3.5069       3.5069      35.0686            0           -0            0   -7315.6085   -10973.413   -10973.413 2.8276903e-09 3.2037706e-11 2.8894882e-11 3.2460588e-12   -84.541773 
      64   -84.541773       3.5069       3.5069      35.0686            0           -0            0   -7315.6085   -10973.413   -10973.413 2.5563346e-09   1.4805e-11 1.3595795e-11 2.836499e-11   -84.541773 
      65   -84.541773       3.5069       3.5069      35.0686            0           -0            0   -7315.6085   -10973.413   -10973.413 2.1162722e-09 -1.129571e-11 8.1599628e-12 1.6852999e-11   -84.541773 
      66   -84.541773       3.5069       3.5069      35.0686            0           -0            0   -7315.6085   -10973.413   -10973.413 1.4074292e-09 1.7045658e-11 -8.047194e-12 1.0513987e-11   -84.541773 
      67   -84.541773       3.5069       3.5069      35.0686            0           -0            0   -7315.6085   -10973.413   -10973.413 8.9895227e-10 -4.5734357e-12 6.362755e-12 1.8649469e-12   -84.541773 
      68   -84.541773       3.5069       3.5069      35.0686            0           -0            0   -7315.6085   -10973.413   -10973.413 9.4512626e-10 5.4751134e-11 3.111317e-12 1.6785973e-11   -84.541773 
      69   -84.541773       3.5069       3.5069      35.0686            0           -0            0   -7315.6085   -10973.413   -10973.413 9.9924929e-10 2.8675817e-11 2.4217318e-11 3.1927477e-11   -84.541773 
      70   -84.541773       3.5069       3.5069      35.0686            0           -0            0   -7315.6085   -10973.413   -10973.413 8.6328315e-10 -1.9756667e-11 2.6524008e-11 1.9127193e-11   -84.541773 
      71   -84.541773       3.5069       3.5069      35.0686            0           -0            0   -7315.6085   -10973.413   -10973.413  7.56391e-10 -1.7917721e-12 -1.0815056e-11 2.0038416e-11   -84.541773 
      72   -84.541773       3.5069       3.5069      35.0686            0           -0            0   -7315.6085   -10973.413   -10973.413 5.5103208e-10 1.9226838e-11 3.5058529e-11 1.2981309e-11   -84.541773 
      73   -84.541773       3.5069       3.5069      35.0686            0           -0            0   -7315.6085   -10973.413   -10973.413 5.1360643e-10 5.0637043e-11 2.2961433e-11 1.4784692e-11   -84.541773 
      74   -84.541773       3.5069       3.5069      35.0686            0           -0            0   -7315.6085   -10973.413   -10973.413 5.0752175e-10 2.8507529e-11 3.1905406e-11 4.4942662e-11   -84.541773 
      75   -84.541773       3.5069       3.5069      35.0686            0           -0            0   -7315.6085   -10973.413   -10973.413 4.8285878e-10 4.1748214e-11 6.3557934e-11 4.6833509e-11   -84.541773 
      76   -84.541773       3.5069       3.5069      35.0686            0           -0            0   -7315.6085   -10973.413   -10973.413 4.9394896e-10 -7.524904e-12 1.1951397e-11 3.1708909e-11   -84.541773 
      77   -84.541773       3.5069       3.5069      35.0686            0           -0            0   -7315.6085   -10973.413   -10973.413 5.2458051e-10 3.6600116e-11 -2.6539193e-11 2.3876774e-11   -84.541773 
      78   -84.541773       3.5069       3.5069      35.0686            0           -0            0   -7315.6085   -10973.413   -10973.413 4.9091475e-10 2.455975e-12 -1.7622543e-11 5.9161807e-11   -84.541773 
      79   -84.541773       3.5069       3.5069      35.0686            0           -0            0   -7315.6085   -10973.413   -10973.413 3.2900466e-10 1.0084435e-11 4.1990629e-11 3.2059493e-11   -84.541773 
      80   -84.541773       3.5069       3.5069      35.0686            0           -0            0   -7315.6085   -10973.413   -10973.413 3.2168515e-10 -8.3507555e-12 1.7894889e-11 1.7262624e-11   -84.541773 
      81   -84.541773       3.5069       3.5069      35.0686            0           -0            0   -7315.6085   -10973.413   -10973.413 3.2307701e-10 7.2743191e-12 3.1748902e-11 3.2732173e-12   -84.541773 
      82   -84.541773       3.5069       3.5069      35.0686            0           -0            0   -7315.6085   -10973.413   -10973.413 2.2390757e-10 5.6569955e-11 2.991225e-11 4.9752035e-12   -84.541773 
      83   -84.541773       3.5069       3.5069      35.0686            0           -0            0   -7315.6085   -10973.413   -10973.413 2.7636977e-10 9.3401373e-13 -1.4021694e-11 2.6668337e-11   -84.541773 
Loop time of 0.102633 on 1 procs for 83 steps with 20 atoms

45.4% CPU use with 1 MPI tasks x no OpenMP threads

Minimization stats:
  Stopping criterion = energy tolerance
  Energy initial, next-to-last, final = 
          -84.43568706     -84.5417727001     -84.5417727001
  Force two-norm initial, final = 1.61403 2.96172e-14
  Force max component initial, final = 0.589818 9.72833e-15
  Final line search alpha, max atom move = 1 9.72833e-15
  Iterations, force evaluations = 83 166

MPI task timing breakdown:
Section |  min time  |  avg time  |  max time  |%varavg| %total
---------------------------------------------------------------
Pair    | 0.099345   | 0.099345   | 0.099345   |   0.0 | 96.80
Neigh   | 0          | 0          | 0          |   0.0 |  0.00
Comm    | 0.0015357  | 0.0015357  | 0.0015357  |   0.0 |  1.50
Output  | 0.0012937  | 0.0012937  | 0.0012937  |   0.0 |  1.26
Modify  | 0          | 0          | 0          |   0.0 |  0.00
Other   |            | 0.0004587  |            |       |  0.45

Nlocal:    20 ave 20 max 20 min
Histogram: 1 0 0 0 0 0 0 0 0 0
Nghost:    1893 ave 1893 max 1893 min
Histogram: 1 0 0 0 0 0 0 0 0 0
Neighs:    4044 ave 4044 max 4044 min
Histogram: 1 0 0 0 0 0 0 0 0 0

Total # of neighbors = 4044
Ave neighs/atom = 202.2
Neighbor list builds = 0
Dangerous builds = 0
pypospack:output_section:begin
tot_energy = -84.5417727001
num_atoms = 20
a11 = 3.5069
a22 = 3.5069
a33 = 35.0686
a12 = 0
a13 = -0
a23 = 0
tot_press = -7315.60846863554
pxx = -10973.4127029534
pyy = -10973.4127029535
pzz = 2.76369769737904e-10
pxy = 9.34013730129036e-13
pxz = -1.40216942924965e-11
pyz = 2.66683371146006e-11
pypospack:output_section:done
pypospack:lammps_sim:done
Total wall time: 0:00:00
