# ['Ni']

10 atoms
1 atom types

    0.0000     3.3009 xlo xhi
    0.0000     2.3629 ylo yhi
    0.0000    23.6293 zlo zhi

    0.0000     0.0000     0.0000 xy xz yz

Atoms

1 1     0.0000     0.0000     0.0000
2 1     1.6505     1.1815     1.1815
3 1     0.0000     0.0000     2.3629
4 1     1.6505     1.1815     3.5444
5 1     0.0000     0.0000     4.7259
6 1     1.6505     1.1815     5.9073
7 1     0.0000     0.0000     7.0888
8 1     1.6505     1.1815     8.2703
9 1     0.0000     0.0000     9.4517
10 1     1.6505     1.1815    10.6332
