# ['Ni']

107 atoms
1 atom types

    0.0000     8.8460 xlo xhi
    0.0000     8.8460 ylo yhi
    0.0000     8.8460 zlo zhi

    0.0000    -0.0000    -0.0000 xy xz yz

Atoms

1 1     1.4743     1.4743     0.0000
2 1     1.4743     0.0000     1.4743
3 1     0.0000     1.4743     1.4743
4 1     0.0000     0.0000     2.9487
5 1     1.4743     1.4743     2.9487
6 1     1.4743     0.0000     4.4230
7 1     0.0000     1.4743     4.4230
8 1     0.0000     0.0000     5.8974
9 1     1.4743     1.4743     5.8974
10 1     1.4743     0.0000     7.3717
11 1     0.0000     1.4743     7.3717
12 1     0.0000     2.9487     0.0000
13 1     1.4743     4.4230     0.0000
14 1     1.4743     2.9487     1.4743
15 1     0.0000     4.4230     1.4743
16 1     0.0000     2.9487     2.9487
17 1     1.4743     4.4230     2.9487
18 1     1.4743     2.9487     4.4230
19 1     0.0000     4.4230     4.4230
20 1     0.0000     2.9487     5.8974
21 1     1.4743     4.4230     5.8974
22 1     1.4743     2.9487     7.3717
23 1     0.0000     4.4230     7.3717
24 1     0.0000     5.8974     0.0000
25 1     1.4743     7.3717     0.0000
26 1     1.4743     5.8974     1.4743
27 1     0.0000     7.3717     1.4743
28 1     0.0000     5.8974     2.9487
29 1     1.4743     7.3717     2.9487
30 1     1.4743     5.8974     4.4230
31 1     0.0000     7.3717     4.4230
32 1     0.0000     5.8974     5.8974
33 1     1.4743     7.3717     5.8974
34 1     1.4743     5.8974     7.3717
35 1     0.0000     7.3717     7.3717
36 1     2.9487     0.0000     0.0000
37 1     4.4230     1.4743     0.0000
38 1     4.4230     0.0000     1.4743
39 1     2.9487     1.4743     1.4743
40 1     2.9487     0.0000     2.9487
41 1     4.4230     1.4743     2.9487
42 1     4.4230     0.0000     4.4230
43 1     2.9487     1.4743     4.4230
44 1     2.9487     0.0000     5.8974
45 1     4.4230     1.4743     5.8974
46 1     4.4230     0.0000     7.3717
47 1     2.9487     1.4743     7.3717
48 1     2.9487     2.9487     0.0000
49 1     4.4230     4.4230     0.0000
50 1     4.4230     2.9487     1.4743
51 1     2.9487     4.4230     1.4743
52 1     2.9487     2.9487     2.9487
53 1     4.4230     4.4230     2.9487
54 1     4.4230     2.9487     4.4230
55 1     2.9487     4.4230     4.4230
56 1     2.9487     2.9487     5.8974
57 1     4.4230     4.4230     5.8974
58 1     4.4230     2.9487     7.3717
59 1     2.9487     4.4230     7.3717
60 1     2.9487     5.8974     0.0000
61 1     4.4230     7.3717     0.0000
62 1     4.4230     5.8974     1.4743
63 1     2.9487     7.3717     1.4743
64 1     2.9487     5.8974     2.9487
65 1     4.4230     7.3717     2.9487
66 1     4.4230     5.8974     4.4230
67 1     2.9487     7.3717     4.4230
68 1     2.9487     5.8974     5.8974
69 1     4.4230     7.3717     5.8974
70 1     4.4230     5.8974     7.3717
71 1     2.9487     7.3717     7.3717
72 1     5.8974     0.0000     0.0000
73 1     7.3717     1.4743     0.0000
74 1     7.3717     0.0000     1.4743
75 1     5.8974     1.4743     1.4743
76 1     5.8974     0.0000     2.9487
77 1     7.3717     1.4743     2.9487
78 1     7.3717     0.0000     4.4230
79 1     5.8974     1.4743     4.4230
80 1     5.8974     0.0000     5.8974
81 1     7.3717     1.4743     5.8974
82 1     7.3717     0.0000     7.3717
83 1     5.8974     1.4743     7.3717
84 1     5.8974     2.9487     0.0000
85 1     7.3717     4.4230     0.0000
86 1     7.3717     2.9487     1.4743
87 1     5.8974     4.4230     1.4743
88 1     5.8974     2.9487     2.9487
89 1     7.3717     4.4230     2.9487
90 1     7.3717     2.9487     4.4230
91 1     5.8974     4.4230     4.4230
92 1     5.8974     2.9487     5.8974
93 1     7.3717     4.4230     5.8974
94 1     7.3717     2.9487     7.3717
95 1     5.8974     4.4230     7.3717
96 1     5.8974     5.8974     0.0000
97 1     7.3717     7.3717     0.0000
98 1     7.3717     5.8974     1.4743
99 1     5.8974     7.3717     1.4743
100 1     5.8974     5.8974     2.9487
101 1     7.3717     7.3717     2.9487
102 1     7.3717     5.8974     4.4230
103 1     5.8974     7.3717     4.4230
104 1     5.8974     5.8974     5.8974
105 1     7.3717     7.3717     5.8974
106 1     7.3717     5.8974     7.3717
107 1     5.8974     7.3717     7.3717
