# ['Ni']

20 atoms
1 atom types

    0.0000     3.5214 xlo xhi
    0.0000     3.5214 ylo yhi
    0.0000    35.2138 zlo zhi

    0.0000    -0.0000     0.0000 xy xz yz

Atoms

1 1     0.0000     0.0000     0.0000
2 1     1.7607     1.7607     0.0000
3 1     1.7607     0.0000     1.7607
4 1     0.0000     1.7607     1.7607
5 1     0.0000     0.0000     3.5214
6 1     1.7607     1.7607     3.5214
7 1     1.7607     0.0000     5.2821
8 1     0.0000     1.7607     5.2821
9 1     0.0000     0.0000     7.0428
10 1     1.7607     1.7607     7.0428
11 1     1.7607     0.0000     8.8034
12 1     0.0000     1.7607     8.8034
13 1     0.0000     0.0000    10.5641
14 1     1.7607     1.7607    10.5641
15 1     1.7607     0.0000    12.3248
16 1     0.0000     1.7607    12.3248
17 1     0.0000     0.0000    14.0855
18 1     1.7607     1.7607    14.0855
19 1     1.7607     0.0000    15.8462
20 1     0.0000     1.7607    15.8462
