LAMMPS (11 Aug 2017)
# ---- initialize simulations
clear
units metal
dimension 3
boundary p p p
atom_style atomic
atom_modify map array
# ---- create atoms
read_data /home/sullberg/repos/pypospack/examples/Ni__eam__born_exp_rose/01_preconditioning_3.5NN/rank_31/Ni_fcc_100_s.lmps_min_pos/lammps.structure
  triclinic box = (0 0 0) to (3.5214 3.5214 35.2138) with tilt (0 -0 0)
  1 by 1 by 1 MPI processor grid
  reading atoms ...
  20 atoms
# ---- define interatomic potential
include potential.mod
mass 1 58.6934

group Ni type 1
20 atoms in group Ni

pair_style eam/alloy
pair_coeff * * /home/sullberg/repos/pypospack/examples/Ni__eam__born_exp_rose/01_preconditioning_3.5NN/rank_31/Ni_fcc_100_s.lmps_min_pos/Ni.eam.alloy Ni

neighbor 1.0 bin
neigh_modify every 1 delay 0 check yes
# ---- define settings
compute eng all pe/atom
compute eatoms all reduce sum c_eng

# ---- run minimization
reset_timestep 0
thermo 1
thermo_style custom step pe lx ly lz xy xz yz press pxx pyy pzz pxy pxz pyz c_eatoms
min_style cg
minimize 1e-20 1e-20 1000 100000
Neighbor list info ...
  update every 1 steps, delay 0 steps, check yes
  max neighbors/atom: 2000, page size: 100000
  master list distance cutoff = 11
  ghost atom cutoff = 11
  binsize = 5.5, bins = 1 1 7
  1 neighbor lists, perpetual/occasional/extra = 1 0 0
  (1) pair eam/alloy, perpetual
      attributes: half, newton on
      pair build: half/bin/newton/tri
      stencil: half/bin/3d/newton/tri
      bin: standard
Per MPI rank memory allocation (min/avg/max) = 4.357 | 4.357 | 4.357 Mbytes
Step PotEng Lx Ly Lz Xy Xz Yz Press Pxx Pyy Pzz Pxy Pxz Pyz c_eatoms 
       0    -87.47089       3.5214       3.5214      35.2138            0           -0            0    -33216.63   -37375.456   -37375.456   -24898.977 -7.0394605e-12 1.2050248e-11 1.0263401e-11    -87.47089 
       1   -87.914881       3.5214       3.5214      35.2138            0           -0            0   -25124.385   -28585.311   -28585.311   -18202.533 3.7594123e-12 4.3470206e-12 1.2935368e-12   -87.914881 
       2   -88.115326       3.5214       3.5214      35.2138            0           -0            0   -13327.972   -15446.699   -15446.699   -9090.5166 4.6704295e-12 -1.0332239e-12 -7.0091849e-13   -88.115326 
       3   -88.124927       3.5214       3.5214      35.2138            0           -0            0   -9552.5066   -11245.814   -11245.814   -6165.8926 2.6176428e-12 -1.6562388e-13 -2.6445899e-14   -88.124927 
       4    -88.12861       3.5214       3.5214      35.2138            0           -0            0   -8473.5282   -10282.894   -10282.894   -4854.7971 1.1056246e-12 -1.9192643e-14 -2.9664751e-13    -88.12861 
       5   -88.132521       3.5214       3.5214      35.2138            0           -0            0   -4385.8675   -6043.2531   -6043.2531   -1071.0962 -1.1163406e-12 -4.5043029e-13 -2.1027539e-12   -88.132521 
       6   -88.133558       3.5214       3.5214      35.2138            0           -0            0   -4371.9864   -6157.7849   -6157.7849   -800.38944 2.5362485e-13 7.0196896e-13 1.3820863e-12   -88.133558 
       7   -88.133792       3.5214       3.5214      35.2138            0           -0            0   -3779.7226   -5525.4048   -5525.4048   -288.35835 -2.8769209e-12 -4.2617391e-13 1.1349336e-12   -88.133792 
       8   -88.133815       3.5214       3.5214      35.2138            0           -0            0   -3630.4121   -5364.6217   -5364.6217    -161.9931 1.2208717e-12 -3.9462639e-13 -2.2877672e-12   -88.133815 
       9   -88.133817       3.5214       3.5214      35.2138            0           -0            0   -3635.8857   -5376.2122   -5376.2122   -155.23261 5.2964833e-13 -5.7623789e-13 -1.3092014e-12   -88.133817 
      10    -88.13382       3.5214       3.5214      35.2138            0           -0            0    -3534.139   -5270.5093   -5270.5093   -61.398416 1.1635729e-12 -1.1705653e-12 -1.7624863e-12    -88.13382 
      11   -88.133822       3.5214       3.5214      35.2138            0           -0            0   -3473.8342   -5210.1575   -5210.1575   -1.1875284 -1.3003299e-12 -1.6767354e-12 -6.1630436e-14   -88.133822 
      12   -88.133822       3.5214       3.5214      35.2138            0           -0            0   -3476.2712   -5213.1384   -5213.1384   -2.5368201 5.9299977e-13 1.8417999e-14 -6.3045307e-13   -88.133822 
      13   -88.133822       3.5214       3.5214      35.2138            0           -0            0   -3475.0174   -5211.8111   -5211.8111   -1.4300412 -4.2477691e-13 4.2213189e-13 -1.2631213e-12   -88.133822 
      14   -88.133822       3.5214       3.5214      35.2138            0           -0            0   -3474.3096   -5211.0741   -5211.0741  -0.78080583 -5.0544711e-13 8.3457801e-13 -6.0703971e-13   -88.133822 
      15   -88.133822       3.5214       3.5214      35.2138            0           -0            0   -3474.1556   -5210.9652   -5210.9652  -0.53641114 2.8789255e-13 1.6516644e-13 1.4700748e-12   -88.133822 
      16   -88.133822       3.5214       3.5214      35.2138            0           -0            0   -3473.6195   -5210.4063   -5210.4063 -0.045935076 -1.5039486e-12 -3.9180519e-14 -1.5418626e-12   -88.133822 
      17   -88.133822       3.5214       3.5214      35.2138            0           -0            0   -3473.5786   -5210.3587   -5210.3587 -0.018418159 8.6135451e-13 8.9493459e-13 2.0518473e-12   -88.133822 
      18   -88.133822       3.5214       3.5214      35.2138            0           -0            0   -3473.5937   -5210.3767   -5210.3767 -0.027879342 -2.5266746e-12 1.1927971e-12 -6.609439e-13   -88.133822 
      19   -88.133822       3.5214       3.5214      35.2138            0           -0            0   -3473.5808   -5210.3635   -5210.3635 -0.015573266 -2.72193e-13 7.2147705e-13 5.3428998e-13   -88.133822 
      20   -88.133822       3.5214       3.5214      35.2138            0           -0            0    -3473.566   -5210.3483   -5210.3483 -0.0015480536 -1.972146e-12 2.3593526e-13 -2.4734557e-12   -88.133822 
      21   -88.133822       3.5214       3.5214      35.2138            0           -0            0   -3473.5673   -5210.3499   -5210.3499 -0.002087799 -4.0591817e-13 9.6869458e-13 -1.3389129e-12   -88.133822 
      22   -88.133822       3.5214       3.5214      35.2138            0           -0            0   -3473.5664   -5210.3489   -5210.3489 -0.0011957871 -5.6950249e-13 -3.6154202e-13 7.6224435e-13   -88.133822 
      23   -88.133822       3.5214       3.5214      35.2138            0           -0            0   -3473.5655    -5210.348    -5210.348 -0.00044257457 5.7459323e-13 1.8251454e-13 -1.5381984e-12   -88.133822 
      24   -88.133822       3.5214       3.5214      35.2138            0           -0            0   -3473.5653   -5210.3479   -5210.3479 -0.0002267738 1.4279449e-12 1.3285047e-12 -1.2420878e-13   -88.133822 
      25   -88.133822       3.5214       3.5214      35.2138            0           -0            0   -3473.5653   -5210.3478   -5210.3478 -0.00016614096 2.4152424e-13 5.2017681e-13 8.8456741e-13   -88.133822 
      26   -88.133822       3.5214       3.5214      35.2138            0           -0            0   -3473.5652   -5210.3478   -5210.3478 -0.00010114075 -9.2609207e-14 -7.7114382e-14 -1.4393462e-14   -88.133822 
      27   -88.133822       3.5214       3.5214      35.2138            0           -0            0   -3473.5652   -5210.3477   -5210.3477 -5.7894436e-05 -2.8864622e-13 -1.3022948e-12 1.0387962e-12   -88.133822 
      28   -88.133822       3.5214       3.5214      35.2138            0           -0            0   -3473.5651   -5210.3477   -5210.3477 -3.553606e-05 -6.8232392e-14 7.0797575e-14 -2.4238225e-12   -88.133822 
      29   -88.133822       3.5214       3.5214      35.2138            0           -0            0   -3473.5651   -5210.3477   -5210.3477 -1.1914083e-05 9.2593978e-13 9.5898783e-13 -7.0797187e-13   -88.133822 
      30   -88.133822       3.5214       3.5214      35.2138            0           -0            0   -3473.5651   -5210.3477   -5210.3477 -7.0580445e-06 -1.3094966e-12 6.1783403e-13 -1.7924495e-12   -88.133822 
      31   -88.133822       3.5214       3.5214      35.2138            0           -0            0   -3473.5651   -5210.3477   -5210.3477 -7.2974511e-06 9.0987971e-13 1.102784e-13 -2.9251711e-12   -88.133822 
      32   -88.133822       3.5214       3.5214      35.2138            0           -0            0   -3473.5651   -5210.3477   -5210.3477 -2.6658131e-06 8.3850833e-13 -5.5456262e-13 5.7882463e-13   -88.133822 
      33   -88.133822       3.5214       3.5214      35.2138            0           -0            0   -3473.5651   -5210.3477   -5210.3477 -1.0545018e-06 1.0082914e-12 -9.3716649e-13 8.7937256e-14   -88.133822 
      34   -88.133822       3.5214       3.5214      35.2138            0           -0            0   -3473.5651   -5210.3477   -5210.3477 -7.3142068e-07 -9.3075236e-13 2.6752629e-13 3.5743104e-13   -88.133822 
      35   -88.133822       3.5214       3.5214      35.2138            0           -0            0   -3473.5651   -5210.3477   -5210.3477 -5.199214e-07 -1.9440614e-12 -7.3948598e-13 9.2319006e-13   -88.133822 
      36   -88.133822       3.5214       3.5214      35.2138            0           -0            0   -3473.5651   -5210.3477   -5210.3477 -2.6327752e-07 4.7932055e-13 2.6203642e-12 2.6448649e-12   -88.133822 
      37   -88.133822       3.5214       3.5214      35.2138            0           -0            0   -3473.5651   -5210.3477   -5210.3477 -1.4205623e-07 -4.7544966e-13 -1.1544406e-12 -3.2262575e-12   -88.133822 
      38   -88.133822       3.5214       3.5214      35.2138            0           -0            0   -3473.5651   -5210.3477   -5210.3477 -1.0366442e-07 1.4164783e-12 2.6409459e-13 -7.1559866e-13   -88.133822 
      39   -88.133822       3.5214       3.5214      35.2138            0           -0            0   -3473.5651   -5210.3477   -5210.3477 -4.1071441e-08 9.9684963e-13 -7.4621846e-14 -8.9448239e-13   -88.133822 
      40   -88.133822       3.5214       3.5214      35.2138            0           -0            0   -3473.5651   -5210.3477   -5210.3477 -1.8879913e-08 -8.2878838e-13 1.1489969e-12 -1.4087218e-12   -88.133822 
      41   -88.133822       3.5214       3.5214      35.2138            0           -0            0   -3473.5651   -5210.3477   -5210.3477 -1.8658127e-08 -7.9978079e-13 1.4606365e-12 -7.5731056e-13   -88.133822 
      42   -88.133822       3.5214       3.5214      35.2138            0           -0            0   -3473.5651   -5210.3477   -5210.3477 -8.35384e-09 1.7425234e-12 -2.0490463e-13 -1.5716565e-12   -88.133822 
Loop time of 0.0193539 on 1 procs for 42 steps with 20 atoms

100.0% CPU use with 1 MPI tasks x no OpenMP threads

Minimization stats:
  Stopping criterion = energy tolerance
  Energy initial, next-to-last, final = 
        -87.4708904847     -88.1338219669     -88.1338219669
  Force two-norm initial, final = 2.05795 2.34696e-13
  Force max component initial, final = 0.793003 1.07199e-13
  Final line search alpha, max atom move = 1 1.07199e-13
  Iterations, force evaluations = 42 79

MPI task timing breakdown:
Section |  min time  |  avg time  |  max time  |%varavg| %total
---------------------------------------------------------------
Pair    | 0.017974   | 0.017974   | 0.017974   |   0.0 | 92.87
Neigh   | 0          | 0          | 0          |   0.0 |  0.00
Comm    | 0.00063801 | 0.00063801 | 0.00063801 |   0.0 |  3.30
Output  | 0.00054145 | 0.00054145 | 0.00054145 |   0.0 |  2.80
Modify  | 0          | 0          | 0          |   0.0 |  0.00
Other   |            | 0.0002     |            |       |  1.03

Nlocal:    20 ave 20 max 20 min
Histogram: 1 0 0 0 0 0 0 0 0 0
Nghost:    1893 ave 1893 max 1893 min
Histogram: 1 0 0 0 0 0 0 0 0 0
Neighs:    4044 ave 4044 max 4044 min
Histogram: 1 0 0 0 0 0 0 0 0 0

Total # of neighbors = 4044
Ave neighs/atom = 202.2
Neighbor list builds = 0
Dangerous builds = 0

# ---- define output variables ----
variable natoms equal "count(all)"
variable tot_energy equal "c_eatoms"
variable a11 equal "xhi-xlo"
variable a22 equal "yhi-ylo"
variable a33 equal "zhi-zlo"
variable tilt_xy equal "xy"
variable tilt_xz equal "xz"
variable tilt_yz equal "yz"
variable tot_press equal "press"
variable press_xx equal "pxx"
variable press_yy equal "pyy"
variable press_zz equal "pzz"
variable press_xy equal "pxy"
variable press_xz equal "pxz"
variable press_yz equal "pyz"

# ---- output ----
print "pypospack:output_section:begin"
pypospack:output_section:begin
print "tot_energy = ${tot_energy}"
tot_energy = -88.1338219668698
print "num_atoms = ${natoms}"
num_atoms = 20
print "a11 = ${a11}"
a11 = 3.5214
print "a22 = ${a22}"
a22 = 3.5214
print "a33 = ${a33}"
a33 = 35.2138
print "a12 = ${tilt_xy}"
a12 = 0
print "a13 = ${tilt_xz}"
a13 = -0
print "a23 = ${tilt_yz}"
a23 = 0
print "tot_press = ${tot_press}"
tot_press = -3473.56510410741
print "pxx = ${press_xx}"
pxx = -5210.34765615693
print "pyy = ${press_yy}"
pyy = -5210.34765615693
print "pzz = ${press_zz}"
pzz = -8.35383995927962e-09
print "pxy = ${press_xy}"
pxy = 1.74252343213016e-12
print "pxz = ${press_xz}"
pxz = -2.04904629346565e-13
print "pyz = ${press_yz}"
pyz = -1.5716565244759e-12
print "pypospack:output_section:done"
pypospack:output_section:done
print "pypospack:lammps_sim:done"
pypospack:lammps_sim:done
Total wall time: 0:00:00
