# ['Ni']

10 atoms
1 atom types

    0.0000     3.3563 xlo xhi
    0.0000     2.4026 ylo yhi
    0.0000    24.0260 zlo zhi

    0.0000     0.0000     0.0000 xy xz yz

Atoms

1 1     0.0000     0.0000     0.0000
2 1     1.6782     1.2013     1.2013
3 1     0.0000     0.0000     2.4026
4 1     1.6782     1.2013     3.6039
5 1     0.0000     0.0000     4.8052
6 1     1.6782     1.2013     6.0065
7 1     0.0000     0.0000     7.2078
8 1     1.6782     1.2013     8.4091
9 1     0.0000     0.0000     9.6104
10 1     1.6782     1.2013    10.8117
