# ['Ni']

107 atoms
1 atom types

    0.0000    12.3446 xlo xhi
    0.0000    12.3446 ylo yhi
    0.0000    12.3446 zlo zhi

    0.0000    -0.0000    -0.0000 xy xz yz

Atoms

1 1     2.0574     2.0574     0.0000
2 1     2.0574     0.0000     2.0574
3 1     0.0000     2.0574     2.0574
4 1     0.0000     0.0000     4.1149
5 1     2.0574     2.0574     4.1149
6 1     2.0574     0.0000     6.1723
7 1     0.0000     2.0574     6.1723
8 1     0.0000     0.0000     8.2297
9 1     2.0574     2.0574     8.2297
10 1     2.0574     0.0000    10.2872
11 1     0.0000     2.0574    10.2872
12 1     0.0000     4.1149     0.0000
13 1     2.0574     6.1723     0.0000
14 1     2.0574     4.1149     2.0574
15 1     0.0000     6.1723     2.0574
16 1     0.0000     4.1149     4.1149
17 1     2.0574     6.1723     4.1149
18 1     2.0574     4.1149     6.1723
19 1     0.0000     6.1723     6.1723
20 1     0.0000     4.1149     8.2297
21 1     2.0574     6.1723     8.2297
22 1     2.0574     4.1149    10.2872
23 1     0.0000     6.1723    10.2872
24 1     0.0000     8.2297     0.0000
25 1     2.0574    10.2872     0.0000
26 1     2.0574     8.2297     2.0574
27 1     0.0000    10.2872     2.0574
28 1     0.0000     8.2297     4.1149
29 1     2.0574    10.2872     4.1149
30 1     2.0574     8.2297     6.1723
31 1     0.0000    10.2872     6.1723
32 1     0.0000     8.2297     8.2297
33 1     2.0574    10.2872     8.2297
34 1     2.0574     8.2297    10.2872
35 1     0.0000    10.2872    10.2872
36 1     4.1149     0.0000     0.0000
37 1     6.1723     2.0574     0.0000
38 1     6.1723     0.0000     2.0574
39 1     4.1149     2.0574     2.0574
40 1     4.1149     0.0000     4.1149
41 1     6.1723     2.0574     4.1149
42 1     6.1723     0.0000     6.1723
43 1     4.1149     2.0574     6.1723
44 1     4.1149     0.0000     8.2297
45 1     6.1723     2.0574     8.2297
46 1     6.1723     0.0000    10.2872
47 1     4.1149     2.0574    10.2872
48 1     4.1149     4.1149     0.0000
49 1     6.1723     6.1723     0.0000
50 1     6.1723     4.1149     2.0574
51 1     4.1149     6.1723     2.0574
52 1     4.1149     4.1149     4.1149
53 1     6.1723     6.1723     4.1149
54 1     6.1723     4.1149     6.1723
55 1     4.1149     6.1723     6.1723
56 1     4.1149     4.1149     8.2297
57 1     6.1723     6.1723     8.2297
58 1     6.1723     4.1149    10.2872
59 1     4.1149     6.1723    10.2872
60 1     4.1149     8.2297     0.0000
61 1     6.1723    10.2872     0.0000
62 1     6.1723     8.2297     2.0574
63 1     4.1149    10.2872     2.0574
64 1     4.1149     8.2297     4.1149
65 1     6.1723    10.2872     4.1149
66 1     6.1723     8.2297     6.1723
67 1     4.1149    10.2872     6.1723
68 1     4.1149     8.2297     8.2297
69 1     6.1723    10.2872     8.2297
70 1     6.1723     8.2297    10.2872
71 1     4.1149    10.2872    10.2872
72 1     8.2297     0.0000     0.0000
73 1    10.2872     2.0574     0.0000
74 1    10.2872     0.0000     2.0574
75 1     8.2297     2.0574     2.0574
76 1     8.2297     0.0000     4.1149
77 1    10.2872     2.0574     4.1149
78 1    10.2872     0.0000     6.1723
79 1     8.2297     2.0574     6.1723
80 1     8.2297     0.0000     8.2297
81 1    10.2872     2.0574     8.2297
82 1    10.2872     0.0000    10.2872
83 1     8.2297     2.0574    10.2872
84 1     8.2297     4.1149     0.0000
85 1    10.2872     6.1723     0.0000
86 1    10.2872     4.1149     2.0574
87 1     8.2297     6.1723     2.0574
88 1     8.2297     4.1149     4.1149
89 1    10.2872     6.1723     4.1149
90 1    10.2872     4.1149     6.1723
91 1     8.2297     6.1723     6.1723
92 1     8.2297     4.1149     8.2297
93 1    10.2872     6.1723     8.2297
94 1    10.2872     4.1149    10.2872
95 1     8.2297     6.1723    10.2872
96 1     8.2297     8.2297     0.0000
97 1    10.2872    10.2872     0.0000
98 1    10.2872     8.2297     2.0574
99 1     8.2297    10.2872     2.0574
100 1     8.2297     8.2297     4.1149
101 1    10.2872    10.2872     4.1149
102 1    10.2872     8.2297     6.1723
103 1     8.2297    10.2872     6.1723
104 1     8.2297     8.2297     8.2297
105 1    10.2872    10.2872     8.2297
106 1    10.2872     8.2297    10.2872
107 1     8.2297    10.2872    10.2872
