LAMMPS (10 Feb 2015)
Reading data file ...
  triclinic box = (0 0 0) to (4.2565 4.2565 4.2565) with tilt (0 0 0)
  1 by 1 by 1 MPI processor grid
  reading atoms ...
  8 atoms
4 atoms in group Mg
4 atoms in group O
Setting atom values ...
  4 settings made for charge
Setting atom values ...
  4 settings made for charge
PPPM initialization ...
  G vector (1/distance) = 0.352851
  grid = 8 8 8
  stencil order = 5
  estimated absolute RMS force accuracy = 3.9608e-05
  estimated relative force accuracy = 2.75062e-06
  using double precision FFTs
  3d grid and FFT values/proc = 3375 512
Neighbor list info ...
  1 neighbor list requests
  update every 1 steps, delay 0 steps, check yes
  master list distance cutoff = 11
Setting up minimization ...
Memory usage per processor = 4.06549 Mbytes
Step PotEng Lx Ly Lz Xy Xz Yz Press Pxx Pyy Pzz Pxy Pxz Pyz eatoms 
       0   -110.92329       4.2565       4.2565       4.2565            0            0            0    120138.29    120138.29    120138.29    120138.29 1.5343687e-10 -1.0407196e-10 -1.3145771e-10   -110.92329 
      10   -111.05478     4.299065     4.299065     4.299065            0            0            0    61836.089    61836.089    61836.089    61836.089 1.0666232e-10 -5.0344756e-11 -1.3613158e-10   -111.05478 
      20   -111.10767      4.34163      4.34163      4.34163            0            0            0    10591.608    10591.608    10591.608    10591.608 -1.2465538e-10 -9.1160209e-12 2.8254225e-10   -111.10767 
      25   -111.10952     4.351169     4.351169     4.351169            0            0            0   -6.6622077   -6.6622077   -6.6622077   -6.6622077 -1.5540302e-10 -3.5403029e-11 3.0098099e-10   -111.10952 
Loop time of 0.0159528 on 1 procs for 25 steps with 8 atoms

Minimization stats:
  Stopping criterion = linesearch alpha is zero
  Energy initial, next-to-last, final = 
        -110.923293971     -111.109518965     -111.109518965
  Force two-norm initial, final = 17.348 0.0010058
  Force max component initial, final = 17.348 0.0010053
  Final line search alpha, max atom move = 0.00777135 7.8125e-06
  Iterations, force evaluations = 25 41

Pair  time (%) = 0.00443578 (27.8056)
Kspce time (%) = 0.00286603 (17.9657)
Neigh time (%) = 0 (0)
Comm  time (%) = 0.000582218 (3.64962)
Outpt time (%) = 7.31945e-05 (0.458818)
Other time (%) = 0.00799561 (50.1203)

Nlocal:    8 ave 8 max 8 min
Histogram: 1 0 0 0 0 0 0 0 0 0
Nghost:    2189 ave 2189 max 2189 min
Histogram: 1 0 0 0 0 0 0 0 0 0
Neighs:    2344 ave 2344 max 2344 min
Histogram: 1 0 0 0 0 0 0 0 0 0

Total # of neighbors = 2344
Ave neighs/atom = 293
Neighbor list builds = 0
Dangerous builds = 0
pypospack:output_section:begin
tot_energy = -111.109518965105
num_atoms = 8
xx = 4.35116899821938
yy = 4.35116899821938
zz = 4.35116899821938
xy = 0
xz = 0
yz = 0
tot_press = -6.66220766530753
pxx = -6.66220766529406
pyy = -6.66220766581444
pzz = -6.6622076648141
pxy = -1.55403020158447e-10
pxz = -3.54030294322521e-11
pyz = 3.00980987063428e-10
pypospack:output_section:done
pypospack:lammps_sim:done
PPPM initialization ...
  G vector (1/distance) = 0.351894
  grid = 8 8 8
  stencil order = 5
  estimated absolute RMS force accuracy = 4.14019e-05
  estimated relative force accuracy = 2.8752e-06
  using double precision FFTs
  3d grid and FFT values/proc = 3375 512
Setting up run ...
Memory usage per processor = 3.06549 Mbytes
Step Temp PotEng KinEng TotEng Press Lx Ly Lz Press Pxx Pyy Pzz Pxy Pxz Pyz Volume 
       0         1600   -111.10953    1.4477136   -109.66182    18762.003     4.351169     4.351169     4.351169    18762.003    15884.172    18622.307     21779.53    15294.678    6154.1538    7612.4219    82.379254 
     100    434.62611   -109.88971   0.39325884   -109.49645    41471.557    4.3892415    4.3892415    4.3892415    41471.557    68273.172    3657.1279    52484.372   -8438.3513   -14442.344   -8599.1262    84.560673 
     200    1277.6527   -110.25225     1.156047    -109.0962   -42923.196    4.4492077    4.4492077    4.4492077   -42923.196   -32553.052   -63810.138   -32406.398     7330.743    8528.6426    3075.2857    88.074062 
     300    1328.6113   -109.94935    1.2021555    -108.7472   -11393.331    4.4423969    4.4423969    4.4423969   -11393.331   -16476.252   -15599.073   -2104.6673    8095.3006    6152.0107    6755.8344    87.670215 
     400    1324.7724    -109.6441    1.1986819   -108.44542    26483.104    4.4052859    4.4052859    4.4052859    26483.104    53841.741    24178.647    1428.9235   -4863.3003    -12510.39   -1229.8388    85.491375 
     500    2247.6403   -110.31416    2.0337122   -108.28045    18475.427     4.411694     4.411694     4.411694    18475.427    4225.8044    48532.422    2668.0547   -3741.8128    4187.3255    4557.8335    85.864996 
     600     667.6967   -108.82122   0.60414601   -108.21708    19163.834     4.449891     4.449891     4.449891    19163.834    66877.893   -6165.9209   -3220.4689   -8282.6253    3698.4598    17351.694    88.114648 
     700    1801.7801   -109.75583    1.6302885   -108.12554   -29554.641    4.4695775    4.4695775    4.4695775   -29554.641     3358.553   -40491.912   -51530.563    5656.5835   -3320.0354    14838.245    89.289302 
     800    1801.8641   -109.72427    1.6303645    -108.0939    2594.6169    4.4439799    4.4439799    4.4439799    2594.6169   -39363.982    29497.292    17650.541   -6030.8997    6980.3072   -1728.8458    87.763967 
     900    1824.1221   -109.74669     1.650504   -108.09619    8687.6215     4.410978     4.410978     4.410978    8687.6215    13632.098    38541.588   -26110.822   -7326.0844   -11694.117   -3857.4531    85.823197 
    1000    1421.0997   -109.45199    1.2858409   -108.16615    25721.745    4.4313202    4.4313202    4.4313202    25721.745    61075.078   -37142.405    53232.562    7406.6414   -11668.671    3280.1437    87.016055 
    1100    1727.5175   -109.72497    1.5630941   -108.16188   -34871.987    4.4623206    4.4623206    4.4623206   -34871.987   -50273.522   -21161.932   -33180.507    5612.6115   -6965.7973    7512.2626    88.855088 
    1200    1287.4238   -109.29235    1.1648881   -108.12746    36023.384    4.4546085    4.4546085    4.4546085    36023.384    88828.313    5132.1649    14109.676   -13886.216   -1310.5663    13234.099    88.395188 
    1300    1227.8017   -109.22262    1.1109407   -108.11168    10102.884    4.4496884    4.4496884    4.4496884    10102.884    7959.0605   -25482.685    47832.276    2045.1678   -4041.1806    11000.047    88.102615 
    1400    1633.2906    -109.5927    1.4778357   -108.11486    13528.236    4.4378581    4.4378581    4.4378581    13528.236   -22246.104     45981.75    16849.063    2738.3536    74.526229    18708.754    87.401773 
    1500    1927.9005   -109.89693    1.7444049   -108.15252    487.70504    4.4409489    4.4409489    4.4409489    487.70504   -33018.026    61201.299   -26720.158    12450.638   -10972.308    5334.0141    87.584514 
    1600    1564.7974   -109.58359    1.4158616   -108.16773    11965.588    4.4567665    4.4567665    4.4567665    11965.588   -30299.278     60331.55    5864.4929    10744.577   -2389.4422    27692.192    88.523715 
    1700    1119.8932   -109.16073    1.0133029   -108.14743    7269.8535    4.4664824    4.4664824    4.4664824    7269.8535    8658.1658    38489.548   -25338.154    578.25854   -6497.3389    17492.313    89.103934 
    1800    1469.5852   -109.44188    1.3297116   -108.11217   -17119.302    4.4622769    4.4622769    4.4622769   -17119.302   -49227.488   -7950.9404    5820.5231    15204.575    -3842.149    7658.0356    88.852478 
    1900    2137.5999   -110.02277    1.9341453   -108.08863   -27977.841    4.4501594    4.4501594    4.4501594   -27977.841   -30439.717   -14390.615   -39103.192   -12228.016   -11856.552    16319.243    88.130593 
    2000    1332.2003   -109.31857    1.2054028   -108.11317    28744.175    4.4380018    4.4380018    4.4380018    28744.175   -187.46514    14754.771    71665.218    26391.072    414.98141    3295.4505    87.410264 
    2100    2075.5772   -110.02525    1.8780259   -108.14722   -41027.789    4.4503487    4.4503487    4.4503487   -41027.789   -64436.214   -24313.166   -34333.986    4646.5485   -19981.765   -2096.4103     88.14184 
    2200    1155.8977   -109.20783    1.0458805   -108.16195    3447.4803    4.4578888    4.4578888    4.4578888    3447.4803   -23997.837    50331.755   -15991.477    3841.2444    -11048.01   -1048.9687    88.590611 
    2300    1004.3754   -109.05359   0.90877998   -108.14481    41377.487      4.45015      4.45015      4.45015    41377.487    54888.257    46962.927    22281.276    25383.126   -457.46553    25912.793    88.130034 
    2400    1791.3354   -109.75837    1.6208379   -108.13753    5876.7198    4.4512207    4.4512207    4.4512207    5876.7198    -16604.26    2014.1597     32220.26    7724.6341   -7125.4485    15781.293    88.193666 
    2500    1931.0038   -109.87669    1.7472128   -108.12948   -33562.715     4.450664     4.450664     4.450664   -33562.715   -38385.705   -22094.923   -40207.518    20140.529   -3442.5525   -14074.146    88.160577 
    2600    1603.5095   -109.57548    1.4508891   -108.12459    12620.568    4.4451047    4.4451047    4.4451047    12620.568     22348.36   -19304.952    34818.295   -2420.0531   -5903.4777   -1662.1137    87.830627 
    2700    1768.5521   -109.72878    1.6002231   -108.12856   -10416.493    4.4500199    4.4500199    4.4500199   -10416.493   -33754.571   -27764.188    30269.281     14519.02    2779.9152    34100.674    88.122308 
    2800    1336.0031   -109.33322    1.2088437   -108.12438   -1378.4964    4.4446622    4.4446622    4.4446622   -1378.4964   -17950.532    3153.7644    10661.278    14419.026    -7497.474   -864.28166      87.8044 
    2900    1961.6867    -109.9022    1.7749753   -108.12723   -8922.3556     4.445324     4.445324     4.445324   -8922.3556   -24770.438    35206.814   -37203.443   -4463.6744    -11471.38     13713.46    87.843627 
    3000    1572.5836   -109.56867    1.4229067   -108.14576   -30604.657     4.461046     4.461046     4.461046   -30604.657   -10297.757   -58740.819   -22775.396    4236.8411    5710.4422   -1877.5425    88.778972 
    3100    931.67357   -108.97722   0.84299783   -108.13422    25473.881    4.4443912    4.4443912    4.4443912    25473.881    3426.9295    102257.77   -29263.057    -18699.63    2672.2364    -7891.338    87.788342 
    3200    2232.8884   -110.14793    2.0203643   -108.12757   -6982.6636    4.4270562    4.4270562    4.4270562   -6982.6636       -25138    33850.213   -29660.204    10118.873    473.83357    18134.406    86.765107 
    3300     1286.739   -109.36074    1.1642685   -108.19647    7026.3239    4.4454846    4.4454846    4.4454846    7026.3239   -15437.207    4272.9363    32243.242   -1098.8338   -9425.0708   -10290.849     87.85315 
    3400    2023.8811   -110.00484    1.8312502   -108.17359    -30197.03    4.4549523    4.4549523    4.4549523    -30197.03   -32202.307    -10046.61   -48342.173    3667.0564   -7433.1749    27195.151    88.415653 
    3500    1322.6193   -109.35992    1.1967337   -108.16318    1518.1162    4.4406819    4.4406819    4.4406819    1518.1162    10142.952    17540.834   -23129.437    6074.9309    19223.467   -13355.006    87.568719 
    3600    1960.7354   -109.93231    1.7741146    -108.1582    888.66329    4.4315011    4.4315011    4.4315011    888.66329   -29941.725    46523.109   -13915.394    17858.972   -12320.145   -13713.529    87.026715 
    3700    1464.5336   -109.49782    1.3251408   -108.17268    1597.1699    4.4460586    4.4460586    4.4460586    1597.1699   -53936.361    43288.963    15438.907    498.80025    4379.2721    2357.1049    87.887186 
    3800    1663.0607   -109.67765    1.5047722   -108.17288   -29627.728    4.4438211    4.4438211    4.4438211   -29627.728   -53078.854   -5122.2583   -30682.072    14811.923    504.32035   -21080.776     87.75456 
    3900    1312.7945   -109.35004    1.1878441   -108.16219     30009.17    4.4403722    4.4403722    4.4403722     30009.17   -12099.029    69617.475    32509.063   -5462.8149    1576.1785    22219.258    87.550398 
    4000    1801.3539   -109.79106    1.6299028   -108.16116   -14615.849    4.4431426    4.4431426    4.4431426   -14615.849   -22530.329   -21273.695   -43.521719    8820.9197    6878.4318    24694.269    87.714373 
    4100    1329.2285    -109.3723    1.2027138   -108.16959    22541.317    4.4410607    4.4410607    4.4410607    22541.317   -47173.408    86432.476    28364.884   -7716.3522   -12932.037   -815.63524     87.59113 
    4200    1937.9654   -109.91813    1.7535118   -108.16462   -25753.316    4.4546147    4.4546147    4.4546147   -25753.316   -45802.757   -45312.994    13855.803   -6074.6723    13423.619   -1434.8546    88.395559 
    4300    1682.4538   -109.66119    1.5223196   -108.13887   -14357.245    4.4434016    4.4434016    4.4434016   -14357.245   -38525.218    -33019.11    28472.593   -6096.6097    10347.311   -10601.766     87.72971 
    4400    2035.4375   -109.97707    1.8417067   -108.13537    883.30432    4.4363395    4.4363395    4.4363395    883.30432   -38939.333    50883.297   -9294.0509   -5065.6596   -6106.8134    262.31386    87.312079 
    4500    1597.7253   -109.60801    1.4456555   -108.16235    -13621.74    4.4570892    4.4570892    4.4570892    -13621.74   -45353.232   -22064.794    26552.808    -14095.85    9022.2661   -9461.7212    88.542947 
    4600    1717.2293   -109.70263    1.5537851   -108.14885   -41806.906    4.4609343    4.4609343    4.4609343   -41806.906   -58208.246    2043.7353   -69256.207    1978.4756    3890.9301   -17695.545    88.772302 
    4700    1908.5059   -109.86345    1.7268562    -108.1366    14460.319    4.4367024    4.4367024    4.4367024    14460.319   -35593.556    37798.505    41176.008    -15919.64   -1460.3605    10307.451    87.333508 
    4800    1596.1759   -109.59796    1.4442535   -108.15371     10982.59    4.4247569    4.4247569    4.4247569     10982.59    4425.2883    44697.535   -16175.054    11924.453   -4224.7746     4420.165    86.629985 
    4900    971.84255   -109.06177   0.87934356   -108.18242    32773.188    4.4486259    4.4486259    4.4486259    32773.188    -5107.029    17470.186    85956.406    28414.411    743.17422   -13749.451    88.039517 
    5000     2200.561   -110.13782    1.9911138   -108.14671    -30856.01    4.4644556    4.4644556    4.4644556    -30856.01   -23749.313   -21684.838   -47133.879   -819.07536   -9087.1679    7945.4831    88.982691 
    5100    1215.6959   -109.23805    1.0999872   -108.13807    9160.3097    4.4527202    4.4527202    4.4527202    9160.3097   -25920.224    19579.132    33822.021    17082.657   -13319.299    7718.2884    88.282823 
    5200    1979.5798   -109.91187    1.7911654    -108.1207    11067.219    4.4289862    4.4289862    4.4289862    11067.219   -25144.182    43972.097    14373.743    5551.3204   -13825.318    9563.1316    86.878631 
    5300    953.87748   -109.01939   0.86308839    -108.1563    48821.927     4.424523     4.424523     4.424523    48821.927    63161.617    86786.144   -3481.9793    10815.444    749.46462    220.12982    86.616251 
    5400    1509.5764   -109.55208    1.3658964   -108.18618    21049.326    4.4554928    4.4554928    4.4554928    21049.326    975.46555    17627.096    44545.416    25209.442    -7795.898   -16707.824    88.447842 
    5500    1398.5224   -109.40825    1.2654125   -108.14283   -12080.798    4.4700815    4.4700815    4.4700815   -12080.798   -40609.581    13812.017   -9444.8284    27691.595   -97.153981    14456.524    89.319509 
    5600    1706.4229   -109.63451    1.5440073    -108.0905    3735.6219    4.4346973    4.4346973    4.4346973    3735.6219    41500.454    17543.935   -47837.523     24156.11   -16121.197    1174.0177    87.215153 
    5700    1216.2441    -109.2059    1.1004832   -108.10542    56555.707     4.424161     4.424161     4.424161    56555.707    58512.632    36417.945    74736.544    24932.974   -641.51359    -11816.28     86.59499 
    5800    1542.2606   -109.54046    1.3954698   -108.14499   -31534.784    4.4534942    4.4534942    4.4534942   -31534.784   -2142.0205    -37535.77    -54926.56    25384.008    5402.2588   -2513.0647    88.328871 
    5900    1779.6226    -109.7373    1.6102399   -108.12706   -15101.803    4.4547119    4.4547119    4.4547119   -15101.803    5549.9191   -29143.364   -21711.963    11854.729   -17902.367    14659.585    88.401345 
    6000     1142.656   -109.16529    1.0338992   -108.13139    2924.6574    4.4520232    4.4520232    4.4520232    2924.6574    10965.719   -213.78104   -1977.9658    457.47444   -7530.6565   -12130.846    88.241373 
    6100    1949.3637   -109.87891    1.7638252   -108.11509    480.26262    4.4320786    4.4320786    4.4320786    480.26262    35964.651   -41170.564    6646.7009     23077.04    7180.5864   -11636.622    87.060739 
    6200    1625.9107   -109.61723    1.4711582   -108.14607    10978.467    4.4227741    4.4227741    4.4227741    10978.467    60467.777   -14381.159   -13151.217   -13503.317    7792.8993    5595.5271     86.51358 
    6300    1465.4029   -109.51304    1.3259274   -108.18712   -32418.351    4.4374472    4.4374472    4.4374472   -32418.351    4351.3313   -71287.992   -30318.392   -11507.894    -4704.636   -12629.328    87.377497 
    6400    1925.8525    -109.9186    1.7425518   -108.17605   -4128.7356    4.4386104    4.4386104    4.4386104   -4128.7356   -33590.509   -29426.985    50631.288    5244.7853   -3374.0653    187.32845    87.446228 
    6500    1332.1379   -109.39331    1.2053464   -108.18796   -37031.941    4.4405403    4.4405403    4.4405403   -37031.941    25884.089    -58276.27   -78703.641   -13246.229    -6004.731    18319.569    87.560343 
    6600    2004.6897   -109.96432    1.8138853   -108.15043    5371.4201    4.4230904    4.4230904    4.4230904    5371.4201    3244.1655   -9439.0064    22309.101   -2479.8495    14747.624   -13352.396    86.532143 
    6700    1087.3255   -109.15197   0.98383493   -108.16813   -11034.718    4.4230463    4.4230463    4.4230463   -11034.718    53267.217    -36678.27     -49693.1   -20935.231   -4766.1198    12843.361    86.529554 
    6800    1715.1501   -109.73327    1.5519039   -108.18136    -22938.02    4.4291024    4.4291024    4.4291024    -22938.02   -13180.141   -16745.738   -38888.181   -13010.986    -6505.323    -6783.917    86.885472 
    6900    1604.8053   -109.63393    1.4520615   -108.18187   -6582.3263    4.4352758    4.4352758    4.4352758   -6582.3263   -5323.4021   -54824.875    40401.298    23114.348    364.12567    2256.4716    87.249287 
    7000    1528.7552   -109.55589    1.3832499   -108.17264   -24985.269      4.43277      4.43277      4.43277   -24985.269   -16418.794   -55885.761   -2651.2533   -11571.221   -14823.977    17916.536    87.101493 
    7100    2097.7077   -110.04832      1.89805   -108.15027   -10474.835    4.4164528    4.4164528    4.4164528   -10474.835   -34472.044    682.37947    2365.1601    9496.8774    3813.8887   -1202.1018    86.143153 
    7200    557.51425   -108.68494   0.50445061   -108.18049    25916.129    4.4038517    4.4038517    4.4038517    25916.129    54467.148   -14233.081    37514.319    3788.7476     13026.17    15808.891    85.407905 
    7300    2390.5653   -110.35006    2.1630337   -108.18702    12518.305     4.409366     4.409366     4.409366    12518.305    24200.907    16556.076   -3202.0695    6228.1525    1218.0795   -1642.5972    85.729135 
    7400     1336.907   -109.41774    1.2096615   -108.20808    8841.7483    4.4288946    4.4288946    4.4288946    8841.7483    61950.041   -22922.741   -12502.055   -4235.3933    14992.643    2305.8177    86.873246 
    7500     1670.866   -109.68495    1.5118346   -108.17311   -27123.454    4.4280617    4.4280617    4.4280617   -27123.454   -34672.161   -27463.541   -19234.662    2910.2009   -7577.5172    12009.329    86.824242 
    7600    1616.4558   -109.62054    1.4626032   -108.15794    15518.274    4.4043823    4.4043823    4.4043823    15518.274    10084.794   -3105.6414     39575.67   -9290.5261    10914.627   -878.84688    85.438776 
    7700    1002.4806    -109.0977   0.90706551   -108.19064    29509.797    4.4071968    4.4071968    4.4071968    29509.797    113020.71   -20284.774   -4206.5395   -5697.1761     8160.993    11007.672    85.602674 
    7800    2339.8431   -110.31509    2.1171392   -108.19795   -10657.975    4.4330176    4.4330176    4.4330176   -10657.975    42968.497   -35138.227   -39804.195   -20564.655   -3616.6304    1939.7868    87.116087 
    7900    972.38406   -109.07967   0.87983353   -108.19984   -30289.156    4.4467552    4.4467552    4.4467552   -30289.156   -11804.281   -76754.555   -2308.6329    12893.958    2349.8056    6904.1539      87.9285 
    8000     1271.496   -109.33475    1.1504763   -108.18427    33375.299    4.4115397    4.4115397    4.4115397    33375.299    34702.688   -24651.695    90074.904   -5847.9183   -3946.3743    3845.2156    85.855987 
    8100      2000.04   -109.99796    1.8096782   -108.18828   -8441.9854    4.3989723    4.3989723    4.3989723   -8441.9854    3066.8772   -24424.864   -3967.9697    2243.5798    2900.7301   -10904.042    85.124328 
    8200    1538.4299   -109.62424    1.3920037   -108.23224   -37994.917    4.4279095    4.4279095    4.4279095   -37994.917    1812.6233   -72876.694   -42920.682    14195.238    31105.636    10437.857    86.815288 
    8300    1268.1991   -109.36709    1.1474932   -108.21959    13087.724    4.4330463    4.4330463    4.4330463    13087.724    111729.23   -50010.089   -22455.963    -9994.626   -6999.9441   -13071.442    87.117778 
    8400    1924.6849   -109.94608    1.7414954   -108.20458   -595.04379    4.4097516    4.4097516    4.4097516   -595.04379    52575.087   -17030.303   -37329.916   -13497.993    7612.8649   -5677.1772    85.751628 
    8500    966.00438   -109.07642   0.87406107   -108.20236     54484.28    4.4045736    4.4045736    4.4045736     54484.28    173441.08   -2700.3138    -7287.928    7520.2829   -21303.958    1349.0792    85.449912 
    8600    1678.6646   -109.72099     1.518891    -108.2021   -36125.499    4.4254544    4.4254544    4.4254544   -36125.499   -27295.723   -70919.224   -10161.549   -7797.5622   -1337.7607   -7413.8798    86.670961 
    8700    1758.0297   -109.77012    1.5907022   -108.17942   -15383.038    4.4241336    4.4241336    4.4241336   -15383.038    20477.906   -59563.272   -7063.7486    9182.4005     14574.24    20275.023    86.593382 
    8800    1597.3318   -109.60679    1.4452994   -108.16149    6353.4916    4.4137096    4.4137096    4.4137096    6353.4916    39372.243   -5952.7411   -14359.027    4628.7572    3018.1018   -18447.226    85.982739 
    8900    1248.0692   -109.29705    1.1292792   -108.16777   -18608.132    4.4173555    4.4173555    4.4173555   -18608.132    27173.193   -46491.716   -36505.873     3418.256    10955.294     21004.65    86.195992 
    9000    1665.7454   -109.67519    1.5072014   -108.16799    2698.9821    4.4132449    4.4132449    4.4132449    2698.9821    48005.487   -24729.827   -15178.714    2403.1817   -14859.222    17775.879     85.95558 
    9100    1408.1467   -109.44978    1.2741207   -108.17566    7356.6625    4.4165984    4.4165984    4.4165984    7356.6625    39899.695    2116.0588   -19945.766    10046.493    29712.485   -24423.719    86.151674 
    9200    1601.2381   -109.61416    1.4488338   -108.16533   -16513.996    4.4194915    4.4194915    4.4194915   -16513.996    17314.837   -37036.414   -29820.412   -5901.2223    19310.597    24982.813    86.321086 
    9300    1255.5662   -109.29627    1.1360627    -108.1602    9459.5486    4.4149984    4.4149984    4.4149984    9459.5486   -24920.583   -7290.6647    60589.893   -5201.4468   -3755.9793   -4327.3267    86.058079 
    9400    1469.9568   -109.49639    1.3300478   -108.16634    6363.2862    4.4210383    4.4210383    4.4210383    6363.2862    5915.6411    1819.1446    11355.073    8414.6881    22099.705    1903.2183    86.411758 
    9500    1970.9591   -109.94406    1.7833652    -108.1607   -25320.701    4.4311569    4.4311569    4.4311569   -25320.701   -18667.658   -29048.033   -28246.413    65.616993   -10237.206    17012.698    87.006434 
    9600    1495.6969   -109.49896     1.353338   -108.14562    31970.643    4.4159865    4.4159865    4.4159865    31970.643   -2176.8656    69567.916    28520.878   -1271.0235   -8739.6868   -17075.477    86.115872 
    9700    1382.4143   -109.40593    1.2508375   -108.15509   -22199.068    4.4073064    4.4073064    4.4073064   -22199.068   -31464.645   -25417.286   -9715.2714    10040.181    2684.8436    22236.549     85.60906 
    9800    1567.3967   -109.58703    1.4182135   -108.16882    4471.7894    4.4035612    4.4035612    4.4035612    4471.7894    6209.5336    7640.4339   -434.59916   -5156.4399   -31891.018    9527.5057    85.390999 
    9900    2187.6847   -110.15578    1.9794631   -108.17632    9680.0968    4.4175194    4.4175194    4.4175194    9680.0968   -14038.927    3216.0808    39863.137    4977.1853    13676.858   -239.93514    86.205584 
   10000    1171.5381    -109.2394    1.0600323   -108.17937   -25569.817     4.435147     4.435147     4.435147   -25569.817    1795.9288   -33501.997   -45003.382    5774.1641   -6279.0844    17335.534     87.24169 
   10100    1676.7002   -109.66276    1.5171136   -108.14565   -8535.5198    4.4271389    4.4271389    4.4271389   -8535.5198   -27245.286    3262.5975   -1623.8713    1758.1289   -10526.482   -12039.979     86.76997 
   10200    1704.7579   -109.69665    1.5425008   -108.15415   -22238.934    4.4119677    4.4119677    4.4119677   -22238.934     -36066.4   -30948.635    298.23398     18644.49     13581.64    16867.926    85.880974 
   10300     1741.738   -109.75023    1.5759612   -108.17426    4948.9796    4.4066378    4.4066378    4.4066378    4948.9796    51477.154   -5263.6174   -31366.597    1523.5109    -5375.587   -9783.1041    85.570107 
   10400    1617.8946   -109.66521     1.463905   -108.20131     1121.406    4.4294602    4.4294602    4.4294602     1121.406    19892.022   -20103.807    3576.0025    3306.0937    18999.972   -7074.9351     86.90653 
   10500    1049.3688   -109.13612   0.94949095   -108.18663   -41609.235    4.4430349    4.4430349    4.4430349   -41609.235   -48138.444   -46835.802   -29853.459    6907.8484    7290.0813    18426.648    87.707992 
   10600     1701.386   -109.70122    1.5394498   -108.16177     6197.414    4.4118294    4.4118294    4.4118294     6197.414    26824.897    9690.0615   -17922.716   -7942.9527   -10587.711   -2350.3476    85.872898 
   10700    2090.9809   -110.04887    1.8919635    -108.1569    17984.226    4.3944856    4.3944856    4.3944856    17984.226   -18761.607    22440.995     50273.29    33730.519    11045.197   -7317.1209    84.864125 
   10800    744.20515   -108.87781   0.67337246   -108.20444    -6449.518    4.4363692    4.4363692    4.4363692    -6449.518   -30572.792   -1612.5497    12836.787    566.25457    4591.6453     -2124.96    87.313833 
   10900    1734.3093   -109.72001    1.5692395   -108.15077   -14702.555     4.455993     4.455993     4.455993   -14702.555   -43553.291   -38389.851    37835.477    21843.737    12223.882    -5235.933    88.477634 
   11000    1221.8813   -109.23352    1.1055839   -108.12794   -18456.405    4.4487752    4.4487752    4.4487752   -18456.405   -18656.103   -34020.745   -2692.3681    2575.4322   -3357.6548    7198.4241    88.048381 
   11100    1151.7357   -109.16937    1.0421147   -108.12725   -5603.6307    4.3991155    4.3991155    4.3991155   -5603.6307    11394.992   -40075.213     11869.33   -13823.247   -9665.6041   -743.87256    85.132637 
   11200    1745.9811   -109.71385    1.5798004   -108.13405    60725.608    4.3762199    4.3762199    4.3762199    60725.608    90929.073    40062.327    51185.424    2483.9896    16769.444   -1704.0164    83.810304 
   11300    1336.5074   -109.40861       1.2093   -108.19931   -23500.793    4.4350392    4.4350392    4.4350392   -23500.793    25530.105    -37595.32   -58437.165   -19974.852    1295.3404    20528.991    87.235325 
   11400    1116.5753   -109.16354    1.0103008   -108.15324   -30975.146    4.4462873    4.4462873    4.4462873   -30975.146    54730.342   -55212.223   -92443.557   -2408.3281    6945.4295   -17002.832    87.900745 
   11500      1606.03   -109.57021    1.4531697   -108.11704    49183.448    4.4102418    4.4102418    4.4102418    49183.448    72698.392    76583.813   -1731.8594   -24420.094    10583.599    9018.2991    85.780229 
   11600     858.0832   -108.92004   0.77641171   -108.14363    49730.802    4.4018757    4.4018757    4.4018757    49730.802    97626.899    51653.722    -88.21554   -24148.697    -6892.985    6676.4148    85.292985 
   11700    1672.2241   -109.68772    1.5130635   -108.17466    16050.797    4.4392193    4.4392193    4.4392193    16050.797     42126.47    34296.163   -28270.242   -16503.019    7917.2671    4344.4468     87.48222 
   11800    1557.6331   -109.53048    1.4093792    -108.1211   -29223.132    4.4613567    4.4613567    4.4613567   -29223.132   -13805.487   -12629.574   -61234.337   -12895.758   -178.32668   -2784.1243    88.797522 
   11900    778.91892   -108.80586   0.70478221   -108.10108    7823.3675    4.4181157    4.4181157    4.4181157    7823.3675    67388.025   -51348.162     7430.239   -27380.013   -19249.194   -25272.201    86.240496 
   12000    1976.0233   -109.86839    1.7879474   -108.08045    33129.912    4.3955104    4.3955104    4.3955104    33129.912    95800.772    1452.8223    2136.1416   -7833.9095     10139.08    6556.5203    84.923509 
   12100    1356.0759   -109.37843    1.2270059   -108.15142   -3678.4775    4.4208568    4.4208568    4.4208568   -3678.4775    66988.894   -46432.627     -31591.7   -14967.805    4030.2122   -31480.993    86.401111 
   12200    1706.6369   -109.69216    1.5442009   -108.14796   -20181.011    4.4344346    4.4344346    4.4344346   -20181.011   -2217.9829   -56337.551   -1987.4983   -15979.207   -2148.7088    7313.8096    87.199656 
   12300    1563.6945   -109.55236    1.4148637    -108.1375   -23923.518    4.4300105    4.4300105    4.4300105   -23923.518   -11977.807   -43498.742   -16294.005    10057.808    -2938.543   -27819.645    86.938927 
   12400    1952.4356    -109.9106    1.7666047   -108.14399   -10339.202    4.4191134    4.4191134    4.4191134   -10339.202    35330.879   -38196.193   -28152.294   -8850.7058   -8194.1442    7785.7056    86.298933 
   12500    1624.9023   -109.62882    1.4702458   -108.15857    38951.307    4.4048508    4.4048508    4.4048508    38951.307    54530.373    14285.946    48037.603    12970.133    2470.4285   -18051.085    85.466046 
   12600    1250.3598   -109.31913    1.1313519   -108.18778    31974.848     4.423774     4.423774     4.423774    31974.848    105501.33    9075.9332    -18652.72   -5832.3663    17050.692   -1930.5536    86.572266 
   12700    1745.6794   -109.73821    1.5795274   -108.15869   -28451.246    4.4427776    4.4427776    4.4427776   -28451.246   -1065.3683   -41972.579   -42315.789   -16363.663    875.39177   -2612.7484    87.692754 
   12800    1934.6725    -109.8803    1.7505324   -108.12977   -20560.075    4.4216882    4.4216882    4.4216882   -20560.075    376.72972    -10376.62   -51680.334   -422.27592    15770.036   -17515.311    86.449871 
   12900    1848.8677   -109.80945    1.6728944   -108.13655   -3998.4813    4.4163966    4.4163966    4.4163966   -3998.4813    49908.198   -40131.844   -21771.797   -2071.4413    20754.693     2380.112    86.139871 
   13000    1386.7966   -109.41712    1.2548027   -108.16232   -18458.124    4.4306426    4.4306426    4.4306426   -18458.124    84527.828   -98812.611    -41089.59   -6783.7417   -2879.1092   -36721.974    86.976145 
   13100    1593.3074   -109.58806     1.441658    -108.1464   -10420.417    4.4363112    4.4363112    4.4363112   -10420.417    58636.698   -35096.733   -54801.216    8237.8317    933.99442     12006.62    87.310404 
   13200    1136.1604    -109.1709    1.0280218   -108.14287   -8801.4666    4.4259407    4.4259407    4.4259407   -8801.4666    33814.668   -22629.603   -37589.465   -32524.065   -9104.3309   -18313.517    86.699537 
   13300    2158.8419    -110.0917    1.9533655   -108.13834    -6060.613    4.4159874    4.4159874    4.4159874    -6060.613     13439.66   -25651.774    -5969.725     2369.159   -8264.7731    8338.6133    86.115925 
   13400    1619.4415   -109.62596    1.4653047   -108.16065   -30609.906    4.4215712    4.4215712    4.4215712   -30609.906    22912.809   -66780.801   -47961.727   -6670.6865    6964.6817    4245.7446    86.443007 
   13500    1378.6789   -109.41059    1.2474577   -108.16313    23703.563    4.4154187    4.4154187    4.4154187    23703.563    37995.367   -20892.931    54008.254   -19905.479    18647.167   -11480.239    86.082662 
   13600    1759.9755   -109.75737    1.5924628   -108.16491    3887.2864    4.4329203    4.4329203    4.4329203    3887.2864    22201.611   -422.11531   -10117.637   -12183.703    14122.055    1145.7189    87.110355 
   13700    849.19639   -108.91529   0.76837074   -108.14692   -5790.0795    4.4429634    4.4429634    4.4429634   -5790.0795    67131.789   -95099.761    10597.733   -18341.254     18536.15   -20679.682    87.703758 
   13800     1580.133   -109.54103    1.4297376   -108.11129    38110.754    4.4298974    4.4298974    4.4298974    38110.754    55985.554   -35387.441     93734.15   -11224.574    26226.292    20220.616    86.932267 
   13900    1057.8509   -109.08485   0.95716571   -108.12769    22696.377    4.4296674    4.4296674    4.4296674    22696.377    97401.502   -21512.199   -7800.1706   -17871.371    20090.603   -12716.783    86.918726 
   14000    1385.0195    -109.3792    1.2531948     -108.126    2414.4775    4.4379506    4.4379506    4.4379506    2414.4775    25685.277   -49526.962    31085.118   -16310.874    12884.288    407.95064    87.407239 
   14100    1544.8072   -109.50776     1.397774   -108.10999    24460.457    4.4385597    4.4385597    4.4385597    24460.457    32504.643    44992.409   -4115.6823   -10411.377    27753.433    26989.485    87.443229 
   14200    1067.1219   -109.08976   0.96555431   -108.12421   -5718.4904    4.4414773    4.4414773    4.4414773   -5718.4904   -5436.4519   -3340.1305   -8378.8886   -12589.135    11608.141    -12433.55    87.615781 
   14300    2029.6804   -109.93875    1.8364974   -108.10225    3415.5315    4.4296618    4.4296618    4.4296618    3415.5315    -18782.27    37837.866    -8809.001    2684.9759     9369.292    9460.1611      86.9184 
   14400      1239.17   -109.24604    1.1212271   -108.12482    43641.966    4.4041761    4.4041761    4.4041761    43641.966    26425.714    24308.004    80192.179   -12059.793    13133.209   -17735.814    85.426781 
   14500    1418.1956   -109.46424    1.2832132   -108.18102    5645.8427     4.425372     4.425372     4.425372    5645.8427   -25295.961    35962.812    6270.6765   -7463.7736   -1575.3296   -6369.6228     86.66612 
   14600    2281.8891   -110.22147    2.0647012   -108.15677   -23614.496    4.4335991    4.4335991    4.4335991   -23614.496   -50781.331    28104.507   -48166.663    10620.194     5671.991     655.5575    87.150376 
   14700    1456.9629   -109.47397    1.3182906   -108.15568    5921.9605    4.4036198    4.4036198    4.4036198    5921.9605   -23617.942    1475.5506    39908.273    -8982.055    8469.7257   -21569.336    85.394409 
   14800    2105.2399   -110.08937    1.9048653   -108.18451   -7030.3845    4.4107806    4.4107806    4.4107806   -7030.3845   -29440.213    20191.861   -11842.802    1989.1886    3974.7799    17269.254    85.811671 
   14900    1081.8239   -109.16585     0.978857     -108.187    26622.398    4.4361072    4.4361072    4.4361072    26622.398   -23032.332    66758.669    36140.857     6907.197    -6087.731    -12181.69    87.298365 
   15000    1459.2719   -109.47145    1.3203799   -108.15107   -16815.972    4.4406896    4.4406896    4.4406896   -16815.972   -17986.851   -50091.934     17630.87   -18910.894   -18425.996   -8203.6868    87.569176 
   15100    2012.5672   -109.94048    1.8210131   -108.11947     20913.29    4.4199512    4.4199512    4.4199512     20913.29    14655.774    65335.425   -17251.329    2303.6209   -5810.8322    8714.2038     86.34803 
   15200    1333.8844   -109.34899    1.2069266   -108.14206    2308.7049    4.4095875    4.4095875    4.4095875    2308.7049    31173.909   -17781.929   -6465.8655   -18802.681    2099.1304   -25309.577    85.742057 
   15300    1544.2053    -109.5582    1.3972294   -108.16097    1420.8384    4.4194663    4.4194663    4.4194663    1420.8384    28206.346   -32727.586    8783.7555   -29678.667   -15963.078    6634.6399    86.319611 
   15400    1202.1826   -109.24959    1.0877601   -108.16183    10120.458    4.4308573    4.4308573    4.4308573    10120.458    59440.484    10256.115   -39335.224    16181.441   -13083.054   -6379.3743    86.988792 
   15500    1815.7532   -109.79476    1.6429317   -108.15183   -29416.664    4.4154566    4.4154566    4.4154566   -29416.664   -24433.854   -34081.327   -29734.809   -24264.503    379.51458   -11302.133    86.084878 
   15600    1880.4581   -109.85718     1.701478   -108.15571    34656.915    4.4057254    4.4057254    4.4057254    34656.915    24405.306    90809.313   -11243.873    9758.5443    5485.7211    18062.854    85.516965 
   15700    1336.5859   -109.37837     1.209371     -108.169   -5802.6853    4.4205603    4.4205603    4.4205603   -5802.6853    14565.994   -21424.453   -10549.597   -9109.4665   -9873.7165   -21192.568     86.38373 
   15800    1384.8478   -109.43006    1.2530394   -108.17702   -28589.313     4.427387     4.427387     4.427387   -28589.313   -59009.573   -21805.524   -4952.8419   -35019.787   -12756.066   -2789.2197    86.784555 
   15900    2100.5872   -110.06169    1.9006555   -108.16104    16965.793    4.4081447    4.4081447    4.4081447    16965.793    9712.4246    47806.812   -6621.8576    6964.5029    15294.975    18362.098    85.657921 
   16000    1468.0565   -109.50603    1.3283284    -108.1777   -2551.6428    4.4145805    4.4145805    4.4145805   -2551.6428    13584.757   -7387.7673   -13851.918    -23065.93   -11768.531   -4566.6199    86.033642 
   16100    2044.3772   -110.00259    1.8497955   -108.15279   -38194.384    4.4335238    4.4335238    4.4335238   -38194.384   -45637.323   -41677.071   -27268.759   -8014.0223   -1120.4789     10981.98    87.145936 
   16200    1490.8033   -109.47986    1.3489102   -108.13095    5091.2288    4.4255412    4.4255412    4.4255412    5091.2288    26128.234   -9057.2273   -1797.3199    1428.8263    12047.985    2548.2304     86.67606 
   16300    1606.1754   -109.58822    1.4533013   -108.13491    -16937.69    4.4277765    4.4277765    4.4277765    -16937.69   -33485.602    153.42518   -17480.892   -22899.004   -326.03286    10104.096    86.807466 
   16400    1990.9559   -109.93544    1.8014587   -108.13398   -7393.0918    4.4277516    4.4277516    4.4277516   -7393.0918    -17293.17    23293.879   -28179.984    12134.531   -3730.7101    29071.331       86.806 
   16500     965.4464   -109.01972   0.87355619   -108.14617   -18.988025     4.430274     4.430274     4.430274   -18.988025    -4843.537   -7913.2955    12699.868   -12399.605    3796.1629   -6535.3625    86.954438 
   16600    1224.5247   -109.24594    1.1079757   -108.13797     17083.32    4.4389975    4.4389975    4.4389975     17083.32   -17543.489    97803.524   -29010.075    8313.1478   -10385.695    8245.6688    87.469108 
   16700    1551.3739   -109.54025    1.4037158   -108.13653   -31832.162    4.4450292    4.4450292    4.4450292   -31832.162   -31013.157   -18568.977   -45914.354    3105.2045    14009.832    -5660.323    87.826153 
   16800    1411.5197   -109.41542    1.2771727   -108.13825   -18641.713    4.4116026    4.4116026    4.4116026   -18641.713   -59899.469    10376.976   -6402.6465   -35562.647   -7910.2063   -4682.5427    85.859657 
   16900    2181.1641   -110.10556    1.9735631     -108.132    22613.277    4.3909869    4.3909869    4.3909869    22613.277    25128.248    195.79428     42515.79   -1560.7674   -2317.9507    5038.6843    84.661588 
   17000    1404.9862    -109.4534     1.271261   -108.18214   -33671.758    4.4309845    4.4309845    4.4309845   -33671.758   -61689.541   -80266.402    40940.667   -35863.849    10932.143   -25644.172    86.996281 
   17100    1309.8137   -109.33652     1.185147   -108.15137   -33916.131    4.4398917    4.4398917    4.4398917   -33916.131   -51209.127   -21401.602   -29137.663   -20398.818   -16546.734   -9489.0834    87.521979 
   17200    2124.9304   -110.04314    1.9226816   -108.12045    1121.5292    4.4150237    4.4150237    4.4150237    1121.5292    20071.585   -19414.646    2707.6492    2249.2221   -8013.5401   -1719.5304     86.05956 
   17300    1368.1583   -109.38762    1.2379384   -108.14968    1130.3162    4.3998935    4.3998935    4.3998935    1130.3162    20312.352   -31308.682    14387.279   -20510.905   -15803.673   -3994.6747    85.177817 
   17400    1617.7319   -109.64556    1.4637578   -108.18181   -11208.724    4.4054862    4.4054862    4.4054862   -11208.724    1567.8177   -28517.475   -6676.5154   -2495.0875   -25180.643     -6652.27    85.503039 
   17500    1607.9211   -109.64411    1.4548808   -108.18923   -676.21596    4.4247552    4.4247552    4.4247552   -676.21596    2168.4381    13756.683   -17953.769    3077.4272    11191.615   -12050.341    86.629886 
   17600    1440.8764   -109.47708    1.3037353   -108.17335   -23805.372    4.4260951    4.4260951    4.4260951   -23805.372    -55341.63    -4733.696    -11340.79   -19061.078   -23921.876     402.3635    86.708611 
   17700    1978.6644    -109.9298    1.7903371   -108.13947    33546.092    4.4023114    4.4023114    4.4023114    33546.092    35921.039    36399.218    28318.019    7152.8375    9006.0044   -4511.9143    85.318319 
   17800    1319.1192   -109.35552    1.1935668   -108.16195    12297.932    4.4006353    4.4006353    4.4006353    12297.932    28998.459    5880.0852    2015.2518   -8256.5429   -2948.4737   -2742.3803    85.220904 
   17900    1248.3567   -109.32078    1.1295394   -108.19124   -17427.984    4.4244635    4.4244635    4.4244635   -17427.984   -24631.816    7551.6732   -35203.811   -12500.142   -16572.768    14867.836    86.612752 
   18000    2180.5814   -110.13385    1.9730359   -108.16081   -18071.125    4.4341153    4.4341153    4.4341153   -18071.125    31533.802   -50545.283   -35201.893    1390.2494    12450.119    11946.522    87.180821 
   18100    1172.7475   -109.22073    1.0611266    -108.1596   -13742.799    4.4260255    4.4260255    4.4260255   -13742.799   -38815.205   -13836.051    11422.858   -18770.514    -37125.46    -8014.679    86.704518 
   18200    2245.4107   -110.18049    2.0316948   -108.14879   -11129.516    4.4003462    4.4003462    4.4003462   -11129.516    11009.116   -32765.694   -11631.969    550.86812     10244.26    31758.591    85.204108 
   18300    1091.7062   -109.15754   0.98779872   -108.16974    50337.652    4.3954043    4.3954043    4.3954043    50337.652    54277.359    59036.094    37699.502    12678.254   -13301.676   -8292.6811    84.917358 
   18400     1537.619   -109.58314      1.39127   -108.19187   -39493.851    4.4243415    4.4243415    4.4243415   -39493.851   -50691.125   -29301.052   -38489.377   -26095.027   -8003.9765    12640.115    86.605593 
   18500    2039.0905   -110.00634     1.845012   -108.16133   -8376.8755    4.4330515    4.4330515    4.4330515   -8376.8755    6915.7838    312.32643   -32358.737     10578.34    8562.7301      18471.8    87.118087 
   18600    1312.3849   -109.33701    1.1874734   -108.14953    1112.7659    4.4254382    4.4254382    4.4254382    1112.7659    3501.9308    6193.6276   -6357.2606    -3854.096   -14961.876   -560.77787    86.670011 
   18700     959.6239     -109.017   0.86828787   -108.14871   -10758.958    4.4119317    4.4119317    4.4119317   -10758.958    39750.213   -44711.763   -27315.324   -24854.794    1335.7418    5559.1025    85.878872 
   18800    2230.8229   -110.16345    2.0184954   -108.14496    15110.166    4.4089765    4.4089765    4.4089765    15110.166    20719.165    56429.197   -31817.865   -2207.2655    16788.128    4100.7198    85.706421 
   18900    1324.8984   -109.38886     1.198796   -108.19006   -28165.827     4.432489     4.432489     4.432489   -28165.827   -39940.201    -46816.26    2258.9786   -23612.784   -7707.4918    13659.917    87.084929 
   19000    1379.3883   -109.41696    1.2480995   -108.16886    11799.737    4.4337741    4.4337741    4.4337741    11799.737   -5844.7604    14966.405    26277.565    2924.8993    9931.8191    -6350.477    87.160693 
   19100    1906.0773   -109.87209    1.7246588   -108.14743   -16543.075    4.4128812    4.4128812    4.4128812   -16543.075    13427.981   -49592.289   -13464.917    16836.142   -10253.354     4049.888    85.934331 
   19200    1063.4592   -109.11817   0.96224023   -108.15593   -5142.9991    4.3896776    4.3896776    4.3896776   -5142.9991    58490.738   -40174.289   -33745.447   -28940.365    -897.0143    29085.576    84.585882 
   19300    2075.0596   -110.05862    1.8775575   -108.18107    16124.283    4.4077188    4.4077188    4.4077188    16124.283      62496.7   -10674.402   -3449.4498    32851.399    4504.5252   -6168.0424    85.633095 
   19400    994.15911   -109.07995   0.89953606   -108.18042   -40942.148    4.4483412    4.4483412    4.4483412   -40942.148   -24357.443   -41801.584   -56667.416   -23118.983   -11876.252    15204.089    88.022619 
   19500    1465.2826   -109.46517    1.3258185   -108.13935    -35596.29    4.4299168    4.4299168    4.4299168    -35596.29   -11804.365   -54842.736   -40141.769   -13711.558   -327.92619   -4589.6627    86.933408 
   19600    1604.9896    -109.5839    1.4522283   -108.13167    21356.469    4.3863504    4.3863504    4.3863504    21356.469    30568.097    32788.821    712.48932    35837.212    10721.771     3533.896    84.393685 
   19700    1956.8537   -109.93226    1.7706024   -108.16165    3993.5864    4.3792196    4.3792196    4.3792196    3993.5864    14351.841     7791.664   -10162.746   -13643.838   -14767.787    15056.714    83.982768 
   19800    1474.8943   -109.53833    1.3345153   -108.20382    1339.9584    4.4120381    4.4120381    4.4120381    1339.9584   -205.20056    20636.301   -16411.225    8166.1852    2820.2179   -7218.2826    85.885087 
   19900    2031.0404   -110.00589     1.837728   -108.16817   -33391.081    4.4318552    4.4318552    4.4318552   -33391.081   -41194.007   -13452.651   -45526.586    8998.0877    -4820.074    10775.016    87.047578 
   20000    950.41974   -109.01579   0.85995975   -108.15583    19809.609    4.4177543    4.4177543    4.4177543    19809.609    79316.393    10877.417   -30764.984   -784.58193   -5829.7498    11929.124    86.219333 
   20100    2145.9691   -110.09064     1.941718   -108.14892    2092.1674    4.4026684    4.4026684    4.4026684    2092.1674    15498.643   -15163.164    5941.0238    17764.466   -3765.5419   -11504.189    85.339073 
   20200    2063.4919     -110.036    1.8670908   -108.16891    25280.394     4.393507     4.393507     4.393507    25280.394    26048.275    58641.213   -8848.3064   -2550.2346   -3944.0271    11740.678    84.807443 
   20300    1043.8804   -109.15647   0.94452496   -108.21194    22854.984    4.4063572    4.4063572    4.4063572    22854.984    75492.747   -1257.0162   -5670.7785   -5518.1346    5673.6238   -797.04028     85.55376 
   20400    1798.3019   -109.82838    1.6271414   -108.20124   -18487.606    4.4324872    4.4324872    4.4324872   -18487.606    4146.1931   -11204.456   -48404.556    2578.4717    12668.999    6914.4123     87.08482 
   20500    1590.2573   -109.61424    1.4388982   -108.17534   -28872.942    4.4348874    4.4348874    4.4348874   -28872.942    35264.293   -65162.094   -56721.024    -12192.65    -3354.507    9289.5984    87.226367 
   20600    1523.6438    -109.5412    1.3786249   -108.16258    27193.244    4.3968651    4.3968651    4.3968651    27193.244    58601.053    21920.152    1058.5272   -7985.0152    11446.616   -5003.5575    85.002054 
   20700    1850.3656   -109.85043    1.6742497   -108.17618    15447.195    4.3884767    4.3884767    4.3884767    15447.195    26741.262    32986.389   -13386.067    15630.176    5915.3055     28639.32    84.516477 
   20800    1509.5852   -109.57023    1.3659045   -108.20433   -10519.769    4.4153391    4.4153391    4.4153391   -10519.769   -24328.519    20333.761   -27564.548   -9281.8982   -770.33691   -14184.291    86.078004 
   20900    1371.3517   -109.43397    1.2408279   -108.19315   -31735.129    4.4199901    4.4199901    4.4199901   -31735.129   -18040.358   -30478.273   -46686.757    26442.634    18162.726    17329.961    86.350308 
   21000    2149.9633   -110.10828     1.945332   -108.16294   -11431.907    4.4059291    4.4059291    4.4059291   -11431.907    36232.635   -24154.969   -46373.386   -6970.3804   -10817.747    18360.239    85.528824 
   21100    1403.8924   -109.43438    1.2702714   -108.16411    28623.286    4.4014903    4.4014903    4.4014903    28623.286     29050.14    36705.421    20114.297   -6155.6231    7465.6141   -8190.4169    85.270586 
   21200    1361.1139   -109.41092    1.2315645   -108.17936   -9668.6361    4.4112828    4.4112828    4.4112828   -9668.6361    22893.215   -46940.684   -4958.4393    8901.8028    2389.7901     26645.66    85.840988 
   21300    2070.8779   -110.03941    1.8737739   -108.16563   -4301.3712    4.4180698    4.4180698    4.4180698   -4301.3712    32172.404   -11441.595   -33634.922   -13014.513   -1967.6817    -214.3669    86.237812 
   21400    1792.2332   -109.78831    1.6216503   -108.16666    19677.609    4.3959769    4.3959769    4.3959769    19677.609    37993.722   -5041.8638    26080.969    3626.3626    11577.518    12982.628    84.950553 
   21500    1003.1926   -109.10341   0.90770975    -108.1957     33848.46    4.4033251    4.4033251    4.4033251     33848.46    68950.947    13071.808    19522.626    12364.097   -3917.3692    21995.729    85.377268 
   21600    2381.8943   -110.32448    2.1551881   -108.16929   -23546.951    4.4231477    4.4231477    4.4231477   -23546.951   -353.58142    -49942.83   -20344.441    -19741.21   -1677.4684   -5323.0153    86.535506 
   21700     1131.882   -109.20323    1.0241506   -108.17908    31929.306    4.3982571    4.3982571    4.3982571    31929.306    112183.46   -40760.851    24365.307    1762.0155    10322.981     29492.26    85.082814 
   21800    1881.6633   -109.88746    1.7025685   -108.18489   -5034.5208    4.3940797    4.3940797    4.3940797   -5034.5208    9260.1127   -9890.2666   -14473.408   -6106.2199   -5708.6998    3286.8262     84.84061 
   21900    1513.4148   -109.56227    1.3693695    -108.1929   -14237.349    4.4149204    4.4149204    4.4149204   -14237.349    50255.253   -43294.452   -49672.847     5091.776   -8723.1987    26663.018    86.053518 
   22000    1399.2727   -109.44383    1.2660913   -108.17774    3114.3359    4.4316327    4.4316327    4.4316327    3114.3359    103312.84   -61642.433   -32327.397    15455.562    280.06881    7932.9862    87.034469 
   22100    1164.2947   -109.21394    1.0534783   -108.16046   -7448.1353    4.4347221    4.4347221    4.4347221   -7448.1353    37306.378   -15069.883   -44580.901   -11009.663   -22107.576    5589.2201    87.216618 
   22200    1327.5007   -109.34224    1.2011505   -108.14109   -7340.0807    4.4168841    4.4168841    4.4168841   -7340.0807    45480.233   -23995.286   -43505.189    12985.571   -13821.587    33243.347    86.168399 
   22300     2488.746     -110.378    2.2518697   -108.12613   -4020.7781    4.3959995    4.3959995    4.3959995   -4020.7781     10527.71   -21856.825    -733.2194    10597.199   -2031.1334    1451.1955    84.951865 
   22400    1101.4221   -109.17249   0.99658983    -108.1759    4606.4825    4.4100788    4.4100788    4.4100788    4606.4825    64951.234   -18035.786       -33096    -1305.634   -8713.6172    42824.298    85.770718 
   22500    1835.3242   -109.81895    1.6606399   -108.15831   -12451.014    4.4271866    4.4271866    4.4271866   -12451.014   -2431.0119    8459.0539   -43381.084    20591.115   -6485.9531   -15453.318    86.772771 
   22600    1444.4425   -109.46244    1.3069619   -108.15547   -26421.434      4.41388      4.41388      4.41388   -26421.434   -2133.5663   -48483.184   -28647.551    4761.1021    13977.095    39810.676    85.992694 
   22700    1217.9149   -109.25432     1.101995   -108.15232    27579.825    4.3863051    4.3863051    4.3863051    27579.825    93025.865     13896.26   -24182.649   -10040.963   -11145.038    16992.868    84.391074 
   22800    2092.2749   -110.06969    1.8931343   -108.17656   -3823.9176    4.4006568    4.4006568    4.4006568   -3823.9176   -9211.2446    15950.378   -18210.886    12166.489   -4647.8389    9060.7245    85.222151 
   22900    1565.2424   -109.58796    1.4162642    -108.1717   -12515.976     4.422804     4.422804     4.422804   -12515.976    60674.812   -42600.234   -55622.507   -8348.6482    10399.998    32021.391    86.515334 
   23000    1431.4224   -109.45388    1.2951811    -108.1587   -37435.259    4.4226857    4.4226857    4.4226857   -37435.259   -29184.092    -5363.172   -77758.514   -4682.2332   -22509.164   -10426.744    86.508393 
   23100    1753.0258   -109.73703    1.5861746   -108.15085   -4486.1011    4.3982011    4.3982011    4.3982011   -4486.1011    28050.614   -7029.3454   -34479.572    16993.673   -1960.5887    43528.884    85.079565 
   23200    1826.1187   -109.80296    1.6523105   -108.15065    49916.444    4.3900849    4.3900849    4.3900849    49916.444    82501.693    61223.004    6024.6342   -1985.4156   -2372.9339   -7370.5998    84.609429 
   23300    1406.0928   -109.45435    1.2722623   -108.18209   -26633.568    4.4224929    4.4224929    4.4224929   -26633.568   -10328.005   -6838.3662   -62734.333    1092.6913   -12155.873     6666.284     86.49708 
   23400    1614.7301    -109.6086    1.4610417   -108.14756   -11986.303    4.4252523    4.4252523    4.4252523   -11986.303    23912.876    -40091.62   -19780.163    7987.1733    6601.6722    15529.049    86.659084 
   23500    1236.5036   -109.26051    1.1188145    -108.1417     6610.579    4.3977913    4.3977913    4.3977913     6610.579   -25770.604     62503.13   -16900.788   -5350.4886   -5560.6213   -2968.2055    85.055786 
   23600    1738.7484    -109.7334    1.5732561   -108.16015    8957.9235    4.3942869    4.3942869    4.3942869    8957.9235    38510.496    21760.843   -33397.568   -637.11614    4058.3018    20734.369    84.852617 
   23700    2025.5623   -110.01207    1.8327713    -108.1793      -1569.2    4.4150696    4.4150696    4.4150696      -1569.2    21853.163    5361.0484   -31921.811   -12022.003    2107.7711   -21022.584    86.062245 
   23800    1032.9893   -109.11407   0.93467043    -108.1794   -26082.795    4.4251384    4.4251384    4.4251384   -26082.795   -8210.2402    3236.4768   -73274.621    14777.509   -12159.198    14811.586    86.652399 
   23900    1794.6621   -109.78028    1.6238479   -108.15643    1142.6877    4.4143699    4.4143699    4.4143699    1142.6877    40674.904    2596.4825   -39843.324   -7647.1653    5861.8504   -1611.5785    86.021334 
   24000    1576.0119    -109.5888    1.4260087   -108.16279   -10243.802    4.4006898    4.4006898    4.4006898   -10243.802    13856.965    4773.8439   -49362.214   -9638.6642   -15780.442   -15179.801     85.22407 
   24100    1582.3831   -109.59777    1.4317735   -108.16599    30900.276    4.3942853    4.3942853    4.3942853    30900.276    49441.739    73707.667   -30448.578   -4310.2683    7463.7379    10677.297    84.852524 
   24200    1699.8755   -109.70897    1.5380831   -108.17089   -36787.401     4.425086     4.425086     4.425086   -36787.401    17981.966   -33917.974   -94426.195   -27109.521   -6473.5503   -28494.458    86.649318 
   24300    1269.7128    -109.2985    1.1488628   -108.14963   -15362.714     4.428284     4.428284     4.428284   -15362.714   -12150.086    38806.049   -72744.104    9830.3062   -11475.755    17156.577    86.837319 
   24400    1979.5462   -109.93172     1.791135   -108.14059    3509.2104    4.4028266    4.4028266    4.4028266    3509.2104    53874.798   -18010.729   -25336.438   -8442.0737    10886.949   -25907.143    85.348277 
   24500    1871.0033   -109.84193    1.6929231     -108.149    12998.341    4.3871183    4.3871183    4.3871183    12998.341    55920.917    30442.739   -47368.633    5358.8759   -5031.1082   -20411.991    84.438019 
   24600    1170.6273   -109.25068    1.0592082   -108.19147    4488.8589    4.4031697    4.4031697    4.4031697    4488.8589    52914.259    36431.723   -75879.405    7124.3777   -14177.109   -7026.4813    85.368232 
   24700    1086.1523   -109.17452   0.98277339   -108.19175   -7833.4347    4.4301439    4.4301439    4.4301439   -7833.4347    44621.904    6846.0344   -74968.242    38603.396    3163.7963   -38167.945    86.946779 
   24800    1908.9771   -109.87034    1.7272826   -108.14305    28969.532    4.4246599    4.4246599    4.4246599    28969.532    62451.561    57302.629   -32845.595    16200.861   -4132.1691     2833.257    86.624289 
   24900    990.55291   -109.03939   0.89627309   -108.14311   -20638.962    4.4222948    4.4222948    4.4222948   -20638.962    4772.8364    33587.848   -100277.57    1729.8149    9366.7181   -53983.528    86.485452 
   25000    1362.7098    -109.3628    1.2330085    -108.1298    12967.832    4.4172953    4.4172953    4.4172953    12967.832    38378.705    59559.959   -59035.168    19947.219    5875.6455    9124.8134    86.192464 
   25100    1363.4023   -109.37479    1.2336351   -108.14116    15839.538    4.4122751    4.4122751    4.4122751    15839.538     85367.43   -6698.2644   -31150.552    11869.482    5581.8871   -49226.782     85.89893 
   25200    1929.9983    -109.8864     1.746303    -108.1401   -30840.201    4.4320094    4.4320094    4.4320094   -30840.201   -23077.872    -20271.43   -49171.302   -8199.2891    7831.2486   -8832.3547    87.056665 
   25300     1357.305   -109.36265    1.2281181   -108.13453   -11813.205    4.4262763    4.4262763    4.4262763   -11813.205    32128.926   -23244.555   -44323.986    8873.4875    2745.1021   -17232.188    86.719259 
   25400    1378.4771   -109.38754    1.2472751   -108.14026    19676.529     4.398282     4.398282     4.398282    19676.529    49780.648     985.4883    8263.4511   -2471.1036   -6827.9731   -39085.989    85.084258 
   25500    2383.6921    -110.3124    2.1568147   -108.15558    6450.4933     4.394258     4.394258     4.394258    6450.4933    238.15699    6633.8421    12479.481    7013.0582    16304.023     13173.66    84.850941 
   25600    1344.8916     -109.405    1.2168862   -108.18812    22828.289     4.410038     4.410038     4.410038    22828.289    27837.115    8355.4906    32292.261    6682.5671   -11059.657   -46756.708    85.768337 
   25700    1736.0293   -109.73788    1.5707958   -108.16708   -29441.595    4.4252908    4.4252908    4.4252908   -29441.595   -57530.036    41309.008   -72103.757    -8840.644    36802.047    6241.8595    86.661347 
   25800    1465.2494   -109.47415    1.3257884   -108.14837    -19803.65     4.412768     4.412768     4.412768    -19803.65    11577.035   -38657.077    -32330.91     7156.855    12205.826    -28856.71    85.927719 
   25900    2019.1407   -109.95711     1.826961   -108.13015    15490.374    4.3976193    4.3976193    4.3976193    15490.374    3879.1715    15928.742    26663.209    13329.473    -5971.047   -16486.289    85.045804 
   26000    1499.6601   -109.50934     1.356924   -108.15241   -16767.165    4.4072934    4.4072934    4.4072934   -16767.165   -17996.334    30104.216   -62409.375   -11485.723    25455.408    298.43345    85.608305 
   26100    1565.6355   -109.57575    1.4166199   -108.15913   -13466.347    4.4131512    4.4131512    4.4131512   -13466.347    64156.709   -34863.882    -69691.87    10832.535    1414.9609   -39722.266    85.950106 
   26200    1831.3555   -109.80864    1.6570489   -108.15159    13821.406    4.4110115    4.4110115    4.4110115    13821.406     33676.89    6527.9984     1259.328    -1199.079    4675.9553    15448.662     85.82515 
   26300    1350.6726   -109.38801    1.2221169    -108.1659   -15416.512    4.4165881    4.4165881    4.4165881   -15416.512    76093.998   -62483.225   -59860.309   -5368.6022    6065.2955   -18092.337    86.151076 
   26400    2175.5597   -110.11915    1.9684922   -108.15065    14631.023    4.4083052    4.4083052    4.4083052    14631.023    59849.689   -12081.297   -3875.3246    18805.205    1142.2933   -1352.5021     85.66728 
   26500    1241.2071   -109.29121    1.1230702   -108.16814   -5744.0312    4.4060359    4.4060359    4.4060359   -5744.0312    46087.913   -7444.1922   -55875.814   -9279.7181    7245.5691   -21934.797    85.535045 
   26600     1852.219   -109.84623    1.6759267    -108.1703   -14439.347    4.4092243    4.4092243    4.4092243   -14439.347     30706.66   -50317.987   -23706.715    11337.314    5602.1748   -29376.829    85.720872 
   26700    1602.6834   -109.61568    1.4501416   -108.16554    34142.711    4.4044853    4.4044853    4.4044853    34142.711    88932.362    1466.6014     12029.17    11883.802   -21653.207    4752.7191    85.444772 
   26800    1152.6098   -109.22524    1.0429055   -108.18233   -29282.913    4.4236799    4.4236799    4.4236799   -29282.913    42681.346   -31056.633   -99473.452    -9131.717    18397.067   -26667.741    86.566743 
   26900    2119.7576   -110.07066    1.9180013   -108.15266   -9237.8634    4.4188954    4.4188954    4.4188954   -9237.8634    40328.359   -38836.514   -29205.436     7412.795     -6646.78    5074.9683    86.286163 
   27000    1419.7663   -109.44488    1.2846344   -108.16024   -5057.2672    4.4047993    4.4047993    4.4047993   -5057.2672    20276.517   -11463.692   -23984.626    21892.361   -73.283841   -30961.797    85.463046 
   27100    1547.3453   -109.56913    1.4000705   -108.16906    17274.858    4.4115407    4.4115407    4.4115407    17274.858    67742.422    -387.0231   -15530.824   -1337.8768    36685.176     13485.79    85.856044 
   27200    1519.6523   -109.55264    1.3750134   -108.17763   -14969.088    4.4203756    4.4203756    4.4203756   -14969.088    70264.956   -51403.974   -63768.245    23127.682   -7304.2717   -19381.917    86.372902 
   27300    1616.1429   -109.63029      1.46232   -108.16797   -21960.568    4.4169552    4.4169552    4.4169552   -21960.568   -20517.687    7028.2301   -52392.248   -8055.6517     16688.65   -14311.954    86.172557 
   27400    1606.8074   -109.61605    1.4538731   -108.16218    4935.8279    4.3892599    4.3892599    4.3892599    4935.8279    57610.968   -28070.369   -14733.115     1470.908    19187.798    4670.0453    84.561735 
   27500    1840.6754   -109.85157    1.6654818   -108.18609     3472.587    4.3995384    4.3995384    4.3995384     3472.587    66450.057   -26193.327   -29838.969   -31.790499    698.47815   -26173.905    85.157194 
   27600    1243.4165   -109.31698    1.1250694   -108.19191   -14805.624    4.4293928    4.4293928    4.4293928   -14805.624    20403.691   -17662.563   -47157.999   -11491.037   -7942.7831    11925.704    86.902562 
   27700    1962.9595   -109.93727     1.776127   -108.16115   -26535.447    4.4312377    4.4312377    4.4312377   -26535.447    58204.899   -70630.628   -67180.613   -3604.8305    13983.389   -10776.796    87.011196 
   27800    1929.5964   -109.90397    1.7459394   -108.15803   -18615.452    4.4116319    4.4116319    4.4116319   -18615.452    26819.511   -31360.088   -51305.778    8793.2305   -38593.268   -2392.5693    85.861368 
   27900    1377.2626   -109.42166    1.2461761   -108.17549    16262.947    4.3953637    4.3953637    4.3953637    16262.947     116976.6   -32848.117   -35339.647    3506.8543    5513.9022     7333.788     84.91501 
   28000    2279.2982   -110.25769    2.0623569   -108.19534   -4804.1878    4.4197306    4.4197306    4.4197306   -4804.1878    65265.494   -34219.534   -45458.524    26584.124   -6044.8328   -8039.1639    86.335097 
   28100    938.35821   -109.04246   0.84904623   -108.19341   -9991.4066     4.446076     4.446076     4.446076   -9991.4066    66432.394   -13016.309   -83390.305   -3382.6502   -13426.646    7897.4364    87.888217 
   28200    2016.2202   -109.96567    1.8243184   -108.14135   -23904.399    4.4338013    4.4338013    4.4338013   -23904.399   -18363.208   -33012.708   -20337.282   -114.40363    24220.064   -1741.7697    87.162301 
   28300    1914.5272   -109.85349    1.7323045   -108.12118     24673.91    4.3870342    4.3870342    4.3870342     24673.91    72010.231    4520.5629   -2509.0643    14381.437   -25177.347    6133.7116    84.433161 
   28400    1280.1896   -109.34058    1.1583424   -108.18224    20160.171    4.4020012    4.4020012    4.4020012    20160.171    55286.309    41909.669   -36715.465    -12082.26    1800.7687    -1211.883    85.300284 
   28500    2086.9188    -110.0608    1.8882879   -108.17251   -6297.5112    4.4419967    4.4419967    4.4419967   -6297.5112    53167.315   -53612.263   -18447.586    10623.474   -7588.0077   -7270.7037    87.646526 
   28600    1097.8543   -109.14591   0.99336168   -108.15255   -27044.063    4.4567511    4.4567511    4.4567511   -27044.063   -45245.359   -16462.748   -19424.081    4756.6185   -32755.346   -4463.6928    88.522801 
   28700    2180.7358    -110.1067    1.9731755   -108.13352    -4246.979    4.4165787    4.4165787    4.4165787    -4246.979   -14613.212    1640.8404    231.43422   -148.22169    9812.1881    -8778.783    86.150524 
   28800    1095.9512   -109.09973   0.99163963   -108.10809    83145.056    4.3657851    4.3657851    4.3657851    83145.056    109426.38    34711.815    105296.97   -4620.0001   -17791.178   -520.75318    83.212208 
   28900    1872.3968   -109.90136     1.694184   -108.20717   -16808.878    4.4125482    4.4125482    4.4125482   -16808.878   -20436.054   -8085.6999   -21904.881     15971.16   -21739.711     18417.89    85.914878 
   29000    1878.4924   -109.83304    1.6996994   -108.13334   -2551.7252    4.4579254    4.4579254    4.4579254   -2551.7252   -31382.081   -12125.347    35852.253    1341.1011    12188.852    10083.466    88.592794 
   29100    855.45472   -108.86835   0.77403341   -108.09432    20678.592     4.443507     4.443507     4.443507    20678.592    15987.635    4727.1395    41321.003   -9006.1926   -29128.026     5409.534    87.735952 
   29200    1747.2148   -109.65417    1.5809167   -108.07326    21564.931    4.4259152    4.4259152    4.4259152    21564.931    32468.417    68672.823   -36446.446    -35099.25     15099.11    4447.4166    86.698039 
   29300    1243.5711   -109.23791    1.1252093    -108.1127    59828.955    4.4028895    4.4028895    4.4028895    59828.955    37193.175    63784.322    78509.369   -4754.4029    -6954.714   -4192.7369    85.351935 
   29400    1212.0056   -109.26654    1.0966481   -108.16989    34884.033    4.4215635    4.4215635    4.4215635    34884.033    56845.887     32813.11    14993.103   -15360.282   -1572.8554    10361.356    86.442559 
   29500    1749.8999   -109.71689    1.5833462   -108.13355   -25643.151    4.4460068    4.4460068    4.4460068   -25643.151    26715.037   -58339.368   -45305.123   -16119.529    41108.206   -7913.4396    87.884114 
   29600     1235.503   -109.23216     1.117909   -108.11425    17791.519    4.4238125    4.4238125    4.4238125    17791.519    16341.955   -3797.7575    40830.358    838.41293   -19621.775    381.93627    86.574526 
   29700    1459.0432   -109.45138     1.320173    -108.1312   -15835.783    4.4105672    4.4105672    4.4105672   -15835.783    35212.872   -34042.018   -48678.201   -19695.228    18816.065    3012.2988    85.799219 
   29800    1982.2526   -109.94313    1.7935838   -108.14954    18848.681    4.4038026    4.4038026    4.4038026    18848.681    9874.6742    9691.3701        36980    1113.4925    10862.602   -14267.372    85.405044 
   29900    1323.1011   -109.37882    1.1971697   -108.18165    -8447.272     4.431544     4.431544     4.431544    -8447.272   -22165.827   -15329.642    12153.652   -6035.1448   -13742.937    19065.299     87.02924 
   30000    1260.6533   -109.28624    1.1406656   -108.14557   -42245.163     4.438226     4.438226     4.438226   -42245.163    784.55092   -67453.587   -60066.453   -14308.396    40550.288    3133.9836    87.423509 
   30100    2103.1468   -110.01142    1.9029715   -108.10845    14575.943    4.4087802    4.4087802    4.4087802    14575.943   -34897.559    30784.885    47840.503    13596.639   -22205.318   -7696.0704    85.694971 
   30200    1228.4234   -109.25321    1.1115033   -108.14171   -2980.7588    4.4092877    4.4092877    4.4092877   -2980.7588   -14109.143    4017.3363    1149.5299   -19249.442      17503.6    22457.196    85.724571 
   30300     1598.134   -109.59796    1.4460252   -108.15193    24506.645    4.4102571    4.4102571    4.4102571    24506.645     41103.51    22471.671     9944.755   -592.16845   -8934.9904   -2613.5936    85.781123 
   30400     1489.252   -109.51802    1.3475065   -108.17052   -9811.1451    4.4302965    4.4302965    4.4302965   -9811.1451   -30531.853   -1696.7129    2795.1309   -1116.5046     15315.58     14493.39    86.955767 
   30500     1474.983   -109.49303    1.3345956   -108.15843   -31081.935    4.4247553    4.4247553    4.4247553   -31081.935   -33796.461   -18956.086   -40493.258   -10873.619     16152.95    28099.859    86.629892 
   30600    1756.2653   -109.73315    1.5891057   -108.14404    33160.463    4.3957226    4.3957226    4.3957226    33160.463    17099.744    30290.109    52091.537    4181.5574   -8706.7162   -36212.612    84.935812 
   30700    1442.6975   -109.47475     1.305383   -108.16937   -9995.3669    4.4082921    4.4082921    4.4082921   -9995.3669   -28370.387   -9177.8381    7562.1243   -8558.7825    21486.349    18803.353     85.66651 
   30800    1572.3705   -109.58792    1.4227139   -108.16521   -18636.107    4.4096076    4.4096076    4.4096076   -18636.107     22545.61   -51816.476   -26637.455   -5476.6727    727.43648   -3232.9397    85.743226 
   30900    1631.1632    -109.6428    1.4759108   -108.16689    1977.4919    4.4200216    4.4200216    4.4200216    1977.4919   -27936.056   -34908.962    68777.493   -6491.8176    2446.1703    -15502.45    86.352152 
   31000     1821.702    -109.8036    1.6483143   -108.15529   -36350.546    4.4278788    4.4278788    4.4278788   -36350.546   -39395.014   -28124.191   -41532.435   -10171.864    12552.468    11540.015    86.813483 
   31100    1561.3661   -109.56027    1.4127569   -108.14751    39162.172    4.3885862    4.3885862    4.3885862    39162.172    25774.792    6301.6561    85410.067      4023.95    -2462.166    -12130.23    84.522803 
   31200    1404.9575   -109.45093    1.2712351   -108.17969    5889.6898    4.3872898    4.3872898    4.3872898    5889.6898    -3741.707    23566.131   -2155.3546   -3641.0654    16328.829   -7372.0425    84.447924 
   31300    1724.3005   -109.74326    1.5601833   -108.18308    7088.5295     4.411994     4.411994     4.411994    7088.5295     22392.39   -1134.0737    7.2719977   -53.864639    365.07875    10001.873    85.882515 
   31400    1518.0009   -109.54048    1.3735191   -108.16696    13232.662    4.4299152    4.4299152    4.4299152    13232.662    25234.106   -18484.506    32948.386    19931.767    5646.7673   -24569.295    86.933316 
   31500    1541.2036    -109.5394    1.3945134   -108.14488   -11193.868    4.4279402    4.4279402    4.4279402   -11193.868    18145.246   -34337.416   -17389.434   -14523.298    19532.735    19693.877    86.817096 
   31600    1281.7813   -109.30584    1.1597827   -108.14605   -9305.2797    4.3976153    4.3976153    4.3976153   -9305.2797    49828.818    -43341.25   -34403.407    1113.6374   -2975.4106   -6598.9216    85.045569 
   31700    1727.0046   -109.72211      1.56263   -108.15948    22356.168    4.3864832    4.3864832    4.3864832    22356.168   -12000.062    36967.403    42101.163     3049.835    28180.151   -20642.547    84.401354 
   31800    1794.6803   -109.79873    1.6238644   -108.17486   -8895.4473     4.417017     4.417017     4.417017   -8895.4473   -11696.387   -15236.498    246.54302   -7461.1849   -4143.6359        16159    86.176177 
   31900     1317.559   -109.35766    1.1921551    -108.1655   -29623.266    4.4210768    4.4210768    4.4210768   -29623.266    8171.9778   -63884.373   -33157.403    3232.8521    5556.6305   -35248.933    86.414016 
   32000    1790.1723    -109.7563    1.6197855   -108.13652    7187.7727    4.4120268    4.4120268    4.4120268    7187.7727   -20280.425    22267.406    19576.337    12695.553     17976.84    8228.4384    85.884428 
   32100    1435.5622   -109.45045    1.2989268   -108.15152   -24726.365    4.4024727    4.4024727    4.4024727   -24726.365    12776.047   -43473.349   -43481.794   -2615.8803   -13754.024   -526.93721    85.327697 
   32200    1802.9893   -109.79915    1.6313826   -108.16776    3104.4651    4.3898379    4.3898379    4.3898379    3104.4651    2751.1373   -8260.9351    14823.193    13796.639      8781.84   -16973.006    84.595149 
   32300    1797.9436   -109.80954    1.6268171   -108.18273   -2713.0043    4.4138936    4.4138936    4.4138936   -2713.0043   -27425.826    28778.763   -9491.9501    9014.1128    3422.2114   -12008.297    85.993493 
   32400     1068.686   -109.14772   0.96696959   -108.18076   -33707.888    4.4182003    4.4182003    4.4182003   -33707.888    38326.618   -53937.066   -85513.216   -3073.6463   -10194.149   -23003.141    86.245449 
   32500    1968.1859    -109.9319     1.780856   -108.15105    33806.263    4.3895518    4.3895518    4.3895518    33806.263    17526.827     43875.99    40015.971    20138.471    12405.156    4351.2404    84.578609 
   32600    1411.8271     -109.449    1.2774508   -108.17155    18503.708    4.3956473    4.3956473    4.3956473    18503.708    -9980.807    39459.309     26032.62   -1924.7478   -13584.423   -23045.389    84.931447 
   32700     1622.825   -109.64504    1.4683661   -108.17667     -8399.59     4.405604     4.405604     4.405604     -8399.59    7565.3432   -42645.821    9881.7082   -1036.2385   -7476.5333   -14153.805    85.509894 
   32800    1440.5169   -109.47365      1.30341   -108.17024    11117.229    4.4138393    4.4138393    4.4138393    11117.229   -906.54024    732.55015    33525.676    18354.501    14114.679   -1413.5135    85.990315 
   32900    1192.3288   -109.23782    1.0788442   -108.15898   -8992.3312    4.4193916    4.4193916    4.4193916   -8992.3312     1347.016   -35423.833     7099.823   -5284.2969   -1551.0273   -35265.648    86.315235 
   33000    2055.7681   -110.00096    1.8601022   -108.14086    868.49907    4.4077848    4.4077848    4.4077848    868.49907   -28737.339    8965.7025    22377.134    5283.9609    4254.1008   -3461.9087    85.636943 
   33100    1411.5791   -109.43936    1.2772265   -108.16214    15060.676    4.3921966    4.3921966    4.3921966    15060.676    15479.014    22936.512    6766.5015   -3005.3417   -3193.6349   -11060.364    84.731581 
   33200     1394.449   -109.45123    1.2617268    -108.1895    -7481.734    4.3957617    4.3957617    4.3957617    -7481.734    14792.573    24286.168   -61523.943   -10249.896    8985.8969   -16144.382    84.938075 
   33300    2040.2565   -110.02468     1.846067   -108.17861    16162.069    4.4110135    4.4110135    4.4110135    16162.069    66164.638   -2866.9737   -14811.458     9218.148    1948.9026     14623.12    85.825269 
   33400    900.47141   -108.98768   0.81476546   -108.17291   -20529.422    4.4335168    4.4335168    4.4335168   -20529.422    10480.755   -15986.828   -56082.195   -8808.1454    3981.1738   -31600.767    87.145519 
   33500     1983.492   -109.92372    1.7947052   -108.12901   -6464.3698    4.4224393    4.4224393    4.4224393   -6464.3698    520.27647    16279.914   -36193.299    11558.404    16566.767     1757.921    86.493934 
   33600    1893.9084   -109.83735    1.7136481    -108.1237   -2467.3283    4.3862692    4.3862692    4.3862692   -2467.3283    7930.7979    28683.496   -44016.279    8896.9532   -22906.831   -11775.758    84.389004 
   33700    791.91473   -108.88179   0.71654109   -108.16525    10644.032    4.3905696    4.3905696    4.3905696    10644.032    64753.518    152.05824   -32973.482    7210.4085    28976.274   -26979.321    84.637457 
   33800    1679.4812   -109.69091    1.5196299   -108.17128   -1268.5162    4.4226197    4.4226197    4.4226197   -1268.5162    8697.7401     -15972.8    3469.5112    25104.842   -4437.8951   -2142.2848     86.50452 
   33900    1525.9121   -109.53472    1.3806773   -108.15405   -582.80779    4.4258378    4.4258378    4.4258378   -582.80779    21109.913    30071.914    -52930.25    19856.457    1684.3686   -9785.2129    86.693491 
   34000    1504.4338   -109.50001    1.3612433   -108.13876   -2017.0553    4.4092229    4.4092229    4.4092229   -2017.0553    22372.979    13476.866   -41901.011    955.08302    27439.677    7977.7481     85.72079 
   34100    1291.5112   -109.30636    1.1685865   -108.13777    47658.769    4.3938063    4.3938063    4.3938063    47658.769    45161.554    59137.352    38677.401    17333.674   -9210.8615   -24991.242    84.824774 
   34200    1973.2638   -109.94802    1.7854506   -108.16257   -1890.1083    4.4086464    4.4086464    4.4086464   -1890.1083    18109.157    4645.1354   -28424.617   -3404.1287    32504.131   -2113.4029    85.687172 
   34300      1748.88   -109.74194    1.5824234   -108.15951    1897.2256    4.4217839    4.4217839    4.4217839    1897.2256    551.71033   -23111.617    28251.583    18170.204   -7040.4352    1423.7772    86.455482 
   34400    1381.4008   -109.41172    1.2499205    -108.1618   -6635.8472    4.4106173    4.4106173    4.4106173   -6635.8472   -24927.202    15500.622   -10480.962    2308.3231    21577.511   -18433.486    85.802144 
   34500    1302.9791   -109.34027    1.1789629   -108.16131    9253.1372    4.3974899    4.3974899    4.3974899    9253.1372   -18550.917    29534.859     16775.47   -5560.9333    49915.194   -7325.9322    85.038296 
   34600    2048.3194   -110.01259    1.8533624   -108.15923    5184.4725    4.4047033    4.4047033    4.4047033    5184.4725     6036.775   -12474.863    21991.506     23896.85   -7501.9576     -12297.1     85.45746 
   34700    1087.9443   -109.15699   0.98439486    -108.1726   -19524.752    4.4293299    4.4293299    4.4293299   -19524.752   -26355.159   -32592.026    372.92914   -9265.4729    48573.844   -5049.9076    86.898861 
   34800    2079.2778   -110.01673    1.8813743   -108.13535   -36.031075    4.4214064    4.4214064    4.4214064   -36.031075    -19482.53   -34179.216    53553.653    8829.3816   -4053.4227   -6526.7103    86.433345 
   34900     1139.554   -109.17683    1.0310924   -108.14573    28677.225    4.3885555    4.3885555    4.3885555    28677.225    31874.321    43889.404    10267.949    3571.9199    28930.759   -2833.3975    84.521032 
   35000    1093.1633   -109.16452   0.98911714    -108.1754    2281.1895    4.3883934    4.3883934    4.3883934    2281.1895   -7318.9187   -13197.301    27359.789   -12335.041    22085.122   -15248.628    84.511665 
[...]
   91200    1887.3857   -109.88739    1.7077462   -108.17965    8108.9827    4.3932612    4.3932612    4.3932612    8108.9827    13735.955   -9804.9781    20395.972     31701.86   -6564.0129   -3867.6016    84.793209 
   91300    1254.9816   -109.32066    1.1355337   -108.18512   -22274.682    4.4060529    4.4060529    4.4060529   -22274.682    852.52129   -48855.177   -18821.392    44919.147   -5419.5343    20052.563    85.536038 
   91400    1497.1602   -109.52139     1.354662   -108.16673   -10238.742    4.4035399    4.4035399    4.4035399   -10238.742    -1418.624    17650.199   -46947.803    -10214.81     8879.988    416.66227    85.389762 
   91500    1713.7874   -109.71303    1.5506708   -108.16236    6130.8094    4.3797272    4.3797272    4.3797272    6130.8094   -45158.921    2055.8695     61495.48    56126.204   -15687.872   -19889.062    84.011973 
   91600    1411.9825   -109.45916    1.2775914   -108.18157    29821.634    4.3837919    4.3837919    4.3837919    29821.634    2059.1247    31304.122    56101.655   -9559.8621   -4139.9784    26687.648    84.246098 
   91700    1685.1107   -109.70457    1.5247236   -108.17984   -17807.104    4.4081542    4.4081542    4.4081542   -17807.104   -57544.613   -54325.913    58449.214     34904.58    10765.766    8768.4497    85.658473 
   91800    1565.8842   -109.58097     1.416845   -108.16412   -7888.3896    4.4179123    4.4179123    4.4179123   -7888.3896    -56438.94    26833.915    5939.8564    14039.788   -26140.739     9174.104    86.228588 
   91900    1430.3843   -109.45012    1.2942418   -108.15588   -16790.803    4.3958062    4.3958062    4.3958062   -16790.803    5290.0064   -28655.128   -27007.288   -533.73824    11706.355    37239.516    84.940656 
   92000      1577.88    -109.5703     1.427699    -108.1426    14695.159    4.3632767    4.3632767    4.3632767    14695.159   -24653.498    33727.192    35011.784    33036.927    -25409.58    -5734.813     83.06886 
   92100    1612.3171   -109.63589    1.4588584   -108.17703     2469.112    4.3845358    4.3845358    4.3845358     2469.112   -20344.952    22248.354    5503.9338   -7891.8839   -18051.648    13598.027     84.28899 
   92200    1265.7864   -109.32609    1.1453101   -108.18078   -35292.158    4.4056045    4.4056045    4.4056045   -35292.158   -26650.403   -60409.505   -18816.567    2021.8653    5740.1875    33540.647    85.509922 
   92300    2183.0657   -110.12904    1.9752838   -108.15376   -1823.3352    4.4034558    4.4034558    4.4034558   -1823.3352     -50749.9    11382.851    33897.044    9052.4626   -24947.066   -11597.626    85.384872 
   92400    922.22506   -109.00661   0.83444862   -108.17216   -24733.193    4.3989403    4.3989403    4.3989403   -24733.193   -22240.405   -35193.269   -16765.905   -19401.119     1825.938    40196.819    85.122465 
   92500    1789.0296   -109.77683    1.6187516   -108.15808    4627.0279    4.3715508    4.3715508    4.3715508    4627.0279   -4385.4375   -5821.5269    24088.048    24464.257    2587.8057    979.21271    83.542328 
   92600     1635.982    -109.6567    1.4802708   -108.17643    11955.545    4.3864241    4.3864241    4.3864241    11955.545   -33992.201   -2904.1138     72762.95   -34404.247   -9973.7377    4155.9205    84.397944 
   92700    1186.7473   -109.25947    1.0737939   -108.18568   -49280.652    4.4015693    4.4015693    4.4015693   -49280.652   -28633.311   -86224.941   -32983.703   -7598.8111    12949.136    44977.763     85.27518 
   92800    2180.7417   -110.13243    1.9731809   -108.15925    3966.5836    4.3976337    4.3976337    4.3976337    3966.5836   -37686.149    19128.106    30457.794    114.79276   -4034.5462   -21814.221    85.046642 
   92900    940.97434   -109.02256   0.85141336   -108.17114   -45941.792    4.3956999    4.3956999    4.3956999   -45941.792   -46430.093   -73355.562   -18039.721   -47089.229    1253.7824     49341.66    84.934494 
   93000    1630.3617    -109.6374    1.4751856   -108.16221    21698.885    4.3730291    4.3730291    4.3730291    21698.885    4943.0618    67713.985   -7560.3915    26632.433    4042.2636    28048.672     83.62711 
   93100    2133.9662   -110.10727    1.9308575   -108.17641   -27095.208    4.3914318    4.3914318    4.3914318   -27095.208   -56881.748   -29167.244    4763.3673    -45252.79   -715.53981   -7223.1353    84.687329 
   93200    927.30267   -109.02214   0.83904294   -108.18309       -24605    4.4124374    4.4124374    4.4124374       -24605     -18223.8    5020.7924   -60611.992   -494.07954    4406.1155    63436.868     85.90841 
   93300    2225.5955   -110.17771    2.0137656   -108.16395     20952.57    4.3866136    4.3866136    4.3866136     20952.57    1206.9284     41795.73     19855.05    9494.2828    7868.3344   -13332.688    84.408879 
   93400    1150.5484   -109.21173    1.0410403   -108.17069    15988.774    4.3723513    4.3723513    4.3723513    15988.774   -3223.8108    24496.916    26693.216    -39384.23   -3508.7372    32383.508    83.588235 
   93500    1738.1393   -109.75556     1.572705   -108.18286   -30902.409    4.3964367    4.3964367    4.3964367   -30902.409   -13315.019   -37500.797   -41891.411    13719.239    3027.6565    44030.434    84.977209 
   93600    1768.4916   -109.76954    1.6001684   -108.16937     45206.85    4.3920509    4.3920509    4.3920509     45206.85   -34541.357    100634.71    69527.195   -17936.769    860.41716   -23823.815     84.72315 
   93700    996.07308   -109.09648   0.90126786   -108.19522   -42606.303    4.4062974    4.4062974    4.4062974   -42606.303   -34296.734   -62350.095    -31172.08   -19684.623    338.55863    48306.857    85.550277 
   93800    2460.8798   -110.38849    2.2266558   -108.16184    18198.297    4.3947207    4.3947207    4.3947207    18198.297   -26982.262    70375.059    11202.094    2307.9911   -214.10053   -12874.531    84.877744 
   93900    835.64666   -108.93877   0.75611066   -108.18266    20281.643    4.3756111    4.3756111    4.3756111    20281.643   -15286.886    34695.568    41436.248   -35038.671   -2097.7657    28569.253    83.775331 
   94000    1943.4278   -109.95522    1.7584544   -108.19677   -9634.1856    4.3943052    4.3943052    4.3943052   -9634.1856   -14614.989   -15177.291    889.72363   -5826.5366   -4573.8368     33978.58    84.853676 
   94100    2108.9634   -110.09154    1.9082344    -108.1833   -25075.203    4.4082317    4.4082317    4.4082317   -25075.203   -64714.731   -2524.4629   -7986.4161   -6668.3835    2052.5949   -14413.485    85.662993 
   94200    724.48275   -108.84561   0.65552722   -108.19008    23786.014    4.3790147    4.3790147    4.3790147    23786.014    2518.0291      33824.6    35015.412   -33697.953    652.95879    46648.723     83.97098 
   94300    2451.2744   -110.37422    2.2179646   -108.15626    29456.728    4.3845708    4.3845708    4.3845708    29456.728    3106.0814    61079.494    24184.608    2811.3035    2227.3766   -11570.773    84.291014 
   94400    904.74016   -109.00299   0.81862791   -108.18436   -39839.989    4.4006996    4.4006996    4.4006996   -39839.989     -42118.5   -59990.792   -17410.675     -18505.8   -46.782633    7620.6746     85.22464 
   94500    2079.7137   -110.04612    1.8817687   -108.16435    16097.305    4.3906472    4.3906472    4.3906472    16097.305   -22836.982    59354.134    11774.764   -11673.746    1406.5977    23709.701    84.641944 
   94600    1453.8552   -109.48422    1.3154787   -108.16874   -1926.1416    4.3960511    4.3960511    4.3960511   -1926.1416   -27698.091    17640.873    4278.7938    21005.509    2087.8261   -20344.508    84.954855 
   94700    1497.0351   -109.52682    1.3545488   -108.17227   -14456.766     4.391852     4.391852     4.391852   -14456.766   -26845.973   -9284.7556   -7239.5697   -33575.591   -2645.7248     29438.62    84.711637 
   94800    2110.0165   -110.06339    1.9091873    -108.1542   -204.79952    4.3937098    4.3937098    4.3937098   -204.79952   -24711.765    21817.708     2279.658    24503.768    -5091.923    -17585.09    84.819186 
   94900     784.6842   -108.87681   0.70999876   -108.16681   -19177.509    4.4002014    4.4002014    4.4002014   -19177.509   -47453.897    13383.952   -23462.582   -9973.9061   -2234.5328   -17639.386    85.195698 
   95000    2369.3079   -110.28723    2.1437996   -108.14343    10823.121    4.3889496    4.3889496    4.3889496    10823.121   -27050.397    55544.229    3975.5311   -13079.714   -1568.6374    7151.4061    84.543805 
   95100    1056.5182    -109.1215   0.95595989   -108.16554   -13728.207    4.3843514    4.3843514    4.3843514   -13728.207   -30381.847   -16077.034    5274.2594    31631.184   -4921.4768    -21750.25    84.278359 
   95200    2092.7959   -110.05346    1.8936057   -108.15985   -21971.953    4.3951093    4.3951093    4.3951093   -21971.953   -27235.493   -22315.588   -16364.778    -26714.91    336.66376   -11894.783    84.900266 
   95300    1608.2228   -109.61658    1.4551538   -108.16142    12774.649    4.3986645    4.3986645    4.3986645    12774.649   -34449.206     62443.75    10329.402    23854.051    4227.0764   -10052.323    85.106456 
   95400     1081.825   -109.15163   0.97885795   -108.17277   -11535.029    4.4068889    4.4068889    4.4068889   -11535.029   -29587.928   -29040.477    24023.318    37230.935    178.82446   -16486.939    85.584734 
   95500    2210.1932   -110.13359    1.9998293   -108.13376    20387.133    4.3986895    4.3986895    4.3986895    20387.133   -2366.0791    76835.152   -13307.673   -2637.4561    2849.9968    4500.7501    85.107907 
   95600    1112.4924   -109.15938    1.0066065   -108.15277   -24288.446    4.3886119    4.3886119    4.3886119   -24288.446    3213.4611   -58369.726   -17709.072    48268.044   -6163.5212   -31785.034    84.524287 
   95700    2295.9357   -110.22461    2.0774108    -108.1472   -8066.5596    4.3958112    4.3958112    4.3958112   -8066.5596   -26139.134   -3242.7849    5182.2397    10003.312    1608.0003   -10778.096    84.940949 
   95800    1271.4115   -109.31486    1.1503999   -108.16446    -9914.743    4.4057393    4.4057393    4.4057393    -9914.743   -32147.497    46086.348    -43683.08    7145.3366    9274.3767   -5510.0412    85.517771 
   95900    1461.6207   -109.48198    1.3225051   -108.15947   -15276.143    4.4077944    4.4077944    4.4077944   -15276.143    -21482.92   -5886.9388    -18458.57    33176.964   -6784.6687   -17360.215    85.637504 
   96000    1920.3945     -109.883    1.7376133   -108.14539   -14254.679    4.3927804    4.3927804    4.3927804   -14254.679    -46951.94    32980.604     -28792.7   -28298.526    23551.721   -3461.4558    84.765371 
   96100    1372.3428   -109.40242    1.2417246   -108.16069    944.11592    4.3828797    4.3828797    4.3828797    944.11592    8711.1079   -7855.9662    1977.2061    12062.392    1790.1123     7556.404    84.193517 
   96200    1996.4457    -109.9603     1.806426   -108.15387    5987.3049     4.386663     4.386663     4.386663    5987.3049   -11496.527    23522.615    5935.8264    -10781.25    8484.0998   -3838.4906    84.411735 
   96300    1011.5226   -109.08644   0.91524691    -108.1712   -25606.877     4.403503     4.403503     4.403503   -25606.877   -37366.006   -1130.8207   -38323.803   -16639.538    11428.049    5099.1136    85.387617 
   96400    2339.5072   -110.25485    2.1168353   -108.13801     19962.35    4.3994056    4.3994056    4.3994056     19962.35    40263.652   -825.18453    20448.584    -6994.698   -3150.5283    2408.2821    85.149482 
   96500    1025.7867   -109.09335   0.92815335    -108.1652   -652.93567    4.3825289    4.3825289    4.3825289   -652.93567   -14582.746    51425.744   -38801.805    -5365.684    15558.888    121.71684    84.173301 
   96600    1798.6466   -109.78962    1.6274533   -108.16216    3143.4124    4.3829448    4.3829448    4.3829448    3143.4124    7016.8376   -10864.576    13277.976   -30435.158   -7788.3426    23480.567    84.197271 
   96700    1603.7773   -109.61725    1.4511314   -108.16611    8038.1149    4.3880413    4.3880413    4.3880413    8038.1149   -30452.708    52672.119    1894.9342    27116.144    9682.8555   -13350.889    84.491323 
   96800    1489.9797   -109.52031    1.3481649   -108.17214   -11897.847    4.3985795    4.3985795    4.3985795   -11897.847   -25190.889    23739.608   -34242.261   -25199.844    1794.5055    10521.314    85.101527 
   96900    2014.9758   -109.96927    1.8231925   -108.14608    5982.0676    4.3992464    4.3992464    4.3992464    5982.0676    50.978567   -3543.3514    21438.576      17839.4   -2273.7969   -3856.4334    85.140238 
   97000    1032.5061   -109.10213   0.93423322    -108.1679   -28014.278    4.3859247    4.3859247    4.3859247   -28014.278   -58445.074    18929.084   -44526.843    21571.472    20530.304    6432.0123    84.369119 
   97100    1974.0825   -109.93542    1.7861913   -108.14923    35957.826    4.3755985    4.3755985    4.3755985    35957.826    35499.428    40209.613    32164.435   -14650.662   -12188.754   -1345.2966    83.774603 
   97200    1379.6473    -109.4252    1.2483338   -108.17687   -13749.589    4.3885544    4.3885544    4.3885544   -13749.589   -25601.128    3218.1613   -18865.801     52176.88    25795.522   -1330.4321    84.520968 
   97300    1717.1418   -109.72094     1.553706   -108.16723   -1571.8171    4.4020252    4.4020252    4.4020252   -1571.8171   -6502.5724    18721.436   -16934.315    -4622.588    17033.832    8832.8594    85.301678 
   97400    1919.9699   -109.88349    1.7372291   -108.14627   -246.90571     4.402408     4.402408     4.402408   -246.90571   -29341.035     12109.75    16490.568    38329.865   -1231.4357   -8853.1677    85.323934 
   97500    930.61004   -108.99981   0.84203552   -108.15778   -28399.698    4.3931413    4.3931413    4.3931413   -28399.698   -82033.338    29956.996   -33122.751      20781.5    49624.603    8365.0466    84.786268 
   97600    2553.7969   -110.44182    2.3107291   -108.13109     38359.91    4.3759757    4.3759757    4.3759757     38359.91    18418.477    74358.372    22302.881    8314.5692   -11547.759    3024.0425    83.796271 
   97700    732.47659   -108.84283   0.66276021   -108.18007    981.12676    4.3811483    4.3811483    4.3811483    981.12676   -79369.134    71696.452    10616.063    27447.645    32295.226    12026.496    84.093779 
   97800    2180.2836   -110.12783    1.9727664   -108.15507   -11512.022    4.4036257    4.4036257    4.4036257   -11512.022    -42816.41    34780.249   -26499.906    249.13166    12187.655    8104.7772    85.394757 
   97900    1254.9321   -109.28985    1.1354889   -108.15436    -15297.53     4.405464     4.405464     4.405464    -15297.53   -73890.009     19372.91    8624.5084    17934.062   -1289.6541    2076.1628    85.501741 
   98000    1384.0667   -109.41475    1.2523327   -108.16242   -20338.206    4.3765171    4.3765171    4.3765171   -20338.206   -68451.047    7015.9751    420.45502    31796.371    52114.033    5481.0552    83.827378 
   98100    2116.3889   -110.06384    1.9149532   -108.14889    18130.521    4.3663816    4.3663816    4.3663816    18130.521    18891.038    42660.191   -7159.6675    -16709.88   -33858.223   -17359.543    83.246323 
   98200    980.60169   -109.06651   0.88726902   -108.17924   -52126.221    4.3970965    4.3970965    4.3970965   -52126.221   -92315.043   -25090.787   -38972.833    51729.346    36407.932   -5217.8564    85.015475 
   98300     2026.508    -109.9793     1.833627   -108.14567   -5616.7543    4.4012326    4.4012326    4.4012326   -5616.7543   -30079.095    10720.764    2508.0684   -3411.6864   -5930.3209     10728.73    85.255609 
   98400    1194.6944    -109.2323    1.0809846   -108.15132   -23657.039    4.3925847    4.3925847    4.3925847   -23657.039   -31839.675   -4902.1725    -34229.27    7824.2515   -21477.416   -32217.492    84.754044 
   98500    2119.4943    -110.0599     1.917763   -108.14214    9551.2042    4.3768148    4.3768148    4.3768148    9551.2042   -17382.618    6453.0753    39583.155    33958.488    27285.815    11143.567    83.844486 
   98600     1142.605   -109.19694     1.033853   -108.16309    12145.325    4.3761708    4.3761708    4.3761708    12145.325    2038.6827    40007.436   -5610.1433   -21682.056   -32675.321   -5987.3394    83.807481 
   98700    1585.8397   -109.60706    1.4349011   -108.17216   -18983.494    4.3954372    4.3954372    4.3954372   -18983.494    -25510.68   -8934.9202   -22504.883    13866.038    -2045.765    -20786.92    84.919265 
   98800    1802.0455   -109.78728    1.6305286   -108.15675    1601.9752    4.4010905    4.4010905    4.4010905    1601.9752   -2239.6972   -14440.296    21485.918   -9062.7453   -11048.406     13164.34    85.247354 
   98900    917.52686   -108.99362   0.83019758   -108.16342   -23041.482    4.4043106    4.4043106    4.4043106   -23041.482   -12563.991   -16182.868   -40377.586   -17411.541    -20280.18   -12992.642    85.434607 
   99000    2548.2385   -110.43712    2.3056997   -108.13142    34974.603    4.3814829    4.3814829    4.3814829    34974.603    35216.931    30102.966    39603.911      -19.827    16508.619    -5819.432    84.113049 
   99100    1094.8484   -109.16343   0.99064188   -108.17279   -16293.797    4.3731449    4.3731449    4.3731449   -16293.797   -19490.901    8870.7473   -38261.236   -20142.022   -29867.801    281.64368    83.633757 
   99200    1515.1912   -109.54905    1.3709768   -108.17807   -11030.777    4.3871007    4.3871007    4.3871007   -11030.777   -8661.6394   -4433.8662   -19996.826   -14332.868   -4585.9656   -11143.012    84.437004 
   99300    1542.0998   -109.56622    1.3953243   -108.17089   -16594.291    4.3934382    4.3934382    4.3934382   -16594.291   -43771.471    13981.495   -19992.897    18694.731    25665.756     5580.188    84.803457 
   99400     1902.139   -109.87189    1.7210954   -108.15079   -37776.837    4.4105713    4.4105713    4.4105713   -37776.837   -29448.973   -20120.786   -63760.751   -23513.504   -43710.769    3134.7025    85.799458 
   99500    1410.1798   -109.42464    1.2759604   -108.14868   -12396.545    4.3957965    4.3957965    4.3957965   -12396.545     -35502.3   -3518.6594     1831.324    35672.651    35841.689   -12816.118    84.940092 
   99600    1529.3848   -109.52235    1.3838195   -108.13853    12974.033    4.3645071    4.3645071    4.3645071    12974.033   -21067.195    68388.839   -8399.5462     8390.333   -12657.007    6233.4059    83.139156 
   99700    1917.8388   -109.88933    1.7353009   -108.15403   -9410.2568    4.3854143    4.3854143    4.3854143   -9410.2568   -4568.0901   -5679.2061   -17983.474    7662.1881   -9786.7396   -6075.8375    84.339666 
   99800    819.84228   -108.90336   0.74181053   -108.16155   -3205.9145    4.4015686    4.4015686    4.4015686   -3205.9145   -31392.101    37698.014   -15923.656    35901.955     38114.17   -6905.5527    85.275136 
   99900    2402.9495   -110.30819    2.1742392   -108.13395   -956.03898    4.3978054    4.3978054    4.3978054   -956.03898   -5691.0653    42244.583   -39421.634   -9428.8868   -24409.541   -716.98574      85.0566 
  100000    1152.4625   -109.21014    1.0427723   -108.16736   -22435.927    4.3880007    4.3880007    4.3880007   -22435.927   -57409.048    14107.302   -24006.035    36656.841    37845.266   -12743.087    84.488981 
Loop time of 21.5814 on 1 procs for 100000 steps with 8 atoms

Pair  time (%) = 6.51068 (30.168)
Kspce time (%) = 5.32558 (24.6767)
Neigh time (%) = 0.170485 (0.789962)
Comm  time (%) = 0.887662 (4.11309)
Outpt time (%) = 0.0259674 (0.120323)
Other time (%) = 8.66103 (40.1319)

Nlocal:    8 ave 8 max 8 min
Histogram: 1 0 0 0 0 0 0 0 0 0
Nghost:    1792 ave 1792 max 1792 min
Histogram: 1 0 0 0 0 0 0 0 0 0
Neighs:    2079 ave 2079 max 2079 min
Histogram: 1 0 0 0 0 0 0 0 0 0

Total # of neighbors = 2079
Ave neighs/atom = 259.875
Neighbor list builds = 2244
Dangerous builds = 0
seeds:5502551
