# ['Ni']

28 atoms
1 atom types

    0.0000     2.3531 xlo xhi
    0.0000     4.0757 ylo yhi
    0.0000    26.8979 zlo zhi

    0.0000     0.0000     0.0000 xy xz yz

Atoms

1 1     0.0000     0.0000     0.0000
2 1     1.1765     2.0378     0.0000
3 1     1.1765     0.6793     1.9213
4 1     0.0000     2.7171     1.9213
5 1     0.0000     1.3585     3.8426
6 1     1.1765     3.3964     3.8426
7 1     0.0000     0.0000     5.7639
8 1     1.1765     2.0378     5.7639
9 1     1.1765     0.6793     7.6851
10 1     0.0000     2.7171     7.6851
11 1     0.0000     1.3585     9.6064
12 1     1.1765     3.3964     9.6064
13 1     0.0000     0.0000    11.5277
14 1     1.1765     2.0378    11.5277
15 1     0.0000     1.3585    13.4490
16 1     1.1765     3.3964    13.4490
17 1     0.0000     0.0000    15.3703
18 1     1.1765     2.0378    15.3703
19 1     1.1765     0.6793    17.2915
20 1     0.0000     2.7171    17.2915
21 1     0.0000     1.3585    19.2128
22 1     1.1765     3.3964    19.2128
23 1     0.0000     0.0000    21.1341
24 1     1.1765     2.0378    21.1341
25 1     1.1765     0.6793    23.0554
26 1     0.0000     2.7171    23.0554
27 1     0.0000     1.3585    24.9766
28 1     1.1765     3.3964    24.9766
