# ['Ni']

10 atoms
1 atom types

    0.0000     3.3874 xlo xhi
    0.0000     2.4249 ylo yhi
    0.0000    24.2487 zlo zhi

    0.0000     0.0000     0.0000 xy xz yz

Atoms

1 1     0.0000     0.0000     0.0000
2 1     1.6937     1.2124     1.2124
3 1     0.0000     0.0000     2.4249
4 1     1.6937     1.2124     3.6373
5 1     0.0000     0.0000     4.8497
6 1     1.6937     1.2124     6.0622
7 1     0.0000     0.0000     7.2746
8 1     1.6937     1.2124     8.4870
9 1     0.0000     0.0000     9.6995
10 1     1.6937     1.2124    10.9119
