# ['Al']

28 atoms
1 atom types

    0.0000     2.6742 xlo xhi
    0.0000     4.6318 ylo yhi
    0.0000    30.5683 zlo zhi

    0.0000     0.0000     0.0000 xy xz yz

Atoms

1 1     0.0000     0.0000     0.0000
2 1     1.3371     2.3159     0.0000
3 1     1.3371     0.7720     2.1835
4 1     0.0000     3.0879     2.1835
5 1     0.0000     1.5439     4.3669
6 1     1.3371     3.8598     4.3669
7 1     0.0000     0.0000     6.5504
8 1     1.3371     2.3159     6.5504
9 1     1.3371     0.7720     8.7338
10 1     0.0000     3.0879     8.7338
11 1     0.0000     1.5439    10.9173
12 1     1.3371     3.8598    10.9173
13 1     0.0000     0.0000    13.1007
14 1     1.3371     2.3159    13.1007
15 1     0.0000     1.5439    15.2842
16 1     1.3371     3.8598    15.2842
17 1     0.0000     0.0000    17.4676
18 1     1.3371     2.3159    17.4676
19 1     1.3371     0.7720    19.6511
20 1     0.0000     3.0879    19.6511
21 1     0.0000     1.5439    21.8345
22 1     1.3371     3.8598    21.8345
23 1     0.0000     0.0000    24.0180
24 1     1.3371     2.3159    24.0180
25 1     1.3371     0.7720    26.2014
26 1     0.0000     3.0879    26.2014
27 1     0.0000     1.5439    28.3849
28 1     1.3371     3.8598    28.3849
