# ['Al']

2 atoms
1 atom types

    0.0000     3.2205 xlo xhi
    0.0000     3.2205 ylo yhi
    0.0000     3.2205 zlo zhi

    0.0000     0.0000     0.0000 xy xz yz

Atoms

1 1    -0.0000    -0.0000    -0.0000
2 1     1.6103     1.6103     1.6103
