# ['Ni']

107 atoms
1 atom types

    0.0000    10.2353 xlo xhi
    0.0000    10.2353 ylo yhi
    0.0000    10.2353 zlo zhi

    0.0000    -0.0000    -0.0000 xy xz yz

Atoms

1 1     1.7059     1.7059     0.0000
2 1     1.7059     0.0000     1.7059
3 1     0.0000     1.7059     1.7059
4 1     0.0000     0.0000     3.4118
5 1     1.7059     1.7059     3.4118
6 1     1.7059     0.0000     5.1176
7 1     0.0000     1.7059     5.1176
8 1     0.0000     0.0000     6.8235
9 1     1.7059     1.7059     6.8235
10 1     1.7059     0.0000     8.5294
11 1     0.0000     1.7059     8.5294
12 1     0.0000     3.4118     0.0000
13 1     1.7059     5.1176     0.0000
14 1     1.7059     3.4118     1.7059
15 1     0.0000     5.1176     1.7059
16 1     0.0000     3.4118     3.4118
17 1     1.7059     5.1176     3.4118
18 1     1.7059     3.4118     5.1176
19 1     0.0000     5.1176     5.1176
20 1     0.0000     3.4118     6.8235
21 1     1.7059     5.1176     6.8235
22 1     1.7059     3.4118     8.5294
23 1     0.0000     5.1176     8.5294
24 1     0.0000     6.8235     0.0000
25 1     1.7059     8.5294     0.0000
26 1     1.7059     6.8235     1.7059
27 1     0.0000     8.5294     1.7059
28 1     0.0000     6.8235     3.4118
29 1     1.7059     8.5294     3.4118
30 1     1.7059     6.8235     5.1176
31 1     0.0000     8.5294     5.1176
32 1     0.0000     6.8235     6.8235
33 1     1.7059     8.5294     6.8235
34 1     1.7059     6.8235     8.5294
35 1     0.0000     8.5294     8.5294
36 1     3.4118     0.0000     0.0000
37 1     5.1176     1.7059     0.0000
38 1     5.1176     0.0000     1.7059
39 1     3.4118     1.7059     1.7059
40 1     3.4118     0.0000     3.4118
41 1     5.1176     1.7059     3.4118
42 1     5.1176     0.0000     5.1176
43 1     3.4118     1.7059     5.1176
44 1     3.4118     0.0000     6.8235
45 1     5.1176     1.7059     6.8235
46 1     5.1176     0.0000     8.5294
47 1     3.4118     1.7059     8.5294
48 1     3.4118     3.4118     0.0000
49 1     5.1176     5.1176     0.0000
50 1     5.1176     3.4118     1.7059
51 1     3.4118     5.1176     1.7059
52 1     3.4118     3.4118     3.4118
53 1     5.1176     5.1176     3.4118
54 1     5.1176     3.4118     5.1176
55 1     3.4118     5.1176     5.1176
56 1     3.4118     3.4118     6.8235
57 1     5.1176     5.1176     6.8235
58 1     5.1176     3.4118     8.5294
59 1     3.4118     5.1176     8.5294
60 1     3.4118     6.8235     0.0000
61 1     5.1176     8.5294     0.0000
62 1     5.1176     6.8235     1.7059
63 1     3.4118     8.5294     1.7059
64 1     3.4118     6.8235     3.4118
65 1     5.1176     8.5294     3.4118
66 1     5.1176     6.8235     5.1176
67 1     3.4118     8.5294     5.1176
68 1     3.4118     6.8235     6.8235
69 1     5.1176     8.5294     6.8235
70 1     5.1176     6.8235     8.5294
71 1     3.4118     8.5294     8.5294
72 1     6.8235     0.0000     0.0000
73 1     8.5294     1.7059     0.0000
74 1     8.5294     0.0000     1.7059
75 1     6.8235     1.7059     1.7059
76 1     6.8235     0.0000     3.4118
77 1     8.5294     1.7059     3.4118
78 1     8.5294     0.0000     5.1176
79 1     6.8235     1.7059     5.1176
80 1     6.8235     0.0000     6.8235
81 1     8.5294     1.7059     6.8235
82 1     8.5294     0.0000     8.5294
83 1     6.8235     1.7059     8.5294
84 1     6.8235     3.4118     0.0000
85 1     8.5294     5.1176     0.0000
86 1     8.5294     3.4118     1.7059
87 1     6.8235     5.1176     1.7059
88 1     6.8235     3.4118     3.4118
89 1     8.5294     5.1176     3.4118
90 1     8.5294     3.4118     5.1176
91 1     6.8235     5.1176     5.1176
92 1     6.8235     3.4118     6.8235
93 1     8.5294     5.1176     6.8235
94 1     8.5294     3.4118     8.5294
95 1     6.8235     5.1176     8.5294
96 1     6.8235     6.8235     0.0000
97 1     8.5294     8.5294     0.0000
98 1     8.5294     6.8235     1.7059
99 1     6.8235     8.5294     1.7059
100 1     6.8235     6.8235     3.4118
101 1     8.5294     8.5294     3.4118
102 1     8.5294     6.8235     5.1176
103 1     6.8235     8.5294     5.1176
104 1     6.8235     6.8235     6.8235
105 1     8.5294     8.5294     6.8235
106 1     8.5294     6.8235     8.5294
107 1     6.8235     8.5294     8.5294
