    2    2    1    1
  0.9639684E+01  0.3009788E-09  0.3009788E-09  0.3009788E-09  0.5000000E-15
  1.000000000000000E-004
  CAR 
 automatically generated by pyflamestk   
      8     10     16
 
  0.1250000E+00  0.1250000E+00  0.1250000E+00  0.3125000E-01
    1      -13.597117   1.000000
    2        2.410196   1.000000
    3        3.255196   1.000000
    4        3.255196   1.000000
    5        8.698876   0.000000
    6       17.308661   0.000000
    7       19.317955   0.000000
    8       19.317958   0.000000
    9       23.529774   0.000000
   10       23.529775   0.000000
   11       24.862373   0.000000
   12       27.258041   0.000000
   13       28.680021   0.000000
   14       28.680022   0.000000
   15       38.891921   0.000000
   16       40.798671   0.000000
 
  0.3750000E+00  0.1250000E+00  0.1250000E+00  0.9375000E-01
    1      -12.948045   1.000000
    2        0.254533   1.000000
    3        2.401839   1.000000
    4        2.961766   1.000000
    5       11.117430   0.000000
    6       15.239641   0.000000
    7       18.617031   0.000000
    8       20.290892   0.000000
    9       22.114347   0.000000
   10       24.329627   0.000000
   11       26.407870   0.000000
   12       31.059761   0.000000
   13       32.314051   0.000000
   14       33.206602   0.000000
   15       35.573738   0.000000
   16       38.845367   0.000000
 
 -0.3750000E+00  0.1250000E+00  0.1250000E+00  0.9375000E-01
    1      -12.514445   1.000000
    2       -0.866843   1.000000
    3        2.253090   1.000000
    4        2.624962   1.000000
    5       11.722917   0.000000
    6       15.417014   0.000000
    7       17.910212   0.000000
    8       19.721172   0.000000
    9       23.697732   0.000000
   10       25.947000   0.000000
   11       26.023688   0.000000
   12       32.285302   0.000000
   13       32.870357   0.000000
   14       33.239137   0.000000
   15       35.793579   0.000000
   16       37.501965   0.000000
 
 -0.1250000E+00  0.1250000E+00  0.1250000E+00  0.9375000E-01
    1      -13.235544   1.000000
    2        1.135595   1.000000
    3        2.888689   1.000000
    4        2.891995   1.000000
    5       10.285917   0.000000
    6       15.495957   0.000000
    7       19.418027   0.000000
    8       19.905205   0.000000
    9       21.070098   0.000000
   10       24.910826   0.000000
   11       26.869129   0.000000
   12       29.950673   0.000000
   13       30.258128   0.000000
   14       30.981739   0.000000
   15       37.177465   0.000000
   16       38.949223   0.000000
 
  0.3750000E+00  0.3750000E+00  0.1250000E+00  0.9375000E-01
    1      -12.713501   1.000000
    2        0.071376   1.000000
    3        2.202720   1.000000
    4        2.433498   1.000000
    5       12.213562   0.000000
    6       13.906984   0.000000
    7       17.160160   0.000000
    8       20.779433   0.000000
    9       21.235090   0.000000
   10       27.083239   0.000000
   11       30.145395   0.000000
   12       30.398709   0.000000
   13       32.327838   0.000000
   14       34.818046   0.000000
   15       36.464776   0.000000
   16       37.868312   0.000000
 
 -0.3750000E+00  0.3750000E+00  0.1250000E+00  0.1875000E+00
    1      -12.304215   1.000000
    2       -0.042103   1.000000
    3        0.951565   1.000000
    4        2.025469   1.000000
    5       13.757571   0.000000
    6       14.766216   0.000000
    7       15.560738   0.000000
    8       19.546362   0.000000
    9       22.990728   0.000000
   10       26.444133   0.000000
   11       29.974295   0.000000
   12       31.399026   0.000000
   13       32.667643   0.000000
   14       36.333138   0.000000
   15       38.880607   0.000000
   16       41.085483   0.000000
 
 -0.1250000E+00  0.3750000E+00  0.1250000E+00  0.1875000E+00
    1      -12.559101   1.000000
    2       -0.246745   1.000000
    3        1.689249   1.000000
    4        2.523694   1.000000
    5       12.582767   0.000000
    6       14.788546   0.000000
    7       16.931387   0.000000
    8       20.117252   0.000000
    9       22.696064   0.000000
   10       25.354594   0.000000
   11       28.862655   0.000000
   12       31.629758   0.000000
   13       32.232672   0.000000
   14       34.881346   0.000000
   15       35.523528   0.000000
   16       41.006059   0.000000
 
 -0.3750000E+00 -0.3750000E+00  0.1250000E+00  0.9375000E-01
    1      -12.340037   1.000000
    2       -0.404283   1.000000
    3        1.687609   1.000000
    4        2.141092   1.000000
    5       12.852897   0.000000
    6       13.485611   0.000000
    7       16.007602   0.000000
    8       21.472391   0.000000
    9       21.484639   0.000000
   10       28.914099   0.000000
   11       29.390936   0.000000
   12       31.963163   0.000000
   13       32.659641   0.000000
   14       37.793201   0.000000
   15       38.168811   0.000000
   16       41.096500   0.000000
 
  0.3750000E+00  0.3750000E+00  0.3750000E+00  0.3125000E-01
    1      -12.749813   1.000000
    2       -0.600132   1.000000
    3        2.818829   1.000000
    4        2.818829   1.000000
    5       10.929136   0.000000
    6       15.430436   0.000000
    7       19.524415   0.000000
    8       19.524417   0.000000
    9       24.069881   0.000000
   10       24.441563   0.000000
   11       24.441566   0.000000
   12       31.898403   0.000000
   13       33.210051   0.000000
   14       33.210054   0.000000
   15       36.839058   0.000000
   16       36.839062   0.000000
 
 -0.3750000E+00  0.3750000E+00  0.3750000E+00  0.9375000E-01
    1      -12.387466   1.000000
    2       -0.283484   1.000000
    3        1.056955   1.000000
    4        2.493768   1.000000
    5       13.072908   0.000000
    6       15.230842   0.000000
    7       16.121349   0.000000
    8       20.426452   0.000000
    9       22.510196   0.000000
   10       25.548919   0.000000
   11       29.074932   0.000000
   12       31.613430   0.000000
   13       32.036151   0.000000
   14       35.363596   0.000000
   15       37.237425   0.000000
   16       40.109992   0.000000
