# ['Ni']

18 atoms
1 atom types

    0.0000     2.4810 xlo xhi
    0.0000     4.2973 ylo yhi
    0.0000    36.4574 zlo zhi

    0.0000     0.0000    -0.0004 xy xz yz

Atoms

1 1     0.0000     0.0000     0.0000
2 1     1.2405     0.7162     2.0254
3 1     0.0000     1.4324     4.0508
4 1     1.2405     2.1486     0.0000
5 1     0.0000     2.8648     2.0254
6 1     1.2405     3.5810     4.0508
7 1     0.0000     0.0000     6.0762
8 1     1.2405     0.7162     8.1016
9 1     0.0000     1.4324    10.1271
10 1     1.2405     2.1486     6.0762
11 1     0.0000     2.8648     8.1016
12 1     1.2405     3.5810    10.1271
13 1     0.0000     0.0000    12.1524
14 1     1.2405     0.7162    14.1779
15 1     0.0000     1.4324    16.2033
16 1     1.2405     2.1486    12.1524
17 1     0.0000     2.8648    14.1779
18 1     1.2405     3.5810    16.2033
