# ['Ni']

28 atoms
1 atom types

    0.0000     2.3972 xlo xhi
    0.0000     4.1520 ylo yhi
    0.0000    27.4017 zlo zhi

    0.0000     0.0000     0.0000 xy xz yz

Atoms

1 1     0.0000     0.0000     0.0000
2 1     1.1986     2.0760     0.0000
3 1     1.1986     0.6920     1.9573
4 1     0.0000     2.7680     1.9573
5 1     0.0000     1.3840     3.9145
6 1     1.1986     3.4600     3.9145
7 1     0.0000     0.0000     5.8718
8 1     1.1986     2.0760     5.8718
9 1     1.1986     0.6920     7.8291
10 1     0.0000     2.7680     7.8291
11 1     0.0000     1.3840     9.7863
12 1     1.1986     3.4600     9.7863
13 1     0.0000     0.0000    11.7436
14 1     1.1986     2.0760    11.7436
15 1     0.0000     1.3840    13.7009
16 1     1.1986     3.4600    13.7009
17 1     0.0000     0.0000    15.6582
18 1     1.1986     2.0760    15.6582
19 1     1.1986     0.6920    17.6154
20 1     0.0000     2.7680    17.6154
21 1     0.0000     1.3840    19.5727
22 1     1.1986     3.4600    19.5727
23 1     0.0000     0.0000    21.5299
24 1     1.1986     2.0760    21.5299
25 1     1.1986     0.6920    23.4872
26 1     0.0000     2.7680    23.4872
27 1     0.0000     1.3840    25.4445
28 1     1.1986     3.4600    25.4445
