LAMMPS (10 Feb 2015)
# ---- initialize simulations
clear
units metal
dimension 3
boundary p p p
atom_style charge
atom_modify map array
# ---- create atoms
read_data /Users/eugeneragasa/pyflamestk_git/pypospack/tests/tests_integration/workflow/WorkflowLammpsThermalExpansion/MgO_NaCl_unit.npt.T1100/lammps.structure
  triclinic box = (0 0 0) to (4.2565 4.2565 4.2565) with tilt (0 0 0)
  1 by 1 by 1 MPI processor grid
  reading atoms ...
  8 atoms
# ---- define interatomic potential
include potential.mod
mass 1 24.305
mass 2 15.999

group Mg type 1
4 atoms in group Mg
group O type 2
4 atoms in group O

set group Mg charge 2.0
  4 settings made for charge
set group O charge -2.0
  4 settings made for charge

variable R_cut equal 10.0

pair_style buck/coul/long ${R_cut}
pair_style buck/coul/long 10
pair_coeff 1 1 0.0 0.5 0.0 ${R_cut}
pair_coeff 1 1 0.0 0.5 0.0 10
pair_coeff 1 2 821.6 0.3242 0.0 ${R_cut}
pair_coeff 1 2 821.6 0.3242 0.0 10
pair_coeff 2 2 2274.0 0.149 27.88 ${R_cut}
pair_coeff 2 2 2274.0 0.149 27.88 10

kspace_style pppm 1.0e-5

neighbor 1.0 bin
neigh_modify every 1 delay 0 check yes
# ---- define settings
compute eng all pe/atom
compute eatoms all reduce sum c_eng
# ---- run minimization
reset_timestep 0
fix 1 all box/relax iso 0.0 vmax 0.001
thermo 10
thermo_style custom step pe lx ly lz xy xz yz press pxx pyy pzz pxy pxz pyz c_eatoms
min_style cg
minimize 1e-25 1e-25 5000 10000
PPPM initialization ...
  G vector (1/distance) = 0.354854
  grid = 8 8 8
  stencil order = 5
  estimated absolute RMS force accuracy = 5.34408e-05
  estimated relative force accuracy = 3.71126e-06
  using double precision FFTs
  3d grid and FFT values/proc = 3375 512
Neighbor list info ...
  1 neighbor list requests
  update every 1 steps, delay 0 steps, check yes
  master list distance cutoff = 11
Memory usage per processor = 4.06549 Mbytes
Step PotEng Lx Ly Lz Xy Xz Yz Press Pxx Pyy Pzz Pxy Pxz Pyz eatoms 
       0   -162.12848       4.2565       4.2565       4.2565            0            0            0    -64012.53    -64012.53    -64012.53    -64012.53 -3.8759874e-11 -1.4292379e-10 -3.6687737e-10   -162.12848 
      10   -162.17871     4.213935     4.213935     4.213935            0            0            0   -4821.7526   -4821.7526   -4821.7526   -4821.7526 8.9106085e-11 8.5332225e-11 -4.2335946e-10   -162.17871 
      14   -162.17896    4.2106915    4.2106915    4.2106915            0            0            0    -1.347652    -1.347652    -1.347652    -1.347652 2.5597609e-11 1.0162971e-11 2.8091283e-10   -162.17896 
Loop time of 0.0301809 on 1 procs for 14 steps with 8 atoms

Minimization stats:
  Stopping criterion = linesearch alpha is zero
  Energy initial, next-to-last, final = 
        -162.128476026     -162.178964554     -162.178964554
  Force two-norm initial, final = 9.24344 0.000276677
  Force max component initial, final = 9.24344 0.000190436
  Final line search alpha, max atom move = 0.125 2.38044e-05
  Iterations, force evaluations = 14 33

Pair  time (%) = 0.0123284 (40.8483)
Kspce time (%) = 0.0059967 (19.8692)
Neigh time (%) = 0 (0)
Comm  time (%) = 0.000654697 (2.16924)
Outpt time (%) = 3.29018e-05 (0.109015)
Other time (%) = 0.0111682 (37.0043)

Nlocal:    8 ave 8 max 8 min
Histogram: 1 0 0 0 0 0 0 0 0 0
Nghost:    2189 ave 2189 max 2189 min
Histogram: 1 0 0 0 0 0 0 0 0 0
Neighs:    2344 ave 2344 max 2344 min
Histogram: 1 0 0 0 0 0 0 0 0 0

Total # of neighbors = 2344
Ave neighs/atom = 293
Neighbor list builds = 0
Dangerous builds = 0
unfix 1
# ---- define output variables ----
variable natoms equal "count(all)"
variable tot_energy equal "c_eatoms"
variable length_x equal "lx"
variable length_y equal "ly"
variable length_z equal "lz"
variable tilt_xy equal "xy"
variable tilt_xz equal "xz"
variable tilt_yz equal "yz"
variable tot_press equal "press"
variable press_xx equal "pxx"
variable press_yy equal "pyy"
variable press_zz equal "pzz"
variable press_xy equal "pxy"
variable press_xz equal "pxz"
variable press_yz equal "pyz"

# ---- output ----
print "pypospack:output_section:begin"
pypospack:output_section:begin
print "tot_energy = ${tot_energy}"
tot_energy = -162.17896455406
print "num_atoms = ${natoms}"
num_atoms = 8
print "xx = ${length_x}"
xx = 4.21069146013408
print "yy = ${length_y}"
yy = 4.21069146013408
print "zz = ${length_z}"
zz = 4.21069146013408
print "xy = ${tilt_xy}"
xy = 0
print "xz = ${tilt_xz}"
xz = 0
print "yz = ${tilt_yz}"
yz = 0
print "tot_press = ${tot_press}"
tot_press = -1.34765197939399
print "pxx = ${press_xx}"
pxx = -1.34765197919426
print "pyy = ${press_yy}"
pyy = -1.3476519793348
print "pzz = ${press_zz}"
pzz = -1.34765197965291
print "pxy = ${press_xy}"
pxy = 2.55976090046832e-11
print "pxz = ${press_xz}"
pxz = 1.01629705561986e-11
print "pyz = ${press_yz}"
pyz = 2.80912827691917e-10
print "pypospack:output_section:done"
pypospack:output_section:done
print "pypospack:lammps_sim:done"
pypospack:lammps_sim:done
#------------------------------------------------------------------------------
# RUN THERMOSTAT
# running using an NPT Nose-Hoover style thermostat
#------------------------------------------------------------------------------
variable tempdamp equal 0.1
variable pressdamp equal 1.0
# set initial velocities
velocity all create 1100 5574406 mom yes dist gaussian loop all
# fix for Nose-Hoover style thermostat
fix 20 all npt temp 1100 1100 0.1 aniso 0.0 0.0 1.0 drag 1.0 couple xyz
variable boxx equal lx
variable boxy equal ly
variable boxz equal lz
variable boxp equal press
variable boxt equal temp
# calculate averages every 10000 steps
reset_timestep 0
fix 21 all ave/time 10 10 100 v_boxx v_boxy v_boxz v_boxp v_boxt file lattice.out
thermo_style custom step temp pe ke etotal press lx ly lz press pxx pyy pzz pxy pxz pyz vol
thermo_modify flush yes
thermo 100
run 100000
PPPM initialization ...
  G vector (1/distance) = 0.355384
  grid = 8 8 8
  stencil order = 5
  estimated absolute RMS force accuracy = 5.2136e-05
  estimated relative force accuracy = 3.62065e-06
  using double precision FFTs
  3d grid and FFT values/proc = 3375 512
Memory usage per processor = 3.06549 Mbytes
Step Temp PotEng KinEng TotEng Press Lx Ly Lz Press Pxx Pyy Pzz Pxy Pxz Pyz Volume 
       0         1100   -162.17896   0.99530312   -161.18366    14239.645    4.2106915    4.2106915    4.2106915    14239.645    12278.892    12229.692     18210.35   -3896.3201    9182.0566   -8785.2801    74.655234 
     100    546.55202    -161.5373   0.49453175   -161.04277      4811.61    4.2344111    4.2344111    4.2344111      4811.61   -19781.337    12481.925    21734.242    -6947.147    10730.698     9028.943    75.923998 
     200    964.21583   -161.65879   0.87244275   -160.78634   -33204.049    4.2552574    4.2552574    4.2552574   -33204.049   -45662.715    -26676.46   -27272.972    1994.7413    1573.7102    970.52809    77.050864 
     300    1043.8177   -161.48378   0.94446819   -160.53931    499.53379    4.2427615    4.2427615    4.2427615    499.53379   -11695.419    6775.3632    6418.6576     10963.57   -1990.5073    1163.7801    76.374059 
     400    1091.3774   -161.34723   0.98750121   -160.35973    31165.555    4.2346345    4.2346345    4.2346345    31165.555     21535.08    34630.931    37330.655    2211.1071   -7596.2533    9433.7757    75.936014 
     500    1184.5695   -161.31072    1.0718233    -160.2389    1892.0086    4.2527217    4.2527217    4.2527217    1892.0086   -48005.129    19552.763    34128.391    2429.4098   -1237.7587   -5147.8273    76.913203 
     600    790.35926   -160.89134   0.71513367   -160.17621   -17338.587    4.2712398    4.2712398    4.2712398   -17338.587   -69890.814    20971.806   -3096.7547   -7982.4433    672.14036    10342.329    77.922318 
     700    1213.0264   -161.25429    1.0975718   -160.15672   -16169.727    4.2588561    4.2588561    4.2588561   -16169.727   -8835.1775   -10719.892    -28954.11    -1366.825   -22838.205    12743.701    77.246514 
     800    1205.9813   -161.24534    1.0911973   -160.15414    5660.3133    4.2395631    4.2395631    4.2395631    5660.3133   -36850.253    37616.187    16215.007    3036.6506   -22303.508   -4062.2428    76.201464 
     900    914.27712   -161.00773   0.82725715   -160.18047    16669.237    4.2536206    4.2536206    4.2536206    16669.237   -9530.6492   -15327.588    74865.948    6458.7782   -14799.931    6447.1224    76.961981 
    1000    1484.9386   -161.52578    1.3436037   -160.18217   -32274.768    4.2792663    4.2792663    4.2792663   -32274.768   -37417.635   -40113.656   -19293.012    6879.9105   -22972.394   -6854.0242    78.362438 
    1100    1226.0281   -161.28225     1.109336   -160.17292   -13846.889    4.2569776    4.2569776    4.2569776   -13846.889   -21229.452   -11404.971   -8906.2455    -12109.46   -5401.4848    5785.3756    77.144344 
    1200    898.57323   -160.96762   0.81304794   -160.15457     48228.73    4.2213637    4.2213637    4.2213637     48228.73    26384.102    35596.843    82705.244   -10331.338    8498.5879    34521.418    75.224328 
    1300    1235.7231   -161.30301    1.1181083    -160.1849    22399.104     4.243142     4.243142     4.243142    22399.104   -14869.042    11267.786    70798.567   -3003.7966    7940.2622    3501.0318    76.394606 
    1400    1367.7663   -161.41256    1.2375837   -160.17498   -39534.624    4.2903445    4.2903445    4.2903445   -39534.624   -46351.701   -67300.798   -4951.3733    12306.312   -2010.1292    4426.4803     78.97261 
    1500    869.39177   -160.95119   0.78664394   -160.16455     -10059.9    4.2757164    4.2757164    4.2757164     -10059.9   -36298.244   -17927.267     24045.81    5088.7187   -8805.1028   -2020.2436    78.167581 
    1600    985.73039   -161.04125   0.89190957   -160.14934    38714.405    4.2346457    4.2346457    4.2346457    38714.405    11609.304    19669.126    84864.785   -6165.5858   -11488.439   -319.65794    75.936614 
    1700    1324.0634   -161.37711    1.1980404   -160.17907    10991.241    4.2494605    4.2494605    4.2494605    10991.241    8744.2508   -11483.053    35712.526   -3845.1861    4100.4647   -1990.4646    76.736394 
    1800    1124.5806   -161.19089    1.0175442   -160.17335   -29565.959    4.2720236    4.2720236    4.2720236   -29565.959   -58049.573   -16148.688   -14499.616   -4605.4342    7569.4246   -8158.6327    77.965224 
    1900    799.66195   -160.88486   0.72355094   -160.16131    6101.4327    4.2537764    4.2537764    4.2537764    6101.4327   -39898.542    28533.483    29669.357    4892.8469     15137.44    1004.5235     76.97044 
    2000    1258.0426   -161.30151    1.1383034   -160.16321    -3698.007    4.2568934    4.2568934    4.2568934    -3698.007   -4556.4094     4334.044   -10871.656    17749.664    15195.191   -1733.9469     77.13977 
    2100    1062.4155   -161.12366   0.96129588   -160.16237   -182.89748    4.2645766    4.2645766    4.2645766   -182.89748    3814.2936   -21491.382    17128.396   -4940.4562    7692.1286    6327.9452    77.558205 
    2200    902.62832   -160.97657   0.81671707   -160.15985    641.29191    4.2548799    4.2548799    4.2548799    641.29191   -48232.835   -8918.3919    59075.102   -6213.4139    4105.8654    6664.4817    77.030358 
    2300    1289.5275   -161.33793    1.1667915   -160.17114   -28171.735    4.2545612    4.2545612    4.2545612   -28171.735   -56903.098   -3429.7108   -24182.394    2896.4515    3129.0455     8984.731    77.013049 
    2400    922.03685   -161.00822   0.83427831   -160.17394    1282.4721    4.2521736    4.2521736    4.2521736    1282.4721   -5909.9695    50443.243   -40685.857    1419.6791    9819.8628   -4072.1236    76.883468 
    2500    1136.7533   -161.19856    1.0285582      -160.17   -14000.105     4.255611     4.255611     4.255611   -14000.105   -15290.383      8363.02   -35072.952    10800.975    3782.2562    332.46646    77.070071 
    2600    983.70992   -161.06121    0.8900814   -160.17113   -9085.1498    4.2651338    4.2651338    4.2651338   -9085.1498    -22514.25   -15323.649    10582.449    16275.494    3900.7244    18717.746    77.588612 
    2700    860.04764   -160.94514   0.77818918   -160.16695     17721.11    4.2633587    4.2633587    4.2633587     17721.11    3365.7649    3733.4242     46064.14    1014.2032    6656.7686   -10747.356    77.491779 
    2800    1337.5658   -161.37648    1.2102577   -160.16623    12034.769     4.248297     4.248297     4.248297    12034.769    25139.954   -145.08426    11109.437   -15972.693    2932.9669   -3802.9735    76.673378 
    2900    944.84241   -161.03112   0.85491327    -160.1762    8358.8396      4.25145      4.25145      4.25145    8358.8396   -3886.6783     29593.74    -630.5426   -11683.138   -3678.4587   -2656.0144    76.844221 
    3000    906.10579   -160.99524   0.81986356   -160.17537   -11693.994    4.2695301    4.2695301    4.2695301   -11693.994   -35323.905    -2440.664     2682.588   -15686.251   -24693.909   -8171.7216    77.828782 
    3100     1044.195   -161.11112   0.94480962   -160.16631   -6968.7949    4.2566673    4.2566673    4.2566673   -6968.7949   -27987.437   -18579.984    25661.037   -12765.294   -12379.957      555.923    77.127474 
    3200    842.02453    -160.9237   0.76188149   -160.16182    24619.695      4.24096      4.24096      4.24096    24619.695    15953.419     -14054.4    71960.066    740.39639   -21865.934     7320.517    76.276814 
    3300    574.72149   -160.70603   0.52002008   -160.18601      20149.2     4.267883     4.267883     4.267883      20149.2    75360.852   -27626.676    12713.423    -1906.856   -20050.505    4411.5863    77.738741 
    3400     1206.535   -161.26096    1.0916983   -160.16926   -26172.583    4.2777878    4.2777878    4.2777878   -26172.583   -2102.1324   -20269.611   -56146.007   -10642.778   -15345.265     1713.949    78.281244 
    3500     934.9889   -160.99767   0.84599761   -160.15167     516.4657    4.2490799    4.2490799    4.2490799     516.4657   -39802.972    25009.686    16342.683    5928.7956   -3353.5535   -5551.0418    76.715778 
    3600    1118.5272    -161.1703    1.0120669   -160.15823   -12222.359    4.2501426    4.2501426    4.2501426   -12222.359   -41282.602    416.08207    4199.4428    7717.0545   -11949.052    159.90603    76.773352 
    3700    1270.6203   -161.31851     1.149684   -160.16883   -10978.929    4.2753293    4.2753293    4.2753293   -10978.929    37982.138   -29898.295   -41020.628   -5324.8216   -9746.3541    3907.1426    78.146354 
    3800    996.73028    -161.0685   0.90186251   -160.16664   -656.75481    4.2707209    4.2707209    4.2707209   -656.75481   -14378.136    1661.6636    10746.208   -2213.0715   -7094.3805    5681.6455     77.89392 
    3900    1188.1793     -161.233    1.0750896   -160.15791   -1400.6513    4.2451789    4.2451789    4.2451789   -1400.6513   -37792.627    7935.7341    25654.939   -6467.1074   -14087.775    1161.9305    76.504676 
    4000    1216.9405   -161.27869    1.1011133   -160.17757   -1275.2355     4.256422     4.256422     4.256422   -1275.2355    3510.4632   -20781.045    13444.875    19759.542   -13933.662    1854.0808    77.114144 
    4100    1020.2427   -161.09984   0.92313707    -160.1767   -10499.752    4.2796629    4.2796629    4.2796629   -10499.752    39617.182     -38945.4   -32171.038    4482.1412   -16236.465   -13136.345     78.38423 
    4200    1095.0449   -161.15383   0.99081961   -160.16301   -5694.2133    4.2617834    4.2617834    4.2617834   -5694.2133    2071.7203    10929.755   -30084.116   -6509.3456   -3006.1227   -5348.8526    77.405909 
    4300    1363.8077   -161.38578    1.2340019   -160.15178    11015.171    4.2373893    4.2373893    4.2373893    11015.171   -4109.6102    23883.017    13272.105    15329.855   -3079.0346    12454.287    76.084311 
    4400     1169.616   -161.22632    1.0582931   -160.16803   -10523.225    4.2497959    4.2497959    4.2497959   -10523.225   -35836.592   -2314.9505    6581.8683   -3450.2251    12787.473    6871.0832    76.754564 
    4500    1243.8393   -161.29099     1.125452   -160.16554   -31720.912    4.2600406    4.2600406    4.2600406   -31720.912   -57667.781    -29669.91   -7825.0429     5011.006    22295.788   -5242.6759    77.310988 
    4600    941.36293    -161.0169   0.85176496   -160.16514    20435.014    4.2519196    4.2519196    4.2519196    20435.014    82733.363   -34576.153    13147.831    16871.324    10459.244    12481.589    76.869693 
    4700    1439.5927    -161.4776    1.3025737   -160.17503   -7366.0766    4.2545414    4.2545414    4.2545414   -7366.0766    28030.224   -46580.869   -3547.5847    22741.199   -32.577175    2166.4057    77.011973 
    4800    864.96559   -160.96117   0.78263904   -160.17853   -18908.781    4.2575708    4.2575708    4.2575708   -18908.781   -57340.076   -26602.716    27216.448    17179.473    11488.657   -8965.6861    77.176599 
    4900    722.65512   -160.82623   0.65387354   -160.17236    1947.4954    4.2436099    4.2436099    4.2436099    1947.4954   -34470.678    10274.787    30038.377    10426.985    4567.1201    11290.242     76.41988 
    5000    1184.4295   -161.25246    1.0716967   -160.18076    9555.6027    4.2481996    4.2481996    4.2481996    9555.6027    41911.149   -26458.891    13214.551    7665.3616   -2659.0223   -628.77363    76.668108 
    5100    767.69861   -160.87902   0.69462983   -160.18439   -4411.3836    4.2743042    4.2743042    4.2743042   -4411.3836    33945.428   -44690.977   -2488.6013    9580.2442    -6652.419   -2417.7619    78.090154 
    5200    750.15279   -160.85325   0.67875401   -160.17449   -14072.294    4.2570585    4.2570585    4.2570585   -14072.294   -13929.908   -45013.305     16726.33    17256.371   -15105.843    2225.4745    77.148746 
    5300    910.86612   -160.98637   0.82417081    -160.1622    25072.282    4.2292172    4.2292172    4.2292172    25072.282    12394.056   -3398.5664    66221.357    3145.6814   -14532.881    -10952.63    75.644953 
    5400    1177.3662   -161.24562    1.0653056   -160.18031    -10693.94    4.2538052    4.2538052    4.2538052    -10693.94    606.89847   -11166.087   -21522.631   -6088.4353   -15168.822   -7705.9776    76.972003 
    5500    860.56704   -160.94704   0.77865914   -160.16838   -22341.194     4.274786     4.274786     4.274786   -22341.194   -15423.083    1023.4099   -52623.909    4774.5038   -9561.7203   -6686.0944    78.116567 
    5600     1250.828   -161.28583    1.1317754   -160.15406   -10748.525    4.2584483    4.2584483    4.2584483   -10748.525    16422.256   -28762.999   -19904.831    5722.2715    5638.3407   -137.18148    77.224328 
    5700    1183.8504   -161.23629    1.0711727   -160.16512    11687.464    4.2493776    4.2493776    4.2493776    11687.464    32323.001    -45834.93    48574.322    16583.833    3770.6417    274.72197    76.731901 
    5800    943.78467   -161.03179   0.85395621   -160.17783   -13638.615    4.2637223    4.2637223    4.2637223   -13638.615   -7297.3034   -35848.416    2229.8751     15548.26    505.33172   -8029.6213    77.511605 
    5900    1200.1216   -161.25645    1.0858953   -160.17056   -21893.629    4.2595525    4.2595525    4.2595525   -21893.629    983.59064    -37666.81   -28997.668   -5427.3626   -4676.0917   -3561.8761    77.284417 
    6000    1551.2938   -161.56683    1.4036432   -160.16319    7295.0727    4.2415105    4.2415105    4.2415105    7295.0727    37507.872   -4722.5367   -10900.117   -4148.9185   -5846.7466   -113.00409    76.306518 
    6100    1297.1821   -161.35052    1.1737177    -160.1768    2409.5813    4.2549898    4.2549898    4.2549898    2409.5813    11515.016    1505.2714   -5791.5439   -3027.3308    9006.3346   -4282.4513     77.03633 
    6200    1110.7089   -161.17682    1.0049928   -160.17182   -14542.244    4.2652232    4.2652232    4.2652232   -14542.244   -14184.174   -51319.166    21876.607   -3053.3378   -4443.5685    2397.3746    77.593492 
    6300    1242.0378   -161.29154    1.1238219   -160.16772    11343.335    4.2501757    4.2501757    4.2501757    11343.335    10463.362   -17083.351    40649.994   -1181.6437   -7724.7063    8986.2192    76.775146 
    6400    1548.3068   -161.56966    1.4009406   -160.16872    4624.5483    4.2405881    4.2405881    4.2405881    4624.5483    1072.0083   -12931.909    25733.545   -25849.498   -4067.9327    6593.8909    76.256747 
    6500    1103.1949   -161.17068   0.99819395   -160.17248    6766.5518    4.2479964    4.2479964    4.2479964    6766.5518   -6213.5526    3626.9448    22886.263   -4735.2679   -19927.915   -6109.8109    76.657106 
    6600    1014.7556    -161.0916   0.91817223   -160.17343     12795.97    4.2586986    4.2586986    4.2586986     12795.97    12897.686    11745.483    13744.739    5745.8988   -12394.482   -577.21361    77.237948 
    6700    1501.1065   -161.52921    1.3582327   -160.17098   -10340.219    4.2638697    4.2638697    4.2638697   -10340.219   -3465.0186   -38664.651    11109.012   -12387.218    2529.9025    1255.1869    77.519644 
    6800    1077.6206   -161.13936   0.97505377   -160.16431   -16759.468     4.258368     4.258368     4.258368   -16759.468   -51921.106    568.47481    1074.2267    1883.8346    13015.985   -2127.9475    77.219961 
    6900    793.94101   -160.87731   0.71837451   -160.15894   -11812.983    4.2371046    4.2371046    4.2371046   -11812.983   -46089.756    43590.556   -32939.749    4086.6622     36546.31     -4706.98    76.068973 
    7000    1105.0092   -161.16638   0.99983553   -160.16655    2261.2003    4.2347092    4.2347092    4.2347092    2261.2003    4293.0157    30832.438   -28341.853   -8147.0011    47120.849   -4338.9528    75.940032 
    7100    820.50162   -160.92062   0.74240711   -160.17821   -9391.2525    4.2680519    4.2680519    4.2680519   -9391.2525   -1005.9232   -33056.496    5888.6614    3363.2992    27922.125   -1346.7583    77.747976 
    7200    649.28277   -160.75617   0.58748469   -160.16869    -7254.823    4.2737369    4.2737369    4.2737369    -7254.823    11315.745   -37978.588    4898.3735    12577.513    20023.142   -11499.088    78.059063 
    7300    1097.9345   -161.15183   0.99343425   -160.15839    25020.327    4.2357017    4.2357017    4.2357017    25020.327     39885.89    2964.7251    32210.366      20865.3    21956.843   -6224.9522    75.993438 
    7400    1049.9234   -161.10901   0.94999272   -160.15902    25394.273     4.227833     4.227833     4.227833    25394.273   -5976.3387    38913.027    43246.132    17825.208    13173.298    2813.1185    75.570705 
    7500    1011.6744   -161.08589   0.91538423   -160.17051   -27674.921    4.2557776    4.2557776    4.2557776   -27674.921   -59333.653    8297.7605   -31988.869    8559.6964    21040.619    -8264.076    77.079125 
    7600    1027.0206   -161.09438   0.92926982   -160.16511   -18359.493    4.2661571    4.2661571    4.2661571   -18359.493    33.034857   -11421.009   -43690.505    5375.1886    6986.8685   -15723.738     77.64447 
    7700    1327.8961   -161.36609    1.2015083   -160.16458   -1347.9959    4.2600194    4.2600194    4.2600194   -1347.9959    4461.1834   -14970.319    6465.1482    1114.3769   -7921.0403    6083.0121    77.309835 
    7800    1194.4773    -161.2446    1.0807882   -160.16381   -7561.2214    4.2521502    4.2521502    4.2521502   -7561.2214   -23552.829   -19813.217    20682.382    11322.117   -5643.9857   -3389.3315    76.882196 
    7900    1206.4035   -161.25608    1.0915792    -160.1645    6858.1787    4.2431146    4.2431146    4.2431146    6858.1787   -7478.3504   -1711.4802    29764.367     19603.14    -830.1831    -5963.052    76.393129 
    8000    1270.0564   -161.32443    1.1491737   -160.17525    11906.601    4.2516729    4.2516729    4.2516729    11906.601    22922.053   -15995.135    28792.884   -5918.1563   -1018.6069    6184.6806    76.856311 
    8100    1306.3097   -161.35351    1.1819764   -160.17153   -15662.027     4.274765     4.274765     4.274765   -15662.027    8299.3166   -24844.143   -30441.256   -3376.6092    18100.166   -2580.5135    78.115411 
    8200    971.34797   -161.03578   0.87889605   -160.15688   -16419.513    4.2689046    4.2689046    4.2689046   -16419.513   -13634.684   -27307.129   -8316.7251    13700.733    5731.0759    9066.6569    77.794583 
    8300    1193.7557   -161.23011    1.0801353   -160.14998    4726.3708    4.2467035    4.2467035    4.2467035    4726.3708    9669.0325    11648.067   -7137.9866   -11999.624   -6556.1726    10643.525    76.587136 
    8400    1518.1805   -161.53595    1.3736816   -160.16227   -17648.097    4.2550758    4.2550758    4.2550758   -17648.097   -6705.7186   -39395.938   -6842.6357   -7113.0776   -17639.643    9915.6956    77.040998 
    8500    876.70493   -160.95511   0.79326105   -160.16185    -5933.961    4.2633651    4.2633651    4.2633651    -5933.961     -35025.6   -8880.6418    26104.359    3100.1532   -12567.482     9951.569    77.492125 
    8600    897.84311   -160.97263   0.81238731   -160.16024    12590.798    4.2518566    4.2518566    4.2518566    12590.798    10629.589    29993.614   -2850.8094   -3361.5162     1192.756    15873.747    76.866273 
    8700    1024.5181   -161.09939   0.92700554   -160.17239    3406.3456    4.2601891    4.2601891    4.2601891    3406.3456    53707.637   -14094.252   -29394.348    10318.835    12160.683    8988.0501    77.319074 
    8800    845.21809   -160.92993   0.76477109   -160.16516   -25981.107    4.2606145    4.2606145    4.2606145   -25981.107   -23619.082   -39982.738     -14341.5   -3632.7063     26140.81    13711.693    77.342234 
    8900    630.15066   -160.73366   0.57017356   -160.16349      16396.7    4.2356977    4.2356977    4.2356977      16396.7    -15587.16    3896.0978    60881.163   -15108.428     24875.99     10137.82    75.993224 
    9000    925.44405   -161.02442   0.83736123   -160.18706    10952.074    4.2466319    4.2466319    4.2466319    10952.074    20303.776   -20811.762    33364.207   -1023.1259    24396.775    17911.673    76.583259 
    9100    906.72145   -160.99629   0.82042062   -160.17587   -17947.286    4.2666238    4.2666238    4.2666238   -17947.286    52270.756   -59033.245   -47079.369   -6778.3702    11700.146    18140.979    77.669954 
    9200    696.98273   -160.79018   0.63064463   -160.15954    7250.2858    4.2510527    4.2510527    4.2510527    7250.2858    55655.476    4560.0613    -38464.68   -8825.3829    5500.7828    10259.958    76.822681 
    9300    1106.4718    -161.1579     1.001159   -160.15674     8058.158    4.2451305    4.2451305    4.2451305     8058.158    22264.632   -7611.7847     9521.627    9294.0723   -13062.415     22399.46    76.502064 
    9400    1153.2588   -161.20528    1.0434928   -160.16179   -5750.5564      4.25504      4.25504      4.25504   -5750.5564   -12820.924     -36158.9    31728.154     -3832.55   -2776.1192   -103.60963    77.039055 
    9500    1263.5144   -161.30141    1.1432544   -160.15816   -22341.403    4.2566269    4.2566269    4.2566269   -22341.403   -35589.883   -23510.097   -7924.2282    9528.8209   -2638.9674     -12773.1     77.12528 
    9600    1036.5854   -161.09712   0.93792422    -160.1592   -12352.434    4.2599805    4.2599805    4.2599805   -12352.434   -679.59072   -12043.524   -24334.188    8603.1713   -12504.918   -4540.8846    77.307714 
    9700    1077.6517   -161.13289    0.9750819   -160.15781   -15959.761    4.2600713    4.2600713    4.2600713   -15959.761    27688.282   -35934.635   -39632.931   -8284.3223    3895.1432   -18069.181    77.312656 
    9800    1276.8744   -161.30986    1.1553428   -160.15452   -973.64898    4.2467794    4.2467794    4.2467794   -973.64898   -9503.4502    11280.828   -4698.3243    605.89744   -10461.749   -19184.706     76.59124 
    9900    942.98114   -161.01939   0.85322916   -160.16616    14350.142     4.251704     4.251704     4.251704    14350.142   -35552.167    28115.795    50486.798    11341.774   -6866.7691    5632.5129    76.857997 
   10000    1169.1114   -161.23304    1.0578366    -160.1752    7747.7742    4.2578311    4.2578311    4.2578311    7747.7742   -17406.898    15479.581     25170.64     1371.805   -5156.5504   -4295.4794    77.190756 
   10100    1192.6112   -161.24981    1.0790997   -160.17071   -9555.9506    4.2552172    4.2552172    4.2552172   -9555.9506   -31484.549    21798.093   -18981.396    13795.787   -3562.2518   -17064.521    77.048679 
   10200    813.52221    -160.9081     0.736092   -160.17201   -7863.8727    4.2552673    4.2552673    4.2552673   -7863.8727   -23351.574    22553.596    -22793.64    4005.8936    18149.556    2523.6624      77.0514 
   10300     1325.632   -161.36807    1.1994597   -160.16861   -22502.363    4.2562657    4.2562657    4.2562657   -22502.363   -29630.784     8247.263   -46123.567   -1995.6543    22264.416    7697.6411    77.105649 
   10400    1462.4078   -161.48722    1.3232173     -160.164    4836.5785    4.2481294    4.2481294    4.2481294    4836.5785   -15220.906    35308.275   -5577.6336   -899.31566   -2454.1762    -6060.335    76.664305 
   10500     994.8097   -161.06963   0.90012472    -160.1695    23451.197    4.2506436    4.2506436    4.2506436    23451.197   -3377.1407    62670.818    11059.914   -12534.948    6382.6248   -41.519768    76.800506 
   10600    1113.6223   -161.18104    1.0076289   -160.17341   -16857.945    4.2661044    4.2661044    4.2661044   -16857.945   -15370.205   -21649.364   -13554.268   -11672.281   -2339.8704     10823.84    77.641596 
   10700    1122.0933   -161.18401    1.0152936   -160.16872   -15679.085    4.2545372    4.2545372    4.2545372   -15679.085    6440.7281   -37957.693   -15520.291   -3271.8002    354.72644    24891.697    77.011749 
   10800    996.53482   -161.06846   0.90168565   -160.16678    2046.1143    4.2448707    4.2448707    4.2448707    2046.1143   -2533.4498     23793.18   -15121.387    4554.4712    3581.2155    16029.241    76.488019 
   10900    625.85487   -160.74684   0.56628664   -160.18056   -5810.8255    4.2640832    4.2640832    4.2640832   -5810.8255   -32072.753    22647.498   -8007.2217    4107.3164    4213.1189    23613.654    77.531289 
   11000     827.0244   -160.92432   0.74830906   -160.17601    3397.0012    4.2559593    4.2559593    4.2559593    3397.0012    4938.1752   -13141.332     18394.16   -1599.0133    2707.9614    38329.791    77.088995 
   11100    889.52753   -160.97327    0.8048632    -160.1684    23329.886    4.2326625    4.2326625    4.2326625    23329.886    43094.802   -500.39599    27395.252     7545.638    14439.407    32597.474    75.829975 
   11200    705.25748   -160.82264   0.63813179   -160.18451   -1636.5679    4.2491041    4.2491041    4.2491041   -1636.5679    5331.0669   -4321.2528   -5919.5176    2882.4682    456.28843    43308.666     76.71709 
   11300    917.95718   -161.00611   0.83058695   -160.17553   -11812.337    4.2633333    4.2633333    4.2633333   -11812.337   -12394.451    1258.6471   -24301.207   -12479.294   -3718.8354    32987.716     77.49039 
   11400    811.02429   -160.90507   0.73383182   -160.17124     30346.81    4.2501344    4.2501344    4.2501344     30346.81    13347.503    66907.076    10785.852   -15249.039    2156.0551    12902.238     76.77291 
   11500    600.63624   -160.72534   0.54346829   -160.18187    19697.357    4.2501125    4.2501125    4.2501125    19697.357   -16571.663     38207.34    37456.394    -9565.535   -3733.5393    9990.6475    76.771719 
   11600    660.69186   -160.77737   0.59780788   -160.17956   -6503.7274    4.2532466    4.2532466    4.2532466   -6503.7274   -30846.929     18495.19   -7159.4433   -4026.8148   -1379.5239    20373.849    76.941684 
   11700    1146.5587   -161.20873    1.0374304    -160.1713    6843.3872    4.2488702    4.2488702    4.2488702    6843.3872   -5683.9816     32979.99   -6765.8467    7077.4496    7292.7717    11959.971    76.704422 
   11800     879.6552   -160.98067   0.79593051   -160.18474    6569.2567    4.2666598    4.2666598    4.2666598    6569.2567   -15111.745    50720.603   -15901.088    8653.6004    4182.2674    16334.041    77.671922 
   11900    918.78079   -161.01651   0.83133217   -160.18518   -15912.482    4.2636425    4.2636425    4.2636425   -15912.482    -37831.92     14629.57   -24535.097    3619.2045    2109.5683    21607.483    77.507256 
   12000    1082.9668   -161.14659   0.97989116   -160.16669    24037.564    4.2313893    4.2313893    4.2313893    24037.564    3902.0662    43766.481    24444.144   -4154.7181    382.26131    6171.5758    75.761566 
   12100    1291.0724   -161.33939    1.1681895    -160.1712    13600.491    4.2375828    4.2375828    4.2375828    13600.491    7793.2129    21314.584    11693.678   -11000.867    7088.4834    16337.267     76.09473 
   12200    927.63339   -161.01282   0.83934219   -160.17348    5168.2236    4.2606315    4.2606315    4.2606315    5168.2236   -21827.361    53767.018   -16434.986   -14011.413    471.96138    15981.261    77.343161 
   12300    1083.4856   -161.14469    0.9803605   -160.16433    5488.1488    4.2551561    4.2551561    4.2551561    5488.1488   -40497.812    65911.123   -8948.8652   -1764.8016    4913.4623    6764.7434    77.045359 
   12400    1333.0129   -161.37827    1.2061381   -160.17213   -21835.125    4.2567055    4.2567055    4.2567055   -21835.125   -49749.242   -21292.916     5536.784    7018.4635    10503.695    12915.995    77.129553 
   12500    996.36222   -161.07733   0.90152948    -160.1758   -8455.3277    4.2494116    4.2494116    4.2494116   -8455.3277   -49945.475   -4439.3324    29018.824    24338.895   -1254.7268    12973.927    76.733744 
   12600    1166.5487   -161.22194    1.0555178   -160.16642    18633.157    4.2247389    4.2247389    4.2247389    18633.157   -35672.092    60980.902     30590.66      18902.1    3515.5198     10098.66    75.404909 
   12700    1319.4842   -161.37699    1.1938971    -160.1831   -4572.9312    4.2430117    4.2430117    4.2430117   -4572.9312   -32363.947    28959.846   -10314.692    20374.736    9200.7905    8401.2866    76.387567 
   12800    1542.9392    -161.5706    1.3960839   -160.17451   -40692.716    4.2657273    4.2657273    4.2657273   -40692.716   -55440.441   -44071.266   -22566.441    1743.0509    -2428.249       8193.3    77.621004 
   12900    1341.2974   -161.37733    1.2136341    -160.1637      571.394     4.245531     4.245531     4.245531      571.394   -26716.667   -9478.0972    37908.946    -4804.274    2618.7434    22527.257    76.523716 
   13000    1235.1525   -161.28292     1.117592   -160.16533      10920.8     4.242748     4.242748     4.242748      10920.8   -15051.994    18540.693    29273.702    3209.7279    2316.0989    -3108.892    76.373326 
   13100     1305.194   -161.35182    1.1809669   -160.17086   -25813.292    4.2547166    4.2547166    4.2547166   -25813.292   -17756.011   -23127.906   -36555.957     1464.408    5016.1041   -14837.016     77.02149 
   13200    1152.6621   -161.21272    1.0429529   -160.16977    3429.2459    4.2377263    4.2377263    4.2377263    3429.2459     8745.783   -10119.665    11661.619    9985.7788   -3635.2293   -12264.591    76.102463 
   13300    748.04197   -160.85387   0.67684409   -160.17702    16245.256    4.2457564    4.2457564    4.2457564    16245.256    -9004.653   -5145.2653    62885.687   -37.946374   -17560.475    -21133.39    76.535906 
   13400    882.01907   -160.97108   0.79806939   -160.17301   -17753.035    4.2722022    4.2722022    4.2722022   -17753.035   -28021.711   -38248.085    13010.691    1664.3337    795.05205    -25542.79       77.975 
   13500    810.38928   -160.89426   0.73325725     -160.161   -2325.9462    4.2570806    4.2570806    4.2570806   -2325.9462    6947.7995    10642.779   -24568.417   -879.41007     12209.75   -12324.163    77.149945 
   13600    659.08399   -160.75488   0.59635305   -160.15852    7792.1344    4.2372773    4.2372773    4.2372773    7792.1344    10412.663   -17494.077    30457.817   -18874.758   -5516.4867   -26728.215    76.078273 
   13700    691.11265   -160.80228   0.62533325   -160.17695   -6317.8993    4.2530405    4.2530405    4.2530405   -6317.8993   -20187.075   -38152.517    39385.894   -18586.574   -890.76711   -22432.984      76.9305 
   13800    723.63079   -160.83065   0.65475635   -160.17589    16234.867     4.260404     4.260404     4.260404    16234.867   -7052.2724     14400.02    41356.853   -17856.561    3486.9204   -17448.359    77.330773 
   13900    808.38559    -160.9026   0.73144427   -160.17116    32693.033    4.2490141    4.2490141    4.2490141    32693.033    23630.914    31548.731    42899.455   -9011.2422    1752.0045    -14147.64    76.712216 
   14000     773.5769   -160.87749   0.69994864   -160.17755     5941.042    4.2607482    4.2607482    4.2607482     5941.042    11929.982    14971.333   -9078.1895   -6741.1926    -6273.099   -8379.7241    77.349516 
   14100    762.50227   -160.86163   0.68992808    -160.1717   -4864.2633    4.2663463    4.2663463    4.2663463   -4864.2633   -21292.387    7743.4354   -1043.8379   -9883.0767   -2118.2801   -5880.1432    77.654799 
   14200     982.7202   -161.05639   0.88918589    -160.1672    13359.979    4.2430919    4.2430919    4.2430919    13359.979    7842.5367    -31280.25    63517.651   -17424.119    10112.485   -3255.0132    76.391902 
   14300    663.59565   -160.78001   0.60043529   -160.17957    5906.8613    4.2394613    4.2394613    4.2394613    5906.8613   -9666.6029   -36514.644    63901.831   -43511.164    9540.2131     6476.783    76.195973 
   14400    664.06471   -160.78079    0.6008597   -160.17993   -16112.245    4.2517719    4.2517719    4.2517719   -16112.245   -17448.538   -31480.906    592.71024   -25538.101   -1784.3532    8604.1345    76.861679 
   14500    769.70824   -160.87302    0.6964482   -160.17657    10434.513     4.257798     4.257798     4.257798    10434.513    58962.874   -26033.003   -1626.3321   -15110.653   -829.68711    1663.0383    77.188953 
   14600    787.31486   -160.89229   0.71237903   -160.17991    13871.377    4.2659698    4.2659698    4.2659698    13871.377    26922.734   -16891.309    31582.706   -12439.487   -8163.5677    10451.513    77.634242 
   14700    816.30207   -160.91201   0.73860726    -160.1734   -13783.405    4.2562965    4.2562965    4.2562965   -13783.405   -47415.412   -22849.079    28914.277    11543.817    -19476.79    8627.2757    77.107321 
   14800    605.01359   -160.71285   0.54742901   -160.16542    19492.742    4.2293014    4.2293014    4.2293014    19492.742    1139.8944    7828.8661    49509.466    2988.8499   -4310.1928    3918.1527    75.649473 
   14900    884.58674   -160.98102   0.80039267   -160.18063    1807.4247    4.2466122    4.2466122    4.2466122    1807.4247     20952.39   -38259.041    22728.925    2285.9079   -17614.398     12504.91    76.582194 
   15000     803.2945   -160.90809   0.72683775   -160.18125   -5697.4218    4.2704398    4.2704398    4.2704398   -5697.4218    16986.267   -49605.022    15526.489    37.292905   -7582.2215    10406.452    77.878544 
   15100    955.60126     -161.035    0.8646481   -160.17036    -4389.652    4.2553914    4.2553914    4.2553914    -4389.652     7442.172   -41616.582    21005.455   -2841.2911   -3103.9459   -4597.2829    77.058145 
   15200    1071.4731   -161.13367   0.96949136   -160.16418    7914.3065    4.2428995    4.2428995    4.2428995    7914.3065   -7539.8143   -6029.6441    37312.378    6914.3798    2156.1223     -6697.75     76.38151 
   15300    1313.6598   -161.35805     1.188627   -160.16942   -18923.143      4.25478      4.25478      4.25478   -18923.143   -29971.379   -14558.454   -12239.595    5122.6828    10369.937   -123.43693    77.024931 
   15400    1248.0612   -161.29831     1.129272   -160.16903    6549.5729    4.2490729    4.2490729    4.2490729    6549.5729    3072.4485     14210.79    2365.4802   -7941.8557    5293.7776    3139.7769    76.715398 
   15500    925.17083   -161.01202   0.83711401   -160.17491    26084.124    4.2481836    4.2481836    4.2481836    26084.124    60530.686    26129.566   -8407.8801   -1046.3567   -3021.9146   -4439.2476    76.667242 
   15600    1608.3734   -161.62859      1.45529    -160.1733   -45960.206    4.2681193    4.2681193    4.2681193   -45960.206   -42431.681   -51194.292   -44254.644    1091.6503    5699.1515    -107.1782    77.751655 
   15700    1444.3357   -161.46974    1.3068653   -160.16288   -26898.034    4.2576195    4.2576195    4.2576195   -26898.034    -46182.37   -11083.136   -23428.595    25473.947   -2957.7887    -16757.01    77.179245 
   15800    1485.6276   -161.49435    1.3442271   -160.15012    6890.4869    4.2303503    4.2303503    4.2303503    6890.4869    2947.5216    32045.306   -14321.367    8356.1747    3703.6209   -8884.0448    75.705771 
   15900    1275.1789    -161.3237    1.1538086    -160.1699    15958.085    4.2415955    4.2415955    4.2415955    15958.085    11853.987    34793.664     1226.605    13426.671     12460.36    5669.7597    76.311108 
   16000    1440.0635   -161.47558    1.3029997   -160.17258   -736.50472     4.258728     4.258728     4.258728   -736.50472   -23909.722     9368.654    12331.553    12620.889    8596.7028   -9154.3076    77.239545 
   16100    1315.3127   -161.35915    1.1901226   -160.16903   -3762.0899    4.2574629    4.2574629    4.2574629   -3762.0899    3062.7763    17850.692   -32199.738    10902.902     4387.851   -2346.7525    77.170732 
   16200    997.70725   -161.06884   0.90274649   -160.16609    7656.4256    4.2550053    4.2550053    4.2550053    7656.4256    31205.846    38200.766   -46437.336    966.63319    2208.4081   -380.43032    77.037167 
   16300    1367.5797   -161.40025    1.2374149   -160.16284   -13300.062    4.2517657    4.2517657    4.2517657   -13300.062    -14950.41    15600.268   -40550.043    7956.5036    634.29028    1723.7727    76.861345 
   16400     1359.559   -161.39672    1.2301575   -160.16657   -13643.728    4.2421926    4.2421926    4.2421926   -13643.728   -11820.052   -28024.303   -1086.8281    7140.4807   -25.326085    17193.342    76.343339 
   16500    836.89916   -160.92752   0.75724395   -160.17027    -192.3581    4.2392523    4.2392523    4.2392523    -192.3581    8704.1264   -33448.216    24167.015   -3097.0878    4451.2049    4887.9468    76.184705 
   16600    1179.2684   -161.24291    1.0670268   -160.17589   -1758.8018    4.2494328    4.2494328    4.2494328   -1758.8018    32608.592   -16206.763   -21678.234   -2697.2145    8484.3378    17755.875    76.734893 
   16700    1175.2785   -161.24158    1.0634167   -160.17816    2907.3171    4.2634392    4.2634392    4.2634392    2907.3171    46628.964    10069.512   -47976.525   -3199.8376    2964.9359    7368.7472    77.496169 
   16800    970.42742   -161.05181   0.87806313   -160.17374   -10601.488    4.2604882    4.2604882    4.2604882   -10601.488    26091.446     4306.145   -62202.055    2138.9264   -7539.0916    8646.8897     77.33536 
   16900     915.5723   -160.99652   0.82842906    -160.1681   -17912.073    4.2389486    4.2389486    4.2389486   -17912.073    11135.008   -11848.911   -53022.316   -5799.4429   -13436.522    14969.249    76.168334 
   17000    979.70034   -161.05499   0.88645346   -160.16853     21797.61    4.2262133    4.2262133    4.2262133     21797.61    35533.598     6424.771    23434.461   -1261.8602   -19046.279    6431.7573    75.483884 
   17100     1023.186   -161.11297   0.92580024   -160.18717     13642.52    4.2503197    4.2503197    4.2503197     13642.52    52306.884   -7502.7778   -3876.5468    2167.2776   -22521.137    7413.4199    76.782951 
   17200    578.33956   -160.69671   0.52329379   -160.17342   -4814.2778    4.2721195    4.2721195    4.2721195   -4814.2778    39331.622    -4043.294   -49731.162   -10641.724   -23715.357    10505.465    77.970474 
   17300    705.09904   -160.79909   0.63798843   -160.16111   -8753.5422     4.254914     4.254914     4.254914   -8753.5422   -12321.493    41799.832   -55738.966   -4855.4877   -34533.908   -710.17596    77.032208 
   17400    1114.9048   -161.16221    1.0087893   -160.15342   -2904.5387    4.2317416    4.2317416    4.2317416   -2904.5387   -22174.548    32552.641   -19091.709    2444.7426   -22495.317   -6400.1901    75.780491 
   17500    888.63445   -160.97157   0.80405513   -160.16751     -6964.02    4.2433625    4.2433625    4.2433625     -6964.02    8710.9725   -8282.7346   -21320.298    1083.5041   -11819.877    2719.7867    76.406515 
   17600    730.99171   -160.82733   0.66141666   -160.16592   -11784.302     4.260719     4.260719     4.260719   -11784.302    37001.128   -15411.397   -56942.637   -5829.4169   -14003.298   -5127.2104    77.347927 
   17700    1230.6473   -161.27536    1.1135156   -160.16184    1281.6499    4.2562509    4.2562509    4.2562509    1281.6499    17478.819    11528.983   -25162.853   -15379.679   -5438.4512    4412.9039    77.104843 
   17800    1008.3576   -161.07224   0.91238313   -160.15986    5148.2973     4.250857     4.250857     4.250857    5148.2973   -8684.1424    33328.759   -9199.7247     1443.609    8255.2736    6209.2779    76.812075 
   17900    1048.5028   -161.10557   0.94870734   -160.15687   -5230.1149    4.2410995    4.2410995    4.2410995   -5230.1149     1884.723      11516.7   -29091.767   -10252.862    13976.834   -8031.9623    76.284339 
   18000    1263.6437   -161.30256    1.1433714   -160.15919    14850.556    4.2343668    4.2343668    4.2343668    14850.556    60211.474    978.00607   -16637.812   -17167.791    28376.026   -5375.9194    75.921615 
   18100    1236.2502   -161.29522    1.1185852   -160.17664    3940.8788    4.2542535    4.2542535    4.2542535    3940.8788    23524.415    12551.641    -24253.42   -2569.2964    21675.169    1837.9706    76.996341 
   18200    1071.5177   -161.13839   0.96953176   -160.16886   -14432.471    4.2661357    4.2661357    4.2661357   -14432.471   -9934.2303   -9991.8258   -23371.355   -4993.2746    12251.529    8131.9008    77.643302 
   18300    1045.6458   -161.10167   0.94612231   -160.15555   -9196.0054    4.2527597    4.2527597    4.2527597   -9196.0054    4971.2399   -28470.544   -4088.7126    10934.018    9112.7141    7506.8885    76.915264 
   18400    1199.9826   -161.23932    1.0857694   -160.15355   -7848.4543      4.24353      4.24353      4.24353   -7848.4543    1235.1445   -41777.961    16997.453     18402.51   -8574.7775    13509.647    76.415568 
   18500    1279.6574   -161.31944    1.1578609   -160.16158    485.39664    4.2411989    4.2411989    4.2411989    485.39664    8658.2208   -15892.219    8690.1878    11149.874   -7247.7359   -6849.4369    76.289704 
   18600    911.00811    -160.9944   0.82429928    -160.1701    13175.289    4.2478355    4.2478355    4.2478355    13175.289    2243.8027    46554.967   -9272.9028    3950.3118    8065.5897    -13886.74    76.648395 
   18700    1349.5727    -161.3941    1.2211217   -160.17297   -15675.713    4.2647442    4.2647442    4.2647442   -15675.713   -11600.602   -12511.682   -22914.855    17453.251   -460.36015    -6190.306    77.567351 
   18800    1280.0791   -161.32575    1.1582425   -160.16751   -6072.3156    4.2622294    4.2622294    4.2622294   -6072.3156   -26645.769    -3368.142    11796.964    386.19384   -8048.1179    3274.3996    77.430212 
   18900    1124.9724   -161.17775    1.0178987   -160.15985     125.0997    4.2543712    4.2543712    4.2543712     125.0997   -14317.437    20259.624   -5566.8879    8530.8634    4048.9418    4038.3349    77.002735 
   19000    1243.1465   -161.28754     1.124825   -160.16271   -15579.438    4.2624089    4.2624089    4.2624089   -15579.438   -21590.609    22058.293   -47205.997    11860.236   -7918.3658    11373.485    77.439997 
   19100    1036.7972   -161.10392   0.93811587    -160.1658    13376.026    4.2596993    4.2596993    4.2596993    13376.026   -23905.977    71047.192   -7013.1378   -5976.3185   -15360.289    9599.2944    77.292405 
   19200    988.99629   -161.06319   0.89486463   -160.16832    29281.278    4.2506641    4.2506641    4.2506641    29281.278   -12266.441    72976.942    27133.334    8681.8956   -7171.2768    13406.372    76.801616 
   19300    502.86864   -160.63597   0.45500611   -160.18097     24791.33    4.2694852    4.2694852    4.2694852     24791.33   -6535.2142    49643.658    31265.546    1635.3568    6064.3982    7340.5849    77.826325 
   19400    1002.4702    -161.0792   0.90705609   -160.17214    1041.8216    4.2745571    4.2745571    4.2745571    1041.8216   -19867.736     53242.85   -30249.649      6804.94    10397.931    6510.8852    78.104017 
   19500    931.58505   -161.01454   0.84291773   -160.17162    30899.154    4.2536614    4.2536614    4.2536614    30899.154   -5310.6214    128384.49   -30376.405    4693.4166    4056.2498   -288.19003    76.964196 
   19600    805.35049   -160.91549   0.72869805   -160.18679    21176.492    4.2567422    4.2567422    4.2567422    21176.492   -20657.605    120762.53   -36575.453    5332.4715    10687.722    3036.5205    77.131548 
   19700    1090.1604    -161.1729   0.98640005    -160.1865    10595.237     4.263058     4.263058     4.263058    10595.237   -34623.477     90579.28   -24170.092    1251.9864   -439.62961   -7368.6195     77.47538 
   19800    1067.1728   -161.14894   0.96560041   -160.18334    14029.812    4.2654895    4.2654895    4.2654895    14029.812   -38914.421    90825.957   -9822.0984   -3135.2381   -9382.5739    1266.5625    77.608023 
   19900    1255.7925   -161.31354    1.1362675   -160.17727    -9544.536    4.2697064    4.2697064    4.2697064    -9544.536    -22458.83    32903.957   -39078.735    7645.9208   -5703.4395   -492.54191    77.838427 
   20000     1118.165   -161.18112    1.0117392   -160.16938    4274.1199    4.2618182    4.2618182    4.2618182    4274.1199   -28723.694     28740.28    12805.773   -2280.3272   -565.12043    5353.9724    77.407807 
   20100    1307.1656   -161.34863    1.1827509   -160.16588    2763.5477    4.2526528    4.2526528    4.2526528    2763.5477   -47149.201    43615.893    11823.951   -6634.7912   -10449.725    11099.658    76.909464 
   20200    1116.3844   -161.18742    1.0101281   -160.17729   -7261.5086    4.2601191    4.2601191    4.2601191   -7261.5086   -27274.951    41206.699   -35716.274   -7858.1095    7953.0872    7549.0224    77.315262 
   20300    1131.3672   -161.19402    1.0236848   -160.17033   -13542.285    4.2615852    4.2615852    4.2615852   -13542.285   -18035.686    8356.8922    -30948.06   -2768.9367    10916.426    12702.513     77.39511 
   20400    1176.1814   -161.22185    1.0642336   -160.15762    7076.2631    4.2480107    4.2480107    4.2480107    7076.2631   -7710.0674    26484.496    2454.3606    4278.0078   -9378.0161     9046.555    76.657878 
   20500    1155.7833   -161.20585     1.045777   -160.16007   -2083.9893     4.255039     4.255039     4.255039   -2083.9893   -13858.065    15512.081   -7905.9841   -857.76628   -8741.0421   -3653.0475    77.038997 
   20600    1085.4476   -161.13991   0.98213577   -160.15777   -4338.3938    4.2652692    4.2652692    4.2652692   -4338.3938   -31908.257    29132.594   -10239.518   -14902.464    2178.1991   -16897.894       77.596 
   20700    1357.4016   -161.38688    1.2282055   -160.15868    8604.9356    4.2449527    4.2449527    4.2449527    8604.9356   -37568.375     22830.19    40552.992   -16374.359     3331.371   -28168.265    76.492451 
   20800    1241.1769   -161.28595     1.123043   -160.16291    14838.459     4.237191     4.237191     4.237191    14838.459    -17220.51    32595.761    29140.127   -7364.4388   -2998.6245   -21816.108    76.073626 
   20900    1166.6712   -161.22761    1.0556286   -160.17198   -8073.8493    4.2660414    4.2660414    4.2660414   -8073.8493   -26527.244    -2160.232    4465.9282    2717.0585   -4112.3517   -18141.621    77.638155 
   21000    1163.9554   -161.20274    1.0531713   -160.14957   -16336.893    4.2771956    4.2771956    4.2771956   -16336.893   -53581.187   -1457.7156    6028.2243    4201.3057   -1205.7625    7026.9667    78.248738 
   21100    1177.6105   -161.20827    1.0655267   -160.14274     -1299.41    4.2562722    4.2562722    4.2562722     -1299.41   -39253.364    18169.325    17185.808    -3254.311   -9228.9882    7219.9822    77.106004 
   21200    909.62352   -160.97913   0.82304648   -160.15608    442.25879    4.2420447    4.2420447    4.2420447    442.25879   -13301.043    10458.833    4168.9865    5250.2063   -16441.462    600.26038    76.335353 
   21300    927.55256   -161.00752   0.83926905   -160.16825   -4286.0401    4.2413162    4.2413162    4.2413162   -4286.0401   -1620.3899   -12725.657    1487.9265    2166.3572   -13738.656   -6293.9184     76.29603 
   21400    949.72548   -161.04085   0.85933157   -160.18152    9541.6977    4.2539838    4.2539838    4.2539838    9541.6977   -1271.8241    7277.6778    22619.239   -1067.3582   -8791.1568   -2113.6887    76.981698 
   21500    794.91994   -160.89661   0.71926026   -160.17735     38.57132    4.2742002    4.2742002    4.2742002     38.57132   -18726.581    48887.755    -30045.46    9595.6036    1544.1642   -3085.2656    78.084456 
   21600    1121.0692   -161.17108     1.014367   -160.15671   -9193.0777    4.2646233    4.2646233    4.2646233   -9193.0777   -27793.061    25561.231   -25347.403   -9686.4748   -1866.3163     802.0157    77.560757 
   21700    1485.6368    -161.4856    1.3442354   -160.14136    23825.746    4.2315741    4.2315741    4.2315741    23825.746   -15382.553    41652.094    45207.696   -9669.8516   -6844.2652    14451.741    75.771492 
   21800      1465.39   -161.48149    1.3259157   -160.15557    8736.0952    4.2346263    4.2346263    4.2346263    8736.0952   -21979.458    31726.445    16461.299   -1097.4694   -11255.338    546.49651    75.935572 
   21900     1370.408   -161.40328     1.239974   -160.16331    -28124.55    4.2631029    4.2631029    4.2631029    -28124.55    -42423.17   -30482.145   -11468.334   -9574.8745   -8185.2265    2817.7866    77.477829 
   22000    1415.8211   -161.43255    1.2810647   -160.15148   -17278.661    4.2678687    4.2678687    4.2678687   -17278.661   -45479.834   -16233.466    9877.3152    1351.7605    4180.9678    4561.7704    77.737963 
   22100    1444.2008   -161.45062    1.3067433   -160.14387    6275.7996    4.2525311    4.2525311    4.2525311    6275.7996   -9573.0767   -22953.009    51353.484   -3616.3804    4203.4057   -14639.713     76.90286 
   22200    894.31535   -160.96101   0.80919532   -160.15181    16836.503    4.2450556    4.2450556    4.2450556    16836.503   -1096.5733   -15808.789    67414.871   -6218.9143    10941.945    2610.0114    76.498011 
   22300    809.21809   -160.89326   0.73219754   -160.16107    24476.245     4.246018     4.246018     4.246018    24476.245   -4754.1811   -3716.5294    81899.445   -10135.088    8373.9582    10195.139    76.550052 
   22400    1398.4473   -161.43465    1.2653445   -160.16931   -6840.7175    4.2625354    4.2625354    4.2625354   -6840.7175   -51349.978   -30216.894     61044.72    182.59355    440.06543    13913.235    77.446893 
   22500    1008.6995   -161.07526   0.91269252   -160.16257   -12001.702    4.2748615    4.2748615    4.2748615   -12001.702   -46937.575   -23228.192    34160.662    16205.343    -6486.208   -3235.6412    78.120703 
   22600    1160.9405   -161.19967    1.0504434   -160.14923   -10666.798    4.2595684    4.2595684    4.2595684   -10666.798   -29073.267   -10742.481    7815.3543   -8215.3958   -5734.2351    -11514.29     77.28528 
   22700    1347.6874   -161.36737    1.2194159   -160.14795    4995.1779    4.2480719    4.2480719    4.2480719    4995.1779   -39724.271   -13727.175     68436.98   -17433.744    7399.1474   -7433.8133    76.661192 
   22800    1239.3183   -161.28262    1.1213613   -160.16126   -17142.517     4.257957     4.257957     4.257957   -17142.517   -56507.494   -37904.965    42984.908   -7151.1505    -2027.444    6446.2312    77.197603 
   22900     751.8966    -160.8436   0.68033185   -160.16327    4865.1553    4.2569797    4.2569797    4.2569797    4865.1553     1265.844   -5575.6589    18905.281   -12748.269   -1148.5521    2896.6139    77.144459 
   23000    1060.3677   -161.12186   0.95944299   -160.16242    11719.871    4.2574508    4.2574508    4.2574508    11719.871    13889.793    9502.5764    11767.243   -12804.432   -1090.0086   -8953.2086    77.170075 
   23100    979.52302   -161.04684   0.88629302   -160.16055   -8818.2758    4.2673077    4.2673077    4.2673077   -8818.2758    10874.168   -41510.596    4181.6009   -7352.4638   -5984.9239    -14059.59     77.70731 
   23200    1013.3642   -161.06933   0.91691321   -160.15242   -12799.204      4.25476      4.25476      4.25476   -12799.204    23383.384   -35071.489   -26709.506   -7362.7111   -837.71397   -17137.167    77.023845 
   23300    1250.5572   -161.28507    1.1315304   -160.15354   -3478.1636     4.241934     4.241934     4.241934   -3478.1636   -9027.2739     6395.875   -7803.0919   -2411.3234   -12389.066   -20223.953    76.329379 
   23400    1203.4752   -161.25722    1.0889297   -160.16829    -10749.75    4.2571515    4.2571515    4.2571515    -10749.75   -15020.611    14343.214   -31571.853    5792.1075   -2191.4667   -8314.1021    77.153799 
   23500    1049.5329   -161.11082   0.94963938   -160.16118    -21759.13    4.2693832    4.2693832    4.2693832    -21759.13   -39237.858   -1759.1114   -24280.419    7619.4967   -10138.868   -13019.127    77.820751 
   23600    878.31181    -160.9472   0.79471499   -160.15249   -12667.425    4.2624812    4.2624812    4.2624812   -12667.425   -36581.218   -10683.322    9262.2655   -7896.5486   -467.51278    -3253.564     77.44394 
   23700    1116.2576   -161.16319    1.0100133   -160.15317   -1608.9312     4.245044     4.245044     4.245044   -1608.9312   -50204.352   -15563.105    60940.664   -18932.003   -1255.1917    14678.375    76.497383 
   23800    1029.4977    -161.0976   0.93151113   -160.16609    17329.228    4.2445643    4.2445643    4.2445643    17329.228   -8920.9345   -10903.478    71812.097   -9844.8688   -9407.3399    -3234.091    76.471455 
   23900    961.00783    -161.0421   0.86954008   -160.17256    7459.5051    4.2636805    4.2636805    4.2636805    7459.5051    23735.552   -9898.5162    8541.4799   -9942.8285   -3766.0862   -10899.517    77.509324 
   24000    1186.1368   -161.23824    1.0732415   -160.16499   -8278.2366    4.2701156    4.2701156    4.2701156   -8278.2366    15972.612   -7985.1095   -32822.212   -10436.401   -5100.9536   -15638.009    77.860804 
   24100    1185.9338   -161.23044    1.0730578   -160.15738    6094.6639    4.2606542    4.2606542    4.2606542    6094.6639   -5525.2204    30230.995   -6421.7823   -15256.998    5518.5444   -13138.354    77.344396 
   24200    1051.9702   -161.10691   0.95184476   -160.15506   -16320.574    4.2600009    4.2600009    4.2600009   -16320.574   -44057.717    26712.822   -31616.826   -14072.319   -854.15305    1241.5992    77.308827 
   24300    545.81492   -160.65674   0.49386481   -160.16288   -1074.9833    4.2542559    4.2542559    4.2542559   -1074.9833    -14885.32    21891.459   -10231.089   -25985.003   -20276.485    15516.158     76.99647 
   24400     983.2436   -161.05061   0.88965947   -160.16095    25186.501    4.2426313    4.2426313    4.2426313    25186.501    14687.767    46002.689    14869.048   -5697.8779   -10780.495    7080.2867    76.367027 
   24500    1055.6383   -161.12684   0.95516372   -160.17167    7570.1352    4.2564027    4.2564027    4.2564027    7570.1352   -5940.2657    29823.883   -1173.2117    1514.9713   -6155.0582    1948.7346    77.113094 
   24600    1088.8991   -161.14677   0.98525878   -160.16151   -36723.364    4.2703158    4.2703158    4.2703158   -36723.364   -50153.858   -12216.337   -47799.898   -16210.024    6101.8789   -10066.458    77.871757 
   24700     1335.383   -161.36077    1.2082826   -160.15249   -10755.547    4.2571612    4.2571612    4.2571612   -10755.547   -32833.478   -12903.013    13469.851   -5959.5137   -449.95416   -11032.981    77.154328 
   24800    959.99829   -161.02507   0.86862662   -160.15645    21379.632    4.2558218    4.2558218    4.2558218    21379.632   -1897.8079    1151.7869    64884.917    16358.044   -5830.0341    9125.1857    77.081528 
   24900    1066.8541    -161.1251   0.96531197   -160.15979    6561.4243    4.2609532    4.2609532    4.2609532    6561.4243   -17664.255    10416.891    26931.637    8727.9216   -9984.4021    13363.848    77.360682 
   25000    1092.0411   -161.15093   0.98810178   -160.16283    12361.314    4.2561505    4.2561505    4.2561505    12361.314   -35664.939    25224.326    47524.554     2944.441    1173.6561    17154.467    77.099389 
   25100    1492.9277    -161.5155    1.3508323   -160.16467    10837.262    4.2500322    4.2500322    4.2500322    10837.262    -9338.198     602.0294    41247.953   -1409.1515    10261.395    8957.8991    76.767369 
   25200    1226.3386   -161.28138    1.1096169   -160.17177   -8290.7328    4.2635167    4.2635167    4.2635167   -8290.7328   -16469.421   -14506.344    6103.5665   -7703.5689     15441.16   -1626.2187    77.500396 
   25300    1431.7706    -161.4619    1.2954961    -160.1664   -29948.879    4.2687987    4.2687987    4.2687987   -29948.879   -32537.487   -30266.013   -27043.136   -834.61111    8261.7341   -1693.3724    77.788794 
   25400    1647.7097   -161.64711    1.4908823   -160.15623   -14382.031    4.2510992    4.2510992    4.2510992   -14382.031   -8672.8156   -8456.3853   -26016.893    9396.3354   -1333.9788   -7315.1946    76.825205 
   25500    1115.3673   -161.16641    1.0092078    -160.1572    21988.658    4.2426435    4.2426435    4.2426435    21988.658     16261.69     49190.98    513.30347    6619.1577   -21367.831    5977.3266    76.367683 
   25600    1259.5938   -161.30168    1.1397069   -160.16198   -2884.6059    4.2592275    4.2592275    4.2592275   -2884.6059    12037.839   -3169.1851   -17522.472   -3545.1734   -15351.974    9051.9072    77.266726 
   25700    1660.6584   -161.65602    1.5025986   -160.15342   -14149.968    4.2637217    4.2637217    4.2637217   -14149.968   -32717.474    -31661.08    21928.649    -7237.054   -2056.1512   -1149.8714    77.511573 
   25800    1477.6915   -161.49098    1.3370463   -160.15393   -1934.2134    4.2519878    4.2519878    4.2519878   -1934.2134   -8838.9606   -13613.345    16649.666   -6479.4761    -2640.847   -5853.5885    76.873388 
   25900    1374.1573   -161.40823    1.2433664   -160.16487   -14519.777    4.2542574    4.2542574    4.2542574   -14519.777    8172.3252    1498.9643   -53230.622   -4263.4157    3333.2129   -4540.8253    76.996554 
   26000    1395.8605   -161.43082    1.2630039   -160.16782    3192.3163    4.2551021    4.2551021    4.2551021    3192.3163    12460.816    16087.863    -18971.73     11503.52    -4503.218   -1268.6555    77.042426 
   26100    1357.2793   -161.39181    1.2280949   -160.16372    19335.277    4.2440581    4.2440581    4.2440581    19335.277    27303.474    19176.835    11525.522    7242.1112   -10627.026    11284.359    76.444098 
   26200    1350.7126   -161.38853    1.2221531   -160.16638   -12224.665    4.2533335    4.2533335    4.2533335   -12224.665    9613.5464   -3775.7825   -42511.759   -9041.2243   -1943.5228   -195.55159    76.946399 
   26300    1663.9697   -161.66383    1.5055947   -160.15824   -38137.938    4.2601202    4.2601202    4.2601202   -38137.938   -18674.303   -35602.562    -60136.95   -4410.8845    674.41772   -11027.957    77.315322 
   26400    1691.3629   -161.68471    1.5303807   -160.15433   -2500.3228    4.2452838    4.2452838    4.2452838   -2500.3228   -19437.313    5653.3663    6282.9783    1231.1935   -9639.9508   -4460.4831    76.510347 
   26500     1334.538   -161.37392    1.2075181   -160.16641   -7753.0567    4.2531043    4.2531043    4.2531043   -7753.0567   -16704.117    13969.091   -20524.145   -6327.3422   -1912.2385   -10458.242    76.933963 
   26600    1341.0018   -161.38155    1.2133666   -160.16819    -8656.828    4.2539903    4.2539903    4.2539903    -8656.828    -6458.045    10751.412   -30263.851    1220.8535   -13464.131   -9318.2128    76.982052 
   26700    1407.3674   -161.44074    1.2734156   -160.16732    22180.257    4.2380288    4.2380288    4.2380288    22180.257    47137.297    13929.695    5473.7795    8750.9687    -5215.463    -9318.823    76.118759 
   26800     1242.083    -161.3021    1.1238628   -160.17823    2167.4062    4.2499502    4.2499502    4.2499502    2167.4062    25291.807   -2084.3544   -16705.234    6839.4001    2085.6153    -10902.96    76.762925 
   26900    940.11289   -161.02158    0.8506339   -160.17095   -16149.527    4.2610955    4.2610955    4.2610955   -16149.527   -13468.015    16124.104    -51104.67     3829.946   -2498.2039   -3412.1972    77.368436 
   27000    1256.7307   -161.30268    1.1371163   -160.16557   -1171.2528    4.2498806    4.2498806    4.2498806   -1171.2528   -19038.115    53539.935   -38015.579    142.12268   -3990.3976    2954.7006    76.759155 
   27100    1310.9985   -161.35506     1.186219   -160.16884    7929.6205    4.2487552    4.2487552    4.2487552    7929.6205    12800.492    43522.905   -32534.535    2100.5814   -13585.346     1828.581    76.698191 
   27200    1223.0505   -161.27337    1.1066418   -160.16672   -14127.774    4.2531119    4.2531119    4.2531119   -14127.774    17282.043   -2526.2815   -57139.084    -11190.52   -12197.385    8915.5738    76.934375 
   27300    1526.5164   -161.54478    1.3812242   -160.16356   -22849.703      4.24896      4.24896      4.24896   -22849.703   -9800.0993   -8650.7501   -50098.259   -14238.883    8782.9741    4468.8874    76.709283 
   27400    1379.8231   -161.42111    1.2484929   -160.17261   -10982.761    4.2496895    4.2496895    4.2496895   -10982.761    697.27561   -2293.5645   -31351.995    -22862.71    10963.593   -3145.0212      76.7488 
   27500    1055.9686   -161.13438   0.95546257   -160.17892    -11864.95    4.2545667    4.2545667    4.2545667    -11864.95    15095.476   -200.23717    -50490.09    -5214.603    13879.997   -2873.3324     77.01335 
   27600    985.23639   -161.06926   0.89146259   -160.17779   -1026.2714    4.2474769    4.2474769    4.2474769   -1026.2714    20384.473    18794.693    -42257.98   -3219.2696    19301.144    2577.5746    76.628985 
   27700    1064.0842   -161.14041   0.96280572    -160.1776    18490.116    4.2366607    4.2366607    4.2366607    18490.116    9613.1529    48262.384   -2405.1893     6500.729    16468.693    7876.2354    76.045066 
   27800     886.9292   -160.98514   0.80251218   -160.18263    7615.2628    4.2474645    4.2474645    4.2474645    7615.2628    2177.4992    30163.995   -9495.7059    10994.444    19239.424    5975.4218    76.628316 
   27900      708.437   -160.81814   0.64100868   -160.17713   -4499.2507    4.2654172    4.2654172    4.2654172   -4499.2507     22356.92    32953.495   -68808.168    9907.7107     6353.597    4426.1026    77.604079 
   28000    1226.0879    -161.2789    1.1093901   -160.16951    2387.6948    4.2548894    4.2548894    4.2548894    2387.6948    1849.0207    49115.614    -43801.55    5853.1721    -3695.325    199.05204    77.030873 
   28100    1205.0938   -161.25159    1.0903942   -160.16119    14559.944    4.2384988    4.2384988    4.2384988    14559.944    2398.6678    63486.628   -22205.464   -704.86913   -3667.9691   -6499.7332    76.144089 
   28200     979.0779   -161.05738   0.88589026   -160.17149   -19231.948    4.2551868    4.2551868    4.2551868   -19231.948   -18183.681    32882.887   -72395.051   -2141.2753   -11196.487   -2736.9429    77.047026 
   28300      1043.19   -161.11482   0.94390027   -160.17092   -22408.948    4.2642232    4.2642232    4.2642232   -22408.948    2577.3738   -7107.1807   -62697.039   -12639.526   -19139.707   -1579.4028    77.538928 
   28400    1159.8801   -161.21779    1.0494839   -160.16831    16927.143    4.2471225    4.2471225    4.2471225    16927.143    40724.715    18171.268   -8114.5544   -6747.6116   -23521.883    3609.3209    76.609808 
   28500    854.76126   -160.94685   0.77340595   -160.17345    3094.5528     4.246232     4.246232     4.246232    3094.5528    27043.617    22358.308   -40118.267   -4035.7971   -25400.038    9788.0923    76.561628 
   28600    801.63313   -160.90001   0.72533451   -160.17467    -20136.35    4.2508494    4.2508494    4.2508494    -20136.35    20933.809   -9645.8649   -71696.995   -1193.4257   -12640.623    9280.1011    76.811662 
   28700    1259.3922   -161.30946    1.1395245   -160.16993    1905.2526    4.2449747    4.2449747    4.2449747    1905.2526    34986.903    10075.061   -39346.207    4699.4814    1467.2893   -2292.8727    76.493636 
   28800    826.42204   -160.92639   0.74776403   -160.17863    20504.926     4.256546     4.256546     4.256546    20504.926    69393.555    39081.464   -46960.242     5892.545    10989.225   -6831.9061    77.120886 
   28900    651.98523   -160.76688   0.58992994   -160.17695    9712.4058    4.2646399    4.2646399    4.2646399    9712.4058    66234.258    37617.916   -74714.957    13470.864    10308.455   -6579.1337     77.56166 
   29000    797.04657   -160.89233   0.72118449   -160.17114    21464.103    4.2484708    4.2484708    4.2484708    21464.103    73612.373    22294.837   -31514.902    5957.2131    723.07249   -1267.9496     76.68279 
   29100    827.87574   -160.92216   0.74907937   -160.17308    17232.734    4.2502856    4.2502856    4.2502856    17232.734    111499.36    -18321.38   -41479.779   -2921.6202    4364.7061    4405.7525      76.7811 
   29200    607.50737   -160.73252   0.54968544   -160.18284   -8928.4685    4.2738229    4.2738229    4.2738229   -8928.4685    100444.71   -35402.739   -91827.371   -3987.5045    7874.1212    1167.0566    78.063778 
   29300    968.52998    -161.0541   0.87634628   -160.17775   -5718.3021    4.2663645    4.2663645    4.2663645   -5718.3021    32221.482     5802.831   -55179.219   -7778.5491    15568.159   -4596.2145    77.655793 
   29400    1065.7531   -161.12708   0.96431581   -160.16276    6915.1205    4.2407989    4.2407989    4.2407989    6915.1205    2216.3434    37842.503   -19313.485   -9724.4714    3637.6221    5522.5956    76.268119 
   29500    835.03666   -160.92416   0.75555872    -160.1686    4262.3624    4.2406011    4.2406011    4.2406011    4262.3624    30090.585     36744.03   -54047.528   -11048.392   -6860.4719   -722.82051    76.257449 
   29600    971.14175   -161.05059   0.87870946   -160.17188   -11430.718    4.2599128    4.2599128    4.2599128   -11430.718    25586.196    1805.6575   -61684.006   -5241.2975   -14761.493   -13121.152    77.304028 
   29700    1138.3542   -161.19496    1.0300068   -160.16496   -3110.9862    4.2599456    4.2599456    4.2599456   -3110.9862    -19790.73    32970.321   -22512.549    17645.849   -6935.7686   -4683.8743    77.305812 
   29800    831.29351   -160.91558   0.75217184    -160.1634    10932.168    4.2476587    4.2476587    4.2476587    10932.168    9290.9206    61116.878   -37611.294    24269.484    2902.1789   -16060.861    76.638825 
   29900    872.54319   -160.95654   0.78949541   -160.16705    2819.8422    4.2531364    4.2531364    4.2531364    2819.8422    45113.963    6770.4228   -43424.859    18980.937   -13157.498   -710.08284    76.935706 
   30000     1159.227   -161.20928    1.0488929   -160.16039   -820.66032    4.2657885    4.2657885    4.2657885   -820.66032    45626.692   -19063.767   -29024.906    18834.231   -11645.996    9638.3368    77.624345 
   30100    987.34846   -161.05159   0.89337363   -160.15821    2696.6949    4.2627753    4.2627753    4.2627753    2696.6949    46726.169    19685.846    -58321.93    906.84154   -12778.153   -4597.5908    77.459968 
   30200    1153.8433   -161.20139    1.0440217   -160.15737   -9233.7212    4.2495958    4.2495958    4.2495958   -9233.7212    30768.656    1255.8612   -59725.681   -13694.275    -5186.823   -11736.062    76.743725 
   30300    1497.9389   -161.51329    1.3553666   -160.15792    -12899.39    4.2398082    4.2398082    4.2398082    -12899.39    243.52263   -3467.7866   -35473.905   -4861.0458    2934.6842   -16086.977    76.214681 
   30400     1454.034   -161.48265    1.3156405   -160.16701     -12572.4    4.2521138    4.2521138    4.2521138     -12572.4   -17973.464     12231.31   -31975.047   -11921.245    95.829501   -2911.9317    76.880221 
   30500    1228.7072    -161.2735    1.1117601   -160.16174   -26915.409    4.2683014    4.2683014    4.2683014   -26915.409   -12637.036    17567.517    -85676.71    3040.5297    3023.5422    9085.3055     77.76161 
   30600    1388.0346   -161.41206    1.2559228   -160.15614    9625.6739    4.2549375    4.2549375    4.2549375    9625.6739    17408.547    55025.327   -43556.852    14449.263    8703.9773    5213.9964    77.033488 
   30700    1272.5668   -161.31515    1.1514452    -160.1637     22857.03    4.2532002    4.2532002    4.2532002     22857.03    4468.5954    90217.297   -26114.802    7971.1341    1496.3564   -4678.8691    76.939168 
   30800    936.64062   -161.01415   0.84749211   -160.16665    -1268.599     4.266513     4.266513     4.266513    -1268.599   -16377.332    87031.833   -74460.298    16155.826    3132.7244   -3269.7415    77.663904 
   30900    1198.7352   -161.24587    1.0846408   -160.16123    24818.547    4.2527902    4.2527902    4.2527902    24818.547    11977.296    87735.156   -25256.812    12166.168    1199.0517    1043.1385    76.916918 
   31000    1512.2296   -161.53313    1.3682971   -160.16483    9369.3809    4.2541499    4.2541499    4.2541499    9369.3809    -1393.473    57137.378   -27635.763   -1003.0913   -3361.7121   -1167.5598    76.990717 
   31100    1188.3715   -161.23902    1.0752635   -160.16376   -20591.043    4.2645136    4.2645136    4.2645136   -20591.043   -18853.145    17457.274   -60377.258    7113.1039     4383.492   -5808.8091    77.554772 
   31200    1389.2028   -161.41256    1.2569799   -160.15558   -5940.6251    4.2511741    4.2511741    4.2511741   -5940.6251    -793.4881    2684.0873   -19712.475   -1959.3284    -5183.034   -3464.6331    76.829265 
   31300    1532.2631   -161.55144    1.3864238   -160.16501   -14783.948    4.2594085    4.2594085    4.2594085   -14783.948    4043.1597   -30710.089   -17684.916   -3696.5538    2354.7555    4880.0833    77.276578 
   31400    1234.0524   -161.27775    1.1165966   -160.16115   -23791.283    4.2639984    4.2639984    4.2639984   -23791.283    -19471.07    1900.6266   -53803.405    2088.6021   -885.16927     9204.174    77.526665 
   31500    913.48097   -160.98098   0.82653678   -160.15444    21618.087     4.244295     4.244295     4.244295    21618.087    33072.167    69435.314   -37653.221    11622.141   -139.96469    10556.849      76.4569 
   31600     1096.681   -161.15976   0.99229999   -160.16746    24961.026    4.2517703    4.2517703    4.2517703    24961.026    45753.503    57425.162   -28295.587    26031.675   -2214.4327    8939.5006    76.861592 
   31700    894.69177   -160.97602   0.80953592   -160.16648    13580.719    4.2639586    4.2639586    4.2639586    13580.719    32513.753    50371.935   -42143.532    29035.306    3602.0201    15017.704    77.524493 
   31800    907.47501   -160.98098   0.82110246   -160.15988    337.16358     4.262476     4.262476     4.262476    337.16358    1076.9396     51648.52   -51713.968    14231.531   -8311.3366    14103.184    77.443653 
   31900    1199.5891   -161.24406    1.0854135   -160.15865   -3938.6433    4.2602804    4.2602804    4.2602804   -3938.6433   -25092.253    51972.758   -38696.435      9260.19    1767.5326   -4345.7538    77.324042 
   32000    1153.9403   -161.20186    1.0441095   -160.15775     9564.765    4.2453127    4.2453127    4.2453127     9564.765    3599.3284    61660.852   -36565.886    8001.5778    6701.3259   -18066.058     76.51191 
   32100    741.82001   -160.84085   0.67121433   -160.16963   -1186.7839    4.2458067    4.2458067    4.2458067   -1186.7839    38032.903      11521.9   -53115.155    -5034.105   -8568.3766   -27674.784    76.538623 
   32200    955.03539   -161.03411   0.86413609   -160.16997   -21523.348    4.2554141    4.2554141    4.2554141   -21523.348    15164.628   -37180.743    -42553.93    712.06846    8091.9678    -33748.63    77.059377 
   32300    1052.5808   -161.11651   0.95239721   -160.16411    20944.502    4.2432139    4.2432139    4.2432139    20944.502    59703.197    10736.943   -7606.6338    -7484.226   -1266.1447   -22229.788    76.398492 
   32400    666.51225   -160.77154   0.60307429   -160.16846    29929.576    4.2534337    4.2534337    4.2534337    29929.576    64255.993    54690.505   -29157.769   -6189.8642    11781.758   -22178.404    76.951839 
   32500     937.5933    -161.0084   0.84835412   -160.16005   -7201.2057    4.2672241    4.2672241    4.2672241   -7201.2057    25627.424    1416.3195   -48647.361     7746.074    7123.0828   -4025.2215    77.702742 
   32600    1407.7544   -161.42347    1.2737658    -160.1497    9611.1911    4.2456847    4.2456847    4.2456847    9611.1911    34837.257   -9012.8209    3009.1373   -1598.3141   -5204.9417    8627.7794    76.532029 
   32700    1561.1247    -161.5653    1.4125385   -160.15276   -10036.848    4.2435043    4.2435043    4.2435043   -10036.848   -11447.156   -17996.924   -666.46454    11000.959    2677.2106    8662.2671    76.414178 
   32800    1419.1649   -161.43849    1.2840903    -160.1544   -48490.597    4.2633649    4.2633649    4.2633649   -48490.597   -46499.727   -47885.318   -51086.745   -15392.518   -6035.1119    7681.0047    77.492114 
   32900    1268.3834    -161.2953      1.14766   -160.14764    500.12945     4.254003     4.254003     4.254003    500.12945    22350.676   -25164.917    4314.6295   -1663.9732    135.04367   -1579.8529    76.982742 
   33000    1126.6533    -161.1711    1.0194196   -160.15168    20268.496    4.2481715    4.2481715    4.2481715    20268.496    80507.052   -19096.332   -605.23168   -2775.7916    11043.273    -11868.75    76.666584 
   33100    708.09172   -160.80367   0.64069627   -160.16297    1653.5405    4.2596542    4.2596542    4.2596542    1653.5405    69360.439   -21987.194   -42412.624   -11101.366    2456.4082   -19107.694    77.289949 
   33200    710.83252   -160.80385    0.6431762   -160.16068    8794.1707    4.2583095    4.2583095    4.2583095    8794.1707    61168.285     -11016.1   -23769.674    -3380.002    8799.6765   -23375.445    77.216774 
   33300    860.84264   -160.93943   0.77890851   -160.16052    28437.223    4.2505182    4.2505182    4.2505182    28437.223    109508.92   -13349.069    -10848.18   -19421.467    5693.9186   -24183.641    76.793707 
   33400    808.35969   -160.90095   0.73142084   -160.16953    4012.8547    4.2584149    4.2584149    4.2584149    4012.8547    67396.521   -19796.556   -35561.401   -11054.809    1767.6363   -14506.614    77.222511 
   33500    1023.3115   -161.09366   0.92591372   -160.16774    -15996.65    4.2587494    4.2587494    4.2587494    -15996.65    6081.3065    -32158.28   -21912.977   -16029.066   -7684.2667   -8579.7891     77.24071 
   33600     1508.228   -161.52323    1.3646764   -160.15855   -6257.1268    4.2461116    4.2461116    4.2461116   -6257.1268   -10593.227   -23243.848    15065.694   -4821.0205   -3735.2413    4941.2907    76.555117 
   33700    1400.0506   -161.42545    1.2667952   -160.15865   -16116.108    4.2557111    4.2557111    4.2557111   -16116.108   -3896.2398   -5309.2073   -39142.877    8228.2864    7601.4547    9725.9891     77.07551 
[...]
   91300    1246.5617    -161.2668    1.1279152   -160.13888    11988.048    4.2636158    4.2636158    4.2636158    11988.048    2671.1901    31956.907    1336.0468   -1687.7196    6974.9423    14921.995    77.505797 
   91400    1234.9962   -161.24465    1.1174505    -160.1272   -15391.081    4.2514696    4.2514696    4.2514696   -15391.081    -19134.58   -24383.257   -2655.4053    13660.391   -13852.801   -9380.1208    76.845284 
   91500    1548.3899   -161.53984    1.4010157   -160.13882   -28253.216    4.2617519    4.2617519    4.2617519   -28253.216   -23663.335   -35428.393    -25667.92    9661.1173   -7710.8107   -1101.0519    77.404193 
   91600    1177.8549   -161.21039    1.0657479   -160.14464    24812.122    4.2617028    4.2617028    4.2617028    24812.122    2861.6592    55661.163    15913.543   -19551.359    5451.6166     16414.26    77.401516 
   91700     649.3655   -160.72824   0.58755955   -160.14069    16052.882    4.2583401    4.2583401    4.2583401    16052.882    14606.877    25248.639    8303.1304   -8089.4095    6147.6675   -2342.9254    77.218444 
   91800    1210.3397   -161.23232    1.0951408   -160.13718   -42202.188    4.2690068    4.2690068    4.2690068   -42202.188   -54448.418   -22551.962   -49606.183    4725.9026     1378.991   -6607.3285     77.80017 
   91900    1392.6168   -161.40015     1.260069   -160.14008   -7176.4589    4.2574717    4.2574717    4.2574717   -7176.4589   -28508.032    24175.915   -17197.259    11334.184    7087.9226   -11150.925     77.17121 
   92000    626.05259   -160.71546   0.56646554     -160.149    27353.175        4.247        4.247        4.247    27353.175    26237.635   -18899.188    74721.078   -288.01952    28067.627    2862.5277    76.603175 
   92100    433.72728   -160.55268   0.39244556   -160.16023    14090.989    4.2557234    4.2557234    4.2557234    14090.989    49007.772   -52490.228    45755.423   -11719.379    29164.213    13310.303    77.076182 
   92200    1104.2842   -161.16253   0.99917955   -160.16335    9078.2578    4.2551062    4.2551062    4.2551062    9078.2578    52798.647   -21467.209   -4096.6646   -3052.9199    19156.787     416.4244    77.042648 
   92300    1246.6898   -161.28244    1.1280311   -160.15441   -11043.368    4.2503352    4.2503352    4.2503352   -11043.368   -19103.678   -11890.149   -2136.2769    12902.978    7701.6068   -10911.532    76.783792 
   92400    821.28764   -160.89808   0.74311832   -160.15497    -29446.48    4.2599823    4.2599823    4.2599823    -29446.48   -55697.511   -10772.046   -21869.884    3901.8306    9591.7399    1693.7777     77.30781 
   92500    1040.8849   -161.09648   0.94181452   -160.15466    4928.7231     4.261706     4.261706     4.261706    4928.7231   -30705.507    46306.292   -814.61484    4115.0689    12942.994    16614.907     77.40169 
   92600    1294.1237   -161.31666    1.1709503   -160.14571    10993.949    4.2558755    4.2558755    4.2558755    10993.949   -16076.119    26839.683    22218.282   -13145.617    4418.8301    18721.348    77.084442 
   92700    1109.9517   -161.14409    1.0043076   -160.13979   -8568.6124     4.250143     4.250143     4.250143   -8568.6124   -18811.497   -32725.644    25831.303    4847.4364     1476.677   -238.28898    76.773373 
   92800    1382.1619    -161.3925    1.2506091   -160.14189   -18368.029    4.2534647    4.2534647    4.2534647   -18368.029   -15813.729   -32546.918   -6743.4413    13643.513    -5029.173   -14023.923    76.953521 
   92900    1560.0678   -161.56101    1.4115821   -160.14943    699.26553    4.2565455    4.2565455    4.2565455    699.26553    39757.032    878.12395   -38537.359   -6320.0983   -3499.6144   -13976.151    77.120854 
   93000    796.00267   -160.87506   0.72023995   -160.15482    16172.321    4.2534493    4.2534493    4.2534493    16172.321     46634.16    8827.9507   -6945.1466   -4979.3803    7201.7159   -557.95514    76.952684 
   93100    667.43742   -160.75564    0.6039114   -160.15173    1083.0384    4.2485467    4.2485467    4.2485467    1083.0384    28739.792   -22596.657     -2894.02   -10366.914     2840.995   -1076.0389      76.6869 
   93200    1515.6352   -161.51945    1.3713786   -160.14807   -7505.1433      4.24591      4.24591      4.24591   -7505.1433    9208.1507   -16018.197   -15705.383   -3759.3425    21.621421   -4463.7516    76.544209 
   93300    1350.0125   -161.37448    1.2215196   -160.15296   -7564.7106    4.2566265    4.2566265    4.2566265   -7564.7106   -7063.4072   -15733.318    102.59328    11058.017    393.53345   -6146.8966    77.125258 
   93400    666.40022   -160.75847   0.60297292   -160.15549   -2059.7008    4.2620852    4.2620852    4.2620852   -2059.7008   -12982.439   -673.74007    7477.0761   -9058.5776    5126.1547    5501.5913    77.422355 
   93500    669.94149   -160.76488   0.60617714   -160.15871    24130.459    4.2545615    4.2545615    4.2545615    24130.459     9452.428    42772.423    20166.526   -11067.489    61.815098    2144.6307    77.013068 
   93600    1367.1998   -161.39163    1.2370711   -160.15456    14106.332    4.2512014    4.2512014    4.2512014    14106.332    3273.1079    43974.384   -4928.4965   -9632.0033   -4458.7591   -868.80077    76.830744 
   93700    1211.6105   -161.24697    1.0962906   -160.15068   -12502.177    4.2572724    4.2572724    4.2572724   -12502.177    2496.2465   -27366.487   -12636.291   -5469.4299   -5655.2264   -14960.212    77.160371 
   93800    1068.1818    -161.1159    0.9665133   -160.14939   -31021.682    4.2639045    4.2639045    4.2639045   -31021.682   -18091.155   -68127.208   -6846.6825    4211.8251   -4120.3537   -10850.908    77.521545 
   93900    1319.9091   -161.34766    1.1942815   -160.15338    12243.105    4.2542743    4.2542743    4.2542743    12243.105    15885.022    6209.8257    14634.466   -7534.1492    93.324211   -433.42065    76.997473 
   94000     1225.821   -161.26203    1.1091486   -160.15288    15021.551      4.24869      4.24869      4.24869    15021.551   -3374.4371    26153.064    22286.027   -9593.0973   -3944.1595    2962.6982     76.69466 
   94100    755.73286   -160.83595   0.68380298   -160.15214   -3195.9475    4.2518793    4.2518793    4.2518793   -3195.9475    -30264.16    1760.4482     18915.87    1288.2609   -14749.803    8721.2873    76.867503 
   94200    1314.0926   -161.34254    1.1890186   -160.15352   -9288.7509    4.2546465    4.2546465    4.2546465   -9288.7509   -35498.296    10259.098   -2627.0547    2977.2544   -19902.707   -1873.2987    77.017684 
   94300    1453.6405   -161.46603    1.3152845   -160.15074   -15921.743    4.2575104    4.2575104    4.2575104   -15921.743   -20218.805   -9280.5799   -18265.844    4527.0536   -10232.404   -16353.314    77.173312 
   94400     736.4961    -160.8137   0.66639715    -160.1473   -2604.5962     4.247763     4.247763     4.247763   -2604.5962    34677.594   -32422.564   -10068.819   -5407.0294    1349.3362   -4046.6434    76.644469 
   94500    623.34226   -160.71835   0.56401318   -160.15433    10079.533    4.2463489    4.2463489    4.2463489    10079.533    36211.806   -10304.895    4331.6867   -12020.276     14634.23    2517.0928    76.567949 
   94600     1268.813   -161.30562    1.1480487   -160.15758    3901.2873    4.2589892    4.2589892    4.2589892    3901.2873   -3158.8145    10310.352    4552.3247    2590.8679    13271.196    15191.773     77.25376 
   94700    1161.3263   -161.20166    1.0507924   -160.15087   -18749.428    4.2645389    4.2645389    4.2645389   -18749.428   -35602.121   -44741.265    24095.102     7905.633    10467.889    583.05663     77.55615 
   94800    1064.1044   -161.11111     0.962824   -160.14828   -24962.822    4.2616774    4.2616774    4.2616774   -24962.822   -24537.986   -50335.579   -14.900816    9304.3686    3125.5553   -10520.951    77.400135 
   94900    1638.5512    -161.6365    1.4825955    -160.1539   -17106.946    4.2526675    4.2526675    4.2526675   -17106.946    -18704.39    11412.496   -44028.945    9892.2019   -2391.7427    3031.3055    76.910261 
   95000    1493.4228   -161.51154    1.3512803   -160.16026   -11141.697    4.2468292    4.2468292    4.2468292   -11141.697   -3326.1538   -8621.5944   -21477.343   -3935.8979   -4988.5836    7692.3121    76.593934 
   95100    1058.5802   -161.12339   0.95782563   -160.16556   -19968.411    4.2549514    4.2549514    4.2549514   -19968.411   -17924.363   -49371.292    7390.4217   -4781.0019   -2276.0121     12101.32     77.03424 
   95200     1295.146   -161.33581    1.1718753   -160.16394   -23735.075    4.2651081    4.2651081    4.2651081   -23735.075   -19202.211   -18691.557   -33311.456   -5036.6453    10169.386    7860.4279    77.587211 
   95300    1198.3373   -161.24137    1.0842807   -160.15709    1722.6492    4.2605818    4.2605818    4.2605818    1722.6492    16467.367    21505.267   -32804.686    1452.4537    5428.5952    2688.9842    77.340456 
   95400    564.37801    -160.6648   0.51066109   -160.15414    9013.8587    4.2463018    4.2463018    4.2463018    9013.8587     55993.81   -11377.582   -17574.652    16881.286    8.6665331    15288.121    76.565404 
   95500    619.05822   -160.71665   0.56013689   -160.15652    19625.615     4.236268     4.236268     4.236268    19625.615    65938.655     17645.32    -24707.13    16968.715    2037.9939    11354.581    76.023924 
   95600    1074.8134   -161.13716   0.97251378   -160.16465    15535.749    4.2462201    4.2462201    4.2462201    15535.749    59988.724    39862.789   -53244.267    9287.3528    1758.7706    10885.233    76.560986 
   95700    952.62429   -161.02578   0.86195448   -160.16382   -10571.871    4.2643301    4.2643301    4.2643301   -10571.871     34466.77   -18629.002    -47553.38    5922.9212    5961.2197   -4327.5867    77.544758 
   95800    1038.1982   -161.09072   0.93938351   -160.15134   -39291.543    4.2630086    4.2630086    4.2630086   -39291.543   -18066.772     -58212.4   -41595.457   -6022.5329   -2803.2603   -10536.342    77.472691 
   95900    1379.8834   -161.39474    1.2485475   -160.14619    -17368.92    4.2447809    4.2447809    4.2447809    -17368.92   -3079.5943   -1531.1022   -47496.063   -7166.1929   -1196.2646   -2590.5211    76.483164 
   96000     1213.173   -161.25176    1.0977044   -160.15405    3536.6083    4.2425327    4.2425327    4.2425327    3536.6083    32414.495    11451.327   -33255.997   -1549.4332    3923.6566   -10529.604    76.361703 
   96100    768.94068   -160.85798   0.69575369   -160.16223    2438.2474    4.2551669    4.2551669    4.2551669    2438.2474    42853.596   -13660.707   -21878.147    7818.4403   -2221.5005    -3078.026    77.045945 
   96200    967.35786   -161.03541   0.87528572   -160.16013    5550.6066    4.2617381    4.2617381    4.2617381    5550.6066    22392.118    16792.794   -22533.092    14078.582    3356.6734   -8136.1545     77.40344 
   96300    1331.7046   -161.36257    1.2049543   -160.15762    15638.465    4.2527499    4.2527499    4.2527499    15638.465     28327.58    48891.723   -30303.909    16515.054   -656.50923    6212.4223    76.914733 
   96400    1221.5232   -161.25787    1.1052599   -160.15261   -6651.3877    4.2468521    4.2468521    4.2468521   -6651.3877    30791.766   -22822.083   -27923.846     4837.789    1099.7958    270.24584    76.595172 
   96500    1318.2241   -161.35026    1.1927569   -160.15751   -24397.313    4.2523067    4.2523067    4.2523067   -24397.313   -1598.3445   -44838.377   -26755.216   -6826.3051     6532.667   -1135.7438    76.890689 
   96600    1576.7829    -161.5898    1.4267063   -160.16309   -12490.588    4.2566819    4.2566819    4.2566819   -12490.588   -9587.5209   -8734.8515   -19149.391   -14327.913   -283.89605    4923.2997    77.128268 
   96700    1374.8072   -161.40391    1.2439545   -160.15995   -3252.2633    4.2517434    4.2517434    4.2517434   -3252.2633   -21206.175    774.86795    10674.517   -14338.687   -7663.1579   -142.99772    76.860137 
   96800    807.98101   -160.88713    0.7310782   -160.15606   -3204.0338    4.2467412    4.2467412    4.2467412   -3204.0338    -20698.38    11931.001   -844.72204   -8165.3697   -13571.421    4247.0503    76.589173 
   96900    998.64126   -161.06335   0.90359159   -160.15976    4223.9393    4.2431916    4.2431916    4.2431916    4223.9393   -17781.953     49934.88    -19481.11    2258.6822   -10576.637   -9832.9158    76.397286 
   97000    1181.0209   -161.23081    1.0686125    -160.1622    12015.612    4.2442127    4.2442127    4.2442127    12015.612    5754.4548     37004.58   -6712.2001    9288.8191   -8761.1668   -13126.702    76.452454 
   97100    898.64712   -160.97447    0.8131148   -160.16136   -1527.2125    4.2487357    4.2487357    4.2487357   -1527.2125    7236.5905   -18554.959    6736.7312   -1636.8738   -3372.4765   -12114.508    76.697134 
   97200    960.64794   -161.02619   0.86921444   -160.15697   -17240.653    4.2570389    4.2570389    4.2570389   -17240.653   -34635.868   -20241.702    3155.6097   -4543.8721   -4027.5904   -17565.971    77.147677 
   97300    1399.2332   -161.42128    1.2660556   -160.15522   -11208.015    4.2585579    4.2585579    4.2585579   -11208.015   -8934.8611   -10069.852   -14619.332   -8022.5934   -12108.956   -6677.7449    77.230293 
   97400    1013.3881   -161.07578   0.91693482   -160.15884   -2015.3981    4.2503306    4.2503306    4.2503306   -2015.3981    36337.004   -38810.196   -3573.0019    101.47876   -8804.1595   -15032.573    76.783539 
   97500    685.22389   -160.78246   0.62000498   -160.16245   -7762.5748    4.2444049    4.2444049    4.2444049   -7762.5748    25273.751    -38528.82   -10032.655    8438.1344    -6696.671   -19638.566    76.462838 
   97600    1097.3007   -161.16317   0.99286071   -160.17031    4168.6141    4.2472372    4.2472372    4.2472372    4168.6141    21726.818    12177.883   -21398.858    17540.582   -777.38902   -8367.7538    76.616014 
   97700    1129.8094   -161.19427    1.0222753   -160.17199    9757.4536    4.2544421    4.2544421    4.2544421    9757.4536    29253.074    22806.648   -22787.361    12757.156    2450.5925   -8455.1232     77.00658 
   97800    494.84059   -160.61301   0.44774217   -160.16526    5545.5694    4.2567325    4.2567325    4.2567325    5545.5694    24786.693   -12257.646    4107.6607   -5484.7315   -13000.123   -2705.2051    77.131021 
   97900    833.21618   -160.91424   0.75391151   -160.16033    7239.1372    4.2501798    4.2501798    4.2501798    7239.1372    4282.8284    4474.3382    12960.245   -13487.819   -1342.5112    8352.9952     76.77537 
   98000    1504.2863   -161.51945    1.3611098   -160.15834    5276.5626    4.2457546    4.2457546    4.2457546    5276.5626    2352.2478    11717.787     1759.653   -21719.132    5255.2473   -1490.9124    76.535805 
   98100    1176.5745   -161.22592    1.0645894   -160.16133   -16231.338    4.2497766    4.2497766    4.2497766   -16231.338    10871.546   -49546.171   -10019.389   -7641.9454    3719.6252    3613.4057    76.753522 
   98200    1063.6592   -161.12576   0.96242116   -160.16334   -26850.236    4.2528795    4.2528795    4.2528795   -26850.236    -1086.175   -64843.422    -14621.11   -118.24183    2366.7338   -3097.0829    76.921763 
   98300      1850.29   -161.83506    1.6741813   -160.16087   -30908.319    4.2563218    4.2563218    4.2563218   -30908.319   -32679.568   -22302.727   -37742.661    8775.7197    1716.5843   -8880.1646    77.108696 
   98400    1631.7155   -161.63451    1.4764105    -160.1581   -31452.751    4.2610571    4.2610571    4.2610571   -31452.751   -35857.829   -18637.886   -39862.539    9836.0884   -3721.1488    5709.9676    77.366344 
   98500    955.52706   -161.01865   0.86458096   -160.15407   -20609.209    4.2543098    4.2543098    4.2543098   -20609.209   -6910.4602   -29804.205   -25112.962   -3572.5607   -10310.242    3003.5024    76.999398 
   98600    1027.8519   -161.08701   0.93002198   -160.15699     8470.768    4.2456846    4.2456846    4.2456846     8470.768    9057.4818    15281.285    1073.5368   -9362.8438    -15354.84    15220.666    76.532023 
   98700     1185.569    -161.2388    1.0727277   -160.16608     8422.394      4.25417      4.25417      4.25417     8422.394   -16571.029    35844.492    5993.7191   -13560.621   -16893.905    9063.1229    76.991809 
   98800    647.67314    -160.7486   0.58602826   -160.16257   -8089.5897    4.2564162    4.2564162    4.2564162   -8089.5897    -31056.05    17536.962   -10749.681   -7130.9534   -15996.341    3671.1673    77.113829 
   98900     458.5095   -160.57747   0.41486903   -160.16261    14201.376    4.2401228    4.2401228    4.2401228    14201.376    17756.738    40235.463   -15388.073    3951.5993   -16994.392    10151.588    76.231648 
   99000    1093.5748   -161.16264   0.98948945   -160.17315    13907.677    4.2458484    4.2458484    4.2458484    13907.677    23008.917    43097.147   -24383.034   -8934.8821   -3108.7078    4516.2648    76.540878 
   99100    1481.1659   -161.50291      1.34019   -160.16272   -23868.152    4.2584849    4.2584849    4.2584849   -23868.152   -24628.889   -30436.097   -16539.469    3039.8489   -1691.9404    13035.156    77.226318 
   99200    1210.2528   -161.24639    1.0950622   -160.15133   -9683.6885    4.2426147    4.2426147    4.2426147   -9683.6885   -790.61549   -41809.021    13548.571   -2043.2188    4597.2542    4127.9619    76.366127 
   99300    1337.1405    -161.3622    1.2098728   -160.15233   -9613.5868    4.2428892    4.2428892    4.2428892   -9613.5868    6474.9269   -10127.342   -25188.345   -13700.631    8307.2024   -1648.4687    76.380953 
   99400    1757.8737   -161.74869    1.5905611   -160.15813   -17744.678    4.2549943    4.2549943    4.2549943   -17744.678    -22830.94    10820.796    -41223.89    1031.5534    1331.7625   -407.20472    77.036572 
   99500    1275.6647   -161.31263    1.1542482   -160.15838    5375.6941    4.2513163    4.2513163    4.2513163    5375.6941   -19103.627    36442.791   -1212.0818   -11772.162   -2069.8133    -2622.625    76.836977 
   99600     623.9267   -160.72248   0.56454199   -160.15793    15328.439     4.248652     4.248652     4.248652    15328.439    2931.0643    53875.852   -10821.598    4454.4165   -16994.924    9292.5759    76.692602 
   99700    590.79512    -160.6962   0.53456384   -160.16164    16607.262    4.2531393    4.2531393    4.2531393    16607.262    6902.2879     91063.13   -48143.632    -5624.139   -17371.205     1365.123    76.935863 
   99800    1091.0229   -161.15173   0.98718043   -160.16455    18263.538    4.2504457    4.2504457    4.2504457    18263.538    6352.1799     84539.36   -36100.925    2894.4224   -13616.163   -4879.8359    76.789778 
   99900    732.16718    -160.8286   0.66248025   -160.16612    23340.997     4.249351     4.249351     4.249351    23340.997    6710.5696     66029.11   -2716.6897    6660.4616   -12425.602   -8012.0114    76.730463 
  100000    680.31358   -160.78255   0.61556202   -160.16699   -1038.0297    4.2550341    4.2550341    4.2550341   -1038.0297   -15121.804    27493.947   -15486.233    42.361414    3567.2301   -8888.6366    77.038732 
Loop time of 50.7525 on 1 procs for 100000 steps with 8 atoms

Pair  time (%) = 18.5281 (36.5068)
Kspce time (%) = 12.7888 (25.1984)
Neigh time (%) = 0 (0)
Comm  time (%) = 2.53274 (4.99037)
Outpt time (%) = 0.0933306 (0.183894)
Other time (%) = 16.8095 (33.1206)

Nlocal:    8 ave 8 max 8 min
Histogram: 1 0 0 0 0 0 0 0 0 0
Nghost:    2189 ave 2189 max 2189 min
Histogram: 1 0 0 0 0 0 0 0 0 0
Neighs:    2472 ave 2472 max 2472 min
Histogram: 1 0 0 0 0 0 0 0 0 0

Total # of neighbors = 2472
Ave neighs/atom = 309
Neighbor list builds = 0
Dangerous builds = 0
unfix 20
unfix 21
print "seeds:5574406"
seeds:5574406
