# ['Ni']

107 atoms
1 atom types

    0.0000     9.9089 xlo xhi
    0.0000     9.9089 ylo yhi
    0.0000     9.9089 zlo zhi

    0.0000    -0.0000    -0.0000 xy xz yz

Atoms

1 1     1.6515     1.6515     0.0000
2 1     1.6515     0.0000     1.6515
3 1     0.0000     1.6515     1.6515
4 1     0.0000     0.0000     3.3030
5 1     1.6515     1.6515     3.3030
6 1     1.6515     0.0000     4.9544
7 1     0.0000     1.6515     4.9544
8 1     0.0000     0.0000     6.6059
9 1     1.6515     1.6515     6.6059
10 1     1.6515     0.0000     8.2574
11 1     0.0000     1.6515     8.2574
12 1     0.0000     3.3030     0.0000
13 1     1.6515     4.9544     0.0000
14 1     1.6515     3.3030     1.6515
15 1     0.0000     4.9544     1.6515
16 1     0.0000     3.3030     3.3030
17 1     1.6515     4.9544     3.3030
18 1     1.6515     3.3030     4.9544
19 1     0.0000     4.9544     4.9544
20 1     0.0000     3.3030     6.6059
21 1     1.6515     4.9544     6.6059
22 1     1.6515     3.3030     8.2574
23 1     0.0000     4.9544     8.2574
24 1     0.0000     6.6059     0.0000
25 1     1.6515     8.2574     0.0000
26 1     1.6515     6.6059     1.6515
27 1     0.0000     8.2574     1.6515
28 1     0.0000     6.6059     3.3030
29 1     1.6515     8.2574     3.3030
30 1     1.6515     6.6059     4.9544
31 1     0.0000     8.2574     4.9544
32 1     0.0000     6.6059     6.6059
33 1     1.6515     8.2574     6.6059
34 1     1.6515     6.6059     8.2574
35 1     0.0000     8.2574     8.2574
36 1     3.3030     0.0000     0.0000
37 1     4.9544     1.6515     0.0000
38 1     4.9544     0.0000     1.6515
39 1     3.3030     1.6515     1.6515
40 1     3.3030     0.0000     3.3030
41 1     4.9544     1.6515     3.3030
42 1     4.9544     0.0000     4.9544
43 1     3.3030     1.6515     4.9544
44 1     3.3030     0.0000     6.6059
45 1     4.9544     1.6515     6.6059
46 1     4.9544     0.0000     8.2574
47 1     3.3030     1.6515     8.2574
48 1     3.3030     3.3030     0.0000
49 1     4.9544     4.9544     0.0000
50 1     4.9544     3.3030     1.6515
51 1     3.3030     4.9544     1.6515
52 1     3.3030     3.3030     3.3030
53 1     4.9544     4.9544     3.3030
54 1     4.9544     3.3030     4.9544
55 1     3.3030     4.9544     4.9544
56 1     3.3030     3.3030     6.6059
57 1     4.9544     4.9544     6.6059
58 1     4.9544     3.3030     8.2574
59 1     3.3030     4.9544     8.2574
60 1     3.3030     6.6059     0.0000
61 1     4.9544     8.2574     0.0000
62 1     4.9544     6.6059     1.6515
63 1     3.3030     8.2574     1.6515
64 1     3.3030     6.6059     3.3030
65 1     4.9544     8.2574     3.3030
66 1     4.9544     6.6059     4.9544
67 1     3.3030     8.2574     4.9544
68 1     3.3030     6.6059     6.6059
69 1     4.9544     8.2574     6.6059
70 1     4.9544     6.6059     8.2574
71 1     3.3030     8.2574     8.2574
72 1     6.6059     0.0000     0.0000
73 1     8.2574     1.6515     0.0000
74 1     8.2574     0.0000     1.6515
75 1     6.6059     1.6515     1.6515
76 1     6.6059     0.0000     3.3030
77 1     8.2574     1.6515     3.3030
78 1     8.2574     0.0000     4.9544
79 1     6.6059     1.6515     4.9544
80 1     6.6059     0.0000     6.6059
81 1     8.2574     1.6515     6.6059
82 1     8.2574     0.0000     8.2574
83 1     6.6059     1.6515     8.2574
84 1     6.6059     3.3030     0.0000
85 1     8.2574     4.9544     0.0000
86 1     8.2574     3.3030     1.6515
87 1     6.6059     4.9544     1.6515
88 1     6.6059     3.3030     3.3030
89 1     8.2574     4.9544     3.3030
90 1     8.2574     3.3030     4.9544
91 1     6.6059     4.9544     4.9544
92 1     6.6059     3.3030     6.6059
93 1     8.2574     4.9544     6.6059
94 1     8.2574     3.3030     8.2574
95 1     6.6059     4.9544     8.2574
96 1     6.6059     6.6059     0.0000
97 1     8.2574     8.2574     0.0000
98 1     8.2574     6.6059     1.6515
99 1     6.6059     8.2574     1.6515
100 1     6.6059     6.6059     3.3030
101 1     8.2574     8.2574     3.3030
102 1     8.2574     6.6059     4.9544
103 1     6.6059     8.2574     4.9544
104 1     6.6059     6.6059     6.6059
105 1     8.2574     8.2574     6.6059
106 1     8.2574     6.6059     8.2574
107 1     6.6059     8.2574     8.2574
