LAMMPS (10 Feb 2015)
# ---- initialize simulations
clear
units metal
dimension 3
boundary p p p
atom_style charge
atom_modify map array
# ---- create atoms
read_data /Users/eugeneragasa/pyflamestk_git/pypospack/tests/tests_integration/workflow/WorkflowLammpsThermalExpansion/param_1902/MgO_NaCl_unit.npt.T500/lammps.structure
  triclinic box = (0 0 0) to (4.2565 4.2565 4.2565) with tilt (0 0 0)
  1 by 1 by 1 MPI processor grid
  reading atoms ...
  8 atoms
# ---- define interatomic potential
include potential.mod
mass 1 24.305
mass 2 15.999

group Mg type 1
4 atoms in group Mg
group O type 2
4 atoms in group O

set group Mg charge 1.69754800024
  4 settings made for charge
set group O charge -1.69754800024
  4 settings made for charge

variable R_cut equal 10.0

pair_style buck/coul/long ${R_cut}
pair_style buck/coul/long 10
pair_coeff 1 1 0.0 0.5 0.0 ${R_cut}
pair_coeff 1 1 0.0 0.5 0.0 10
pair_coeff 1 2 1340.93810979 0.285979914483 0.0 ${R_cut}
pair_coeff 1 2 1340.93810979 0.285979914483 0.0 10
pair_coeff 2 2 11096.6994948 0.145827000496 3.24328494634 ${R_cut}
pair_coeff 2 2 11096.6994948 0.145827000496 3.24328494634 10

kspace_style pppm 1.0e-5

neighbor 1.0 bin
neigh_modify every 1 delay 0 check yes
# ---- define settings
compute eng all pe/atom
compute eatoms all reduce sum c_eng
# ---- run minimization
reset_timestep 0
fix 1 all box/relax iso 0.0 vmax 0.001
thermo 10
thermo_style custom step pe lx ly lz xy xz yz press pxx pyy pzz pxy pxz pyz c_eatoms
min_style cg
minimize 1e-25 1e-25 5000 10000
PPPM initialization ...
  G vector (1/distance) = 0.353134
  grid = 8 8 8
  stencil order = 5
  estimated absolute RMS force accuracy = 4.09436e-05
  estimated relative force accuracy = 2.84338e-06
  using double precision FFTs
  3d grid and FFT values/proc = 3375 512
Neighbor list info ...
  1 neighbor list requests
  update every 1 steps, delay 0 steps, check yes
  master list distance cutoff = 11
Memory usage per processor = 4.06549 Mbytes
Step PotEng Lx Ly Lz Xy Xz Yz Press Pxx Pyy Pzz Pxy Pxz Pyz eatoms 
       0   -117.43599       4.2565       4.2565       4.2565            0            0            0    33717.192    33717.192    33717.192    33717.192 -3.1023281e-11 -2.4163961e-10 -2.0934262e-10   -117.43599 
       8   -117.45138    4.2835821    4.2835821    4.2835821            0            0            0   -5.0124394   -5.0124394   -5.0124394   -5.0124394 6.8970478e-11 -1.4442567e-10 -9.765937e-11   -117.45138 
Loop time of 0.00854897 on 1 procs for 8 steps with 8 atoms

Minimization stats:
  Stopping criterion = linesearch alpha is zero
  Energy initial, next-to-last, final = 
        -117.435990229     -117.451383044     -117.451383044
  Force two-norm initial, final = 4.86878 0.0018005
  Force max component initial, final = 4.86878 0.000733039
  Final line search alpha, max atom move = 0.00390625 2.86343e-06
  Iterations, force evaluations = 8 25

Pair  time (%) = 0.00227165 (26.5722)
Kspce time (%) = 0.00134635 (15.7487)
Neigh time (%) = 0 (0)
Comm  time (%) = 0.000341177 (3.99085)
Outpt time (%) = 0 (0)
Other time (%) = 0.0045898 (53.6883)

Nlocal:    8 ave 8 max 8 min
Histogram: 1 0 0 0 0 0 0 0 0 0
Nghost:    2189 ave 2189 max 2189 min
Histogram: 1 0 0 0 0 0 0 0 0 0
Neighs:    2344 ave 2344 max 2344 min
Histogram: 1 0 0 0 0 0 0 0 0 0

Total # of neighbors = 2344
Ave neighs/atom = 293
Neighbor list builds = 0
Dangerous builds = 0
unfix 1
# ---- define output variables ----
variable natoms equal "count(all)"
variable tot_energy equal "c_eatoms"
variable length_x equal "lx"
variable length_y equal "ly"
variable length_z equal "lz"
variable tilt_xy equal "xy"
variable tilt_xz equal "xz"
variable tilt_yz equal "yz"
variable tot_press equal "press"
variable press_xx equal "pxx"
variable press_yy equal "pyy"
variable press_zz equal "pzz"
variable press_xy equal "pxy"
variable press_xz equal "pxz"
variable press_yz equal "pyz"

# ---- output ----
print "pypospack:output_section:begin"
pypospack:output_section:begin
print "tot_energy = ${tot_energy}"
tot_energy = -117.45138304358
print "num_atoms = ${natoms}"
num_atoms = 8
print "xx = ${length_x}"
xx = 4.28358206284588
print "yy = ${length_y}"
yy = 4.28358206284588
print "zz = ${length_z}"
zz = 4.28358206284588
print "xy = ${tilt_xy}"
xy = 0
print "xz = ${tilt_xz}"
xz = 0
print "yz = ${tilt_yz}"
yz = 0
print "tot_press = ${tot_press}"
tot_press = -5.01243937142067
print "pxx = ${press_xx}"
pxx = -5.01243937108414
print "pyy = ${press_yy}"
pyy = -5.01243937158826
print "pzz = ${press_zz}"
pzz = -5.01243937158962
print "pxy = ${press_xy}"
pxy = 6.8970477610601e-11
print "pxz = ${press_xz}"
pxz = -1.44425666326158e-10
print "pyz = ${press_yz}"
pyz = -9.76593698696591e-11
print "pypospack:output_section:done"
pypospack:output_section:done
print "pypospack:lammps_sim:done"
pypospack:lammps_sim:done
#------------------------------------------------------------------------------
# RUN THERMOSTAT
# running using an NPT Nose-Hoover style thermostat
#------------------------------------------------------------------------------
variable tempdamp equal 0.1
variable pressdamp equal 1.0
# set initial velocities
velocity all create 500 7071916 mom yes dist gaussian loop all
# fix for Nose-Hoover style thermostat
fix 20 all npt temp 500 500 0.1 aniso 0.0 0.0 1.0 drag 1.0 couple xyz
variable boxx equal lx
variable boxy equal ly
variable boxz equal lz
variable boxp equal press
variable boxt equal temp
# calculate averages every 10000 steps
reset_timestep 0
fix 21 all ave/time 10 10 100 v_boxx v_boxy v_boxz v_boxp v_boxt file lattice.out
thermo_style custom step temp pe ke etotal press lx ly lz press pxx pyy pzz pxy pxz pyz vol
thermo_modify flush yes
thermo 100
run 100000
PPPM initialization ...
  G vector (1/distance) = 0.352856
  grid = 8 8 8
  stencil order = 5
  estimated absolute RMS force accuracy = 4.14735e-05
  estimated relative force accuracy = 2.88018e-06
  using double precision FFTs
  3d grid and FFT values/proc = 3375 512
Memory usage per processor = 3.06549 Mbytes
Step Temp PotEng KinEng TotEng Press Lx Ly Lz Press Pxx Pyy Pzz Pxy Pxz Pyz Volume 
       0          500   -117.45139   0.45241051   -116.99898    6141.9712    4.2835821    4.2835821    4.2835821    6141.9712    9967.6147    4696.3661    3761.9328    630.53231    1116.1576   -1922.3978     78.59977 
     100    181.16598   -117.09759   0.16392279   -116.93367    1129.1688    4.3066464    4.3066464    4.3066464    1129.1688    22980.863   -1172.3866    -18420.97   -380.38559   -5560.7304   -305.17726    79.876245 
     200    515.07192   -117.28216    0.4660479   -116.81611   -7073.4866    4.2980554    4.2980554    4.2980554   -7073.4866   -8225.8907   -8.5730894   -12985.996   -1141.4515    7437.5481    1730.4553    79.399179 
     300    388.27241   -117.05943   0.35131703   -116.70811    9747.0978    4.3005987    4.3005987    4.3005987    9747.0978    30350.497    6536.8987   -7646.1025   -3525.0485   -3572.1774    2085.6946    79.540216 
     400     604.0919   -117.16955   0.54659505   -116.62296   -12115.638     4.318015     4.318015     4.318015   -12115.638   -14814.192   -3072.5812    -18460.14   -308.77627   -452.72006   -841.61233    80.510484 
     500    534.67918   -117.05402   0.48378896   -116.57024    8338.3094    4.2953322    4.2953322    4.2953322    8338.3094      31757.5   -422.41938   -6320.1529    2406.5108    7898.4221   -2183.8738    79.248359 
     600    577.69012   -117.07025   0.52270616   -116.54755   -3258.4054    4.3138605    4.3138605    4.3138605   -3258.4054    13756.708   -5625.3047   -17906.619    1874.3499    2892.5973   -1732.1084    80.278322 
     700    676.07508   -117.15046   0.61172694   -116.53874   -6281.7071    4.3173205    4.3173205    4.3173205   -6281.7071    13217.494   -22482.114   -9580.5006   -5778.1423    2425.1981   -722.52227    80.471641 
     800     590.3915   -117.07339   0.53419863   -116.53919    23006.306    4.2900845    4.2900845    4.2900845    23006.306    50958.549    19112.533   -1052.1654   -733.20495    -9100.004     3365.234    78.958257 
     900    659.72854   -117.14576   0.59693625   -116.54882   -23220.579    4.3243537    4.3243537    4.3243537   -23220.579   -23762.359   -19916.625   -25982.755    2762.0968    9373.6841    2300.5704    80.865563 
    1000    440.71961   -116.94773   0.39877236   -116.54896    10732.629    4.3027336    4.3027336    4.3027336    10732.629    23947.717    1445.5032    6804.6676    4553.1847   -5752.8347     1001.937    79.658729 
    1100    764.76403   -117.23731   0.69197457   -116.54534     870.7522    4.3017022    4.3017022    4.3017022     870.7522    1914.0634    14376.057   -13677.864    -6475.491    822.59307   -3479.3637     79.60146 
    1200    525.83624   -117.02159   0.47578768   -116.54581   -7508.8797    4.3202675    4.3202675    4.3202675   -7508.8797    18051.113   -19123.844   -21453.907   -1004.9435   -2043.0629   -2979.1572    80.636547 
    1300    618.97983   -117.10018   0.56006596   -116.54012    17240.419    4.2935251    4.2935251    4.2935251    17240.419    9336.6806    21145.789    21238.789     -3028.26    3792.1394   -60.550541    79.148378 
    1400    502.26951   -116.99815   0.45446401   -116.54369   -6464.1855    4.3229478    4.3229478    4.3229478   -6464.1855    34199.923   -25751.229    -27841.25    3253.7423   -405.62135   -958.95386    80.786721 
    1500    785.15975   -117.25397   0.71042904   -116.54354    10593.864    4.2925382    4.2925382    4.2925382    10593.864    11887.028    7117.5837    12776.981   -556.55941   -5199.4553    3212.0756     79.09381 
    1600    471.47005   -116.98382   0.42659601   -116.55722    6002.3225    4.3130872    4.3130872    4.3130872    6002.3225    24126.342    2989.2631   -9108.6371    1208.5111    5499.5088   -685.16609     80.23516 
    1700    650.53096   -117.13955   0.58861409   -116.55094   -24661.875    4.3183026    4.3183026    4.3183026   -24661.875   -22452.568   -21061.114   -30471.943   -5839.9096    4714.3007   -1078.8829    80.526572 
    1800    534.68063   -117.02163   0.48379027   -116.53784    33219.845    4.2774892    4.2774892    4.2774892    33219.845    32936.402    41187.045    25536.087   -9762.6232     578.3588    192.25023    78.264851 
    1900    609.97085   -117.08906   0.55191444   -116.53714   -32023.204    4.3404817    4.3404817    4.3404817   -32023.204   -19065.781   -33417.601   -43586.229    1768.0346   -7013.1262   -1423.1264    81.773727 
    2000    623.85406   -117.10521   0.56447626   -116.54073    19466.255    4.2836297    4.2836297    4.2836297    19466.255    33250.065    15560.768    9587.9304    2928.2842    6737.9706    3508.6139    78.602392 
    2100    536.89426   -117.03299   0.48579321    -116.5472    8980.2776    4.3028721    4.3028721    4.3028721    8980.2776    30098.223    4436.6614   -7594.0521      -3709.8    2400.7075   -8.8098983    79.666424 
    2200    547.03651   -117.03077   0.49497013    -116.5358   -17684.484    4.3295761    4.3295761    4.3295761   -17684.484   -3581.7622   -26095.119   -23376.569   -5966.9034   -8476.8786   -430.40449    81.158895 
    2300    693.99339   -117.15269    0.6279398   -116.52475    36025.334    4.2706334    4.2706334    4.2706334    36025.334    42664.702    42885.154    22526.144    1229.2242    -1974.184   -1355.3222    77.889137 
    2400    545.69706   -117.03161   0.49375817   -116.53785   -20737.835    4.3302612    4.3302612    4.3302612   -20737.835   -17670.434   -13676.402   -30866.671   -373.17427     2700.673   -111.31608    81.197432 
    2500    522.44313    -117.0123   0.47271752   -116.53958    1222.8689    4.2980372    4.2980372    4.2980372    1222.8689   -12077.809    10981.637    4764.7786    2360.5727    2809.0523    2545.5926    79.398174 
    2600     601.9175   -117.08652    0.5446276   -116.54189    2350.7508    4.2927198    4.2927198    4.2927198    2350.7508    6518.7224    1353.8838   -820.35385   -5674.8716   -10005.778    2248.2923    79.103849 
    2700    600.17895   -117.07831   0.54305452   -116.53525   -20111.652     4.325789     4.325789     4.325789   -20111.652     -29403.8   -1363.4347   -29567.722   -1076.7233    3276.0748    862.39358    80.946111 
    2800    611.45359   -117.08647   0.55325606   -116.53321    12128.035     4.286342     4.286342     4.286342    12128.035    18020.935    10063.789    8299.3829   -7449.3257    2093.2165   -5076.6099    78.751793 
    2900    476.45696   -116.97364   0.43110827   -116.54254   -6453.3903    4.3100016    4.3100016    4.3100016   -6453.3903    -19808.62    11364.165   -10915.717    773.37972   -3113.1867   -384.56461     80.06308 
    3000    512.39146   -117.00422   0.46362256    -116.5406   -998.12405    4.3117636    4.3117636    4.3117636   -998.12405    22101.664   -2673.3251   -22422.712    4387.4453   -1253.9418    3462.3985    80.161315 
    3100    700.67934   -117.17235   0.63398939   -116.53836    7592.4678    4.2918998    4.2918998    4.2918998    7592.4678      2623.85    12042.844    8110.7097   -10061.697   -2701.3497    3978.1786    79.058527 
    3200    476.05389   -116.97566   0.43074356   -116.54491    2467.9974    4.3110346    4.3110346    4.3110346    2467.9974    24947.339   -9540.4591   -8002.8876   -213.73687    8615.0195   -1013.9204    80.120664 
    3300    565.39131   -117.05642   0.51157794   -116.54484   -13800.934    4.3098114    4.3098114    4.3098114   -13800.934   -14249.694   -7320.2322   -19832.877     4386.759   -9274.7942   -3954.2826    80.052484 
    3400    432.10937   -116.93368   0.39098164    -116.5427    19348.623    4.2877995    4.2877995    4.2877995    19348.623    20841.011    25736.043    11468.816    9921.2698   -3006.8421    425.72398    78.832156 
    3500    667.31736   -117.14726   0.60380277   -116.54346   -19255.537     4.322413     4.322413     4.322413   -19255.537   -20845.781   -21410.229   -15510.601   -8491.4386     3752.147   -325.48406     80.75674 
    3600    498.90457   -116.99654   0.45141934   -116.54512    96.079427    4.2985695    4.2985695    4.2985695    96.079427     -4881.27    11625.108      -6455.6    6239.2912   -5636.5925    1450.6708    79.427676 
    3700    485.76919   -116.98372   0.43953417   -116.54419    10682.019    4.2902446    4.2902446    4.2902446    10682.019     5124.397    12128.839     14792.82    2928.4535   -2946.0311    736.68806    78.967095 
    3800    494.09036   -116.98612   0.44706334   -116.53905   -18820.951    4.3309918    4.3309918    4.3309918   -18820.951   -8708.8634   -15629.611   -32124.378    5736.1048   -4829.5193    2410.1513    81.238538 
    3900    710.07582   -117.17608   0.64249153   -116.53359    24671.551    4.2781917    4.2781917    4.2781917    24671.551    31137.989    24519.325    18357.339   -6564.2509    2473.8106    459.39672    78.303421 
    4000     397.9129   -116.90775   0.36003995   -116.54771    3581.4389    4.3101309    4.3101309    4.3101309    3581.4389      20209.9   -2997.1763   -6468.4071    1501.8758   -7461.4535   -2822.8738    80.070286 
    4100    402.54321    -116.9072   0.36422956   -116.54297   -8902.0372     4.317316     4.317316     4.317316   -8902.0372   -2141.9161   -7226.5355    -17337.66    7580.9342   -7040.2172    45.149928    80.471391 
    4200    664.26448   -117.13231   0.60104047   -116.53127    24198.411    4.2766586    4.2766586    4.2766586    24198.411    35703.212    17648.223    19243.798   -112.26048    4273.0829   -1118.8393    78.219269 
    4300    493.07835   -116.98277   0.44614765   -116.53662    -9494.785    4.3223195    4.3223195    4.3223195    -9494.785    4642.9096   -21146.904    -11980.36    643.81894   -2661.5311     2559.411      80.7515 
    4400    412.45664   -116.91474   0.37319943   -116.54155   -4977.2086    4.3003922    4.3003922    4.3003922   -4977.2086   -13869.798    1120.7981   -2182.6255   -7144.5565   -8007.2532    310.00157    79.528757 
    4500    427.50519   -116.92918   0.38681568   -116.54236    2710.2218    4.2892645    4.2892645    4.2892645    2710.2218     4582.833    2887.8602    659.97238    10325.488   -11355.542    1959.4441    78.912989 
    4600    572.06828   -117.05741    0.5176194   -116.53979   -14729.058     4.320587     4.320587     4.320587   -14729.058   -3605.2035   -24739.217   -15842.753     645.0899    7722.2293   -1993.2479    80.654436 
    4700    514.68812   -117.00723   0.46570062   -116.54153      5007.81    4.2941531    4.2941531    4.2941531      5007.81    13070.938    4934.5919   -2982.1002    1046.6521   -3831.7665   -3543.7064    79.183113 
    4800    333.52996   -116.84674   0.30178492   -116.54495    3152.3306    4.2961348    4.2961348    4.2961348    3152.3306    7519.2413    2654.8529   -717.10224    648.67725   -7697.8838    754.82525    79.292787 
    4900    417.50754   -116.91964   0.37776959   -116.54187   -9955.7242    4.3182046    4.3182046    4.3182046   -9955.7242    10957.307   -18239.109   -22585.371   -160.76375    4141.3158    4056.7332    80.521091 
    5000    653.67679   -117.12893    0.5914605   -116.53747    11618.497    4.2912922    4.2912922    4.2912922    11618.497    10422.152    13374.512    11058.826    2911.6803    1875.3593    2386.6432    79.024954 
    5100    343.87715   -116.85414   0.31114727     -116.543    9776.5605     4.302474     4.302474     4.302474    9776.5605    26548.589    108.05062    2673.0421     466.0475    1383.1138   -2632.2491     79.64431 
    5200    450.50946   -116.94947   0.40763043   -116.54184   -19643.938    4.3144842    4.3144842    4.3144842   -19643.938   -16431.423   -22614.681   -19885.711    1529.7951   -9924.1688   -2227.5249    80.313148 
    5300    356.16679   -116.86317    0.3222672   -116.54091    7804.5842    4.2925043    4.2925043    4.2925043    7804.5842    4459.5528    14447.987    4506.2132   -3576.7416    10029.725   -192.91289    79.091935 
    5400     587.6903   -117.07275   0.53175453   -116.54099   -5394.7432    4.3031799    4.3031799    4.3031799   -5394.7432    3554.9735   -8673.5192   -11065.684   -727.86264    9307.3085    2683.6402    79.683521 
    5500     561.2978   -117.04888   0.50787404   -116.54101    -20428.65    4.3123091    4.3123091    4.3123091    -20428.65   -16410.049   -23553.331   -21322.571   -2444.8335   -6612.7233    1251.7473    80.191743 
    5600    178.46623   -116.70394   0.16147999   -116.54246    9059.0155    4.2931541    4.2931541    4.2931541    9059.0155    8740.6403    10293.023    8143.3832    3777.6661    8284.6844   -987.65208    79.127864 
    5700    583.03333   -117.07036   0.52754081   -116.54282   -14738.583    4.3063291    4.3063291    4.3063291   -14738.583   -3057.8314   -23340.136   -17817.782    970.27746    1560.9575   -1743.7231    79.858594 
    5800    468.12087   -116.96628    0.4235656   -116.54271    3596.3491    4.3077418    4.3077418    4.3077418    3596.3491    19602.006   -7025.3194   -1787.6393   -1849.1692    4427.0349   -964.59192    79.937211 
    5900    520.26915   -117.01147   0.47075046   -116.54072    8701.4129    4.2924938    4.2924938    4.2924938    8701.4129    5607.6031    298.86007    20197.775   -2582.4638   -129.65119    3523.8677    79.091357 
    6000    371.29473   -116.87984   0.33595527   -116.54388   -7904.4699    4.3094702    4.3094702    4.3094702   -7904.4699    16993.599   -17495.004   -23212.005    2326.8051   -893.12728    3909.9324     80.03347 
    6100    326.06794   -116.83819   0.29503313   -116.54316    9366.9889    4.3030937    4.3030937    4.3030937    9366.9889    13674.168    -539.2667    14966.065    7254.5893    6054.0762   -194.14706    79.678729 
    6200    774.97814   -117.24016    0.7012165   -116.53894    1443.8117    4.2951528    4.2951528    4.2951528    1443.8117    8117.4217   -6087.0989    2301.1123   -2456.2549    -3348.777   -5652.4716    79.238431 
    6300    360.52608   -116.86968   0.32621157   -116.54346   -316.62437    4.3102332    4.3102332    4.3102332   -316.62437    7148.2637   -5734.3185   -2363.8183    3736.1996     3430.765   -1414.9895    80.075986 
    6400    355.88669   -116.86496   0.32201376   -116.54295   -4126.9477    4.3011439    4.3011439    4.3011439   -4126.9477   -12072.867   -8893.6286    8585.6524    1939.2798   -2238.3723    6500.3588    79.570471 
    6500    551.60294   -117.04113   0.49910193   -116.54202   -2557.2844    4.2986049    4.2986049    4.2986049   -2557.2844    3216.8993   -3292.0414   -7596.7113    -1000.999    991.28921     5690.218    79.429641 
    6600    490.46642   -116.98499   0.44378432    -116.5412    1235.2717    4.3084473    4.3084473    4.3084473    1235.2717   -7460.1564   -6380.8191    17546.791    5130.3147    3430.3945   -1929.4622    79.976495 
    6700    581.34876   -117.06743   0.52601658   -116.54141   -12657.325    4.3021229    4.3021229    4.3021229   -12657.325   -14056.285   -10313.914   -13601.777    3270.9966   -2742.9104    -7043.441    79.624814 
    6800    251.52512   -116.77202   0.22758521   -116.54444    8034.4082    4.2973416    4.2973416    4.2973416    8034.4082   -8961.1918    18139.987     14924.43    2840.0809    10389.213    1032.5535     79.35963 
    6900    612.26827   -117.09568   0.55399319   -116.54168   -7292.7521    4.3090414    4.3090414    4.3090414   -7292.7521   -11020.326   -3384.9796   -7472.9504   -1856.1514    265.41438     6073.163    80.009583 
    7000    655.98739   -117.13355   0.59355118      -116.54   -352.55504    4.3014724    4.3014724    4.3014724   -352.55504    -9682.562    11389.739   -2764.8417   -2414.6275    46.209429    4710.8891    79.588704 
    7100    378.85698   -116.88603   0.34279775   -116.54323      7659.89    4.2971048    4.2971048    4.2971048      7659.89   -8590.5688    12550.432    19019.807    3461.9172    8896.5761   -3665.2172    79.346509 
    7200    546.36388   -117.03726   0.49436152    -116.5429   -12810.729    4.3102786    4.3102786    4.3102786   -12810.729   -15197.079    1884.2075   -25119.314    1660.6014   -6143.9225   -3623.6071    80.078519 
    7300     548.1069   -117.03611   0.49593864   -116.54017    7295.0101    4.3004718    4.3004718    4.3004718    7295.0101   -2480.1151    13431.517    10933.628    1476.3306    3409.5495     697.2459    79.533174 
    7400    603.95302   -117.08651   0.54646938   -116.54005    4035.1071    4.2977892    4.2977892    4.2977892    4035.1071    7578.3345    11254.289   -6727.3021   -61.615621    5296.5881     5282.177    79.384429 
    7500    448.49391   -116.94906   0.40580672   -116.54325   -8517.8015    4.3109351    4.3109351    4.3109351   -8517.8015     -19180.6    2089.9344   -8462.7393    991.39265   -6391.1625    4468.6198    80.115116 
    7600    467.71356   -116.96515   0.42319706   -116.54195    4386.4085    4.2987321    4.2987321    4.2987321    4386.4085    9991.8666    8598.0331   -5430.6742   -533.91343   -1731.2826   -4549.4489    79.436688 
    7700    676.10615   -117.15148   0.61175505   -116.53972    1781.8223    4.2979451    4.2979451    4.2979451    1781.8223    7077.4743    2420.6417   -4152.6489    1895.6374   -1490.8596   -299.20542    79.393068 
    7800     601.1624   -117.08577   0.54394437   -116.54183   -8621.8604    4.3105215    4.3105215    4.3105215   -8621.8604    -15691.12   -9090.4006   -1084.0605    3302.8101    4521.8177   -372.44285    80.092057 
    7900     352.7135   -116.86366   0.31914259   -116.54451    10239.468    4.2964761    4.2964761    4.2964761    10239.468    14890.066    25763.243   -9934.9055   -1439.1908   -3203.2151     10403.13     79.31169 
    8000    640.22433   -117.12366   0.57928843   -116.54437   -1866.3325    4.3013699    4.3013699    4.3013699   -1866.3325   -8490.7607    3851.1329   -959.36964   -2400.2346   -6702.2584   -751.38142    79.583014 
    8100    588.84631   -117.07506   0.53280052   -116.54226    2550.2534    4.3094535    4.3094535    4.3094535    2550.2534   -571.87466    19485.734   -11263.099     178.9138     5397.172   -1736.2716     80.03254 
    8200     617.3309   -117.09988   0.55857398   -116.54131    3181.0752    4.2945623    4.2945623    4.2945623    3181.0752    4955.1154   -132.73832    4720.8487     9194.042   -2749.4335    1933.3768    79.205752 
    8300     407.9474   -116.91429   0.36911938   -116.54517   -1500.6502    4.3052198    4.3052198    4.3052198   -1500.6502   -17605.627    26749.984   -13646.308    2582.6754   -485.84433   -783.83172    79.796895 
    8400    635.66643   -117.11572   0.57516435   -116.54055   -4905.7785    4.3069049    4.3069049    4.3069049   -4905.7785     1835.135   -3088.0199   -13464.451   -3536.1695   -50.516395    1659.9516    79.890629 
    8500    666.51813   -117.14174   0.60307961   -116.53866    3287.2059    4.2965971    4.2965971    4.2965971    3287.2059   -5745.5757     14823.76    783.43298    -589.9249   -1482.8285   -3248.3762     79.31839 
    8600    443.89756    -116.9451   0.40164784   -116.54345   -3194.9803    4.3048785    4.3048785    4.3048785   -3194.9803   -6775.4567    5979.3688   -8788.8531    4776.7899    1047.1524     4390.295    79.777919 
    8700    542.94239   -117.03449   0.49126569   -116.54322    -8104.218    4.3039443    4.3039443    4.3039443    -8104.218   -11078.065    1139.0162   -14373.605    4275.5709   -8949.7544   -2828.8529    79.725992 
    8800    669.65314   -117.14655   0.60591624   -116.54063    1879.6658    4.2998263    4.2998263    4.2998263    1879.6658    18993.108   -2146.6665   -11207.444    184.00276    5847.7812   -5827.6433    79.497365 
    8900    593.19106   -117.07958   0.53673173   -116.54285    4380.4478     4.303352     4.303352     4.303352    4380.4478   -1767.0482    14191.958     716.4338    2936.5802   -50.635112   -27.021999    79.693082 
    9000    523.69403   -117.01912   0.47384936   -116.54527    330.27769    4.3015986    4.3015986    4.3015986    330.27769    1747.0134    8938.8246   -9695.0048   -3778.3075   -8016.7609    4503.8311    79.595708 
    9100    485.66385   -116.98441   0.43943886   -116.54498    7532.2474    4.3015768    4.3015768    4.3015768    7532.2474    24121.848    12262.891   -13787.996    1992.2106    1506.6662    2498.2112    79.594497 
    9200    737.26022   -117.20864   0.66708854   -116.54155    639.67563    4.3032613    4.3032613    4.3032613    639.67563   -7863.5183    16033.008   -6250.4624    1153.1195   -1625.4021   -6455.4759     79.68804 
    9300     539.4776   -117.03102   0.48813067   -116.54289    7123.3219    4.3006806    4.3006806    4.3006806    7123.3219    22982.498   -679.05256   -933.47945    8244.4685    4306.3503   -2867.6181     79.54476 
    9400    522.25217   -117.01634   0.47254474    -116.5438   -6743.6436    4.3042461    4.3042461    4.3042461   -6743.6436   -12974.388    8704.4177   -15960.961    -1319.949   -11341.953    2370.9644    79.742762 
    9500    570.59057   -117.05913   0.51628234   -116.54285   -4538.7317    4.3025533    4.3025533    4.3025533   -4538.7317    4757.5473   -3019.8253   -15353.917   -4378.2186   -1284.9377    6850.8036    79.648718 
    9600    593.47215   -117.07835   0.53698607   -116.54137    1238.6052    4.3007467    4.3007467    4.3007467    1238.6052   -1452.1988    3818.3976    1349.6168    7515.2715    9045.7584   -1095.3476    79.548425 
    9700    561.15273   -117.04945   0.50774278    -116.5417   -7482.0761    4.3053996    4.3053996    4.3053996   -7482.0761   -6457.3724   -4069.0906   -11919.765    6316.6095   -9699.0546   -3869.9544    79.806891 
    9800    419.18252   -116.92211   0.37928515   -116.54283   -2.5101014    4.3006266    4.3006266    4.3006266   -2.5101014   -6207.6414     10842.97   -4642.8593    131.56384    60.082764    -675.5214    79.541763 
    9900     628.6448   -117.11075   0.56881102   -116.54194   -2967.5025    4.3026412    4.3026412    4.3026412   -2967.5025    -1234.425   -2403.3119   -5264.7705   -9845.7478    -5776.595    -839.4153    79.653598 
   10000    579.08564   -117.06514   0.52396886   -116.54117    987.23669    4.3067365    4.3067365    4.3067365    987.23669    11545.672    765.31931   -9349.2814    6527.0108    4941.9465    5344.2965    79.881261 
   10100    571.09395   -117.05731   0.51673781   -116.54057    3844.0427    4.2967783    4.2967783    4.2967783    3844.0427   -12478.997    9396.4557    14614.669    5534.6632   -806.89506    1656.6061    79.328427 
   10200    479.32576   -116.97642   0.43370402   -116.54271   -585.72406    4.3058857    4.3058857    4.3058857   -585.72406    16046.901   -1489.1929   -16314.881    353.95441   -7550.1862   -4639.1568    79.833926 
   10300    604.70718   -117.08769   0.54715177   -116.54054   -1128.8986    4.3054273    4.3054273    4.3054273   -1128.8986   -4471.9003    9935.1343   -8849.9299   -2819.1767    2920.1595   -5275.0871    79.808433 
   10400    497.66109    -116.9914   0.45029421    -116.5411    11454.307    4.2951768    4.2951768    4.2951768    11454.307    14570.689   -950.08376    20742.317    4143.7436   -5050.6438    2271.5248    79.239758 
   10500    470.45206   -116.97024   0.42567491   -116.54457   -7151.8098    4.3066615    4.3066615    4.3066615   -7151.8098   -12948.995    7134.7466   -15641.181    7200.9954    979.84331    6827.1114    79.877084 
   10600    482.23225   -116.97952   0.43633387   -116.54318   -3896.2301    4.3044017    4.3044017    4.3044017   -3896.2301    3354.4086    1260.2607    -16303.36   -3929.6127   -8726.5318   -2439.4099    79.751412 
   10700    520.06989   -117.01209   0.47057017   -116.54152     5663.983    4.2965212    4.2965212    4.2965212     5663.983    7360.8617   -1027.2374    10658.325    4976.9421    2369.0572   -4518.9238    79.314186 
   10800    493.42995   -116.98939   0.44646579   -116.54292   -6814.3853    4.3056177    4.3056177    4.3056177   -6814.3853    2678.5217   -8735.0149   -14386.663    3009.1923   -6972.1633   -1136.9087    79.819024 
   10900    454.60933   -116.95456   0.41134007   -116.54322   -6148.6767    4.3043812    4.3043812    4.3043812   -6148.6767    6352.7947   -7145.2785   -17653.546     4475.962   -6623.5561    5656.6892    79.750271 
   11000    550.67438   -117.04019   0.49826175   -116.54193    2153.7463    4.2974345    4.2974345    4.2974345    2153.7463    13012.489   -3322.2709   -3228.9795   -4653.7927    5389.2062    60.181132    79.364776 
   11100    471.16036   -116.96877   0.42631579   -116.54245    828.05186    4.3046602    4.3046602    4.3046602    828.05186    16605.575   -12669.956    -1451.464    5006.5876   -1590.5866   -5945.4218    79.765781 
   11200    462.76243    -116.9619   0.41871717   -116.54318   -4662.1728    4.3025858    4.3025858    4.3025858   -4662.1728   -13885.735    12595.574   -12696.358    3505.9784   -3850.0542   -57.009071    79.650519 
   11300    430.19635   -116.93212    0.3892507   -116.54287    6426.8384     4.299088     4.299088     4.299088    6426.8384    22215.826   -2246.1027   -689.20801   -261.90297   -9161.2618    951.35867    79.456424 
   11400    565.41247   -117.05352   0.51159708   -116.54192   -2823.8302    4.3060441    4.3060441    4.3060441   -2823.8302   -12129.524    12943.144   -9285.1103    1520.5484    4807.0177    2618.0472    79.842739 
   11500     374.1062   -116.88221   0.33849915   -116.54371    5720.2816    4.2980263    4.2980263    4.2980263    5720.2816     5386.386    2783.3671    8991.0917    5720.3397    1755.7777   -1070.9334    79.397568 
   11600    442.83117     -116.945   0.40068295   -116.54432     -8015.13    4.3035768    4.3035768    4.3035768     -8015.13   -18869.006   -6546.5908    1370.2066    8465.5796   -5088.9286    82.445912    79.705569 
   11700    476.93975   -116.97366   0.43154511   -116.54212   -582.93268    4.3043596    4.3043596    4.3043596   -582.93268    9927.2549    8679.2817   -20355.335     -7330.11   -4392.2026   -2596.2866    79.749071 
   11800    544.49798   -117.03416   0.49267321   -116.54149    3380.2417    4.2956749    4.2956749    4.2956749    3380.2417   -5738.8455   -2542.1795     18421.75    9715.8769   -368.18584   -1009.1963     79.26733 
   11900    274.43503   -116.79412   0.24831458    -116.5458   -7296.3252    4.3090657    4.3090657    4.3090657   -7296.3252    220.51451   -7693.6264   -14415.864    7359.1258    500.43678    2791.3474    80.010935 
   12000    481.75349   -116.97857   0.43590069   -116.54267   -5791.4168    4.2992194    4.2992194    4.2992194   -5791.4168   -2014.4362    2879.6725   -18239.487    2714.4053   -10656.957    1389.5795    79.463708 
   12100    483.72737   -116.97936   0.43768669   -116.54168    7818.6008    4.2988398    4.2988398    4.2988398    7818.6008    16543.589    11178.171   -4265.9575     -7659.99    1563.8687    2591.9783    79.442661 
   12200    472.36842   -116.96906   0.42740887   -116.54166   -10859.248    4.3099807    4.3099807    4.3099807   -10859.248   -761.89779    -20863.14   -10952.707    8763.3378   -1531.3721   -2836.6956    80.061917 
   12300    299.34257   -116.81414   0.27085145   -116.54328    353.52228    4.2958085    4.2958085    4.2958085    353.52228   -3830.2573    16154.332   -11263.508    9976.9048   -1930.9849    2536.0126    79.274722 
   12400    484.79703   -116.98205   0.43865454    -116.5434   -4720.3184    4.3023041    4.3023041    4.3023041   -4720.3184    10413.894   -4022.9479   -20551.902   -3284.6808    303.38147    3361.2362    79.634879 
   12500     605.7133   -117.09046   0.54806213    -116.5424   -8163.6556    4.3069111    4.3069111    4.3069111   -8163.6556   -9477.3562   -4576.3808    -10437.23   -1817.4662    1338.3084   -1807.5612    79.890976 
   12600    235.97527   -116.75862   0.21351538    -116.5451    8530.0186    4.2959417    4.2959417    4.2959417    8530.0186    3800.3072    17766.697    4023.0513    7540.4459    2009.8963   -75.673127    79.282101 
   12700    458.81352   -116.95919   0.41514412   -116.54405   -13823.538     4.304321     4.304321     4.304321   -13823.538   -9092.6156   -10776.361   -21601.638    12826.599    -6414.811   -2119.2578    79.746924 
   12800    433.82709   -116.93406   0.39253587   -116.54152    3883.9328    4.3052791    4.3052791    4.3052791    3883.9328    13202.933    9823.7893   -11374.924   -8904.5801    1492.8014    3220.9707    79.800194 
   12900    593.15109   -117.07723   0.53669557   -116.54053    2032.7479    4.2961342    4.2961342    4.2961342    2032.7479   -2301.7121   -2668.0702    11068.026    1610.6469    -1078.412   -399.94426    79.292758 
   13000    246.45911   -116.76838   0.22300139   -116.54538   -980.75741    4.3044797    4.3044797    4.3044797   -980.75741    15556.725   -8603.4608   -9895.5366    10098.786   -2945.4605    1300.7255    79.755745 
   13100    456.45698   -116.95643   0.41301187   -116.54342   -4685.9608    4.3029396    4.3029396    4.3029396   -4685.9608   -14052.664   -7109.3351     7104.117    8677.8303   -2958.2602   -616.72682    79.670169 
   13200    519.29848   -117.01175   0.46987218   -116.54188    9433.9013    4.2977015    4.2977015    4.2977015    9433.9013    29566.441    2662.9087   -3927.6462   -3586.8736    977.46298    1049.8246    79.379569 
   13300    446.10049   -116.94797    0.4036411   -116.54433   -2433.0746    4.3033478    4.3033478    4.3033478   -2433.0746     -10965.3   -7119.2797    10785.356    6266.3724    2256.2608    1848.3126    79.692847 
   13400    296.37079   -116.81321   0.26816252   -116.54505   -4819.1575    4.3028561    4.3028561    4.3028561   -4819.1575   -1137.1526   -15531.081    2210.7609    8265.7114   -3760.4136   -891.20274    79.665536 
   13500    511.25827    -117.0036   0.46259722     -116.541   -4557.9726    4.3011239    4.3011239    4.3011239   -4557.9726    1928.9918    5391.7369   -20994.646   -909.44131    647.82299    7551.4765    79.569358 
   13600    524.56314   -117.01567   0.47463575   -116.54104    1777.8275    4.3007347    4.3007347    4.3007347    1777.8275     10433.47   -12575.904    7475.9164    3119.7689   -4930.1803   -725.77398    79.547763 
   13700    385.85253   -116.89216   0.34912748   -116.54303   -2926.9576    4.3031093    4.3031093    4.3031093   -2926.9576    -6955.695   -5321.9168    3496.7388    10408.364    825.56731    1897.6607    79.679597 
   13800    380.72581   -116.88697   0.34448871   -116.54249   -6913.5414    4.3042438    4.3042438    4.3042438   -6913.5414    11859.453    -11249.94   -21350.137    5005.7479   -2147.1501    4169.9062    79.742634 
   13900    574.54817   -117.06051   0.51986326   -116.54065     3741.814    4.2959935    4.2959935    4.2959935     3741.814     17286.26   -3335.5936   -2725.2248   -8764.5649    1694.6822   -3937.6192    79.284967 
   14000    448.25459   -116.94874   0.40559017   -116.54315    4829.0433    4.3058019    4.3058019    4.3058019    4829.0433    12458.853   -6523.7272    8552.0042    5980.0558   -1005.7011     948.5929    79.829266 
   14100    382.22527   -116.88959   0.34584546   -116.54374   -5041.3979    4.3040762    4.3040762    4.3040762   -5041.3979    16282.507   -20606.577   -10800.123    10647.273   -6758.4846   -1408.0034    79.733322 
   14200    497.32472   -116.99128   0.44998985   -116.54129    3235.6791    4.2933179    4.2933179    4.2933179    3235.6791    7309.0295    1306.8377      1091.17     6235.018       5252.7    2610.6176    79.136922 
   14300    498.20072   -116.99348   0.45078249    -116.5427   -2860.2183    4.3110086    4.3110086    4.3110086   -2860.2183    20941.324   -18090.745   -11431.234   -4196.2656   -4287.5392   -166.47124    80.119213 
   14400    507.65872   -117.00332   0.45934028   -116.54398   -5818.1347    4.2995232    4.2995232    4.2995232   -5818.1347   -3126.6099   -18889.216    4561.4221    7283.2153    858.60358   -2249.7014    79.480556 
   14500    375.07052   -116.88358   0.33937169   -116.54421    2314.2953    4.2949432    4.2949432    4.2949432    2314.2953     11039.22   -6124.9878    2028.6537    11046.785   -6332.4359    2430.6823    79.226829 
   14600    551.93525   -117.04132   0.49940261   -116.54192   -12731.384    4.3131397    4.3131397    4.3131397   -12731.384   -2571.7186   -22311.394   -13311.038   -1652.9797    7064.4261   -3178.7621     80.23809 
   14700    453.08958   -116.95144   0.40996498   -116.54148    10772.241    4.2945843    4.2945843    4.2945843    10772.241    32580.957   -9391.9171    9127.6836    5367.1488    2394.0674    224.90772    79.206971 
   14800    504.31546   -116.99898   0.45631523   -116.54266   -3199.3527     4.299789     4.299789     4.299789   -3199.3527   -3020.7663    -9048.495    2471.2034    9665.5561   -2699.0148    -1191.699    79.495299 
   14900    360.44826   -116.86927   0.32614116   -116.54313    -2276.371    4.3108266    4.3108266    4.3108266    -2276.371    26074.256   -21678.957   -11224.412    1539.8821      3914.28    1007.1559    80.109063 
   15000     675.4989   -117.15024    0.6112056   -116.53903    3032.3812      4.29246      4.29246      4.29246    3032.3812    13286.449    2601.9003    -6791.206   -3256.5566   -4296.3063    3105.5232    79.089491 
   15100    394.12601       -116.9    0.3566135   -116.54338    4618.0908    4.3047788    4.3047788    4.3047788    4618.0908    24735.337    -12435.08    1554.0161    6030.0373    3695.9253   -4344.0607    79.772373 
   15200    534.14365   -117.02602    0.4833044   -116.54272   -10898.135    4.3048527    4.3048527    4.3048527   -10898.135   -13602.743   -22987.266    3895.6039    9510.1904    -5085.069    3325.4532    79.776483 
   15300    441.63605   -116.94153   0.39960158   -116.54193    6050.0055     4.296135     4.296135     4.296135    6050.0055    27093.636     1228.621   -10172.241   -1197.3919    9043.0296    1887.1318    79.292799 
   15400    574.32058   -117.06087   0.51965733   -116.54121    -7523.627    4.3071367    4.3071367    4.3071367    -7523.627   -8157.7135   -19055.981    4642.8134   -1439.6813    6186.5451   -2844.2453    79.903528 
   15500    458.55541   -116.95687   0.41491057   -116.54195    4058.5329    4.2985323    4.2985323    4.2985323    4058.5329    17588.817   -14266.273    8853.0551    4671.0392   -5964.8457   -1284.4692    79.425614 
   15600     466.8207   -116.96555   0.42238918   -116.54316   -5908.0649    4.3026353    4.3026353    4.3026353   -5908.0649   -2774.8744   -11736.593   -3212.7269    5626.9184     2799.196   -1122.4237    79.653269 
   15700    553.44845   -117.04423   0.50077178   -116.54346   -4883.2678    4.3025081    4.3025081    4.3025081   -4883.2678    20235.364   -16253.849   -18631.319   -536.49464   -2155.5978    1790.9301    79.646205 
   15800    509.91096   -117.00529   0.46137815   -116.54391     7141.656    4.2974134    4.2974134    4.2974134     7141.656    15378.924   -6919.0592    12965.103    3390.4286    6203.1541   -7149.2759    79.363607 
   15900    458.86197   -116.95938   0.41518796    -116.5442   -2275.9464    4.3062623    4.3062623    4.3062623   -2275.9464    16307.116   -21462.174   -1672.7809    6194.8044   -7279.6248     1104.459    79.854875 
   16000    595.74779   -117.08124   0.53904512   -116.54219   -1662.2972     4.299148     4.299148     4.299148   -1662.2972    7370.5772   -13115.554    758.08503   -1933.7031     -750.143    28.238427    79.459749 
   16100    455.46401   -116.95529   0.41211341   -116.54318    11964.868    4.3006022    4.3006022    4.3006022    11964.868    18977.137   -9375.8144     26293.28   -1472.7851    1256.3984   -4823.5111    79.540411 
   16200    577.76972   -117.06454   0.52277818   -116.54177   -7620.9145    4.3073155    4.3073155    4.3073155   -7620.9145    10280.086   -25483.251   -7659.5778    7351.1093    2521.1819   -600.76316    79.913481 
   16300    514.37301   -117.00794   0.46541551   -116.54252    5636.3831    4.2937283    4.2937283    4.2937283    5636.3831    2019.0255   -11141.776      26031.9    8692.6272   -1271.7398   -686.76462    79.159616 
   16400      534.985     -117.029   0.48406567   -116.54494    24.784585     4.304101     4.304101     4.304101    24.784585    8247.0003   -16338.469     8165.822   -1199.2629   -3576.0518    773.34565    79.734698 
   16500    608.19679   -117.09283   0.55030924   -116.54253    -13238.17    4.3065962    4.3065962    4.3065962    -13238.17   -5867.2466   -22921.666   -10925.598   -2094.0393    2744.4295   -3261.7197    79.873452 
   16600    377.87635   -116.88449   0.34191046   -116.54258    11927.738    4.2903701    4.2903701    4.2903701    11927.738    21349.127   -6520.5346    20954.622    8981.7789   -177.12452      -418.81    78.974025 
   16700    707.17779   -117.18209   0.63986932   -116.54222   -16107.648    4.3099034    4.3099034    4.3099034   -16107.648   -11692.733   -20963.496   -15666.714    2795.0487    2957.5927    2372.6367    80.057609 
   16800     463.3207   -116.96227   0.41922231   -116.54305    1059.0281    4.3031568    4.3031568    4.3031568    1059.0281    27400.458   -16030.429   -8192.9449   -322.13473   -5363.3473   -2630.5974    79.682235 
   16900     531.5891    -117.0223   0.48099299   -116.54131    3897.0885    4.2892536    4.2892536    4.2892536    3897.0885    6818.7542    6379.2006   -1506.6892    6033.1008    4642.1113   -2998.3319    78.912385 
   17000    495.41577   -116.99057    0.4482626   -116.54231   -9767.2221    4.3137232    4.3137232    4.3137232   -9767.2221    17709.666   -29181.921   -17829.412    1818.9672   -5588.8416    767.70313    80.270659 
   17100    639.49661   -117.11896   0.57862998   -116.54033    1029.6159    4.2975339    4.2975339    4.2975339    1029.6159    3134.8464   -3513.4295    3467.4309   -1798.9608    3961.5041    2242.0678    79.370284 
   17200     459.7572   -116.95849   0.41599798   -116.54249    9745.1792    4.2930718    4.2930718    4.2930718    9745.1792    33770.576    4493.0448    -9028.083   -2132.0849    7169.8991   -1031.9775    79.123313 
   17300    529.48055   -117.02106   0.47908513   -116.54197   -17040.279    4.3136647    4.3136647    4.3136647   -17040.279   -8836.0818   -31880.481   -10404.274    6967.6332   -1881.8159   -4508.7214    80.267392 
   17400    506.65976   -116.99884    0.4584364   -116.54041    10636.587    4.2928536    4.2928536    4.2928536    10636.587    26543.452   -737.30815    6103.6161    2671.7335     2308.064    -1870.455    79.111249 
   17500    682.24433   -117.15836     0.617309   -116.54105   -4404.0675    4.3001505    4.3001505    4.3001505   -4404.0675    1326.3204   -10080.615   -4457.9075   -3486.6003    749.22957    98.503365    79.515346 
   17600    369.99635   -116.87819   0.33478047   -116.54341    2933.4274    4.3074752    4.3074752    4.3074752    2933.4274    30867.954   -19787.319   -2280.3526   -776.25396    6805.0087   -6387.7064    79.922368 
   17700    588.53041   -117.07475   0.53251468   -116.54223     1938.827    4.2945568    4.2945568    4.2945568     1938.827    10367.495   -4990.7674    439.75316    3607.5363    -1718.914   -2135.6801    79.205446 
   17800    543.73972   -117.03734   0.49198713   -116.54535     2923.531     4.303306     4.303306     4.303306     2923.531    28696.171   -15171.171   -4754.4069    1059.8975    408.71727    2616.6872    79.690526 
   17900     476.0248   -116.97528   0.43071725   -116.54457     5211.926    4.3029693    4.3029693    4.3029693     5211.926    14385.537   -9960.0765    11210.318    668.57978    6539.0825   -4949.2661    79.671823 
   18000    506.34806   -117.00127   0.45815436   -116.54311    1506.1005    4.2960772    4.2960772    4.2960772    1506.1005    23552.841   -5878.7462   -13155.794    2424.2413   -394.00035   -5685.7733    79.289602 
   18100    535.13703   -117.02733   0.48420323   -116.54313   -8845.6299    4.3039173    4.3039173    4.3039173   -8845.6299   -5708.9524   -19391.771   -1436.1661    3050.4383     3041.314    1720.0534    79.724489 
   18200      487.986   -116.98456   0.44153999   -116.54302   -121.61539    4.2997223    4.2997223    4.2997223   -121.61539     4470.154   -12369.008    7534.0082   -3232.0156   -1557.9698   -832.64927    79.491596 
   18300    570.51861   -117.05949   0.51621723   -116.54327   -10934.719    4.3018803    4.3018803    4.3018803   -10934.719    6624.3814   -18216.166   -21212.372   -881.45818    10306.399   -6154.6852    79.611347 
   18400    416.39714   -116.92116   0.37676489   -116.54439   -2534.3332    4.3017497    4.3017497    4.3017497   -2534.3332    8721.9666   -10482.584   -5842.3824    9710.9763   -2075.4312   -2069.0622    79.604094 
   18500    584.53821   -117.07084   0.52890246   -116.54194    397.73394    4.2986982    4.2986982    4.2986982    397.73394    11680.892   -10349.969   -137.72125    863.06635   -4674.6717    2494.3733    79.434809 
   18600    531.67206   -117.02285   0.48106806   -116.54178   -3077.5275    4.3057453    4.3057453    4.3057453   -3077.5275    13897.314   -17884.426   -5245.4706   -5789.4257    2771.4277   -351.40185     79.82612 
   18700     443.8165   -116.94411    0.4015745   -116.54254    10713.497    4.2951496    4.2951496    4.2951496    10713.497    20714.957    8259.6704    3165.8633   -640.95484    4708.6533   -3885.7961    79.238253 
   18800    559.05546   -117.04879   0.50584513   -116.54295    893.87189    4.3035373    4.3035373    4.3035373    893.87189    19785.472   -13958.404   -3145.4527    6402.1128    4430.6689    1358.1136    79.703373 
   18900    511.43994    -117.0048    0.4627616   -116.54204    4286.9259    4.3035532    4.3035532    4.3035532    4286.9259    19202.572   -7696.5126    1354.7185    1618.9989   -9604.0559   -293.50539     79.70426 
   19000    553.05065   -117.04185   0.50041185   -116.54144    2175.9122    4.2955154    4.2955154    4.2955154    2175.9122     1066.626    1321.2386    4139.8719   -7048.9198    2877.8632   -5032.8151    79.258499 
   19100    453.92394   -116.95385   0.41071992   -116.54313   -2820.1225     4.306168     4.306168     4.306168   -2820.1225    12432.097   -20007.781   -884.68329    535.33192    4777.8515    -2957.974    79.849629 
   19200    538.24974   -117.02872   0.48701968    -116.5417    -4865.539    4.3028664    4.3028664    4.3028664    -4865.539   -8688.1997   -7033.8335    1125.4163    2793.9761    4831.8482   -835.25668    79.666105 
   19300    492.38446    -116.9868   0.44551981   -116.54128    5251.0172    4.2931102    4.2931102    4.2931102    5251.0172    11969.591   -8009.6013    11793.061   -3823.3124   -2601.9698    2650.6426    79.125437 
   19400    549.55084   -117.04013   0.49724515   -116.54289   -12868.612    4.3092416    4.3092416    4.3092416   -12868.612   -13166.884   -22537.785   -2901.1661   -2914.0145    377.22782   -5296.4789    80.020735 
   19500    410.09986   -116.91425   0.37106698   -116.54318    1959.6916    4.3013059    4.3013059    4.3013059    1959.6916    27371.049   -9811.7999   -11680.175    5861.7052    3276.2177   -3900.0427     79.57946 
   19600    686.61135   -117.16144   0.62126038   -116.54018    5256.1956    4.2895045    4.2895045    4.2895045    5256.1956    5255.5765   -3664.6043    14177.615     841.2318     1927.947    2620.7034    78.926235 
   19700    390.73118   -116.89668   0.35354179   -116.54314   -3956.9035    4.3153946    4.3153946    4.3153946   -3956.9035    26148.496   -27416.246   -10602.961   -7555.2119    5198.4274   -4607.0115    80.363997 
   19800    567.34427   -117.05497   0.51334502   -116.54162    1490.4273    4.2919445    4.2919445    4.2919445    1490.4273    5345.9485    368.39175   -1243.0584   -1740.4061    1559.5657   -4423.1516    79.060997 
   19900    435.08016   -116.93775   0.39366967   -116.54408    9512.5475    4.2966292    4.2966292    4.2966292    9512.5475    26976.948   -4192.3202    5753.0146    6945.7511    7920.9387   -488.11091    79.320169 
   20000    611.26245   -117.09345   0.55308311   -116.54037   -18973.281    4.3136023    4.3136023    4.3136023   -18973.281   -17536.356   -24940.074   -14443.415   -1175.5199   -3055.6993    3695.9506    80.263912 
   20100    420.40304   -116.92007    0.3803895   -116.53968    8611.5011    4.2861154    4.2861154    4.2861154    8611.5011    16892.815    1329.7109    7611.9773   -8776.9835    9790.3489   -2437.6614    78.739307 
   20200    545.95493   -117.03666   0.49399149   -116.54267   -16268.236    4.3075025    4.3075025    4.3075025   -16268.236   -18636.915   -9406.2548   -20761.537    -2064.316    5706.9858   -1200.9122    79.923889 
   20300    520.70344   -117.01267   0.47114341   -116.54153   -2728.3598    4.3043069    4.3043069    4.3043069   -2728.3598    17133.648   -10256.841   -15061.887    4298.4595   -3085.6612    4737.4657    79.746145 
   20400    579.76001   -117.06433   0.52457904   -116.53975     8040.464    4.2897009    4.2897009    4.2897009     8040.464    4883.9938   -1077.0383    20314.437   -3035.0075    7191.2847   -2186.3331    78.937077 
   20500    377.44578   -116.88505   0.34152087   -116.54353    -2807.157    4.3107291    4.3107291    4.3107291    -2807.157    13586.149   -6895.2027   -15112.417   -2628.6802     990.5401   -2414.3958    80.103628 
   20600    552.79686   -117.04045   0.50018222   -116.54027    4681.8978     4.298349     4.298349     4.298349    4681.8978    12344.898   -3535.9025    5236.6977    589.40699    2432.2913    244.94529    79.415454 
   20700    564.30924   -117.05084   0.51059886   -116.54024    13329.215    4.2951775    4.2951775    4.2951775    13329.215    22371.519    3789.6122    13826.514   -982.11872   -6520.8635    3349.4562    79.239793 
   20800    558.98625   -117.04781    0.5057825   -116.54203   -6949.1998    4.3093002    4.3093002    4.3093002   -6949.1998   -642.80505   -8614.5297   -11590.265   -6964.3833    8620.2892   -233.88177    80.023998 
   20900    458.32953   -116.95714   0.41470619   -116.54244    1835.5886    4.2958032    4.2958032    4.2958032    1835.5886   -3600.0028   -4077.8265    13184.595    155.84472    2001.9471   -4073.4576    79.274431 
   21000    540.80009   -117.03176   0.48932729   -116.54243    1953.6778    4.2982959    4.2982959    4.2982959    1953.6778     5889.667    9147.8746   -9176.5082    2811.6787   -3476.0128    549.83285    79.412508 
   21100    613.50399   -117.09587   0.55511131   -116.54076   -7399.7739    4.3080393    4.3080393    4.3080393   -7399.7739   -13897.603   -14129.476    5827.7576   -2615.9129   -4828.3949    165.89793    79.953774 
   21200    443.90062   -116.94306   0.40165061   -116.54141    4082.1437    4.2935313    4.2935313    4.2935313    4082.1437   -200.08349   -3642.6319    16089.147    -7040.639    3343.1554   -3086.4113     79.14872 
   21300    485.41171   -116.98276   0.43921072   -116.54355    -8055.537    4.3020369    4.3020369    4.3020369    -8055.537   -8678.5234   -2397.1179    -13090.97   -758.74336    11631.787   -4998.6569    79.620039 
   21400    513.08557   -117.00603   0.46425061   -116.54178    700.10611    4.3047636    4.3047636    4.3047636    700.10611    13243.114   -12957.003    1814.2074    5376.5204   -4858.5502    2187.9081    79.771528 
   21500    740.79482   -117.20949   0.67028672    -116.5392    2624.8326    4.2922412    4.2922412    4.2922412    2624.8326    3876.7275    2169.4437    1828.3264   -5853.8236   -1763.2239    767.34932    79.077393 
   21600    342.31344   -116.85424   0.30973239    -116.5445   -1830.1832    4.3072279    4.3072279    4.3072279   -1830.1832     18388.68   -17929.815    -5949.414   -2118.9394    1720.3242   -3562.3486    79.908605 
   21700    567.65416   -117.05624   0.51362541   -116.54261   -6922.2428    4.2983032    4.2983032    4.2983032   -6922.2428   -7574.6427   -4989.6722   -8202.4135   -179.82231    11838.407    1961.7075    79.412915 
   21800    516.06961   -117.00896   0.46695063   -116.54201    11870.779    4.2961424    4.2961424    4.2961424    11870.779    18359.197    3929.6363    13323.505   -383.99429   -4752.6233   -706.44749    79.293212 
   21900     625.6948   -117.10749   0.56614181   -116.54135   -10789.646    4.3076336    4.3076336    4.3076336   -10789.646   -8168.0094   -25408.993    1208.0634   -1907.6694   -2592.6909   -3435.6596    79.931189 
   22000    434.70396   -116.93604   0.39332928   -116.54272   -2628.2321    4.2952589    4.2952589    4.2952589   -2628.2321   -8445.9255    2485.6658   -1924.4368   -4369.2157    1142.1116   -2445.4097    79.244299 
   22100    458.05411   -116.95817   0.41445698   -116.54371    553.75857    4.3014075    4.3014075    4.3014075    553.75857   -4407.4623    739.86654    5328.8715    3106.5073   -404.38449     5034.707    79.585101 
   22200    749.12864   -117.21779   0.67782734   -116.53996   -6211.2585    4.3039909    4.3039909    4.3039909   -6211.2585    3374.9259    -16291.31   -5717.3914   -3410.1142    5251.3359    3095.9118    79.728581 
   22300    438.92108   -116.93953   0.39714502   -116.54239    10241.142    4.2954621    4.2954621    4.2954621    10241.142   -2149.1181    9145.0015    23727.543   -5609.9737   -4113.8542   -3337.0048    79.255548 
   22400    499.41486   -116.99683   0.45188106   -116.54495   -5177.1188    4.3043513    4.3043513    4.3043513   -5177.1188    3084.3738   -10791.797    -7823.933    16.623259    6754.0397   -924.46108    79.748608 
   22500    564.73766   -117.05394    0.5109865   -116.54295    5696.7093    4.3010152    4.3010152    4.3010152    5696.7093     17937.33    536.49944   -1383.7016    2258.1097   -1972.1882   -204.28077    79.563327 
   22600    653.43526   -117.13145   0.59124195   -116.54021    10567.842    4.2937747    4.2937747    4.2937747    10567.842    2316.3548    12087.781    17299.391    2469.9394    3141.7349    186.13981    79.162182 
   22700    469.20514   -116.96784   0.42454667   -116.54329    -8258.879    4.3079139    4.3079139    4.3079139    -8258.879    18816.871   -21944.267   -21649.241   -3588.3785    359.40331    -4441.408     79.94679 
   22800    448.51897   -116.94999   0.40582939   -116.54416   -1208.0002     4.296662     4.296662     4.296662   -1208.0002   -11841.069    7071.0857    1145.9827   -3408.0861    8622.0768   -1150.2348    79.321983 
   22900    586.24687   -117.07362   0.53044849   -116.54317    4915.2366    4.2962472    4.2962472    4.2962472    4915.2366    5530.2669    4574.3186    4641.1243    3566.6166    4124.9711     2666.804    79.299014 
   23000    643.86065   -117.12423   0.58257865   -116.54165   -17358.679    4.3104647    4.3104647    4.3104647   -17358.679   -20194.501   -26370.577   -5510.9606    701.90098    240.23534   -4781.3846     80.08889 
   23100    309.99059   -116.82371     0.280486   -116.54322    8726.2277    4.2911964    4.2911964    4.2911964    8726.2277     10561.03    9178.2832    6439.3702     701.8827    10372.454   -2869.0431    79.019664 
   23200    650.12563   -117.13098   0.58824733   -116.54273    -11257.27    4.3032585    4.3032585    4.3032585    -11257.27    -18204.99   -5649.0382   -9917.7804   -3065.7572   -3081.8787    742.09298    79.687884 
   23300      557.247   -117.04521    0.5042088     -116.541    1017.4238     4.306779     4.306779     4.306779    1017.4238    16884.553   -12095.848   -1736.4332    756.91938   -146.10412   -148.73745    79.883623 
   23400    607.88083   -117.08951   0.55002335   -116.53948    6899.2244    4.2890754    4.2890754    4.2890754    6899.2244    4226.2326    5234.4589    11236.982    2334.0065     7329.771   -4944.6808    78.902549 
   23500    402.91803   -116.90862    0.3645687   -116.54406   -1438.7943    4.3084168    4.3084168    4.3084168   -1438.7943    16443.624   -15746.043   -5013.9643    -1175.419    10161.232   -5171.6696    79.974792 
   23600    570.73983   -117.05871    0.5164174   -116.54229    2091.5431     4.300404     4.300404     4.300404    2091.5431   -4669.7674     8163.529    2780.8678    2868.6862   -4856.0569    4227.6675    79.529409 
   23700    604.99647   -117.08837   0.54741352   -116.54096    10606.179     4.289951     4.289951     4.289951    10606.179    13580.616   -382.53933    18620.459     1532.886   -5119.1163   -970.30204    78.950884 
   23800     450.1213   -116.94965   0.40727921   -116.54237   -12404.692    4.3125148    4.3125148    4.3125148   -12404.692    -12038.09   -15805.109   -9370.8774    3270.0282    10381.136   -983.39978    80.203219 
   23900    496.42902   -116.99095   0.44917941   -116.54178    1391.4442    4.2936572    4.2936572    4.2936572    1391.4442   -3223.3067    14588.537   -7190.8977   -4049.3265    9821.9272    1881.9373    79.155682 
   24000    650.79258   -117.13049    0.5888508   -116.54164    352.75774    4.2970509    4.2970509    4.2970509    352.75774   -7138.1652   -1437.7872    9634.2257    3012.9791   -2928.2559   -517.42916    79.343524 
   24100    504.52856   -116.99871   0.45650805    -116.5422   -6355.3938    4.3096953    4.3096953    4.3096953   -6355.3938   -2913.5385   -6831.6122   -9321.0306    5909.7063   -6436.4449   -1373.5681    80.046014 
   24200    488.06804   -116.98323   0.44161422   -116.54162    5562.3076    4.2907368    4.2907368    4.2907368    5562.3076    5186.5486    3907.4973    7592.8768   -918.00756     15030.19   -3860.7678    78.994277 
   24300    568.30993   -117.05767   0.51421877   -116.54345    3135.0093    4.3021414    4.3021414    4.3021414    3135.0093    3189.5094    3588.4424    2627.0762   -1216.1612    3909.5224    1780.3075    79.625843 
   24400     563.0653   -117.05076   0.50947331   -116.54128    3444.8876    4.3051863    4.3051863    4.3051863    3444.8876    12824.317   -1557.6068   -932.04747    538.19082   -3733.3173    -1390.416    79.795029 
   24500    532.15483   -117.02196   0.48150487   -116.54045     5368.578     4.291313     4.291313     4.291313     5368.578    6649.5075   -2921.3019    12377.528    4741.9162   -1961.9296   -5470.6528    79.026105 
   24600    433.38014   -116.93518   0.39213146   -116.54305   -368.19227    4.3056384    4.3056384    4.3056384   -368.19227    16026.639    388.40203   -17519.617   -45.074313    5260.1342   -1019.9239     79.82017 
   24700    760.34363   -117.22769    0.6879749   -116.53972    -6990.213    4.3001257    4.3001257    4.3001257    -6990.213   -15084.817   -578.01533   -5307.8066    2254.0938    5004.2746    2921.1112    79.513972 
   24800    433.95183   -116.93521   0.39264874   -116.54257    7042.4431    4.2943643    4.2943643    4.2943643    7042.4431    13268.986    2452.9399    5405.4029    6880.4249   -9261.0438   -5522.0848    79.194797 
   24900    557.69176   -117.04779   0.50461122   -116.54318   -17240.834    4.3058287    4.3058287    4.3058287   -17240.834   -18878.165   -15548.384   -17295.953    1913.4811    5162.1258   -10567.777    79.830756 
   25000    567.92539   -117.05634   0.51387082   -116.54247    632.12021    4.2980197    4.2980197    4.2980197    632.12021    1181.8178   -660.37834    1374.9212   -3675.4257   -70.803604    214.55226    79.397205 
   25100    635.74146   -117.11706   0.57523223   -116.54183     4869.337    4.2957051    4.2957051    4.2957051     4869.337   -2754.5554    9192.2835    8170.2829    6572.3572    776.05723    3272.8491    79.268997 
   25200    489.78468   -116.98735   0.44316747   -116.54418    -6019.574    4.3053487    4.3053487    4.3053487    -6019.574    9797.0403   -22233.744   -5622.0181    8771.9922    -213.3379   -4229.7889    79.804063 
   25300    503.96519   -116.99893    0.4559983   -116.54293     5855.936    4.2959934    4.2959934    4.2959934     5855.936   -5084.2881    13001.415    9650.6811    684.38586   -2784.1606   -578.55043    79.284962 
   25400    695.32362    -117.1704   0.62914343   -116.54125    7064.7202    4.2994202    4.2994202    4.2994202    7064.7202    20932.638    2754.7698   -2493.2473    -3519.111    5134.8089    1082.2693    79.474843 
   25500    667.12536   -117.14562   0.60362904   -116.54199   -5281.4634    4.3044011    4.3044011    4.3044011   -5281.4634   -6958.7635   -6717.5939   -2168.0327    8868.8062   -418.83492    -3438.811     79.75138 
   25600    420.70077   -116.92452    0.3806589   -116.54386    7653.6079    4.2933709    4.2933709    4.2933709    7653.6079    3589.8107     6752.453     12618.56    11931.919    4950.2642   -4615.6067    79.139851 
   25700    700.82419   -117.17719   0.63412045   -116.54306   -9847.5628    4.3050883    4.3050883    4.3050883   -9847.5628   -1177.6712   -17685.512   -10679.505   -2096.0742    -3318.148   -2067.6718    79.789584 
   25800    634.48946   -117.11549   0.57409939   -116.54139    6783.3902    4.2991398    4.2991398    4.2991398    6783.3902   -3377.1031    15156.399    8570.8745   -1049.6754    578.27594    4169.7139    79.459297 
   25900    546.48385   -117.03734   0.49447007   -116.54287   -1502.0517     4.296899     4.296899     4.296899   -1502.0517   -5235.1723   -10070.203    10799.221    12835.572    911.09097   -2502.1579    79.335109 
   26000    502.15975   -116.99831   0.45436469   -116.54394   -9399.0862    4.3048974    4.3048974    4.3048974   -9399.0862   -8222.3272   -14527.254   -5447.6776     5915.288    6934.2957   -9025.8541    79.778969 
   26100    560.86776   -117.04919   0.50748493    -116.5417    9328.4106    4.2982698    4.2982698    4.2982698    9328.4106    15828.069    8501.7199    3655.4426   -1369.6353    5573.4527    1378.1264    79.411067 
   26200    836.83352   -117.29741   0.75718455   -116.54023    -6353.438    4.2989571    4.2989571    4.2989571    -6353.438   -12106.678   -8307.3043    1353.6684    2283.7946    -8102.249    2244.8688    79.449164 
   26300    394.97374   -116.90206   0.35738054   -116.54468    4847.5833    4.3018864    4.3018864    4.3018864    4847.5833    22938.564   -9322.5688    926.75501    8499.1021    2588.6985   -4822.6851    79.611683 
   26400     652.3761   -117.13326   0.59028361   -116.54298   -5686.4684    4.3004928    4.3004928    4.3004928   -5686.4684   -2456.0302   -5566.3023   -9037.0726     2620.896    5530.5227    -8213.215    79.534339 
   26500    695.50463   -117.17085    0.6293072   -116.54154    11397.839    4.2962236    4.2962236    4.2962236    11397.839    17577.646    10450.827    6165.0424   -4157.1983     6951.511   -188.61217     79.29771 
   26600    622.34765   -117.10621   0.56311323    -116.5431    5238.1306     4.302299     4.302299     4.302299    5238.1306    -1766.824    5797.3087    11683.907    6652.3731   -4196.1575    606.75627    79.634592 
   26700    523.26761   -117.01745   0.47346353   -116.54399   -1683.8326    4.3011684    4.3011684    4.3011684   -1683.8326     -6297.15    1628.7464   -383.09409    6740.5033   -5301.5596   -1776.0584     79.57183 
   26800    536.21362   -117.02846   0.48517735   -116.54328    10616.634    4.2955063    4.2955063    4.2955063    10616.634    9419.2245    5785.3148    16645.364    4112.4363    5401.5028    2576.4845    79.257993 
   26900    795.13466   -117.26025   0.71945455    -116.5408   -3097.1356    4.3035403    4.3035403    4.3035403   -3097.1356   -14838.184    6259.6932   -712.91556   -1561.8876    2256.9636   -3110.4932    79.703542 
   27000    554.43746   -117.04445   0.50166666   -116.54278     521.1868    4.3002553    4.3002553    4.3002553     521.1868   -4208.6836   -1146.9335    6919.1774    10034.835    5998.0537   -6066.8574    79.521162 
   27100    526.06438   -117.01968   0.47599411   -116.54369   -2927.1527    4.2968372    4.2968372    4.2968372   -2927.1527    -10755.51   -6704.7939    8678.8458    7664.5061   -3970.2199   -6525.6823    79.331687 
   27200    667.53526   -117.14562   0.60399993   -116.54162   -5707.1191    4.3046799    4.3046799    4.3046799   -5707.1191   -4747.7276   -1772.0612   -10601.569   -2956.7887    3819.0471    4450.6287    79.766875 
   27300    633.27752   -117.11335   0.57300281   -116.54035    2378.4944    4.2982541    4.2982541    4.2982541    2378.4944   -13934.523    917.35461    20152.651    7839.5808    3477.0144    6576.3505    79.410193 
   27400    595.90412   -117.08096   0.53918658   -116.54178   -8318.6514    4.2976917    4.2976917    4.2976917   -8318.6514    -11237.91   -18380.093    4662.0488    10133.036   -2265.8229   -12291.916    79.379025 
   27500    461.73197    -116.9614   0.41778479   -116.54362    -4307.063    4.3053803    4.3053803    4.3053803    -4307.063   -8077.8299   -3934.4852   -908.87398    2443.0054    8741.4104    -11907.03    79.805817 
   27600    748.56584   -117.21772   0.67731811    -116.5404    3975.4164    4.2945922    4.2945922    4.2945922    3975.4164   -8960.5961    11354.571    9532.2741   -4671.1655   -2689.0043    3278.6057    79.207404 
   27700    616.54218   -117.10011   0.55786032   -116.54225    4259.9948      4.29948      4.29948      4.29948    4259.9948    -3464.193    6455.4619    9788.7155    5636.0925    2524.7533     6846.937    79.478157 
   27800    434.94523   -116.93798   0.39354758   -116.54443    775.73696    4.3048552    4.3048552    4.3048552    775.73696   -13586.806    11537.262     4376.755    8841.4399    3810.3323    -5202.508    79.776619 
   27900    686.72693   -117.16239   0.62136496   -116.54103     4531.359    4.2942493    4.2942493    4.2942493     4531.359    3095.9748    8005.3073    2492.7949   -477.14138   -369.34757   -11893.255    79.188436 
   28000    571.73972   -117.05859   0.51732212   -116.54127    14656.084     4.301288     4.301288     4.301288    14656.084   -1050.9913    22628.531    22390.713    592.32692     5010.482    1436.2904    79.578466 
   28100    605.32688      -117.09   0.54771248   -116.54228   -7698.7336    4.3051693    4.3051693    4.3051693   -7698.7336   -17448.617    1901.4399   -7549.0238    6319.6268    -3309.392    4404.9708    79.794085 
   28200    437.26244   -116.93922   0.39564425   -116.54357      6485.49    4.2905009    4.2905009    4.2905009      6485.49   -825.67474    3398.7269    16883.418    4227.5495     1148.599   -3067.2254    78.981247 
   28300    634.66175   -117.11768   0.57425529   -116.54343   -2911.0401    4.3043298    4.3043298    4.3043298   -2911.0401   -1726.1275   -3778.1144   -3228.8784   -1198.5402    1884.5181   -9002.5031    79.747418 
   28400    662.80165   -117.14189   0.59971686   -116.54217   -8719.2603    4.3034515    4.3034515    4.3034515   -8719.2603   -22290.551   -10773.177    6905.9471    4583.9162   -1876.7733   -4250.0908    79.698609 
   28500    367.33934    -116.8759   0.33237635   -116.54352      5899.67    4.2895492    4.2895492    4.2895492      5899.67    1619.7236   -2674.0923    18753.379    12273.949    3633.4899   -2915.4598    78.928702 
   28600    513.36562   -117.00862     0.464504   -116.54412   -14660.461    4.3108468    4.3108468    4.3108468   -14660.461   -11077.276   -14391.263   -18512.845   -1848.5323   -3268.5288   -5350.4999    80.110191 
   28700    565.23914   -117.05269   0.51144025   -116.54125    8642.7283    4.2962472    4.2962472    4.2962472    8642.7283   -9080.3098    15675.131    19333.364   -3066.6181    1906.8423    695.39056    79.299016 
   28800     569.8603   -117.05637   0.51562158   -116.54075    2747.6663    4.2923725    4.2923725    4.2923725    2747.6663    3360.6768    1816.5761     3065.746    7530.2906   -820.77878   -2734.5793    79.084653 
   28900    326.19503   -116.83853   0.29514812   -116.54338   -6532.2484    4.3122921    4.3122921    4.3122921   -6532.2484   -25351.631     6581.706   -826.82056    5190.7334    165.32423   -8058.7441    80.190792 
   29000     593.9579   -117.07798   0.53742559   -116.54055    8859.4859    4.2907727    4.2907727    4.2907727    8859.4859    4688.8776    15613.852    6275.7282    285.56303    3848.4089   -2511.4029     78.99626 
   29100    494.42562   -116.98926   0.44736669    -116.5419    13866.383    4.2946337    4.2946337    4.2946337    13866.383   -5652.2704     29171.22      18080.2   -332.66109   -5209.5669    1960.6688    79.209701 
   29200    419.91564   -116.92213   0.37994849   -116.54218   -15421.456    4.3128897    4.3128897    4.3128897   -15421.456   -29788.904   -2601.1045   -13874.359    8017.0085    664.91737   -1064.2529    80.224136 
   29300    399.23095   -116.90262   0.36123255   -116.54139    3084.8443    4.2883398    4.2883398    4.2883398    3084.8443    1092.5921    2379.4107      5782.53   -1070.2185   -3972.7289   -13814.777    78.861963 
   29400    496.78493   -116.99238   0.44950144   -116.54288    1948.4138    4.2977091    4.2977091    4.2977091    1948.4138   -5016.5743    9403.7079    1458.1078   -1737.3374   -2107.6365   -4605.5238     79.37999 
   29500    545.69964   -117.03463    0.4937605   -116.54087   -21582.116    4.3107394    4.3107394    4.3107394   -21582.116    -22872.41   -24211.185   -17662.755    6033.2959    4894.5151    7163.1021    80.104206 
   29600    182.34697   -116.70699   0.16499137     -116.542    7497.4028      4.28741      4.28741      4.28741    7497.4028    285.21471    367.33294    21839.661    4756.4347   -5671.4006    -2501.142    78.810673 
   29700      491.984    -116.9884   0.44515746   -116.54324   -10305.323    4.3027896    4.3027896    4.3027896   -10305.323   -7478.7177   -11932.666   -11504.585    1219.0024   -308.70675   -10785.201     79.66184 
   29800    437.08655   -116.93614    0.3954851   -116.54065   -3245.6963    4.3063566    4.3063566    4.3063566   -3245.6963   -14123.126   -3821.6869    8207.7242    -2559.351    407.40093   -6071.8236    79.860122 
   29900     438.9743   -116.93596   0.39719317   -116.53876    -1235.515    4.2886228    4.2886228    4.2886228    -1235.515   -2784.9306   -1047.4834    125.86896     4878.872   -1482.2911    4938.2602    78.877573 
   30000      274.143   -116.79239   0.24805035   -116.54434   -2210.5289    4.3044015    4.3044015    4.3044015   -2210.5289   -16375.065    5684.1802    4059.2985    1966.0799    2782.4486   -4415.1458    79.751401 
   30100    440.96075   -116.94092   0.39899056   -116.54193     997.2889    4.3016644    4.3016644    4.3016644     997.2889   -4249.8909    4453.6045    2788.1531    -2139.645   -3257.4451   -5163.1094    79.599358 
   30200     447.0142   -116.94491   0.40446784   -116.54044     5254.563    4.2896842    4.2896842    4.2896842     5254.563   -108.89805    18235.984   -2363.3968    2940.3388    9222.0271    695.98359    78.936154 
   30300    307.34871   -116.82276   0.27809557   -116.54467   -4652.9762     4.305871     4.305871     4.305871   -4652.9762   -16504.761    6008.5519   -3462.7199    5370.3241   -94.547986   -1629.5493    79.833107 
   30400    397.65491   -116.90243   0.35980652   -116.54262   -4099.1584    4.3002572    4.3002572    4.3002572   -4099.1584    1267.2082   -8678.6825   -4886.0009    2034.6225   -1319.5824   -5502.3983    79.521267 
   30500    360.37454   -116.86725   0.32607446   -116.54117    6631.6623    4.2895001    4.2895001    4.2895001    6631.6623    2106.6536    16939.662    848.67177   -4138.3541    5365.0454   -4788.9428    78.925992 
   30600     492.9553    -116.9884   0.44603632   -116.54236   -19886.446    4.3090862    4.3090862    4.3090862   -19886.446   -17677.434   -15746.428   -26235.476    2008.5266    1288.9676    6367.8377    80.012079 
   30700    289.99669   -116.80498    0.2623951   -116.54259    306.31059      4.29885      4.29885      4.29885    306.31059   -7465.6389   -8439.1079    16823.679     1425.057    2245.8935   -3812.8437    79.443224 
   30800    451.06938   -116.94867   0.40813706   -116.54053     1130.884    4.2892906    4.2892906    4.2892906     1130.884    6370.6624    3220.6776   -6198.6881   -1535.8727   -3222.2167    -10189.92    78.914427 
   30900    384.42643   -116.88926   0.34783711   -116.54142   -10070.957    4.3109562    4.3109562    4.3109562   -10070.957   -19127.648   -9951.3055   -1133.9181    1863.8818    5411.6834   -777.82369    80.116292 
   31000    413.50695    -116.9143   0.37414978   -116.54015    5397.6034    4.2957262    4.2957262    4.2957262    5397.6034   -1024.2199    -1001.735    18218.765    1320.3689    3363.3695     4619.561    79.270168 
   31100    446.40119   -116.94459   0.40391318   -116.54068    8515.8853    4.2910737    4.2910737    4.2910737    8515.8853    6861.3116    3600.6689    15085.676    1833.1334   -3173.9573   -3731.3829    79.012885 
   31200    332.95652    -116.8429   0.30126606   -116.54164   -5444.2186      4.30996      4.30996      4.30996   -5444.2186   -10484.464   -8476.3759    2628.1844   -736.92179    6768.4467   -11013.746    80.060763 
   31300    506.00755   -116.99715   0.45784627   -116.53931   -431.48588     4.294325     4.294325     4.294325   -431.48588    3702.6708    5008.1236   -10005.252    -28.64193    2148.1442   -791.64498    79.192624 
   31400    417.33081   -116.91896   0.37760969   -116.54135    10408.267    4.2937928    4.2937928    4.2937928    10408.267   -6311.2063    14270.964    23265.044    2850.6336    3759.6906    2112.3716    79.163183 
   31500    444.80753   -116.94352    0.4024712   -116.54105   -11240.893     4.309161     4.309161     4.309161   -11240.893   -2737.0128   -9778.3437   -21207.323   -590.42829   -218.65415   -1047.1025    80.016245 
   31600    420.21768   -116.92111   0.38022179   -116.54089   -4236.2732    4.2937137    4.2937137    4.2937137   -4236.2732   -10217.093    15985.503    -18477.23    -3475.646    3103.7312   -2087.4498    79.158808 
   31700    440.11838    -116.9406   0.39822836   -116.54238    3015.6025    4.2945815    4.2945815    4.2945815    3015.6025    167.16432    16986.718   -8107.0743    490.59551    10936.844   -2500.3628    79.206816 
   31800    528.37832   -117.01888    0.4780878   -116.54079   -9532.1799    4.3079262    4.3079262    4.3079262   -9532.1799   -10562.807   -11729.561   -6304.1724    7018.2366   -6696.4349   -3459.2104    79.947477 
   31900    400.91086     -116.905   0.36275257   -116.54225    2658.1255    4.2919951    4.2919951    4.2919951    2658.1255    4086.7894    6438.7228   -2551.1357    3470.1908    10261.035   -5790.0138    79.063794 
   32000    444.32257    -116.9463    0.4020324   -116.54427   -817.12344    4.2970566    4.2970566    4.2970566   -817.12344    5516.0894    3113.4583   -11080.918   -1869.9501     6418.741    2097.5212    79.343841 
   32100     538.8892   -117.02903   0.48759827   -116.54143   -6921.3781    4.3074117    4.3074117    4.3074117   -6921.3781   -17560.595   -12422.355    9218.8161   -3908.4862   -626.80402    2175.6932    79.918836 
   32200    487.37885   -116.98123   0.44099062   -116.54024    5520.3836     4.292271     4.292271     4.292271    5520.3836    22598.466   -2029.5876   -4007.7275   -102.94298   -53.519169   -5618.4198    79.079044 
   32300    510.79702   -117.00371   0.46217988   -116.54153   -6003.1384    4.2980873    4.2980873    4.2980873   -6003.1384   -4486.9033   -6756.0504   -6766.4614    4203.3523     1584.927   -7187.4505    79.400952 
   32400    417.12381   -116.91902   0.37742239    -116.5416   -2599.6855    4.3069614    4.3069614    4.3069614   -2599.6855    6859.1551   -5373.7224   -9284.4894   -239.96573    5428.7828    1166.5358    79.893777 
   32500    567.91966   -117.05345   0.51386565   -116.53959    2311.3048    4.2931898    4.2931898    4.2931898    2311.3048    6077.7936   -49.927221    906.04806    2979.7486   -2896.7185    1302.6715    79.129837 
   32600    430.17576   -116.93124   0.38923207     -116.542    4088.0585    4.2970828    4.2970828    4.2970828    4088.0585    17461.013   -7403.6963    2206.8593    635.00649    2477.3412   -9506.0591    79.345294 
   32700    456.27929   -116.95452   0.41285109   -116.54167   -9520.2098    4.3075715    4.3075715    4.3075715   -9520.2098   -3979.9096   -6193.1998    -18387.52    572.85183    468.82247    -5274.074    79.927733 
   32800    478.75176   -116.97381   0.43318465   -116.54063    7647.7574     4.290721     4.290721     4.290721    7647.7574    12517.062    11028.419   -602.20861    2113.9742   -3077.4591    703.58381    78.993404 
   32900     534.3967   -117.02629   0.48353337   -116.54276   -3361.0516    4.2998565    4.2998565    4.2998565   -3361.0516    8440.1815    -5603.072   -12920.264   -852.11391    1163.9173   -5233.4085    79.499043 
   33000    519.66702   -117.01333   0.47020564   -116.54312   -11521.453    4.3040307    4.3040307    4.3040307   -11521.453   -584.23394   -13409.962   -20570.163   -2191.2414    3729.8814   -3640.8488    79.730792 
   33100    466.51043   -116.96429   0.42210844   -116.54218    5295.1267    4.2913334    4.2913334    4.2913334    5295.1267    9397.8394     17742.36   -11254.819    420.33967     7433.118    1164.6571    79.027233 
   33200    544.12928   -117.03523   0.49233961   -116.54289   -5151.9597    4.3028776    4.3028776    4.3028776   -5151.9597    -2234.096   -2923.1602   -10298.623    5466.7351   -5124.2391   -1010.1818    79.666728 
   33300    489.28415    -116.9861   0.44271458   -116.54338    765.80369    4.2991802    4.2991802    4.2991802    765.80369    10405.961   -7415.1801   -693.37001   -1007.7476    604.10884   -7329.7001    79.461537 
   33400    474.34742   -116.97313   0.42919951   -116.54393    5689.4051    4.2941326    4.2941326    4.2941326    5689.4051    14323.771    9461.8223   -6717.3782   -1869.4668    6697.8217   -3494.8675    79.181979 
   33500    536.09315   -117.02882   0.48506835   -116.54375   -1846.4363    4.3028743    4.3028743    4.3028743   -1846.4363   -5301.4579    1450.4722   -1688.3233    -2439.645    -3096.005    3084.8721    79.666542 
   33600    559.09082   -117.04812   0.50587712   -116.54224    1224.8173    4.2971294    4.2971294    4.2971294    1224.8173    898.67693     4828.839    -2053.064    3657.1168   -5167.5573   -2960.5021    79.347872 
   33700    481.26151   -116.97847   0.43545553   -116.54301    4409.4172    4.2953595    4.2953595    4.2953595    4409.4172    22506.846   -814.38333   -8464.2116    5070.7054    1463.0735   -8925.5461    79.249867 
[...]
   91300     678.4252   -117.15498   0.61385338   -116.54112    2415.5445    4.2923148    4.2923148    4.2923148    2415.5445    -3690.659    7252.9723    3684.3201    667.03647   -2584.0564    1981.8827    79.081464 
   91400    333.22245   -116.84698   0.30150667   -116.54547   -10019.781    4.2984601    4.2984601    4.2984601   -10019.781   -5646.9984   -5368.5083   -19043.837   -1338.9275    4639.1534   -10438.711    79.421614 
   91500    295.72034   -116.81391   0.26757397   -116.54634   -776.59908    4.2903591    4.2903591    4.2903591   -776.59908     215.4584    10461.434   -13006.689    472.38593    2796.8671    815.38204    78.973417 
   91600    552.43263   -117.04196   0.49985265    -116.5421    1267.0441    4.2953767    4.2953767    4.2953767    1267.0441   -7708.2917    8412.9418    3096.4823    1767.9582   -1870.4393    3812.0092    79.250822 
   91700    482.27216   -116.97841   0.43636998   -116.54204   -3789.0541    4.2954648    4.2954648    4.2954648   -3789.0541    -10550.47     3011.264   -3827.9564    -1471.979    1530.4751   -6791.5252    79.255696 
   91800    221.34867   -116.74614   0.20028093   -116.54586   -6840.0521     4.292323     4.292323     4.292323   -6840.0521    1845.9142   -1876.8516   -20489.219    317.81256    680.58695   -7585.8312    79.081919 
   91900    310.87249   -116.82675   0.28128396   -116.54546   -1928.2943    4.2947501    4.2947501    4.2947501   -1928.2943    -4137.668    7310.5089   -8957.7238    -1769.701    892.55756    3053.6361    79.216145 
   92000    611.85648   -117.09458    0.5536206   -116.54096   -4683.8117    4.2942156    4.2942156    4.2942156   -4683.8117   -14041.907    1917.1495   -1926.6781    -746.2813   -1677.0808    6484.5829    79.186572 
   92100    348.34013   -116.85942   0.31518547   -116.54423   -4949.7006    4.2939129    4.2939129    4.2939129   -4949.7006   -5818.8312    1945.4567   -10975.727    1073.6825    1212.5319   -6119.3841    79.169827 
   92200    204.51029   -116.73159   0.18504521   -116.54654   -639.19059    4.2926715    4.2926715    4.2926715   -639.19059   -2592.3414    4045.4397     -3370.67    -701.9638    5735.4792   -3485.1837    79.101182 
   92300    395.21985   -116.90171   0.35760323   -116.54411    2009.8151    4.2961385    4.2961385    4.2961385    2009.8151    -12369.16    17922.975    475.63048    2760.4937    153.07995    1998.7647    79.292995 
   92400    518.61933   -117.01084   0.46925767   -116.54158    4651.7707    4.2904863    4.2904863    4.2904863    4651.7707   -11273.063     15940.98    9287.3948   -1761.9009   -2210.4095   -2116.0202    78.980443 
   92500    293.89845   -116.81158   0.26592549   -116.54565   -6338.0225    4.2968928    4.2968928    4.2968928   -6338.0225   -13264.503    4283.3011   -10032.865   -2642.9829    2000.9649    -6244.155    79.334771 
   92600    233.85507   -116.75681   0.21159698   -116.54521     551.2983    4.2939409    4.2939409    4.2939409     551.2983   -4836.4125    20318.811   -13828.504   -170.33133    5785.0991   -1522.5153    79.171374 
   92700    582.20898   -117.06828   0.52679492   -116.54149   -456.29582    4.2898255    4.2898255    4.2898255   -456.29582   -8275.2186    6090.0055    816.32571   -10.803396   -196.80062    8324.4694    78.943954 
   92800    427.83811   -116.93018   0.38711692   -116.54306   -7380.8199    4.2997821    4.2997821    4.2997821   -7380.8199   -20588.792    7995.7188   -9549.3866    3162.3992   -2184.8518   -3642.0221    79.494914 
   92900    232.79991   -116.75619   0.21064225   -116.54555   -2868.9118    4.2929225    4.2929225    4.2929225   -2868.9118   -6528.4568    12132.392   -14210.671   -1202.4642    4941.5483   -8371.0849    79.115055 
   93000    358.66067   -116.86863   0.32452371   -116.54411    1687.6246    4.2912542    4.2912542    4.2912542    1687.6246   -898.62525    7653.9685   -1692.4695   -659.55155    4806.0161   -87.354405    79.022858 
   93100    570.99053   -117.05744   0.51664423   -116.54079   -3359.6283    4.2968578    4.2968578    4.2968578   -3359.6283   -8686.9323     3671.898   -5063.8505    879.94737   -2066.1004     3749.956    79.332828 
   93200    441.78013   -116.94376   0.39973195   -116.54403    -9274.929    4.2954028    4.2954028    4.2954028    -9274.929    -18619.47    7739.2518   -16944.568   -2638.6074   -2461.8373   -2193.9556    79.252263 
   93300    275.96499   -116.79555   0.24969893   -116.54585    3227.1613    4.2895004    4.2895004    4.2895004    3227.1613    6066.4356    10564.733    -6949.685     802.3838    3029.4006   -7296.9303    78.926008 
   93400    598.95875   -117.08486   0.54195046   -116.54291   -6457.8056    4.2975316    4.2975316    4.2975316   -6457.8056   -7810.9831   -1598.1635   -9964.2702   -1732.0735    946.83939    2324.5856    79.370155 
   93500    564.15638   -117.05309   0.51046055   -116.54263    974.25413    4.2940247    4.2940247    4.2940247    974.25413   -14282.145    17525.753   -320.84616    315.77002   -7208.5486    2176.6518    79.176013 
   93600    417.39321   -116.92261   0.37766615   -116.54495    755.36222    4.2907625    4.2907625    4.2907625    755.36222   -3973.5148    13107.603   -6868.0015    1077.9637   -2692.1084   -5035.0313    78.995698 
   93700    394.74575   -116.90224   0.35717425   -116.54507   -1234.5555     4.298473     4.298473     4.298473   -1234.5555    -4424.814    9582.8367   -8861.6893    109.92136    7368.2583   -7644.2765    79.422327 
   93800    654.74198   -117.13393    0.5924243   -116.54151    4339.3226    4.2906937    4.2906937    4.2906937    4339.3226    241.24517    13329.948   -553.22591    4049.1789   -1051.9863   -2210.2772    78.991897 
   93900    613.41521   -117.09795   0.55503098   -116.54292   -2890.4236    4.2942499    4.2942499    4.2942499   -2890.4236   -10220.222    11955.871    -10406.92   -2908.0391    -11631.24    3773.3577    79.188468 
   94000    406.97056   -116.91303   0.36823552   -116.54479   -1802.8531    4.2974694    4.2974694    4.2974694   -1802.8531   -2962.1078    11321.662   -13768.113   -3147.1407    2431.0023   -7727.1894    79.366711 
   94100    612.68337   -117.09677   0.55436879    -116.5424   -377.11371    4.2922359    4.2922359    4.2922359   -377.11371   -717.83905    4822.0292   -5235.5313    -1366.907     8165.771   -1558.3983    79.077104 
   94200    665.82046   -117.14363   0.60244835   -116.54118    6770.0761    4.2915193    4.2915193    4.2915193    6770.0761   -1149.9076    17949.326    3510.8102    1732.8142   -6443.0847    2131.8225    79.037505 
   94300    560.23799   -117.05078   0.50691511   -116.54387   -3380.4704    4.2988722    4.2988722    4.2988722   -3380.4704   -6739.5653    7327.7958   -10729.642    5105.0284   -9284.1213   -3127.3059     79.44446 
   94400     460.2332   -116.96093   0.41642867    -116.5445    2511.1235    4.2929903    4.2929903    4.2929903    2511.1235   -372.63961    9902.6763   -1996.6661   -2141.1776    7128.2416   -6534.3511    79.118804 
   94500    663.16592   -117.14211   0.60004646   -116.54206      9154.33    4.2884049    4.2884049    4.2884049      9154.33    17156.803    6587.3611    3718.8253   -1482.4551    7537.3553   -7139.6117    78.865552 
   94600    642.07572   -117.12309    0.5809636   -116.54212   -3063.0068    4.3014535    4.3014535    4.3014535   -3063.0068    -1453.501    2215.8211   -9951.3405   0.79237889   -12025.116    5699.8131    79.587652 
   94700     519.5007   -117.01303   0.47005515   -116.54298   -843.01408    4.2909006    4.2909006    4.2909006   -843.01408   -1817.1771    5601.1728   -6313.0379   -431.93408    -9171.025   -2407.7882    79.003323 
   94800    567.27092   -117.05728   0.51327865     -116.544   -2985.1824    4.2919809    4.2919809    4.2919809   -2985.1824    5497.9957   -4802.9329   -9650.6099   -511.29916    7234.1069   -8022.6352    79.063012 
   94900    645.31888   -117.12595   0.58389808   -116.54206    -3208.872    4.2985469    4.2985469    4.2985469    -3208.872   -1169.8672    -2191.502   -6265.2469   -455.37234    1357.4218   -2173.1712    79.426426 
   95000    611.23209   -117.09475   0.55305564    -116.5417   -2073.5904    4.2917837    4.2917837    4.2917837   -2073.5904   -7774.3681    7330.7623   -5777.1654    3595.2682   -13608.421   -1278.4187    79.052113 
   95100    436.75763   -116.93938   0.39518748   -116.54419   -3890.7927     4.294845     4.294845     4.294845   -3890.7927    955.40136   -784.02674   -11843.753      1602.06   -1770.8159   -3861.7108    79.221397 
   95200    547.79664    -117.0384   0.49565792   -116.54275    -1647.583    4.2960273    4.2960273    4.2960273    -1647.583    8421.4463   -8097.4817   -5266.7137    952.59957    11542.465   -9957.5512    79.286837 
   95300    565.59022   -117.05402   0.51175792   -116.54226      5906.34    4.2926911    4.2926911    4.2926911      5906.34    2588.6954     12359.15    2771.1747    2184.9534   -8621.9551    802.24895    79.102265 
   95400    547.89499   -117.03878    0.4957469   -116.54303    1338.7791    4.2927882    4.2927882    4.2927882    1338.7791    1632.5665    1076.2421    1307.5287   -1170.1815   -12212.689     1686.989     79.10763 
   95500    472.30763   -116.97065   0.42735387   -116.54329   -4259.1338    4.2990164    4.2990164    4.2990164   -4259.1338    -7399.948     -11549.9    6172.4461   -896.83399    5993.2301   -6335.1704    79.452451 
   95600    539.01282   -117.03035   0.48771013   -116.54264     6510.536    4.2893262    4.2893262    4.2893262     6510.536    11598.376    1095.5395    6837.6924   -96.447534    8040.3442   -1442.4281     78.91639 
   95700    537.36793   -117.02856    0.4862218   -116.54234    4981.7409    4.2943867    4.2943867    4.2943867    4981.7409    7554.6826    89.164829    7301.3752    1517.4633   -7909.7328    856.68489    79.196039 
   95800    496.09649   -116.99105   0.44887853   -116.54217   -5449.2887     4.299317     4.299317     4.299317   -5449.2887   -5793.1381   -12944.872    2390.1437    2538.3042    -5767.723   -973.69111    79.469119 
   95900    411.12871   -116.91461   0.37199789   -116.54262    3154.6474    4.2881816    4.2881816    4.2881816    3154.6474    16245.899   -3104.3677   -3677.5893   -723.01477    10968.399   -9333.4755    78.853236 
   96000    426.77505   -116.92903   0.38615503   -116.54287   -1970.1767    4.2970318    4.2970318    4.2970318   -1970.1767    3391.1968   -1498.9977   -7802.7293     1963.771    1586.4201   -4288.0655    79.342466 
   96100    530.78737   -117.02129   0.48026757   -116.54102   -5134.6129     4.296827     4.296827     4.296827   -5134.6129   -11135.396   -1396.1197   -2872.3226    1385.6937   -14257.565    6157.5211    79.331121 
   96200    456.47581    -116.9544    0.4130289   -116.54138   -2907.8256    4.2902291    4.2902291    4.2902291   -2907.8256   -4312.9252    -3436.425    -974.1267   -2037.1287    1399.7391   -3879.5805    78.966237 
   96300    371.06908   -116.87979    0.3357511   -116.54404   -4548.0928    4.2959911    4.2959911    4.2959911   -4548.0928    8095.5826   -16053.287   -5686.5744    -1555.319    12459.732   -5546.4032    79.284835 
   96400    417.04213   -116.92067   0.37734848   -116.54332   -2180.6947    4.2982331    4.2982331    4.2982331   -2180.6947   -2358.3469   -10207.259    6023.5219     366.1665   -1492.3971    636.54596    79.409031 
   96500    561.25136   -117.04814   0.50783203   -116.54031    2932.5016    4.2893334    4.2893334    4.2893334    2932.5016    7355.6168   -6343.6919    7785.5799     2794.915   -9817.9215     942.8682     78.91679 
   96600    411.73224   -116.91563   0.37254398   -116.54308   -1892.8526    4.2971832    4.2971832    4.2971832   -1892.8526    2569.4994   -16771.431    8523.3736    729.77496    6192.9091   -6229.9827    79.350856 
   96700    328.92352   -116.84171   0.29761691    -116.5441   -4718.4917    4.2979779    4.2979779    4.2979779   -4718.4917   -1855.0436   -11774.833   -525.59813    114.43952    9602.3515   -6137.7643    79.394887 
   96800     467.8029   -116.96541   0.42327789   -116.54213    7597.4449    4.2870465    4.2870465    4.2870465    7597.4449    6301.9495    8834.7335    7655.6516    935.74832   -6913.5241    6728.5285    78.790631 
   96900    575.13463   -117.06188    0.5203939   -116.54148   -4737.0946    4.3008304    4.3008304    4.3008304   -4737.0946   -15823.549   -8802.5522    10414.817   -1206.4764   -2869.7963    866.84157    79.553071 
   97000    350.00258   -116.86097   0.31668969   -116.54428   -1027.0303    4.2944472    4.2944472    4.2944472   -1027.0303    4366.3518   -4166.1712   -3281.2714   -2076.4076    8417.5678   -3707.1767    79.199383 
   97100    305.51862   -116.82104   0.27643967    -116.5446   -200.09658    4.2909034    4.2909034    4.2909034   -200.09658    10469.708   -7368.9228   -3701.0754   -2405.9837    8288.2642    474.01359    79.003477 
   97200    583.55938   -117.06924   0.52801679   -116.54122   -7954.4772    4.3009497    4.3009497    4.3009497   -7954.4772   -5046.4465   -18936.636    119.65052    1486.3192   -2074.3911    3108.6971    79.559694 
   97300    558.92976   -117.04684   0.50573139   -116.54111    1555.9816     4.292693     4.292693     4.292693    1555.9816    5946.6812   -5782.2364    4503.4999    395.42195    320.85318   -2010.1504     79.10237 
   97400    327.36068   -116.84135   0.29620282   -116.54515   -4712.2378    4.2932817    4.2932817    4.2932817   -4712.2378    1026.0561   -5527.4644   -9635.3052    961.79678    10770.055   -7854.4107    79.134918 
   97500    360.19843    -116.8711    0.3259151   -116.54519     -3384.56    4.2990142    4.2990142    4.2990142     -3384.56   -10895.277   -4309.5858    5051.1825      3093.81   -1989.6614    1066.7855    79.452332 
   97600      690.976   -117.16496    0.6252096   -116.53975     2037.322    4.2949516    4.2949516    4.2949516     2037.322    -9320.003    4770.3442    10661.625    1120.3095   -761.21099    3807.4982    79.227293 
   97700    488.68885   -116.98541   0.44217594   -116.54324    9396.6034    4.2905545    4.2905545    4.2905545    9396.6034     5465.675    8626.7861    14097.349   -3541.5319      5089.45   -1163.0743    78.984211 
   97800    282.58628     -116.803   0.25569001   -116.54731   -5400.9465    4.3002723    4.3002723    4.3002723   -5400.9465   -3427.2094   -14093.524    1317.8936   -5819.3793    8542.5412   -3482.3446    79.522105 
   97900    509.03695   -117.00482   0.46058733   -116.54423    1052.1778    4.2944398    4.2944398    4.2944398    1052.1778    16461.989   -11542.554   -1762.9018   -1574.2585     1452.402    2681.6944    79.198973 
   98000    746.59199     -117.216   0.67553212   -116.54047    7598.8407    4.2908958    4.2908958    4.2908958    7598.8407    11167.694   -1740.5358    13369.363     2802.093   -1979.3867    1929.2203    79.003059 
   98100    489.31202    -116.9871    0.4427398   -116.54436   -10337.843    4.3023587    4.3023587    4.3023587   -10337.843    663.32385   -17565.558   -14111.294    1289.9388    6087.0797    -4757.085    79.637908 
   98200    384.15369   -116.89246   0.34759033   -116.54487   -2966.3827    4.2907578    4.2907578    4.2907578   -2966.3827    6544.4068   -4700.3206   -10743.234   -358.87855    3499.5388   -1833.7626    78.995437 
   98300    725.94648   -117.19931   0.65685163   -116.54246   -1535.7116    4.2954137    4.2954137    4.2954137   -1535.7116   -1491.9025   -3225.3469    110.11451   -533.87512   -502.93209    1393.2244    79.252871 
   98400    673.72252   -117.15131    0.6095983   -116.54171    3444.3901    4.2991699    4.2991699    4.2991699    3444.3901     8776.469    780.01941    776.68184   -615.79748    126.54466    1458.5143     79.46096 
   98500    388.62452   -116.89695   0.35163564   -116.54532    3770.0339    4.2909795    4.2909795    4.2909795    3770.0339    17330.024    1153.7198   -7173.6425   -2849.5065    9424.2907   -1417.6055    79.007681 
   98600    440.70797   -116.94427   0.39876183   -116.54551    904.38774    4.2968205    4.2968205    4.2968205    904.38774    18760.695   -11325.275   -4722.2574   -2898.3036     4467.363   -2016.4007    79.330763 
   98700     780.7217   -117.24679    0.7064134   -116.54037    3554.8865     4.296843     4.296843     4.296843    3554.8865     10329.88    -1357.365    1692.1446   -4269.9335    -5441.642    979.85098    79.332008 
   98800    654.10021   -117.13501   0.59184362   -116.54316   -2343.9471     4.292514     4.292514     4.292514   -2343.9471    -1475.625    401.48011   -5957.6965   -227.93408   -2596.9625   -2471.6241    79.092477 
   98900      510.109   -117.00722   0.46155734   -116.54566   -6148.0061    4.2930081    4.2930081    4.2930081   -6148.0061   -1679.2533   -10355.972   -6408.7933     1731.224    6989.5601   -4991.2129    79.119788 
   99000    641.77732   -117.12553   0.58069361   -116.54483   -3135.8213     4.300638     4.300638     4.300638   -3135.8213      15277.5   -14310.487   -10374.477    1674.1853    2780.6679    -1379.248    79.542394 
   99100    776.67171   -117.24487   0.70274889   -116.54212    8629.8341    4.2887811    4.2887811    4.2887811    8629.8341     14550.09    5495.3461    5844.0657   -931.03007   -9045.2248     251.4849    78.886312 
   99200    493.46483    -116.9926   0.44649734    -116.5461    2740.2402    4.2962831    4.2962831    4.2962831    2740.2402    24121.949   -6077.8219   -9823.4064   -5898.2173    2214.8163   -3843.5738       79.301 
   99300    560.08409   -117.05135   0.50677585   -116.54457   -4620.6127    4.2988126    4.2988126    4.2988126   -4620.6127    6845.8134   -9368.1549   -11339.497   -1154.0597    9978.6947   -2908.9966    79.441151 
   99400    768.79843   -117.23598   0.69562498   -116.54035    12242.641    4.2875068    4.2875068    4.2875068    12242.641    17480.646    13267.537    5979.7391   -64.996849   -793.02207    2251.3323    78.816014 
   99500    712.47348   -117.18595   0.64466097   -116.54129   -6150.2664    4.3024427    4.3024427    4.3024427   -6150.2664    193.03787   -4641.2487   -14002.588    1034.4592   -11507.789     1725.999    79.642575 
   99600    487.92713   -116.98519   0.44148672    -116.5437    5630.2414    4.2914094    4.2914094    4.2914094    5630.2414    20629.647    2022.4551   -5761.3781    434.22597    2083.7304   -4807.4528    79.031429 
   99700    614.48869   -117.09884   0.55600228   -116.54284    1989.9788    4.2948484    4.2948484    4.2948484    1989.9788    16479.117   -1500.9741   -9008.2065    691.49606    12749.949   -4811.6334    79.221586 
   99800    748.79587   -117.21775   0.67752623   -116.54023    1288.0843    4.2959768    4.2959768    4.2959768    1288.0843    8749.1625   -2792.5768   -2092.3327    5526.3916   -5923.5698   -160.33943     79.28404 
   99900    588.69948   -117.07568   0.53266766   -116.54301   -5041.0488    4.2946594    4.2946594    4.2946594   -5041.0488   -5066.4694    -2037.119   -8019.5579   -236.99129   -6591.3926   -1718.3202    79.211127 
  100000    536.49105   -117.03003   0.48542838    -116.5446   -3976.0541    4.2932653    4.2932653    4.2932653   -3976.0541    3915.8311   -6895.0991   -8948.8945   -3937.7542    5947.5064   -3798.2297    79.134011 
Loop time of 22.307 on 1 procs for 100000 steps with 8 atoms

Pair  time (%) = 7.20874 (32.3161)
Kspce time (%) = 5.32082 (23.8527)
Neigh time (%) = 0 (0)
Comm  time (%) = 1.07607 (4.82392)
Outpt time (%) = 0.0272334 (0.122085)
Other time (%) = 8.6741 (38.8852)

Nlocal:    8 ave 8 max 8 min
Histogram: 1 0 0 0 0 0 0 0 0 0
Nghost:    2189 ave 2189 max 2189 min
Histogram: 1 0 0 0 0 0 0 0 0 0
Neighs:    2344 ave 2344 max 2344 min
Histogram: 1 0 0 0 0 0 0 0 0 0

Total # of neighbors = 2344
Ave neighs/atom = 293
Neighbor list builds = 0
Dangerous builds = 0
unfix 20
unfix 21
print "seeds:7071916"
seeds:7071916
