# ['Ni']

28 atoms
1 atom types

    0.0000     2.4840 xlo xhi
    0.0000     4.3024 ylo yhi
    0.0000    28.3941 zlo zhi

    0.0000     0.0000     0.0000 xy xz yz

Atoms

1 1     0.0000     0.0000     0.0000
2 1     1.2420     2.1512     0.0000
3 1     1.2420     0.7171     2.0282
4 1     0.0000     2.8682     2.0282
5 1     0.0000     1.4341     4.0563
6 1     1.2420     3.5853     4.0563
7 1     0.0000     0.0000     6.0845
8 1     1.2420     2.1512     6.0845
9 1     1.2420     0.7171     8.1126
10 1     0.0000     2.8682     8.1126
11 1     0.0000     1.4341    10.1408
12 1     1.2420     3.5853    10.1408
13 1     0.0000     0.0000    12.1689
14 1     1.2420     2.1512    12.1689
15 1     0.0000     1.4341    14.1971
16 1     1.2420     3.5853    14.1971
17 1     0.0000     0.0000    16.2252
18 1     1.2420     2.1512    16.2252
19 1     1.2420     0.7171    18.2534
20 1     0.0000     2.8682    18.2534
21 1     0.0000     1.4341    20.2815
22 1     1.2420     3.5853    20.2815
23 1     0.0000     0.0000    22.3097
24 1     1.2420     2.1512    22.3097
25 1     1.2420     0.7171    24.3378
26 1     0.0000     2.8682    24.3378
27 1     0.0000     1.4341    26.3660
28 1     1.2420     3.5853    26.3660
