# ['Ni']

107 atoms
1 atom types

    0.0000     9.9695 xlo xhi
    0.0000     9.9695 ylo yhi
    0.0000     9.9695 zlo zhi

    0.0000    -0.0000    -0.0000 xy xz yz

Atoms

1 1     1.6616     1.6616     0.0000
2 1     1.6616     0.0000     1.6616
3 1     0.0000     1.6616     1.6616
4 1     0.0000     0.0000     3.3232
5 1     1.6616     1.6616     3.3232
6 1     1.6616     0.0000     4.9848
7 1     0.0000     1.6616     4.9848
8 1     0.0000     0.0000     6.6464
9 1     1.6616     1.6616     6.6464
10 1     1.6616     0.0000     8.3079
11 1     0.0000     1.6616     8.3079
12 1     0.0000     3.3232     0.0000
13 1     1.6616     4.9848     0.0000
14 1     1.6616     3.3232     1.6616
15 1     0.0000     4.9848     1.6616
16 1     0.0000     3.3232     3.3232
17 1     1.6616     4.9848     3.3232
18 1     1.6616     3.3232     4.9848
19 1     0.0000     4.9848     4.9848
20 1     0.0000     3.3232     6.6464
21 1     1.6616     4.9848     6.6464
22 1     1.6616     3.3232     8.3079
23 1     0.0000     4.9848     8.3079
24 1     0.0000     6.6464     0.0000
25 1     1.6616     8.3079     0.0000
26 1     1.6616     6.6464     1.6616
27 1     0.0000     8.3079     1.6616
28 1     0.0000     6.6464     3.3232
29 1     1.6616     8.3079     3.3232
30 1     1.6616     6.6464     4.9848
31 1     0.0000     8.3079     4.9848
32 1     0.0000     6.6464     6.6464
33 1     1.6616     8.3079     6.6464
34 1     1.6616     6.6464     8.3079
35 1     0.0000     8.3079     8.3079
36 1     3.3232     0.0000     0.0000
37 1     4.9848     1.6616     0.0000
38 1     4.9848     0.0000     1.6616
39 1     3.3232     1.6616     1.6616
40 1     3.3232     0.0000     3.3232
41 1     4.9848     1.6616     3.3232
42 1     4.9848     0.0000     4.9848
43 1     3.3232     1.6616     4.9848
44 1     3.3232     0.0000     6.6464
45 1     4.9848     1.6616     6.6464
46 1     4.9848     0.0000     8.3079
47 1     3.3232     1.6616     8.3079
48 1     3.3232     3.3232     0.0000
49 1     4.9848     4.9848     0.0000
50 1     4.9848     3.3232     1.6616
51 1     3.3232     4.9848     1.6616
52 1     3.3232     3.3232     3.3232
53 1     4.9848     4.9848     3.3232
54 1     4.9848     3.3232     4.9848
55 1     3.3232     4.9848     4.9848
56 1     3.3232     3.3232     6.6464
57 1     4.9848     4.9848     6.6464
58 1     4.9848     3.3232     8.3079
59 1     3.3232     4.9848     8.3079
60 1     3.3232     6.6464     0.0000
61 1     4.9848     8.3079     0.0000
62 1     4.9848     6.6464     1.6616
63 1     3.3232     8.3079     1.6616
64 1     3.3232     6.6464     3.3232
65 1     4.9848     8.3079     3.3232
66 1     4.9848     6.6464     4.9848
67 1     3.3232     8.3079     4.9848
68 1     3.3232     6.6464     6.6464
69 1     4.9848     8.3079     6.6464
70 1     4.9848     6.6464     8.3079
71 1     3.3232     8.3079     8.3079
72 1     6.6464     0.0000     0.0000
73 1     8.3079     1.6616     0.0000
74 1     8.3079     0.0000     1.6616
75 1     6.6464     1.6616     1.6616
76 1     6.6464     0.0000     3.3232
77 1     8.3079     1.6616     3.3232
78 1     8.3079     0.0000     4.9848
79 1     6.6464     1.6616     4.9848
80 1     6.6464     0.0000     6.6464
81 1     8.3079     1.6616     6.6464
82 1     8.3079     0.0000     8.3079
83 1     6.6464     1.6616     8.3079
84 1     6.6464     3.3232     0.0000
85 1     8.3079     4.9848     0.0000
86 1     8.3079     3.3232     1.6616
87 1     6.6464     4.9848     1.6616
88 1     6.6464     3.3232     3.3232
89 1     8.3079     4.9848     3.3232
90 1     8.3079     3.3232     4.9848
91 1     6.6464     4.9848     4.9848
92 1     6.6464     3.3232     6.6464
93 1     8.3079     4.9848     6.6464
94 1     8.3079     3.3232     8.3079
95 1     6.6464     4.9848     8.3079
96 1     6.6464     6.6464     0.0000
97 1     8.3079     8.3079     0.0000
98 1     8.3079     6.6464     1.6616
99 1     6.6464     8.3079     1.6616
100 1     6.6464     6.6464     3.3232
101 1     8.3079     8.3079     3.3232
102 1     8.3079     6.6464     4.9848
103 1     6.6464     8.3079     4.9848
104 1     6.6464     6.6464     6.6464
105 1     8.3079     8.3079     6.6464
106 1     8.3079     6.6464     8.3079
107 1     6.6464     8.3079     8.3079
