# ['Al']

10 atoms
1 atom types

    0.0000     3.7819 xlo xhi
    0.0000     2.7072 ylo yhi
    0.0000    27.0721 zlo zhi

    0.0000     0.0000     0.0000 xy xz yz

Atoms

1 1     0.0000     0.0000     0.0000
2 1     1.8909     1.3536     1.3536
3 1     0.0000     0.0000     2.7072
4 1     1.8909     1.3536     4.0608
5 1     0.0000     0.0000     5.4144
6 1     1.8909     1.3536     6.7680
7 1     0.0000     0.0000     8.1216
8 1     1.8909     1.3536     9.4752
9 1     0.0000     0.0000    10.8288
10 1     1.8909     1.3536    12.1824
