# ['Ni']

28 atoms
1 atom types

    0.0000     1.9651 xlo xhi
    0.0000     3.4037 ylo yhi
    0.0000    22.4633 zlo zhi

    0.0000     0.0000     0.0000 xy xz yz

Atoms

1 1     0.0000     0.0000     0.0000
2 1     0.9826     1.7018     0.0000
3 1     0.9826     0.5673     1.6045
4 1     0.0000     2.2691     1.6045
5 1     0.0000     1.1346     3.2090
6 1     0.9826     2.8364     3.2090
7 1     0.0000     0.0000     4.8136
8 1     0.9826     1.7018     4.8136
9 1     0.9826     0.5673     6.4181
10 1     0.0000     2.2691     6.4181
11 1     0.0000     1.1346     8.0226
12 1     0.9826     2.8364     8.0226
13 1     0.0000     0.0000     9.6271
14 1     0.9826     1.7018     9.6271
15 1     0.0000     1.1346    11.2316
16 1     0.9826     2.8364    11.2316
17 1     0.0000     0.0000    12.8362
18 1     0.9826     1.7018    12.8362
19 1     0.9826     0.5673    14.4407
20 1     0.0000     2.2691    14.4407
21 1     0.0000     1.1346    16.0452
22 1     0.9826     2.8364    16.0452
23 1     0.0000     0.0000    17.6497
24 1     0.9826     1.7018    17.6497
25 1     0.9826     0.5673    19.2542
26 1     0.0000     2.2691    19.2542
27 1     0.0000     1.1346    20.8587
28 1     0.9826     2.8364    20.8587
