LAMMPS (10 Feb 2015)
# ---- initialize simulations
clear
units metal
dimension 3
boundary p p p
atom_style charge
atom_modify map array
# ---- create atoms
read_data /Users/eugeneragasa/pyflamestk_git/pypospack/tests/tests_integration/workflow/WorkflowLammpsThermalExpansion/param_1256/MgO_NaCl_unit.npt.T2000/lammps.structure
  triclinic box = (0 0 0) to (4.2565 4.2565 4.2565) with tilt (0 0 0)
  1 by 1 by 1 MPI processor grid
  reading atoms ...
  8 atoms
# ---- define interatomic potential
include potential.mod
mass 1 24.305
mass 2 15.999

group Mg type 1
4 atoms in group Mg
group O type 2
4 atoms in group O

set group Mg charge 1.66039996869
  4 settings made for charge
set group O charge -1.66039996869
  4 settings made for charge

variable R_cut equal 10.0

pair_style buck/coul/long ${R_cut}
pair_style buck/coul/long 10
pair_coeff 1 1 0.0 0.5 0.0 ${R_cut}
pair_coeff 1 1 0.0 0.5 0.0 10
pair_coeff 1 2 1528.2261267 0.282600919639 0.0 ${R_cut}
pair_coeff 1 2 1528.2261267 0.282600919639 0.0 10
pair_coeff 2 2 6677.06285722 0.138925130231 8.13419383626 ${R_cut}
pair_coeff 2 2 6677.06285722 0.138925130231 8.13419383626 10

kspace_style pppm 1.0e-5

neighbor 1.0 bin
neigh_modify every 1 delay 0 check yes
# ---- define settings
compute eng all pe/atom
compute eatoms all reduce sum c_eng
# ---- run minimization
reset_timestep 0
fix 1 all box/relax iso 0.0 vmax 0.001
thermo 10
thermo_style custom step pe lx ly lz xy xz yz press pxx pyy pzz pxy pxz pyz c_eatoms
min_style cg
minimize 1e-25 1e-25 5000 10000
PPPM initialization ...
  G vector (1/distance) = 0.352851
  grid = 8 8 8
  stencil order = 5
  estimated absolute RMS force accuracy = 3.9608e-05
  estimated relative force accuracy = 2.75062e-06
  using double precision FFTs
  3d grid and FFT values/proc = 3375 512
Neighbor list info ...
  1 neighbor list requests
  update every 1 steps, delay 0 steps, check yes
  master list distance cutoff = 11
Memory usage per processor = 4.06549 Mbytes
Step PotEng Lx Ly Lz Xy Xz Yz Press Pxx Pyy Pzz Pxy Pxz Pyz eatoms 
       0   -110.92329       4.2565       4.2565       4.2565            0            0            0    120138.29    120138.29    120138.29    120138.29 1.5343687e-10 -1.0407196e-10 -1.3145771e-10   -110.92329 
      10   -111.05478     4.299065     4.299065     4.299065            0            0            0    61836.089    61836.089    61836.089    61836.089 1.0666232e-10 -5.0344756e-11 -1.3613158e-10   -111.05478 
      20   -111.10767      4.34163      4.34163      4.34163            0            0            0    10591.608    10591.608    10591.608    10591.608 -1.2465538e-10 -9.1160209e-12 2.8254225e-10   -111.10767 
      25   -111.10952     4.351169     4.351169     4.351169            0            0            0   -6.6622077   -6.6622077   -6.6622077   -6.6622077 -1.5540302e-10 -3.5403029e-11 3.0098099e-10   -111.10952 
Loop time of 0.0182259 on 1 procs for 25 steps with 8 atoms

Minimization stats:
  Stopping criterion = linesearch alpha is zero
  Energy initial, next-to-last, final = 
        -110.923293971     -111.109518965     -111.109518965
  Force two-norm initial, final = 17.348 0.0010058
  Force max component initial, final = 17.348 0.0010053
  Final line search alpha, max atom move = 0.00777135 7.8125e-06
  Iterations, force evaluations = 25 41

Pair  time (%) = 0.00476503 (26.1443)
Kspce time (%) = 0.00298214 (16.3621)
Neigh time (%) = 0 (0)
Comm  time (%) = 0.000542164 (2.97469)
Outpt time (%) = 4.69685e-05 (0.257702)
Other time (%) = 0.0098896 (54.2612)

Nlocal:    8 ave 8 max 8 min
Histogram: 1 0 0 0 0 0 0 0 0 0
Nghost:    2189 ave 2189 max 2189 min
Histogram: 1 0 0 0 0 0 0 0 0 0
Neighs:    2344 ave 2344 max 2344 min
Histogram: 1 0 0 0 0 0 0 0 0 0

Total # of neighbors = 2344
Ave neighs/atom = 293
Neighbor list builds = 0
Dangerous builds = 0
unfix 1
# ---- define output variables ----
variable natoms equal "count(all)"
variable tot_energy equal "c_eatoms"
variable length_x equal "lx"
variable length_y equal "ly"
variable length_z equal "lz"
variable tilt_xy equal "xy"
variable tilt_xz equal "xz"
variable tilt_yz equal "yz"
variable tot_press equal "press"
variable press_xx equal "pxx"
variable press_yy equal "pyy"
variable press_zz equal "pzz"
variable press_xy equal "pxy"
variable press_xz equal "pxz"
variable press_yz equal "pyz"

# ---- output ----
print "pypospack:output_section:begin"
pypospack:output_section:begin
print "tot_energy = ${tot_energy}"
tot_energy = -111.109518965105
print "num_atoms = ${natoms}"
num_atoms = 8
print "xx = ${length_x}"
xx = 4.35116899821938
print "yy = ${length_y}"
yy = 4.35116899821938
print "zz = ${length_z}"
zz = 4.35116899821938
print "xy = ${tilt_xy}"
xy = 0
print "xz = ${tilt_xz}"
xz = 0
print "yz = ${tilt_yz}"
yz = 0
print "tot_press = ${tot_press}"
tot_press = -6.66220766530753
print "pxx = ${press_xx}"
pxx = -6.66220766529406
print "pyy = ${press_yy}"
pyy = -6.66220766581444
print "pzz = ${press_zz}"
pzz = -6.6622076648141
print "pxy = ${press_xy}"
pxy = -1.55403020158447e-10
print "pxz = ${press_xz}"
pxz = -3.54030294322521e-11
print "pyz = ${press_yz}"
pyz = 3.00980987063428e-10
print "pypospack:output_section:done"
pypospack:output_section:done
print "pypospack:lammps_sim:done"
pypospack:lammps_sim:done
#------------------------------------------------------------------------------
# RUN THERMOSTAT
# running using an NPT Nose-Hoover style thermostat
#------------------------------------------------------------------------------
variable tempdamp equal 0.1
variable pressdamp equal 1.0
# set initial velocities
velocity all create 2000 1753698 mom yes dist gaussian loop all
# fix for Nose-Hoover style thermostat
fix 20 all npt temp 2000 2000 0.1 aniso 0.0 0.0 1.0 drag 1.0 couple xyz
variable boxx equal lx
variable boxy equal ly
variable boxz equal lz
variable boxp equal press
variable boxt equal temp
# calculate averages every 10000 steps
reset_timestep 0
fix 21 all ave/time 10 10 100 v_boxx v_boxy v_boxz v_boxp v_boxt file lattice.out
thermo_style custom step temp pe ke etotal press lx ly lz press pxx pyy pzz pxy pxz pyz vol
thermo_modify flush yes
thermo 100
run 100000
PPPM initialization ...
  G vector (1/distance) = 0.351894
  grid = 8 8 8
  stencil order = 5
  estimated absolute RMS force accuracy = 4.14019e-05
  estimated relative force accuracy = 2.8752e-06
  using double precision FFTs
  3d grid and FFT values/proc = 3375 512
Memory usage per processor = 3.06549 Mbytes
Step Temp PotEng KinEng TotEng Press Lx Ly Lz Press Pxx Pyy Pzz Pxy Pxz Pyz Volume 
       0         2000   -111.10953     1.809642   -109.29989    23454.715     4.351169     4.351169     4.351169    23454.715    18960.058    26015.941    25388.146    2231.8736   -3931.5525    10416.281    82.379254 
     100    699.63777   -109.69532   0.63304695   -109.06227    8560.4596    4.3791548    4.3791548    4.3791548    8560.4596    46473.198   -47315.469    26523.649    20000.007      1656.17   -20497.721    83.979037 
     200    1176.6863   -109.63229    1.0646904    -108.5676   -18355.225    4.4204497    4.4204497    4.4204497   -18355.225   -33249.589   -79984.551    58168.466    9444.9045    645.87282   -10011.361    86.377246 
     300    1781.8431   -109.74577    1.6122491   -108.13352    955.73583    4.4360686    4.4360686    4.4360686    955.73583    11700.561   -39929.779    31096.425     14609.44   -1410.8138    3090.9715    87.296085 
     400    1124.5019   -108.79425     1.017473   -107.77678   -2859.8056    4.4351546    4.4351546    4.4351546   -2859.8056    27353.745   -78873.575    42940.414    27041.882   -13110.391    -36030.76    87.242133 
     500    2648.4316   -109.90322    2.3963566   -107.50686   -3040.8277    4.4272643    4.4272643    4.4272643   -3040.8277   -11450.869   -18468.917    20797.303   -1473.5639    12714.917    3734.2643    86.777342 
     600    1372.2111   -108.65208    1.2416054   -107.41047   -36086.369    4.4353442    4.4353442    4.4353442   -36086.369     16921.54   -107758.87   -17421.775    50030.968    470.38355   -33373.098    87.253322 
     700    2924.1758   -110.00765    2.6458557    -107.3618   -23003.604    4.4399823    4.4399823    4.4399823   -23003.604   -31513.492   -22037.454   -15459.865   -1768.2921    10731.744    243.29218     87.52734 
     800    2373.9363    -109.5124    2.1479874   -107.36442   -7145.0815    4.4227163    4.4227163    4.4227163   -7145.0815    2329.9481   -21405.423   -2359.7695    30555.052    4863.5744   -16454.263    86.510187 
     900    1380.9544   -108.63989    1.2495166   -107.39038    19068.505    4.4248588    4.4248588    4.4248588    19068.505    61490.472   -6663.1759    2378.2205    31108.507    5930.4583   -13890.616    86.635969 
    1000    2731.5512   -109.83898     2.471565   -107.36741   -1800.8189    4.4353498    4.4353498    4.4353498   -1800.8189   -46083.776    7470.7056    33210.614   -6197.9149   -15129.415    25078.871    87.253656 
    1100    1498.9758   -108.74678    1.3563048   -107.39048   -3682.0581    4.4254857    4.4254857    4.4254857   -3682.0581    -42270.68    29674.622    1549.8838     32513.79   -704.62499   -55841.945    86.672802 
    1200    2857.7617   -109.96897    2.5857628   -107.38321    13166.105    4.4156961    4.4156961    4.4156961    13166.105   -3747.3941    786.54259    42459.167   -12867.469   -12767.521     11480.42    86.098884 
    1300    1159.5864   -108.46877    1.0492181   -107.41955     28833.46     4.419281     4.419281     4.419281     28833.46   -12917.528   -30736.116    130154.02    34560.291   -12445.757   -22677.484    86.308754 
    1400    2073.5339   -109.29806    1.8761771   -107.42189    25673.969      4.43524      4.43524      4.43524    25673.969   -24531.454     87922.36    13631.001   -7693.0074   -6327.5591   -10944.773    87.247173 
    1500    2073.2498    -109.2664      1.87592   -107.39048     7037.861    4.4386233    4.4386233    4.4386233     7037.861   -471.71195    -19580.75    41166.045    21596.084    12515.533    33561.206    87.446989 
    1600    1499.6513   -108.71718     1.356916   -107.36026    13386.512    4.4218793    4.4218793    4.4218793    13386.512    71290.804     -70362.4    39231.131    25422.012    2295.9169   -47666.424    86.461077 
    1700    2483.1263   -109.61584    2.2467848   -107.36906      7551.66     4.426112     4.426112     4.426112      7551.66     14157.78    12759.884    -4262.684   -3001.6209    7460.1409    15889.995    86.709603 
    1800    1579.5327   -108.81379    1.4291944    -107.3846    29047.965    4.4308894    4.4308894    4.4308894    29047.965    72414.951    -37174.84    51903.783    32781.275    7368.6571   -2303.9801     86.99068 
    1900     1706.166   -108.92959    1.5437748   -107.38582    12061.632    4.4482806    4.4482806    4.4482806    12061.632     61327.31   -3805.6912   -21336.722   -4673.8443   -8219.7486   -15455.074    88.019017 
    2000    2224.8682   -109.37836    2.0131075   -107.36525   -42083.954    4.4664703    4.4664703    4.4664703   -42083.954   -36552.216    -42020.58   -47679.067    30132.296    5706.3622   -4085.6242     89.10321 
    2100    2490.4678   -109.57742    2.2534276   -107.32399   -13893.802    4.4458465    4.4458465    4.4458465   -13893.802   -4008.3649   -45676.526    8003.4853    -21854.31    7256.2834   -22987.921    87.874609 
    2200    2357.4916   -109.44404     2.133108   -107.31093   -35048.059    4.4314683    4.4314683    4.4314683   -35048.059   -14898.588   -84205.672   -6039.9156   -14898.285    12544.665   -11506.545    87.024781 
    2300    2365.6971   -109.47661    2.1405325   -107.33608   -12540.062    4.4304682    4.4304682    4.4304682   -12540.062   -28576.988   -34364.631    25321.432    6094.7881    13499.332   -23187.422    86.965876 
    2400    2464.2257   -109.57593    2.2296832   -107.34625    -6257.534    4.4367274    4.4367274    4.4367274    -6257.534    22169.597   -23719.564   -17222.634   -18964.214    6892.7744   -16330.479    87.334983 
    2500    2047.8894   -109.19865    1.8529733   -107.34568   -15984.072    4.4489198    4.4489198    4.4489198   -15984.072    25290.298   -29809.843   -43432.671    34282.076    274.99089   -8366.9354    88.056966 
    2600    1735.3097   -108.90347    1.5701447   -107.33333    -9722.853    4.4488042    4.4488042    4.4488042    -9722.853    9311.2322   -49993.112     11513.32   -36062.856   -1877.7866    12361.183    88.050107 
    2700    2075.1303    -109.1971    1.8776215   -107.31948    20091.523    4.4308885    4.4308885    4.4308885    20091.523   -14077.386    32768.068    41583.886    30581.453   -25597.225    18997.723     86.99063 
    2800    1930.7321   -109.06917     1.746967   -107.32221    26622.285    4.4210681    4.4210681    4.4210681    26622.285    50365.204     10632.58    18869.072   -3425.5836   -23132.025    4726.9642    86.413503 
    2900     1447.512   -108.68582    1.3097393   -107.37608   -16884.447    4.4281963    4.4281963    4.4281963   -16884.447   -49734.714   -51744.235     50825.61   -17592.912   -9967.6199    15875.991    86.832155 
    3000    2371.8804   -109.52535    2.1461273   -107.37923   -2369.8419    4.4341132    4.4341132    4.4341132   -2369.8419    328.20697    -9365.467    1927.7343     9221.247    -16234.23    17727.535    87.180695 
    3100    1640.0959   -108.87206    1.4839932   -107.38807   -276.64819    4.4264185    4.4264185    4.4264185   -276.64819   -64786.171   -15673.518    79629.745   -47995.337    5168.4673    3755.1562    86.727617 
    3200    2033.7401   -109.21922    1.8401708   -107.37905    6518.7663    4.4264012    4.4264012    4.4264012    6518.7663   -8312.8213   -57118.225    84987.345    30827.124   -11458.183    14141.337      86.7266 
    3300    1464.4452   -108.71752    1.3250608   -107.39246   -2497.9159    4.4174215    4.4174215    4.4174215   -2497.9159   -10966.783   -88676.933    92149.967   -48116.037   -5344.7969    15074.859    86.199855 
    3400    1848.8076    -109.0627      1.67284   -107.38986    60917.818    4.4121852    4.4121852    4.4121852    60917.818    65283.495    14569.936    102900.02    19362.194   -29643.543    2409.5973    85.893677 
    3500    1999.4715   -109.21036    1.8091638   -107.40119    6765.8229    4.4323376    4.4323376    4.4323376    6765.8229    18253.177   -61120.639    63164.931   -24311.008   -7456.5232    21543.586    87.076006 
    3600    1403.0383   -108.65042    1.2694985   -107.38092   -2601.0074    4.4398419    4.4398419    4.4398419   -2601.0074    30925.793   -46203.365    7474.5502   -1353.9969    948.20733   -1163.0922    87.519033 
    3700    2125.3929   -109.28168    1.9231002   -107.35858    19288.716    4.4322196    4.4322196    4.4322196    19288.716    42010.199    33298.543   -17442.594    26147.404   -10469.788    23090.034    87.069049 
    3800    1619.3543   -108.83458    1.4652258   -107.36936    9934.6609    4.4215195    4.4215195    4.4215195    9934.6609   -18458.244   -5713.4718    53975.698   -43908.815   -642.18047    8201.3981    86.439974 
    3900    2379.2274   -109.52662    2.1527749   -107.37384    34949.275    4.4197272    4.4197272    4.4197272    34949.275    19615.232    53563.596    31668.998    34824.295   -4624.4225    2046.8796    86.334898 
    4000    1197.4209   -108.47647    1.0834516   -107.39302   -9638.3141    4.4379844    4.4379844    4.4379844   -9638.3141   -75688.127   -38662.448    85435.633   -50997.535     6367.128    36956.517    87.409236 
    4100     2802.307   -109.89923    2.5355862   -107.36364    -34436.26     4.432277     4.432277     4.432277    -34436.26   -58621.017   -33731.123   -10956.641   -2636.3211    5828.1488    1002.7975    87.072434 
    4200    2148.5416   -109.30504    1.9440456     -107.361    26653.151    4.4083456    4.4083456    4.4083456    26653.151    10368.822    12839.323    56751.307   -35162.786   -3219.8944   -3596.1453    85.669633 
    4300    1686.9764   -108.92469    1.5264117   -107.39828   -4801.1454    4.4240913    4.4240913    4.4240913   -4801.1454     1819.358   -83685.923    67463.129   -22538.859   -6956.8811    13574.586    86.590898 
    4400    2540.3045   -109.66968    2.2985209   -107.37116   -23143.232    4.4469728    4.4469728    4.4469728   -23143.232    38476.568   -73984.781   -33921.483   -8090.0603   -3477.6034   -1615.3803    87.941408 
    4500    1669.6809   -108.88444    1.5107624   -107.37368    -18009.86    4.4458868    4.4458868    4.4458868    -18009.86    28299.862   -58816.875   -23512.567   -53470.599   -1892.1829    12551.334    87.876995 
    4600    2128.0726   -109.26987    1.9255248   -107.34434    16788.586    4.4419285    4.4419285    4.4419285    16788.586    45769.057    6600.3217   -2003.6208    24148.169   -8600.5456   -18879.263    87.642485 
    4700    925.75018   -108.19634   0.83763822    -107.3587   -26035.502    4.4330872    4.4330872    4.4330872   -26035.502    2443.1323    -70386.04     -10163.6   -58413.362    7813.6674    17025.926     87.12019 
    4800    2725.0339   -109.81042    2.4656679   -107.34475    16831.912    4.4086756    4.4086756    4.4086756    16831.912    19002.886   -811.21197    32304.061   -961.62206    6790.1584   -1908.1422     85.68887 
    4900    2546.4865   -109.69102    2.3041145    -107.3869    3414.9856    4.4099921    4.4099921    4.4099921    3414.9856   -32379.894     34015.53    8609.3201   -14072.669    13674.499    14338.258    85.765661 
    5000     1287.667   -108.60894    1.1651081   -107.44383   -17000.368     4.433332     4.433332     4.433332   -17000.368   -2315.6117   -80093.094    31407.602   -24922.096   -762.00152    32293.982    87.134625 
    5100    2294.2564   -109.47315    2.0758914   -107.39726   -10295.371    4.4481672    4.4481672    4.4481672   -10295.371   -53814.882    16725.004    6203.7632   -7605.1261    -3698.689    12574.329    88.012286 
    5200    1970.5816   -109.16051    1.7830236   -107.37749   -22319.709    4.4348542    4.4348542    4.4348542   -22319.709    -23598.71   -28823.304   -14537.113   -43947.455   -2707.8958    35735.342    87.224408 
    5300    2092.9795   -109.24338    1.8937718   -107.34961    29910.861    4.4106951    4.4106951    4.4106951    29910.861   -13136.808    9311.7805    93557.612    1660.4959    7950.1891    29564.213    85.806684 
    5400    2121.4691   -109.30231    1.9195498   -107.38276   -3808.5802    4.4171923    4.4171923    4.4171923   -3808.5802   -41062.745   -28431.764    58068.769   -37762.662   -1417.6768    1747.2494    86.186436 
    5500    2253.0223   -109.41982    2.0385819   -107.38124    1160.9287    4.4295172    4.4295172    4.4295172    1160.9287   -44967.762   -512.38874    48962.937   -6402.8391    2624.5836    30250.439    86.909887 
    5600    1868.3803   -109.08216    1.6905497   -107.39161    6545.2841    4.4481483    4.4481483    4.4481483    6545.2841   -64691.568   -11213.951    95541.371   -15709.828   -1815.6471   -3511.8493    88.011164 
    5700    2460.0145   -109.57738    2.2258728    -107.3515   -7818.0847    4.4560013    4.4560013    4.4560013   -7818.0847   -14127.429    349.46221   -9676.2871    9391.1667    1084.5274    710.50497    88.478125 
    5800    980.92339   -108.23869   0.88756009   -107.35113    10797.451    4.4301778    4.4301778    4.4301778    10797.451   -11085.334    51153.251    -7675.565    37044.844    -427.3723   -7667.4123    86.948776 
    5900     2087.353   -109.22114    1.8886808   -107.33246     41467.15    4.4163048    4.4163048    4.4163048     41467.15    18519.972    49664.592    56216.888    11678.511   -5726.0839    1012.6071    86.134494 
    6000    2087.7456   -109.26523    1.8890361    -107.3762   -24700.247     4.431933     4.431933     4.431933   -24700.247   -29499.666    17976.072   -62577.147    18951.173   -1632.0389   -8340.6616    87.052159 
    6100    2095.4806   -109.28615    1.8960349   -107.39012    7044.1415    4.4385299    4.4385299    4.4385299    7044.1415   -891.53964    21574.107    449.85697    39278.072    5940.1308   -12913.908    87.441472 
    6200    1599.0304   -108.84321    1.4468363   -107.39638   -12615.781     4.459763     4.459763     4.459763   -12615.781   -10881.108    -6403.066   -20563.168    8710.6782   -3472.7076    17537.008    88.702395 
    6300    1575.6681   -108.78034    1.4256976   -107.35465   -37350.526    4.4635801    4.4635801    4.4635801   -37350.526   -52136.295   -17393.085   -42522.197    29988.817     11343.98    14766.329    88.930348 
    6400    2747.8461   -109.79721    2.4863089    -107.3109    33284.266    4.4217906    4.4217906    4.4217906    33284.266    41476.799    3519.9157    54856.083    10521.926    609.39359    7107.9821    86.455875 
    6500    838.21683   -108.12165    0.7584362   -107.36321    70342.508    4.4107135    4.4107135    4.4107135    70342.508    83645.906   -6053.9397    133435.56     6002.614   -26137.093   -9601.5945    85.807759 
    6600    2573.0455    -109.7314    2.3281456   -107.40325   -15802.419    4.4507579    4.4507579    4.4507579   -15802.419    21184.241   -74923.901    6332.4046    9005.0334    5617.8961    18390.121    88.166155 
    6700    1658.3674   -108.87771    1.5005257   -107.37719   -43391.273    4.4736023    4.4736023    4.4736023   -43391.273   -46920.141   -92499.929    9246.2508   -24438.017   -11626.216   -456.34635    89.530726 
    6800    2388.5462   -109.51349    2.1612068   -107.35228   -22055.389    4.4428348    4.4428348    4.4428348   -22055.389   -62437.416    14095.022   -17823.772    19144.477    5092.7058   -7844.4036    87.696146 
    6900    1601.3021    -108.7996    1.4488918   -107.35071    12262.043    4.3865814    4.3865814    4.3865814    12262.043    78139.976   -45093.709    3739.8618    -30164.31    8853.8762     39966.64    84.407024 
    7000    1993.9525   -109.20536    1.8041701   -107.40119    38475.875    4.3800357    4.3800357    4.3800357    38475.875   -10143.304    71059.889     54511.04     17201.37   -41375.393    -3460.111    84.029729 
    7100    2295.0358    -109.5311    2.0765966   -107.45451   -14298.395     4.424237     4.424237     4.424237   -14298.395    6553.0841   -44095.045   -5353.2236   -15656.668   -5200.9977    28067.487    86.599452 
    7200    1871.8149   -109.11049    1.6936575   -107.41683   -56100.247    4.4518547    4.4518547    4.4518547   -56100.247    -75947.33   -43617.255   -48736.156   -19407.086   -9891.9085    33178.351    88.231354 
    7300    2040.8253   -109.20845    1.8465817   -107.36187    6264.8999    4.4375849    4.4375849    4.4375849    6264.8999   -20246.349    48846.274   -9805.2256    19399.363   -19230.373    9434.8438    87.385633 
    7400     1464.683   -108.68952     1.325276   -107.36425    3736.6149    4.4156517    4.4156517    4.4156517    3736.6149    16918.979    35297.903   -41007.037   -24492.268    5586.9077    44809.809     86.09629 
    7500     2699.673   -109.82929    2.4427208   -107.38657    10613.588    4.4096702    4.4096702    4.4096702    10613.588   -25493.203    81902.724   -24568.758    27708.738   -34009.821    24329.957    85.746881 
    7600    2237.5577   -109.44443    2.0245893   -107.41984   -7563.2853    4.4213198    4.4213198    4.4213198   -7563.2853    13168.013   -33806.921   -2050.9481   -7029.0094    17417.597   -266.01052    86.428265 
    7700    1581.0268    -108.8593    1.4305462   -107.42875   -29353.271    4.4486675    4.4486675    4.4486675   -29353.271    -47157.12    23911.853   -64814.548   -13827.186    -24046.82    18360.243    88.041987 
    7800     2172.353   -109.35386    1.9655907   -107.38826   -2312.3651    4.4431093    4.4431093    4.4431093   -2312.3651   -1139.4348     31731.93   -37529.591    4053.4279    20363.493    2417.3272    87.712398 
    7900    2167.4524   -109.33284    1.9611565   -107.37168   -17504.027    4.4065586    4.4065586    4.4065586   -17504.027   -29862.325   -49414.344    26764.586   -49839.578   -14216.381    22229.237    85.565489 
    8000    2266.8017   -109.42592    2.0510498   -107.37487    54812.361    4.3989089    4.3989089    4.3989089    54812.361    51622.095    73485.381    39329.609    14040.946    403.68709    -24704.64    85.120644 
    8100    1253.6886   -108.54927    1.1343638   -107.41491   -18020.507    4.4295356    4.4295356    4.4295356   -18020.507   -38571.072    -32732.72     17242.27   -34159.156    29918.032    27529.671    86.910969 
    8200    2820.1649   -109.91471    2.5517444   -107.36297   -32626.211    4.4395828    4.4395828    4.4395828   -32626.211   -25090.618   -67379.262   -5408.7521   -4421.8324   -18714.331   -6025.8871    87.503712 
    8300    1880.6308    -109.0599    1.7016342   -107.35827   -17066.097    4.4302083    4.4302083    4.4302083   -17066.097   -26936.728   -1830.1441   -22431.419   -8168.2313    27859.395   -23378.908    86.950574 
    8400    2131.8958   -109.28584    1.9289842   -107.35686     10768.45    4.4179666    4.4179666    4.4179666     10768.45   -9926.1183    36617.139    5614.3296   -14136.631    1018.7453    19891.589    86.231767 
    8500    1472.0801   -108.72699     1.331969   -107.39503   -15022.153    4.4095447    4.4095447    4.4095447   -15022.153    43288.097   -7023.6944   -81330.863    5483.4057    17406.583   -59039.051     85.73956 
    8600    2238.5765   -109.42384    2.0255111   -107.39833    24093.626    4.4085286    4.4085286    4.4085286    24093.626   -17132.867    76372.272    13041.474   -5103.4207   -984.62017    19118.102    85.680304 
    8700     1999.989   -109.22447    1.8096321   -107.41484    1499.9848    4.4192952    4.4192952    4.4192952    1499.9848    54781.204   -1844.1239   -48437.125    11751.713    23751.716   -25364.301    86.309587 
    8800    1636.6288   -108.89525    1.4808561   -107.41439   -15119.577    4.4305208    4.4305208    4.4305208   -15119.577   -20958.237    40261.603   -64662.096    2194.8622    11963.401    -13876.12    86.968971 
    8900    2391.6323   -109.55318    2.1639992   -107.38918    3842.1213    4.4231612    4.4231612    4.4231612    3842.1213    43675.582   -6892.2511   -25256.966     838.9144    4373.9528   -1840.6989    86.536298 
    9000    1615.2269   -108.87229    1.4614912    -107.4108   -40791.763    4.4151566    4.4151566    4.4151566   -40791.763   -7662.4249   -35669.857   -79043.008   -3228.0047     49255.92   -29641.166    86.067333 
    9100    2567.4463   -109.71342    2.3230794   -107.39034    34151.719    4.4053492    4.4053492    4.4053492    34151.719    45864.359    59107.735   -2516.9354    21811.409   -12113.571    9939.0663    85.495062 
    9200    1589.3691   -108.86541    1.4380946   -107.42732    -12502.22    4.4104965    4.4104965    4.4104965    -12502.22   -7862.0902    36839.402   -66483.972    5933.1989    45886.937   -31363.497    85.795092 
    9300    2090.2322   -109.30776     1.891286   -107.41647    -4935.407    4.4308822    4.4308822    4.4308822    -4935.407     1950.092   -20658.549    3902.2358    9922.9847    -11377.38    -21913.43    86.990257 
    9400    1818.1238   -109.03635    1.6450767   -107.39127   -18658.554    4.4395509    4.4395509    4.4395509   -18658.554   -49171.481    69170.401   -75974.581    7604.7642    56215.132    7239.6842    87.501826 
    9500    1941.2105   -109.11867     1.756448   -107.36222    12282.894    4.4201283    4.4201283    4.4201283    12282.894     21340.84     101664.3   -86156.457   -2557.0149   -7530.8888   -40839.182    86.358411 
    9600     1484.363   -108.70138    1.3430828    -107.3583    44189.317    4.4036379    4.4036379    4.4036379    44189.317    16560.951    136131.31   -20124.307    18428.059     40017.62    2347.3013    85.395464 
    9700      2401.49   -109.55893    2.1729186   -107.38601   -7368.4049    4.4213717    4.4213717    4.4213717   -7368.4049   -6146.6575    31809.214   -47767.771    8679.0169   -745.46462   -31113.764    86.431307 
    9800     1646.597   -108.87967    1.4898755    -107.3898   -27464.839    4.4344475    4.4344475    4.4344475   -27464.839   -34223.648    16629.369   -64800.238   -96.628365     29633.46   -36501.293    87.200417 
    9900    1968.8566   -109.15056    1.7814629   -107.36909    -10414.66    4.4267845    4.4267845    4.4267845    -10414.66    8231.6459     -21435.5   -18040.127   -10701.702    9229.8241    16920.074    86.749133 
   10000    2268.5749   -109.42725    2.0526543   -107.37459   -32499.083    4.4288168    4.4288168    4.4288168   -32499.083   -17968.585   -11507.963     -68020.7    6914.0699    11897.527   -29689.463    86.868667 
   10100    1633.3418   -108.86748     1.477882    -107.3896   -14175.668    4.4054659    4.4054659    4.4054659   -14175.668   -65656.818    18809.021    4320.7928    15743.449    65178.237   -9017.0508    85.501856 
   10200    2529.3635   -109.65416    2.2886213   -107.36554    17798.748    4.3860386    4.3860386    4.3860386    17798.748    65640.667   -22081.677    9837.2554    -17111.99   -29444.338    7924.4542    84.375692 
   10300    1112.0594    -108.4322    1.0062147   -107.42598    -34661.85    4.4104288    4.4104288    4.4104288    -34661.85     -58624.3    16125.232   -61486.482    8858.1785    75217.213   -9512.1066     85.79114 
   10400    2389.6814   -109.57992     2.162234   -107.41769    6753.7782    4.4319345    4.4319345    4.4319345    6753.7782   -17233.047   -23991.905    61486.286    8506.9932   -20071.254    17888.223     87.05225 
   10500    2220.7402   -109.41535    2.0093724   -107.40598   -40825.386    4.4396514    4.4396514    4.4396514   -40825.386   -60980.025   -7179.4144   -54316.718    9760.2513    56610.703   -11066.525    87.507772 
   10600    1655.6124   -108.89512    1.4980329   -107.39709   -2468.6907    4.4088112    4.4088112    4.4088112   -2468.6907   -54548.546    52278.005   -5135.5306    13929.027     33159.83   -7866.2675     85.69678 
   10700    1802.0349   -109.00903    1.6305191   -107.37852    64123.361    4.3902481    4.3902481    4.3902481    64123.361    47852.583    72402.484    72115.016    7264.4982   -1277.8511     15523.54    84.618865 
   10800    2239.5393   -109.44529    2.0263822   -107.41891   -32738.541    4.4219857    4.4219857    4.4219857   -32738.541   -49485.559    -8208.847   -40521.218    5313.1241    48510.418   -8078.6084    86.467318 
   10900    2024.1807   -109.22384    1.8315212   -107.39232    31056.745    4.4371595    4.4371595    4.4371595    31056.745   -6585.7859    30824.061    68931.959    31121.334   -28828.738    13985.385    87.360505 
   11000    1969.1047   -109.15488    1.7816873   -107.37319    1148.0635    4.4428522    4.4428522    4.4428522    1148.0635    10907.296    27757.156   -35220.262   -15781.527    41048.245   -12048.221    87.697174 
   11100    1664.0028   -108.86572    1.5056247   -107.36009   -33092.235     4.435024     4.435024     4.435024   -33092.235    -47107.12   -60958.067    8788.4831    43070.954    618.82536   -16164.455    87.234427 
   11200    2212.3678    -109.3592    2.0017969   -107.35741   -15302.805    4.3916062    4.3916062    4.3916062   -15302.805   -24982.999    3350.2301   -24275.646    16818.081    18247.785    6285.9285    84.697415 
   11300    2157.1976   -109.34414    1.9518777   -107.39226     44584.15    4.3865972    4.3865972    4.3865972     44584.15   -6956.1369    40501.305    100207.28    19156.627    20543.603    13953.156    84.407936 
   11400    1601.3242   -108.89468    1.4489118   -107.44577   -19121.832    4.4203597    4.4203597    4.4203597   -19121.832   -57775.643   -26928.059    27338.206    43298.064   -21479.911   -20368.525    86.371971 
   11500     2058.173   -109.27954    1.8622782   -107.41726    9661.0528    4.4322624    4.4322624    4.4322624    9661.0528   -22913.436     65854.39   -13957.796   -15226.497   -4948.5452    15015.732    87.071574 
   11600    1331.7645   -108.62129    1.2050085   -107.41628    -12442.35    4.4451407    4.4451407    4.4451407    -12442.35   -28063.792    5166.4815   -14429.739    31215.103    2371.0114   -20703.368    87.832764 
   11700    1854.0278   -109.07057    1.6775633     -107.393    15290.688    4.4379532    4.4379532    4.4379532    15290.688   -10081.464    82261.018   -26307.491   -12381.326   -16043.315   -13356.803    87.407392 
   11800     2583.936   -109.72145    2.3379996   -107.38345    -25495.27    4.4220386    4.4220386    4.4220386    -25495.27    -69560.04   -19828.884    12903.114    47492.948   -8485.3072    11181.619    86.470421 
   11900    1661.0332   -108.88114    1.5029377    -107.3782   -2706.7249    4.4023067    4.4023067    4.4023067   -2706.7249   -29154.293    31303.192   -10269.073    12834.967   -12304.698   -20504.101    85.318043 
   12000    2488.5709   -109.65598    2.2517112   -107.40427   -23627.012    4.4213905    4.4213905    4.4213905   -23627.012   -44175.773    65.559122   -26770.822    2721.5454    -10750.17    2752.1339     86.43241 
   12100    1474.2842   -108.73025    1.3339634   -107.39629    -18445.16    4.4405712    4.4405712    4.4405712    -18445.16   -63056.049   -32357.812     40078.38    87585.492    4809.0896   -4961.6656    87.562167 
   12200    2271.2628   -109.41709    2.0550863   -107.36201    35225.329     4.425443     4.425443     4.425443    35225.329    52497.716    27419.308    25758.963   -29062.003   -22039.998    -11443.45     86.67029 
   12300    1664.5046   -108.91111    1.5060787   -107.40503    15082.869    4.4294214    4.4294214    4.4294214    15082.869   -30621.077    60693.194     15176.49    59905.848   -769.67043   -5590.4117    86.904244 
   12400    2384.0379   -109.55001    2.1571276   -107.39289   -3285.0252    4.4438641    4.4438641    4.4438641   -3285.0252   -19707.351    66423.495    -56571.22   -8693.2344    4860.9218   -31230.853    87.757112 
   12500    1764.6219   -108.98786     1.596667    -107.3912   -36324.721    4.4415308    4.4415308    4.4415308   -36324.721   -71059.187   -49275.568    11360.593    65195.122    3121.6757   -773.44981    87.618947 
   12600    2080.6972   -109.26142    1.8826586   -107.37877     19481.68    4.4223281    4.4223281    4.4223281     19481.68    10567.913     98445.22   -50568.093   -7010.9998    4001.6129   -29748.649    86.487408 
   12700    2041.6473   -109.25558    1.8473254   -107.40826   -6649.7217    4.4137025    4.4137025    4.4137025   -6649.7217   -4377.7771    21448.781   -37020.169    684.57899    -2419.136   -27268.149    85.982324 
   12800    1829.8997   -109.11314    1.6557317   -107.45741    1678.1513    4.4231562    4.4231562    4.4231562    1678.1513   -37051.009     21692.64    20392.823    41829.181    841.75115    19305.764    86.536001 
   12900    2378.1102   -109.58542    2.1517641   -107.43365    20455.371     4.441353     4.441353     4.441353    20455.371   -11795.108    114632.34   -41471.119   -15791.152   -4718.4914    -14252.18    87.608428 
   13000    1649.1594   -108.91219    1.4921941      -107.42   -10626.954    4.4403538    4.4403538    4.4403538   -10626.954   -28554.202    10828.691   -14155.352    81548.776   -5168.6495   -3244.7072    87.549312 
   13100    2311.9525   -109.48757    2.0919032   -107.39567   -11132.413    4.4267485    4.4267485    4.4267485   -11132.413   -5818.9857   -4913.1233   -22665.131    -7177.425    -40827.19    7784.5754    86.747016 
   13200    2054.8126   -109.25055    1.8592376   -107.39131    53507.185    4.4040513    4.4040513    4.4040513    53507.185    37351.194    55808.138    67362.222    29508.675   -5153.2056    -9382.457    85.419514 
   13300    1621.7789   -108.89558    1.4674197   -107.42817    43225.391    4.4151946    4.4151946    4.4151946    43225.391    34493.327    84191.063    10991.784    20417.401    -30680.65   -12056.546    86.069555 
   13400     2274.206   -109.46422    2.0577494   -107.40647   -26179.567    4.4487884    4.4487884    4.4487884   -26179.567   -45919.536    51229.706    -83848.87    3697.7437   -23061.981    5647.2619    88.049165 
   13500    1257.5882   -108.52883    1.1378923   -107.39093   -11814.534     4.446017     4.446017     4.446017   -11814.534   -54287.802    46077.129   -27232.928     56258.77   -879.84796   -11947.579    87.884718 
   13600    2559.1674   -109.69493    2.3155884   -107.37934   -16762.033    4.4100387    4.4100387    4.4100387   -16762.033   -4425.4934    30951.714   -76812.319   -6980.4951    -54264.66    4682.2865     85.76838 
   13700    2614.6546   -109.74642    2.3657945   -107.38063    35018.031    4.3808698    4.3808698    4.3808698    35018.031    3624.3153    41646.327     59783.45    22678.495    13470.482   -17851.999     84.07774 
   13800    1647.8888    -108.9341    1.4910444   -107.44306   -26505.223    4.4049869    4.4049869    4.4049869   -26505.223   -66021.576    33991.732   -47485.826    28489.436   -69277.729    590.38628    85.473968 
   13900    2693.4672   -109.87315    2.4371057   -107.43604   -34374.418    4.4485115    4.4485115    4.4485115   -34374.418   -40635.101   -10599.554   -51888.599   -17897.188    3525.5462   -17831.249    88.032729 
   14000     1200.287   -108.47771    1.0860449   -107.39167   -8694.1885    4.4696985    4.4696985    4.4696985   -8694.1885   -87837.635    75394.444   -13639.374    25621.243   -30310.307   -17484.355    89.296549 
   14100    2803.7424   -109.89062     2.536885   -107.35374   -25624.363    4.4435235    4.4435235    4.4435235   -25624.363   -60640.561   -11749.592   -4482.9368   -17589.954   -25353.281   -2715.2844    87.736933 
   14200     1790.711   -108.96462    1.6202729   -107.34434    44114.458    4.3901108    4.3901108    4.3901108    44114.458   -36556.923    94568.619    74331.678    17454.931    746.23087    6967.9804    84.610923 
   14300    1766.4963   -109.00581    1.5983629   -107.40744    1696.2587    4.3909888    4.3909888    4.3909888    1696.2587   -11068.665    48153.713   -31996.272    7112.3778   -85772.919   -9873.6437    84.661702 
   14400    2234.3457   -109.45099     2.021683   -107.42931    23663.503    4.4227289    4.4227289    4.4227289    23663.503    7053.7683    46777.913    17158.828   -4781.9878    20704.425     2256.119    86.510926 
   14500    1496.6754    -108.7982    1.3542234   -107.44398     7574.756    4.4465035    4.4465035    4.4465035     7574.756    76053.912   -18790.554    -34539.09    6889.1561   -62463.406    13800.675    87.913571 
   14600     2372.951   -109.53304    2.1470959   -107.38594   -29641.061    4.4638598    4.4638598    4.4638598   -29641.061    22661.929   -30442.975   -81142.136   -31993.536     11285.19   -9627.4681    88.947068 
   14700    1765.4874   -108.95662    1.5974501   -107.35917   -2052.3793    4.4354164    4.4354164    4.4354164   -2052.3793   -218.16096     68836.01   -74774.987    3537.1198   -20474.545   -470.89243    87.257586 
   14800    2606.0982   -109.70052    2.3580524   -107.34247    5600.0381    4.4053146    4.4053146    4.4053146    5600.0381   -12088.982    23118.394    5770.7017    7562.3188   -40111.995   -8823.4645    85.493045 
   14900    2508.0614    -109.6525    2.2693467   -107.38316     12321.69    4.4084219    4.4084219    4.4084219     12321.69    32062.201    46931.812   -42028.942   -21526.889   -4961.3078    15551.569    85.674079 
   15000    1540.9085   -108.84324    1.3942464   -107.44899   -15830.586    4.4368926    4.4368926    4.4368926   -15830.586    15508.532   -5937.2168   -57063.074    22235.692   -68883.098   -2390.3707    87.344738 
   15100    2176.6052   -109.37103    1.9694382   -107.40159     8007.863    4.4584296    4.4584296    4.4584296     8007.863    38139.328   -2299.5715   -11816.167     8376.499   -3225.1478   -11182.823    88.622856 
   15200    1979.1186   -109.14922    1.7907481   -107.35847   -20581.003    4.4618713    4.4618713    4.4618713   -20581.003    412.43281    11463.166   -73618.608    1821.5267   -57711.102   -256.71743    88.828254 
   15300     2549.561   -109.62477    2.3068963   -107.31787    1368.5222    4.4468512    4.4468512    4.4468512    1368.5222    95124.966   -38963.353   -52056.046   -4391.1821    8042.7209   -29462.399    87.934194 
   15400    1151.8373    -108.3808    1.0422066   -107.33859    15674.962    4.4303107    4.4303107    4.4303107    15674.962    71878.997    30873.469    -55727.58    -6288.831   -44417.282    -10473.36    86.956602 
   15500     2959.391   -110.02152    2.6777192    -107.3438    7442.6861    4.4407547    4.4407547    4.4407547    7442.6861    25172.748     7195.088   -10039.778   -3969.8202    16450.977     8117.998    87.573028 
   15600    1402.5574   -108.64529    1.2690634   -107.37623   -9817.1439    4.4590137    4.4590137    4.4590137   -9817.1439   -26955.058    57122.362   -59618.736   -8128.6039   -43724.312   -26131.333    88.657694 
   15700    2327.5135   -109.44012    2.1059831   -107.33414   -8821.7278    4.4537165    4.4537165    4.4537165   -8821.7278    18308.026   -26238.645   -18534.564     18960.82    11466.101   -3100.1871    88.342098 
   15800    1944.1535    -109.1086    1.7591109   -107.34949     1970.427    4.4370482    4.4370482    4.4370482     1970.427   -207.86137    12561.236   -6442.0935    21932.764   -14077.895   -13698.722    87.353931 
   15900    2087.8435   -109.27485    1.8891247   -107.38573   -8567.6164    4.4237817    4.4237817    4.4237817   -8567.6164   -50416.184    19890.263    4823.0721   -9943.3737   -18062.992   -35039.429    86.572722 
   16000    2545.1461   -109.70824    2.3029017   -107.40533   -22866.292    4.4315659    4.4315659    4.4315659   -22866.292   -40622.618   -41943.254    13966.995    34094.849    30855.667    15529.894     87.03053 
   16100    1573.2787   -108.83877    1.4235357   -107.41524   -4077.1919    4.4459176    4.4459176    4.4459176   -4077.1919   -56742.477    9555.3214     34955.58     -20465.2   -18655.999   -10905.423    87.878822 
   16200    2196.3079   -109.37906    1.9872655   -107.39179    9767.7078    4.4533313    4.4533313    4.4533313    9767.7078   -29916.858     10578.76    48641.221   -5003.4331    21006.706    13741.309    88.319175 
   16300    2189.4798   -109.34724    1.9810873   -107.36615   -23315.338    4.4451855    4.4451855    4.4451855   -23315.338   -65308.041     42747.38   -47385.353   -13554.075   -47321.391    18444.268    87.835415 
   16400     1639.372   -108.83924    1.4833382    -107.3559    13738.141    4.4353605    4.4353605    4.4353605    13738.141   -55548.652    33680.255     63082.82   -27664.812   -7134.7968   -23859.974    87.254287 
   16500    2127.4222   -109.28926    1.9249363   -107.36432    12314.876    4.4330948    4.4330948    4.4330948    12314.876   -37064.766    48603.812    25405.581    13041.973     3620.934    25491.779    87.120638 
   16600    1536.8866   -108.78573    1.3906073   -107.39513   -305.86888    4.4465352    4.4465352    4.4465352   -305.86888   -72162.554    220.70071    71024.246   -23325.333   -7288.1812    1477.3046    87.915451 
   16700    2437.7261   -109.58608    2.2057058   -107.38037   -16321.768    4.4596442    4.4596442    4.4596442   -16321.768   -32660.519    10885.849   -27190.635    18019.744   -7117.0313   -6132.7886    88.695304 
   16800    1315.4059    -108.5593    1.1902069   -107.36909    37287.842    4.4413302    4.4413302    4.4413302    37287.842   -4526.4189    67004.312    49385.634   -5545.7427   -24755.114    3981.2172    87.607076 
   16900    1968.3022   -109.13096    1.7809612      -107.35    3706.8807    4.4255113    4.4255113    4.4255113    3706.8807   -10045.449    22695.227   -1529.1362   -18602.425    41394.577   -5540.9412    86.674303 
   17000    2210.0001   -109.34983    1.9996545   -107.35017    15774.448    4.4161232    4.4161232    4.4161232    15774.448    22463.793    13011.312    11848.237    12359.889   -40903.785   -4656.6604    86.123871 
   17100    1494.9671   -108.76494    1.3526777   -107.41226     -19063.1    4.4265211    4.4265211    4.4265211     -19063.1   -40125.366   -38074.815    21010.881   -47516.194    25654.733     18046.39    86.733651 
   17200    2533.9409   -109.71746     2.292763   -107.42469   -25626.788    4.4162536    4.4162536    4.4162536   -25626.788   -68668.169   -4678.7586   -3533.4352    13449.832    22338.597   -12666.703    86.131498 
   17300    2198.6965   -109.41091    1.9894268   -107.42149     45920.33    4.3966831    4.3966831    4.3966831     45920.33    66687.234    14728.108    56345.649   -9445.4163   -11757.502   -11286.337    84.991502 
   17400    916.06003   -108.29436   0.82887036   -107.46549   -17904.067    4.4188054    4.4188054    4.4188054   -17904.067   -75850.045   -12674.109    34811.954   -22916.346    36509.057    16545.004    86.280893 
   17500    2773.0139   -109.92774    2.5090813   -107.41866   -7242.2919    4.4274847    4.4274847    4.4274847   -7242.2919   -5921.1949    1250.4852   -17056.166    12271.947   -4629.3602   -3719.5108    86.790302 
   17600    1515.5441   -108.80445    1.3712962   -107.43315    3319.0003    4.4303819    4.4303819    4.4303819    3319.0003   -34711.905    19802.729    24866.177   -34915.249    14334.114   -2535.7568    86.960794 
   17700    1967.0644   -109.18285    1.7798412   -107.40301   -18920.754     4.431797     4.431797     4.431797   -18920.754   -34935.583   -16445.872   -5380.8053    -16887.27    33163.818    19179.212    87.044145 
   17800    1975.1467   -109.17049    1.7871543   -107.38334    47943.848    4.4172536    4.4172536    4.4172536    47943.848    84043.393    62211.161   -2423.0092   -1754.5087   -24475.981   -10400.862    86.190022 
   17900    1828.6718   -109.05892    1.6546207    -107.4043   -9486.2398    4.4217366    4.4217366    4.4217366   -9486.2398   -16660.481    16319.624   -28117.862   -51249.148    29022.992     -2264.92     86.45271 
   18000    2291.0628   -109.47334    2.0730017   -107.40033   -8739.3972    4.4308912    4.4308912    4.4308912   -8739.3972   -647.75717   -12005.544   -13564.891   -1106.1009   -9021.1804    11502.562    86.990788 
   18100     1678.266   -108.90827    1.5185304   -107.38974    25415.109    4.4321253    4.4321253    4.4321253    25415.109    25967.164    34854.651    15423.511   -19491.739    4849.7957   -30970.201    87.063492 
   18200    2062.3414   -109.26487    1.8660498   -107.39883   -4056.8622    4.4408116    4.4408116    4.4408116   -4056.8622   -30281.587    22940.489   -4829.4882    -3296.995    41950.772    1578.7079    87.576389 
   18300    2522.2313   -109.66284    2.2821679   -107.38067    5164.6808    4.4401292    4.4401292    4.4401292    5164.6808   -10684.484   -21008.741    47187.267   -16571.435   -9454.7647   -12589.706    87.536023 
   18400     1741.148   -108.96464    1.5754273   -107.38921     7466.784    4.4245447    4.4245447    4.4245447     7466.784    17543.568   -38541.299    43398.083   -27768.333    34848.578    10417.167    86.617525 
   18500    2336.1211   -109.50678    2.1137715   -107.39301    13663.396    4.4339972    4.4339972    4.4339972    13663.396    43065.126    22862.078   -24937.017    2510.8127    15742.115   -14396.599    87.173851 
   18600    1899.4556   -109.10255    1.7186673   -107.38388   -11845.706    4.4589285    4.4589285    4.4589285   -11845.706   -3404.2631   -79249.181    47116.325   -25286.521   -13878.221    7448.1003    88.652612 
   18700    2307.8345   -109.40832    2.0881772   -107.32014   -66796.336    4.4665008    4.4665008    4.4665008   -66796.336   -52573.762   -76939.063   -70876.183    17127.808    41399.137    15799.206    89.105037 
   18800    2115.6088   -109.20649    1.9142473   -107.29224   -22900.316    4.4425699    4.4425699    4.4425699   -22900.316    17179.967    -62721.59   -23159.324   -63076.903    21178.536   -3131.3482    87.680456 
   18900     2808.266   -109.85089    2.5409781   -107.30992    7733.6782    4.4157056    4.4157056    4.4157056    7733.6782    45278.774   -13281.595   -8796.1443    22506.282    717.09884    10730.736    86.099442 
   19000    1070.8215   -108.35505   0.96890184   -107.38615    17189.555     4.402101     4.402101     4.402101    17189.555   -11803.025   -3534.3892    66906.079   -56980.632    18015.029    7852.5283    85.306085 
   19100    2497.6614   -109.69362    2.2599365   -107.43369   -6793.7451    4.4127427    4.4127427    4.4127427   -6793.7451   -25562.326   -4120.9633    9302.0535    11676.651    9121.7618    11227.263     85.92624 
   19200    2005.6149    -109.2733    1.8147225   -107.45858   -18154.133    4.4283945    4.4283945    4.4283945   -18154.133   -67129.122   -50414.561    63081.282     -27892.8    1295.6567   -7254.8357    86.843819 
   19300    1501.0013   -108.80344    1.3581375    -107.4453   -21463.165    4.4318909    4.4318909    4.4318909   -21463.165   -68537.435   -14265.003    18412.941   -33604.915    28739.013    5698.9192    87.049681 
   19400    2194.2401   -109.38902    1.9853945   -107.40362    2.2918308     4.430969     4.430969     4.430969    2.2918308   -28032.145   -21597.905    49636.926    24752.241   -5532.4281     15820.69     86.99537 
   19500    1405.6791   -108.66908     1.271888   -107.39719    11111.938    4.4238939    4.4238939    4.4238939    11111.938   -23426.686   -38787.635    95550.134    -45164.01    12004.648   -4635.9406    86.579305 
   19600     2732.537   -109.85037    2.4724569   -107.37791   -6372.3967    4.4211424    4.4211424    4.4211424   -6372.3967   -12572.186    16148.977   -22693.981    3784.6096    29887.193    16517.408    86.417859 
   19700    1394.3169   -108.67045    1.2616073   -107.40884    -23445.44    4.4374075    4.4374075    4.4374075    -23445.44   -25822.507   -60382.102    15868.289   -51543.508   -6967.5323    10346.094    87.375151 
   19800    2624.3669   -109.72699    2.3745823   -107.35241    11444.162    4.4387862    4.4387862    4.4387862    11444.162    7433.8717    20130.562    6768.0513    11305.546    18011.286    3980.7098    87.456616 
   19900    1945.5095   -109.11944    1.7603379    -107.3591   -37026.418    4.4327889    4.4327889    4.4327889   -37026.418   -78684.093   -33165.137    769.97688   -69899.738   -2773.1671    10482.298    87.102609 
   20000    3056.7153   -110.11267    2.7657803   -107.34689   -12776.289    4.4387405    4.4387405    4.4387405   -12776.289    6886.5675    -29551.71   -15663.725    18405.066   -5818.4363    20261.175    87.453916 
   20100    1463.3547   -108.66909    1.3240741   -107.34501   -26703.576    4.4452254    4.4452254    4.4452254   -26703.576   -78471.702   -51181.678    49542.652   -62613.841    14888.192   -10524.547    87.837785 
   20200    1639.5045   -108.81609    1.4834581   -107.33263    20343.917    4.4382137    4.4382137    4.4382137    20343.917    19115.515    65708.674   -23792.437    24745.174    156.80406    862.56429    87.422781 
   20300    2215.4995   -109.34339    2.0046305   -107.33876   -1912.4999    4.4203467    4.4203467    4.4203467   -1912.4999    -29620.25   -48460.036    72342.786   -49927.994    21317.631   -2348.8497    86.371209 
   20400    2188.7433   -109.35597    1.9804209   -107.37555    957.15186    4.4119511    4.4119511    4.4119511    957.15186    17241.965    -15572.64    1202.1302    -6336.369   -26553.116    2785.3092    85.880005 
   20500    1772.4952   -109.02333    1.6037909   -107.41954    1553.8182    4.4248594    4.4248594    4.4248594    1553.8182    11860.504        29539   -36738.049   -10951.593   -10690.515    11221.488    86.636009 
   20600    1503.7462   -108.77646    1.3606212   -107.41583   -2966.7138    4.4340227    4.4340227    4.4340227   -2966.7138   -21556.346   -41715.785    54371.989   -66833.149    11452.557    4072.6635    87.175356 
   20700    2147.9269   -109.34332    1.9434894   -107.39983    6626.3568    4.4173426    4.4173426    4.4173426    6626.3568   -13503.557    32848.884     533.7431   -763.59198   -46146.007   -882.09756    86.195233 
   20800    2212.2161    -109.4039    2.0016596   -107.40224    37097.805    4.4128251    4.4128251    4.4128251    37097.805    10849.766    56965.758     43477.89   -33522.666    11053.466    3958.3031    85.931056 
   20900    1814.4927   -109.06972    1.6417911   -107.42792    5412.4096    4.4280488    4.4280488    4.4280488    5412.4096   -42373.842    40556.243    18054.828   -33043.404   -40859.387   -5225.3573    86.823482 
   21000    1922.4395   -109.14703    1.7394636   -107.40757    9025.3493    4.4530196    4.4530196    4.4530196    9025.3493   -54057.543    16943.776    64189.815    15764.537    8851.0197   -8625.6735    88.300631 
   21100    1066.4439   -108.34253   0.96494082   -107.37759   -33905.972    4.4519976    4.4519976    4.4519976   -33905.972   -95801.867    22815.639   -28731.687    -2239.406   -34185.064   -12382.202    88.239853 
   21200    2100.5766   -109.24027    1.9006458   -107.33962    21235.535    4.4069504    4.4069504    4.4069504    21235.535    8586.3671    71897.843   -16777.605   -2892.8119   -31634.892    7688.0143    85.588318 
   21300    3147.7082   -110.20438    2.8481125   -107.35627    27058.983    4.3818754    4.3818754    4.3818754    27058.983    41079.721    37678.728    2418.5018   -20536.282    10333.594    1282.8934    84.135656 
   21400    1154.6013    -108.5096    1.0447075   -107.46489    -11219.48    4.3976293    4.3976293    4.3976293    -11219.48   -66920.435    33542.685   -280.69028   -33658.095   -67638.153    -22059.48    85.046386 
   21500    2429.3565   -109.65756    2.1981328   -107.45943    5545.4704    4.4349787    4.4349787    4.4349787    5545.4704    25020.756   -41298.043    32913.698    10505.417    34285.232    1091.2237    87.231757 
   21600    1322.1886   -108.61671     1.196344   -107.42037   -51965.989    4.4484607    4.4484607    4.4484607   -51965.989   -75543.629   -12780.111   -67574.227   -10485.879   -77982.385    1571.0084     88.02971 
   21700    2205.3147   -109.37221    1.9954151    -107.3768    27404.261    4.3997864    4.3997864    4.3997864    27404.261    28881.037   -36302.141    89633.887   -16282.225    3772.9263   -12825.533    85.171592 
   21800    2528.1078   -109.65705    2.2874851   -107.36957    24487.001    4.3677273    4.3677273    4.3677273    24487.001    10359.966    30918.878    32182.158    13598.502   -14703.725    9898.0099    83.323317 
   21900    1617.9349   -108.90599    1.4639415   -107.44205    5275.6087    4.3774935    4.3774935    4.3774935    5275.6087   -34906.614    11185.102    39548.338   -25531.363   -53710.305    141.50553    83.883497 
   22000    2642.3181   -109.85012    2.3908249   -107.45929   -5663.9714    4.4125883    4.4125883    4.4125883   -5663.9714   -20743.969   -42015.807    45767.862   -7787.3147    10643.916    3949.0424    85.917219 
   22100    1146.0681   -108.47221    1.0369865   -107.43522   -33258.648    4.4368638    4.4368638    4.4368638   -33258.648   -81372.077   -16845.048   -1558.8188   -500.53227    -66210.29     9571.967    87.343035 
   22200    2049.4484   -109.25846     1.854384   -107.40407   -8226.8321    4.4181279    4.4181279    4.4181279   -8226.8321   -53453.069   -47296.791    76069.363   -33034.964    27260.397    5303.1623    86.241212 
   22300    2447.7166    -109.6114    2.2147454   -107.39666    7886.2115    4.3917602    4.3917602    4.3917602    7886.2115   -31127.848    37837.477    16949.005    19104.589    -47815.06   -1598.8338     84.70633 
   22400    1857.3828   -109.11183     1.680599   -107.43123    446.44491    4.3662863    4.3662863    4.3662863    446.44491    -39755.96     27843.79    13251.505    -39353.07   -31643.571    9284.2037    83.240873 
   22500    1937.2383   -109.22561    1.7528539   -107.47276    520.32666    4.3798743    4.3798743    4.3798743    520.32666   -10932.454   -27329.728    39823.162   -13946.986    32965.008    10346.984    84.020439 
   22600    2717.0034    -109.9179    2.4584018    -107.4595   -19194.144    4.4105859    4.4105859    4.4105859   -19194.144   -52409.676   -26030.254    20857.497    19433.727   -22084.213   -23877.137    85.800308 
   22700    1384.0945   -108.68965    1.2523578   -107.43729   -28293.647    4.4141342    4.4141342    4.4141342   -28293.647   -48106.515    -43447.53    6673.1033   -71870.139    6140.4232    26687.575    86.007557 
   22800    2130.3493   -109.33436    1.9275848   -107.40677   -11801.849    4.4076617    4.4076617    4.4076617   -11801.849   -35357.153   -23409.315    23360.922    55225.422    12184.354   -22669.448    85.629769 
   22900    2273.5365   -109.46326    2.0571436   -107.40612   -19046.231    4.4058459    4.4058459    4.4058459   -19046.231   -53526.084   -42565.753    38953.143   -43602.869   -6161.2841    13556.583    85.523978 
   23000    1933.5331   -109.16874    1.7495014   -107.41924    28029.525    4.3866039    4.3866039    4.3866039    28029.525   -15890.162    35522.765    64455.973    177.97776    15084.664   -1544.3869    84.408322 
   23100    2191.3559   -109.42549    1.9827849    -107.4427    14268.178    4.3946443    4.3946443    4.3946443    14268.178   -35079.096    41287.164    36596.467    46790.283    21231.143   -2724.8073     84.87332 
   23200    2630.0217   -109.79193    2.3796989   -107.41223   -6985.7098     4.421261     4.421261     4.421261   -6985.7098   -40998.283    15758.362    4282.7916   -27747.848    608.86855   -3839.8584    86.424814 
   23300    1031.1052    -108.3729   0.93296563   -107.43993   -46909.615    4.4144658    4.4144658    4.4144658   -46909.615   -99583.555    4932.0074   -46077.296    58511.583    24511.441   -3929.7061    86.026938 
   23400    2016.0834   -109.26593    1.8241946   -107.44174   -5235.2726    4.3862216    4.3862216    4.3862216   -5235.2726   -25269.289    23216.036   -13652.565    7425.2047   -17393.825   -5777.0755    84.386256 
   23500    2714.6912    -109.9005    2.4563096   -107.44419      40729.3    4.3676721    4.3676721    4.3676721      40729.3    6782.2997    42885.703    72519.897   -2335.5763    8014.4006   -11932.044    83.320157 
   23600    1649.3712   -108.99166    1.4923857   -107.49928   -1078.4062    4.3928309    4.3928309    4.3928309   -1078.4062    1536.1725    26593.074   -31364.465     59548.63    22392.922    12765.958    84.768296 
   23700    1947.4655   -109.22692    1.7621077   -107.46482   -26661.715    4.4229135    4.4229135    4.4229135   -26661.715   -31239.029    1683.6475   -50429.764   -34838.331   -13068.549   -16817.169    86.521756 
   23800     2074.233   -109.31156    1.8768096   -107.43475    14127.952    4.4070122    4.4070122    4.4070122    14127.952    -10164.33    7919.6129    44628.573   -20997.175    792.25018    9011.5905     85.59192 
   23900    1860.6125   -109.10447    1.6835213   -107.42095    5889.7972    4.3867742    4.3867742    4.3867742    5889.7972   -3916.7172   -17335.942    38922.051    20428.192    14843.383    -3774.822    84.418154 
   24000    1371.8822   -108.69034    1.2413078   -107.44903   -18755.881    4.3924414    4.3924414    4.3924414   -18755.881   -86433.194   -11368.697    41534.247   -75340.459   -98.331486    2580.6671    84.745752 
   24100    3340.9356   -110.44706    3.0229488   -107.42411    6327.2645    4.4063431    4.4063431    4.4063431    6327.2645   -30786.343     19921.85    29846.286    16465.124   -10201.202   -1120.5281    85.552937 
   24200    2007.7269   -109.27361    1.8166335   -107.45698   -36698.309    4.4112599    4.4112599    4.4112599   -36698.309   -81568.822   -58775.901    30249.794   -61314.582    10730.234   -20533.988    85.839647 
   24300    1147.3265   -108.49385    1.0381251   -107.45573   -12953.662    4.3935437    4.3935437    4.3935437   -12953.662   -80121.554   -12868.236    54128.804   -19261.108   -17453.329   -6449.8585    84.809566 
   24400     2553.544   -109.75512    2.3105003   -107.44462    1314.0799    4.3825557    4.3825557    4.3825557    1314.0799    -34845.89    8447.7778    30340.352    23192.382    2898.8256    8076.4878    84.174849 
   24500    2153.6139   -109.40695    1.9486351   -107.45831    12045.692    4.3954811    4.3954811    4.3954811    12045.692   -7272.8707     18065.52    25344.425   -40276.589   -3913.4071   -7827.9026    84.921814 
   24600    1355.8977   -108.70052    1.2268448   -107.47368   -30000.318    4.4090167    4.4090167    4.4090167   -30000.318   -77288.419    3167.5582   -15880.094    35909.175   -5248.8369    -12948.34    85.708766 
   24700    2315.8891    -109.5522    2.0954652   -107.45674   -2561.2802    4.4024035    4.4024035    4.4024035   -2561.2802   -25619.414   -34394.083    52329.656    36617.769    16991.763     11637.52    85.323672 
   24800    2877.7991   -110.04245    2.6038931   -107.43855        17593     4.398181     4.398181     4.398181        17593   -7281.0242     50819.06    9240.9637    -13633.47   -22271.134    7021.9982    85.078398 
   24900    1089.5173   -108.45205   0.98581812   -107.46624   -26129.308    4.3956812    4.3956812    4.3956812   -26129.308   -81133.614    5931.4988   -3185.8089    66928.781    14060.677   -2975.0291    84.933408 
   25000    1407.2559   -108.74159    1.2733147   -107.46827    24832.545    4.3969494    4.3969494    4.3969494    24832.545    -16212.52    5324.6128    85385.543   -7823.5158    8720.1918    6947.9518    85.006947 
   25100    2855.0562   -110.02855    2.5833149   -107.44523    -5496.858    4.4077274    4.4077274    4.4077274    -5496.858   -33890.488    -13595.66    30995.574    12664.995     337.9592   -2879.4403    85.633596 
   25200    2176.2963    -109.4179    1.9691586   -107.44874    -20716.42    4.4106241    4.4106241    4.4106241    -20716.42   -73886.201   -21857.605    33594.546    36879.624    33992.245    213.30657    85.802539 
   25300    1374.9766    -108.6846    1.2441077   -107.44049     3433.121       4.4045       4.4045       4.4045     3433.121   -44805.584    34962.782    20142.165   -30266.261   -7586.6074    25210.734    85.445629 
   25400    2146.6245   -109.38477    1.9423109   -107.44246    12822.331    4.4015388    4.4015388    4.4015388    12822.331   -39274.694    66490.543    11251.145    31374.879   -8621.0787    -5036.167    85.273403 
   25500    2475.3353   -109.68934    2.2397354   -107.44961   -1369.0577    4.4054072    4.4054072    4.4054072   -1369.0577   -37239.337    21741.437    11390.727   -4416.1543    5635.5437    3160.0562    85.498436 
   25600    1241.5564    -108.5977    1.1233863   -107.47432   -18589.625    4.4087666    4.4087666    4.4087666   -18589.625   -39154.799    17031.125     -33645.2   -14664.487   -25945.666    21101.229    85.694181 
   25700    1756.0296   -109.05731    1.5888925   -107.46841   -25794.292    4.3988498    4.3988498    4.3988498   -25794.292    18049.877   -66611.104    -28821.65    27186.425    -3934.948   -23069.882    85.117215 
   25800    2953.8757   -110.12355    2.6727288   -107.45082    20633.143    4.3883691    4.3883691    4.3883691    20633.143    15367.855    20671.908    25859.664   -2462.1501   -14462.553   -13068.231    84.510263 
   25900    2234.2077   -109.49953    2.0215581   -107.47797     -2397.36    4.4029967    4.4029967    4.4029967     -2397.36    11271.647   -13955.085   -4508.6416   -4146.0858   -15619.326    18799.087    85.358167 
   26000    926.02586   -108.32464   0.83788766   -107.48675   -13573.329    4.4171564    4.4171564    4.4171564   -13573.329    14235.949   -16897.488   -38058.447    36522.406   -2670.9555   -40668.542    86.184332 
   26100    3212.5307   -110.33221    2.9067653   -107.42544    -5120.922    4.4273693    4.4273693    4.4273693    -5120.922    6599.1467   -44311.709    22349.796   -7943.9618   -11455.405    1147.9802    86.783517 
   26200    1550.1656   -108.81004    1.4026224   -107.40741    4185.3915    4.4276787    4.4276787    4.4276787    4185.3915    41826.121    -42260.02    12990.073    18426.157    4956.5279    -36472.47    86.801712 
   26300    1957.2913   -109.14414    1.7709983   -107.37314    660.08483    4.4223601    4.4223601    4.4223601    660.08483   -9511.2425   -15034.624    26526.121   -8448.4344    3543.0838     23288.72    86.489285 
   26400    2178.2055   -109.35033    1.9708862   -107.37944   -17018.065    4.4189475    4.4189475    4.4189475   -17018.065    47316.657   -87712.316   -10658.535   -21375.955   -4631.9181   -41521.046    86.289215 
   26500    2161.9447   -109.34737     1.956173   -107.39119   -20117.748    4.4051318    4.4051318    4.4051318   -20117.748   -5246.7728   -30244.166   -24862.306      45033.6   -1963.6889     -14519.7    85.482402 
   26600    1880.4702   -109.12616     1.701489   -107.42467   -3538.6824    4.3991994    4.3991994    4.3991994   -3538.6824    22428.413   -37114.637    4070.1769    -32055.03    7131.3093    21711.268    85.137509 
   26700    2694.4557    -109.8664    2.4380001    -107.4284   -7544.3742    4.4218937    4.4218937    4.4218937   -7544.3742   -5289.9273   -17487.755    144.56007    3923.4438   -11513.975   -11951.363    86.461926 
   26800    1069.0834   -108.39788   0.96732913   -107.43055    6867.5799    4.4281893    4.4281893    4.4281893    6867.5799    65912.449   -40241.576   -5068.1336    6824.5572   -8900.5902    5353.2469    86.831744 
   26900    2565.2802   -109.72054    2.3211194   -107.39943   -5641.6405    4.4222445    4.4222445    4.4222445   -5641.6405    50749.653   -46182.651   -21491.923   -13723.315    4593.8556    8867.7339    86.482502 
   27000    2291.9946   -109.47746    2.0738448   -107.40362    5207.3003    4.3927434    4.3927434    4.3927434    5207.3003     3715.886    1080.6243     10825.39    19863.205   -88.313204    3552.2866    84.763234 
   27100    1491.4989   -108.78006    1.3495396   -107.43052    60190.491    4.3912605    4.3912605    4.3912605    60190.491    79033.867    50063.615     51473.99   -1142.3716    9977.1957    -1192.446    84.677417 
   27200    2310.9445   -109.51803    2.0909912   -107.42704   -35299.282    4.4187753    4.4187753    4.4187753   -35299.282   -9812.1035   -52073.259   -44012.482   -8649.4803   -7759.0413   -13512.416    86.279131 
   27300     1348.345   -108.66001    1.2200108      -107.44   -9603.3399     4.408057     4.408057     4.408057   -9603.3399   -39990.386    19655.536   -8475.1702    23201.577    16219.026    2145.2757     85.65281 
   27400    3049.0117   -110.17588    2.7588098   -107.41708    20867.154    4.4122211    4.4122211    4.4122211    20867.154    56862.254   -25757.991    31497.199    6209.6799   -1353.6606      15879.1    85.895774 
   27500    1579.9217   -108.87122    1.4295464   -107.44168   -25435.637    4.4110371    4.4110371    4.4110371   -25435.637   -59434.341   -224.34721   -16648.224    10564.275   -7333.6853   -8216.4118    85.826642 
   27600    1710.1263    -108.9761    1.5473582   -107.42874    23487.902    4.4019203    4.4019203    4.4019203    23487.902    38937.829   -7647.1212    39172.997    9029.2864    16258.227    26261.812     85.29558 
   27700    2246.6578   -109.45535    2.0328232   -107.42253     3187.397    4.4090668    4.4090668    4.4090668     3187.397   -26084.733     11866.59    23780.333   -18531.408   -3850.7284    3173.8958    85.711688 
   27800    1784.0693   -109.04381    1.6142634   -107.42954    18510.189    4.4088109    4.4088109    4.4088109    18510.189    53506.268   -9100.5093    11124.808    31739.077   -7223.0461   -3296.0226    85.696762 
   27900    2573.9975   -109.74593    2.3290071   -107.41693    36807.798    4.4102251    4.4102251    4.4102251    36807.798    16292.663    16865.987    77264.745   -15578.766   -2486.5118     27520.34    85.779253 
   28000    1031.7443   -108.37225   0.93354392    -107.4387    12611.719    4.4117115    4.4117115    4.4117115    12611.719    53709.234   -34997.117    19123.041    1265.7908     4756.179    -9099.171    85.866014 
   28100    2659.2775   -109.82057    2.4061702    -107.4144   -15960.396    4.4254103    4.4254103    4.4254103   -15960.396   -9667.2623   -31200.175   -7013.7494    19804.091   -2717.2779   -9005.8385     86.66837 
   28200     2312.123   -109.49822    2.0920574   -107.40616    16424.333    4.4137837    4.4137837    4.4137837    16424.333    7873.8528   -12760.936    54160.081   -24021.334    2679.2305    5005.6764    85.987068 
   28300    1507.9793    -108.7807    1.3644513   -107.41625    16106.031     4.405871     4.405871     4.405871    16106.031    18165.802   -3955.4225    34107.714     29733.27    13856.563   -17448.546    85.525444 
   28400    1960.9366   -109.17963    1.7742967   -107.40534    18184.561    4.4178539    4.4178539    4.4178539    18184.561     65097.26   -37660.923    27117.344   -23798.498    7930.6242     2708.656    86.225167 
   28500    2201.1081   -109.38378    1.9916089   -107.39217   -49220.754    4.4365905    4.4365905    4.4365905   -49220.754   -61557.997    -85164.31   -939.95429     21656.01    3314.6656    5663.2533      87.3269 
   28600    2745.1408   -109.84427    2.4838611   -107.36041   -7179.1565    4.4288932    4.4288932    4.4288932   -7179.1565    56325.084   -45209.125   -32653.429    2699.1997   -988.42819    3084.7057    86.873158 
   28700    1491.7334   -108.72492    1.3497517   -107.37517    2527.1066    4.3973169    4.3973169    4.3973169    2527.1066    5479.3202   -42238.816    44340.816    12183.718    6377.8994    31403.489     85.02826 
   28800    2134.7128    -109.3167     1.931533   -107.38517    2408.4799    4.3855735    4.3855735    4.3855735    2408.4799     831.2127   -57109.149    63503.376    51579.569    4845.3561   -1781.5487    84.348851 
   28900    2384.9883   -109.57387    2.1579876   -107.41588    2231.8162    4.4081678    4.4081678    4.4081678    2231.8162    77992.977   -28204.498    -43093.03   -19613.152   -11531.254    13223.124    85.659265 
   29000    1234.1997   -108.56001    1.1167298   -107.44328   -70536.131    4.4335884    4.4335884    4.4335884   -70536.131   -89697.675   -110544.09   -11366.629    70206.988    8133.3883    8993.4184    87.149743 
   29100    2853.8334   -109.98693    2.5822085   -107.40472   -11369.122    4.4110601    4.4110601    4.4110601   -11369.122    45990.052   -70416.571   -9680.8475   -4525.6155   -1317.0407   -22467.928    85.827988 
   29200    1966.3732   -109.17756    1.7792158   -107.39835   -3694.7292    4.3837328    4.3837328    4.3837328   -3694.7292    2017.9231   -36521.558    23419.447    53604.608   -18611.523   -3040.1659    84.242689 
   29300    1827.0792    -109.0762    1.6531797   -107.42302   -10090.558    4.3943796    4.3943796    4.3943796   -10090.558    10973.953   -54294.313    13048.686    18298.781    12659.922   -14340.927    84.857985 
   29400    2015.1832   -109.24983    1.8233801   -107.42645     -663.922    4.4074222    4.4074222    4.4074222     -663.922     50243.42   -41638.293   -10596.893    10761.126    -8694.582   -32932.279    85.615809 
   29500    1713.4246   -108.98133    1.5503426   -107.43099   -2334.0571    4.4281438    4.4281438    4.4281438   -2334.0571   -57038.778    -33608.02    83644.627    38280.417   -4267.1443   -3593.9418    86.829067 
   29600    2424.5995   -109.59614    2.1938286   -107.40232   -12383.352    4.4232732    4.4232732    4.4232732   -12383.352     4266.378   -44026.747    2610.3115   -18602.592    30463.012   -40053.048    86.542867 
   29700    1322.3154   -108.58411    1.1964587   -107.38765    38167.993    4.3966633    4.3966633    4.3966633    38167.993    23363.897    2069.5832    89070.499    48346.145   -27136.047   -1062.8548    84.990351 
   29800    2476.8766   -109.63383      2.24113    -107.3927   -12245.949    4.4035915    4.4035915    4.4035915   -12245.949   -15813.499   -22709.316    1784.9691   -33770.363     45034.96   -25157.855    85.392765 
   29900    1495.3396   -108.76043    1.3530147   -107.40742    16108.084    4.4125116    4.4125116    4.4125116    16108.084    50275.161   -36061.163    34110.254     40063.96   -14361.317   -805.10211    85.912745 
   30000     2277.166   -109.47422    2.0604276    -107.4138   -16830.538    4.4303072    4.4303072    4.4303072   -16830.538   -10671.884   -26317.553   -13502.176   -16629.498    20892.384   -6039.2159    86.956392 
   30100    1778.0998   -109.02112    1.6088621   -107.41226   -26313.505    4.4229548    4.4229548    4.4229548   -26313.505   -15362.319    -63335.86   -242.33519   -1775.5894    34593.507   -7448.2088    86.524179 
   30200    1662.6689    -108.8884    1.5044177   -107.38398    16158.091    4.3894167    4.3894167    4.3894167    16158.091    28669.383   -30946.841    50751.731    46160.631   -28805.482   -8892.4752      84.5708 
   30300    2155.7086   -109.35369    1.9505305   -107.40316    12935.348    4.3924256    4.3924256    4.3924256    12935.348   -1271.1568   -11282.182    51359.381   -71461.366    27081.947    5643.5676    84.744837 
   30400    1854.8638   -109.09358    1.6783198   -107.41526    -1893.399    4.4129047    4.4129047    4.4129047    -1893.399    1120.8815   -57583.766    50782.687    66728.133    3163.2552    -5158.999    85.935707 
   30500    1916.8523   -109.15214    1.7344082   -107.41773   -6696.4903    4.4333905    4.4333905    4.4333905   -6696.4903   -18481.254   -35512.658    33904.441   -40213.298   -7878.3072   -12040.642    87.138076 
   30600      2238.51   -109.40579    2.0254509   -107.38034    -4579.435     4.432692     4.432692     4.432692    -4579.435    3789.6585   -37187.455    19659.491    14081.192    10830.803   -365.68461    87.096893 
   30700    1562.4005   -108.78847    1.4136928   -107.37478    10500.427    4.3999414    4.3999414    4.3999414    10500.427    54759.788   -33861.482    10602.974    17892.342    -1599.004   -13169.963    85.180595 
   30800    2322.7873   -109.47963    2.1017067   -107.37792    26085.902    4.3813168    4.3813168    4.3813168    26085.902   -4904.5052    85662.771   -2500.5604   -32093.451   -17881.638   -4363.9732     84.10348 
   30900    2147.8807   -109.38193    1.9434476   -107.43849   -13137.679     4.400622     4.400622     4.400622   -13137.679    37717.855   -52670.696   -24460.195     43569.99    17748.823   -15060.008    85.220133 
   31000    2075.0324   -109.31937     1.877533   -107.44184   -21201.829    4.4302505    4.4302505    4.4302505   -21201.829    5705.9863    -17330.88   -51980.595   -20173.611   -18838.756   -10944.943    86.953059 
   31100     1859.076   -109.10631     1.682131   -107.42418    -2189.118    4.4248668    4.4248668    4.4248668    -2189.118   -22258.663    70521.603   -54830.294    19284.893   -3836.4069    2503.3165    86.636442 
   31200    1479.4457   -108.74405    1.3386335   -107.40541    -1593.534    4.4152407    4.4152407    4.4152407    -1593.534    44537.194   -1217.2071   -48100.589    5861.8143    10057.984   -25714.846     86.07225 
   31300    2598.2206   -109.74349    2.3509246   -107.39256    1209.8718    4.4127426    4.4127426    4.4127426    1209.8718    17145.928    25698.903   -39215.215   -87.226232   -6210.0248    -9057.255    85.926237 
   31400    1857.3621   -109.10187    1.6805803   -107.42129    25772.372    4.3987869    4.3987869    4.3987869    25772.372    23089.887    53671.069    556.16024    33507.633    9587.8951   -11025.005    85.113562 
   31500    1980.2721    -109.2287    1.7917918   -107.43691   -2420.8291    4.4114191    4.4114191    4.4114191   -2420.8291     63590.78    5299.7699   -76153.037    1273.2307    3958.9097    11930.929    85.848942 
   31600    2716.6652   -109.86991    2.4580958   -107.41181   -13159.501    4.4148426    4.4148426    4.4148426   -13159.501    4048.9803   -4124.1981   -39403.285    31940.166    1994.8004    12421.149    86.048969 
   31700    1426.7466   -108.71878    1.2909503   -107.42783    22133.175    4.3948374    4.3948374    4.3948374    22133.175    54804.588     51752.82   -40157.882    17192.885    17849.239   -23786.033    84.884506 
   31800    2244.8311   -109.47476    2.0311703   -107.44359   -9486.4961    4.4052266    4.4052266    4.4052266   -9486.4961    40653.689   -4811.6592   -64301.518   -11572.092   -9258.3995    24214.432    85.487922 
   31900    1901.9711   -109.15678    1.7209434   -107.43583   -5488.5459    4.4053722    4.4053722    4.4053722   -5488.5459   -39361.465    31620.918   -8725.0909   -7409.8999   -7008.3439    6814.0937    85.496397 
   32000    1872.3225   -109.13666    1.6941167   -107.44254     -28421.9    4.4042387    4.4042387    4.4042387     -28421.9    33220.858   -43338.181   -75148.377    18007.607   -605.76703   -54696.012    85.430423 
   32100    2068.8749   -109.31261    1.8719615   -107.44064   -19654.595    4.4119957    4.4119957    4.4119957   -19654.595   -47845.336    2843.3353   -13961.783   -46548.014   -11357.278    23018.646    85.882613 
   32200    1454.9765   -108.76273    1.3164933   -107.44624   -35364.736    4.4190319    4.4190319    4.4190319   -35364.736   -61278.624   -12526.258   -32289.327   -13334.273    6789.5892   -38576.988    86.294158 
   32300    2394.9293   -109.60279    2.1669824   -107.43581   -6278.9172    4.4023825    4.4023825    4.4023825   -6278.9172    12041.804    6185.8794   -37064.435    20082.459    944.38205   -26707.904    85.322452 
   32400    1976.5149   -109.24409    1.7883922    -107.4557    17810.152    4.3936503    4.3936503    4.3936503    17810.152   -4231.8177     47188.39    10473.885   -53677.163   -16906.329    7588.3783    84.815743 
   32500    1663.0674   -108.97455    1.5047783   -107.46977   -10890.449    4.3982878    4.3982878    4.3982878   -10890.449   -1898.1059    13591.633   -44364.875    23645.865    10202.454   -57978.508    85.084593 
   32600    1940.9929   -109.22148    1.7562512   -107.46523    5792.5651    4.3985336    4.3985336    4.3985336    5792.5651   -33326.165    62839.651   -12135.791   -10755.439   -1154.1091    16485.941    85.098862 
   32700    2206.6986   -109.45766    1.9966672   -107.46099   -19483.159    4.4000581    4.4000581    4.4000581   -19483.159   -35983.245    -19122.79   -3343.4434   -32730.937   -21803.281   -27330.589    85.187373 
   32800    2185.9522   -109.42836    1.9778954   -107.45046    9186.8015    4.4078989    4.4078989    4.4078989    9186.8015    4686.4229    61017.969   -38143.988    17119.115    9597.7228   -25031.247    85.643592 
   32900    1483.4878   -108.78466    1.3422909   -107.44237   -50961.845    4.4175703    4.4175703    4.4175703   -50961.845   -130443.01   -34294.381     11851.86   -60425.736       -13715    15829.733    86.208561 
   33000    1818.5092   -109.08151    1.6454254   -107.43609   -17.934089    4.3873734    4.3873734    4.3873734   -17.934089   -29220.768    17834.518    11332.448    -2379.496   -14508.501   -32231.383    84.452747 
   33100    2549.9064   -109.75026    2.3072089   -107.44305    31439.795    4.3813999    4.3813999    4.3813999    31439.795    1956.7489    90343.897    2018.7386   -5668.2197    3067.1359    -36519.72    84.108269 
   33200    2439.2322   -109.67175    2.2070685   -107.46468   -13152.225    4.3998277    4.3998277    4.3998277   -13152.225   -60199.668    40129.459   -19386.467   -44515.296   -24903.336    9569.5775    85.173992 
   33300    1049.5227   -108.42229   0.94963023   -107.47266    29249.287    4.4150076    4.4150076    4.4150076    29249.287   -20885.132    135509.05   -26876.059    32193.547    5346.2935   -37936.338    86.058617 
   33400    2363.0881   -109.57082    2.1381718   -107.43265   -36961.747    4.4335922    4.4335922    4.4335922   -36961.747    -75078.42   -2758.7541   -33048.066     1427.582   -15797.945    419.93372    87.149967 
   33500    2276.3722   -109.47574    2.0597094   -107.41603    9272.8637    4.4086261    4.4086261    4.4086261    9272.8637   -43256.128    74443.723   -3369.0036    1967.3741   -11929.376    -13980.98    85.685988 
[...]
   91300    1961.6402   -109.12959    1.7749333   -107.35465   -36106.143    4.4065952    4.4065952    4.4065952   -36106.143   -74872.256   -45402.361    11956.187    52773.407    15999.098    5457.3334    85.567624 
   91400    1581.6664   -108.80451     1.431125   -107.37339   -8455.3206    4.3846131    4.3846131    4.3846131   -8455.3206   -56085.596   -29027.858    59747.493    67106.187    27238.648   -21476.377    84.293453 
   91500    2124.6794   -109.29146    1.9224546     -107.369    37823.847    4.3618938    4.3618938    4.3618938    37823.847    21637.896    6078.9027    85754.741    43596.997   -15570.978   -2649.0999    82.989907 
   91600    1766.5867   -108.99686    1.5984447   -107.39841   -16076.522    4.3768075    4.3768075    4.3768075   -16076.522   -70701.944   -13668.198    36140.577    65800.245    17386.561    5933.3175    83.844069 
   91700    1944.9206   -109.15392    1.7598051   -107.39412   -21870.089    4.3942532    4.3942532    4.3942532   -21870.089   -45846.709   -17543.127   -2220.4327   -19346.103      28424.6   -7860.7588     84.85066 
   91800    2404.7731   -109.56273    2.1758893   -107.38685    4877.7583    4.3921321    4.3921321    4.3921321    4877.7583   -22536.448   -39524.408     76694.13    76468.723   -6668.9477    -9206.407    84.727848 
   91900    1446.1327   -108.70645    1.3084913   -107.39796   -24077.147    4.3903821    4.3903821    4.3903821   -24077.147   -75458.203    30712.608   -27485.846   -63688.327    20044.713    4553.4439    84.626612 
   92000    2082.0355   -109.28182    1.8838695   -107.39795   -5365.7471    4.3813387    4.3813387    4.3813387   -5365.7471   -14564.188   -24666.313    23133.259    44309.578    11169.536   -16746.031    84.104745 
   92100    1993.8435   -109.20709    1.8040715   -107.40302    19085.462    4.3698103    4.3698103    4.3698103    19085.462    2935.6639   -11302.381    65623.104   -65726.286    5956.5524    4345.5811    83.442584 
   92200    1583.5019   -108.85735    1.4327858   -107.42456   -14924.506    4.3888409    4.3888409    4.3888409   -14924.506   -76817.341    46737.879   -14694.055   -17104.916    6672.6574    6076.7231    84.537519 
   92300    2869.3394   -109.97318    2.5962385   -107.37694    8227.2661    4.3979231    4.3979231    4.3979231    8227.2661    13038.114    -40765.64    52409.324    -23331.84    3118.0384    10816.179    85.063428 
   92400    952.52823   -108.26497   0.86186756   -107.40311    693.86735    4.3861701    4.3861701    4.3861701    693.86735    -51383.14   -45065.475    98530.217   -59684.159    31436.158    10840.677    84.383279 
   92500    3219.6832   -110.27285     2.913237   -107.35961    31105.146    4.3772966    4.3772966    4.3772966    31105.146     73316.34   -18394.686    38393.784    8712.4029     1829.694    3069.4519    83.872178 
   92600    773.65481   -108.12212   0.70001913    -107.4221   -12607.867    4.3784857    4.3784857    4.3784857   -12607.867   -57604.607   -74085.212    93866.218   -50993.779     5693.844     2951.834    83.940551 
   92700    3268.7957   -110.33087    2.9576751    -107.3732    27642.025     4.387156     4.387156     4.387156    27642.025    53354.884    14243.557    15327.633    21422.009    28880.615    16063.642    84.440194 
   92800    1120.2898   -108.41589    1.0136618   -107.40223   -35019.213    4.4004354    4.4004354    4.4004354   -35019.213   -54756.912   -66537.717    16236.989   -66892.878   -33684.664   -4835.9809    85.209289 
   92900    2846.3119   -109.94601    2.5754028    -107.3706   -4673.7851    4.3954319    4.3954319    4.3954319   -4673.7851    21062.517    -28234.73   -6849.1429     51962.06    15924.483    5418.1653     84.91896 
   93000    1221.3179   -108.49186    1.1050741   -107.38678   -14418.946    4.3873437    4.3873437    4.3873437   -14418.946   -38928.688   -63237.967    58909.815   -87752.876   -31303.113    5381.8792    84.451034 
   93100    2925.0308   -109.99969    2.6466293   -107.35307   -696.57417    4.3976666    4.3976666    4.3976666   -696.57417   -7680.7147   -15238.311    20829.303    15495.375   -11777.121   -8719.7895    85.048549 
   93200    1439.7105   -108.66444    1.3026803   -107.36176   -20829.618      4.40933      4.40933      4.40933   -20829.618   -27034.653   -52292.954    16838.755   -77077.983    4378.6731    14562.657    85.727035 
   93300    2250.5898   -109.37994    2.0363809   -107.34356   -12722.379    4.4085354    4.4085354    4.4085354   -12722.379   -17731.655   -1075.1488   -19360.335    4733.6941   -50747.366    7030.9533    85.680696 
   93400    1994.0253   -109.16998     1.804236   -107.36575   -7096.4995    4.3856362    4.3856362    4.3856362   -7096.4995   -25262.793   -53091.844    57065.138   -44721.699    10809.398   -10461.721    84.352471 
   93500    1567.8799   -108.82214    1.4186507   -107.40349    6280.2706    4.3612248    4.3612248    4.3612248    6280.2706    47808.392   -38590.963    9623.3826   -65774.589    14904.468    18427.372    82.951723 
   93600    2915.8247   -110.04008    2.6382995   -107.40178    27614.888    4.3615316    4.3615316    4.3615316    27614.888    51870.136   -4834.0146    35808.542    24426.153   -21023.697   -7170.0065     82.96923 
   93700    677.67101   -108.07267   0.61317097    -107.4595   -19143.951     4.386633     4.386633     4.386633   -19143.951   -9754.3108   -113208.46    65530.918   -75438.945    16004.653   -3351.1681        84.41 
   93800    3243.9956   -110.32801    2.9352354   -107.39278   -8492.5696    4.4032763    4.4032763    4.4032763   -8492.5696    24098.312   -17117.178   -32458.843    16872.766    23355.397    3498.3837    85.374427 
   93900    1012.3885   -108.33936    0.9160304   -107.42333   -18046.292    4.3892669    4.3892669    4.3892669   -18046.292    31795.243   -104272.86    18338.743   -61732.011   -15732.709    2105.9776    84.562142 
   94000    3014.6728   -110.13217    2.7277393   -107.40443    16461.114    4.3727683    4.3727683    4.3727683    16461.114    48208.919    -19754.08    20928.502    20434.562    3424.3403   -3221.1295    83.612152 
   94100    1533.4862   -108.82645    1.3875306   -107.43892    41947.431     4.356737     4.356737     4.356737    41947.431    136857.24   -17026.345    6011.4002   -47422.777   -4423.6603   -4825.7954    82.695911 
   94200    1861.3348   -109.14954    1.6841749   -107.46537    10878.316    4.3730877    4.3730877    4.3730877    10878.316   -3879.2484    26897.512    9616.6854   -50651.687   -13189.927    1579.0864    83.630473 
   94300    2865.7132   -110.02132    2.5929575   -107.42836    3847.3237    4.3952216    4.3952216    4.3952216    3847.3237   -4462.5521    49281.749   -33277.225    18017.478    20045.727   -9494.9052    84.906773 
   94400    1113.8164   -108.44595    1.0078045   -107.43815    2089.7151    4.3967933    4.3967933    4.3967933    2089.7151    13640.961    -19476.08    12104.264   -84918.457    -1953.244   -5628.4676    84.997893 
   94500    3124.2404   -110.20076    2.8268784   -107.37388   -7203.4473    4.3997748    4.3997748    4.3997748   -7203.4473   -1571.0085   -10730.094   -9309.2393    50124.984    9541.6276   -2928.8826    85.170923 
   94600    905.95753   -108.22764   0.81972941   -107.40791   -26391.855    4.3844151    4.3844151    4.3844151   -26391.855   -71341.409   -73647.965    65813.808   -75355.047    27476.271     667.2393    84.282029 
   94700    2492.3112   -109.64431    2.2550956   -107.38921    23304.442    4.3629654    4.3629654    4.3629654    23304.442    41353.103    28791.211    -230.9881    4548.3765   -41336.218     -5528.89    83.051086 
   94800    1492.8594   -108.77747    1.3507705    -107.4267   -5244.8839    4.3678853    4.3678853    4.3678853   -5244.8839    -50771.24   -31100.116    66136.705   -20042.849   -29456.927     3829.731    83.332356 
   94900    2417.6884   -109.61488    2.1875752    -107.4273   -1945.6753    4.3846229    4.3846229    4.3846229   -1945.6753    8816.3668   -43931.706    29278.313   -29949.925    12281.401   -8470.4178    84.294018 
   95000     1980.622   -109.21097    1.7921084   -107.41886   -16091.685    4.4003314    4.4003314    4.4003314   -16091.685   -36504.992   -10233.888   -1536.1758   -7365.6627   -57299.812   -2610.7589    85.203251 
   95100    1478.5951   -108.74695    1.3378639   -107.40909   -13780.089    4.3913244    4.3913244    4.3913244   -13780.089   -53171.334   -77694.902     89525.97   -42902.749    8820.4346    13929.947    84.681114 
   95200    2491.9135    -109.6259    2.2547357   -107.37116    5977.6384    4.3818523    4.3818523    4.3818523    5977.6384    16191.226    24219.754   -22478.065    25378.829    1615.9804   -1810.5741    84.134321 
   95300    1330.1917   -108.60025    1.2035854   -107.39667   -29518.688    4.3803787    4.3803787    4.3803787   -29518.688   -86014.802   -71713.314    69172.053   -129121.33   -16862.507   -4995.1827    84.049468 
   95400    3081.4916   -110.17307    2.7881983   -107.38487    20818.328    4.3741036    4.3741036    4.3741036    20818.328    32642.212      29973.5   -160.72834    36806.323    12423.564    2241.3468    83.688774 
   95500    945.01541   -108.30011    0.8550698   -107.44504   -51832.132     4.379576     4.379576     4.379576   -51832.132    -118559.6   -60816.164    23879.363   -132697.14    27510.755    8586.2831     84.00327 
   95600    2621.6593   -109.79783    2.3721325    -107.4257    720.34831    4.3757183    4.3757183    4.3757183    720.34831   -24922.251    22497.112    4586.1836    3049.1269   -35042.624   -3773.4425    83.781485 
   95700    1470.3101   -108.76687    1.3303675    -107.4365   -15007.846    4.3851037    4.3851037    4.3851037   -15007.846    -49379.47   -41451.014    45806.947   -50975.036    3598.4209    24255.198    84.321747 
   95800    2081.0494   -109.29692    1.8829772   -107.41394   -15526.153     4.393747     4.393747     4.393747   -15526.153   -35488.312    5032.7336   -16122.882    -45936.35     40175.98    2438.2067     84.82134 
   95900    2243.5563   -109.42515    2.0300169   -107.39513    3213.3867    4.3866015    4.3866015    4.3866015    3213.3867    26326.241   -16333.083   -352.99698   -6696.4639   -10053.594    14680.756    84.408184 
   96000    1452.9464   -108.72025    1.3146565   -107.40559    3446.2007    4.3786513    4.3786513    4.3786513    3446.2007   -11344.641   -43276.575    64959.819   -70431.505    17192.236    2253.8119    83.950072 
   96100    2566.3512   -109.70986    2.3220885   -107.38777    33627.226    4.3786385    4.3786385    4.3786385    33627.226    56142.725    61392.577   -16653.622    19216.011    32766.313    13033.516    83.949337 
   96200     1260.194   -108.56012      1.14025   -107.41987   -19717.887    4.3842507    4.3842507    4.3842507   -19717.887   -16544.098   -47725.782    5116.2174   -87239.156   -20750.782    18127.922    84.272549 
   96300    3436.8197   -110.50038    3.1097067   -107.39067    15666.406    4.3838026    4.3838026    4.3838026    15666.406    27279.365    33573.685   -13853.831     21817.11    24522.825   -10980.037    84.246713 
   96400    999.50782   -108.34145   0.90437568   -107.43707   -36545.351    4.3925711    4.3925711    4.3925711   -36545.351   -26830.647   -61964.887   -20840.518    -61814.21    4998.8767    19399.145    84.753258 
   96500    2036.6629   -109.27186    1.8428154   -107.42904   -31970.178    4.3917793    4.3917793    4.3917793   -31970.178    -25395.47   -17146.725    -53368.34   -28880.635   -37804.558    4085.4603    84.707432 
   96600    2270.7398   -109.46346    2.0546131   -107.40885    8954.7161    4.3825516    4.3825516    4.3825516    8954.7161      9165.73   -3426.0292    21124.447   -10935.412    19787.571   -4187.6533    84.174608 
   96700    1593.5325   -108.85752    1.4418617   -107.41566   -16072.669    4.3854144    4.3854144    4.3854144   -16072.669   -3748.4484   -63851.118    19381.559   -62501.669   -14941.841    13570.722    84.339676 
   96800    3167.6907   -110.25565    2.8661931   -107.38946    24937.168    4.3780779    4.3780779    4.3780779    24937.168    35846.541    56835.208   -17870.246    6643.2256    5770.3601   -8045.6625    83.917099 
   96900    439.92877   -107.85169   0.39805679   -107.45364   -27474.381    4.3812576    4.3812576    4.3812576   -27474.381   -23661.854   -72328.331    13567.043    -82367.06    24939.885    88.575975    84.100072 
   97000    3193.8576   -110.30526    2.8898695   -107.41539    11046.204    4.3845591    4.3845591    4.3845591    11046.204    40583.085    28844.607   -36289.078    19897.178    -22697.62    7424.7643    84.290339 
   97100    1135.4865   -108.47455    1.0274121   -107.44714   -7401.6259    4.3854911    4.3854911    4.3854911   -7401.6259    26613.785   -60908.532    12089.869   -90767.441   -8204.6279    -13150.67    84.344099 
   97200    2600.7834   -109.76127    2.3532435   -107.40803   -2267.2366    4.3861522    4.3861522    4.3861522   -2267.2366    17687.214   -14010.928   -10477.995    16044.757    11083.905    8742.6093    84.382251 
   97300    1457.3404   -108.73849    1.3186322   -107.41986    22115.456    4.3767143    4.3767143    4.3767143    22115.456    15777.831    161.38767    50407.149   -58094.946   -47843.628    2440.0917     83.83871 
   97400    2106.0255   -109.31821    1.9055761   -107.41264    5799.7126    4.3852981    4.3852981    4.3852981    5799.7126   -18843.897   -18137.963    54380.997   -17293.935    6552.1324    4451.0554    84.332964 
   97500     2011.906   -109.21264    1.8204148   -107.39222    9286.3492    4.3938736    4.3938736    4.3938736    9286.3492   -16828.206    18372.973    26314.281   -41742.618   -12514.213    4676.3635    84.828674 
   97600    1488.0625   -108.74706    1.3464302   -107.40063   -10892.576    4.4025422    4.4025422    4.4025422   -10892.576   -94323.562    2216.7028    59429.131   -66896.618   -29454.817   -3250.9338    85.331735 
   97700    2475.6964   -109.60553    2.2400622   -107.36547    20010.924    4.3930649    4.3930649    4.3930649    20010.924   -13191.866    27547.592    45677.048   -21564.181    11612.962   -5360.2771    84.781844 
   97800    1466.6272   -108.70066    1.3270351   -107.37362    3975.1286    4.3804639    4.3804639    4.3804639    3975.1286   -30130.675    11585.804    30470.257   -75283.176   -47927.854   -1999.1788    84.054375 
   97900    2831.2628   -109.92251    2.5617861   -107.36072   -1231.8998    4.3815294    4.3815294    4.3815294   -1231.8998    26196.887   -6434.1489   -23458.437    10010.472   -21034.934    -20074.45    84.115726 
   98000    1226.9542    -108.5183     1.110174   -107.40813    27733.894    4.3774059    4.3774059    4.3774059    27733.894    40719.099   -32631.579    75114.163   -90640.375   -6915.9373   -7559.7335     83.87846 
   98100    2606.9136   -109.74288    2.3587902   -107.38409   -4537.3513    4.3964131    4.3964131    4.3964131   -4537.3513   -2129.7934    27746.066   -39228.327    25482.582   -76642.718   -5986.8557    84.975842 
   98200    1812.8331   -109.03351    1.6402895   -107.39322    -8402.471    4.3942692    4.3942692    4.3942692    -8402.471    10092.882   -69790.862    34490.567   -98992.033     21891.87    1876.9099     84.85159 
   98300    2106.0378   -109.28788    1.9055873   -107.38229    24497.495    4.3804693    4.3804693    4.3804693    24497.495   -19178.234      61489.6    31181.118    22291.035   -70062.608   -15774.011    84.054683 
   98400    1803.5093    -109.0164    1.6318532   -107.38454    3266.3276    4.3820394    4.3820394    4.3820394    3266.3276    -11767.27   -8962.3631    30528.616   -76169.752   -4617.5729    11515.958    84.145099 
   98500    1979.4552   -109.17484    1.7910527   -107.38379    12955.606     4.387613     4.387613     4.387613    12955.606   -19253.553    22864.227    35256.144   -11318.618   -24862.233   -1445.6666    84.466587 
   98600    1909.5479   -109.11859    1.7277991   -107.39079    -3179.507     4.390328     4.390328     4.390328    -3179.507   -22477.392    25571.813   -12632.943    -29333.33   -49623.041   -5246.8588    84.623483 
   98700    1757.8583   -108.98344    1.5905472   -107.39289     26982.28    4.3868147    4.3868147    4.3868147     26982.28    21252.238    1483.5069    58211.096   -51886.776    23451.928    25194.572    84.420488 
   98800    2126.3798     -109.305    1.9239932   -107.38101    24769.475    4.3878237    4.3878237    4.3878237    24769.475   -18214.421    49052.574    43470.271    35936.646   -44115.239   -4563.3258    84.478754 
   98900    1525.5655   -108.77009    1.3803638   -107.38972    5673.1328    4.3938742    4.3938742    4.3938742    5673.1328   -29652.863   -36476.192    83148.453   -107968.89    2434.4429    12128.106    84.828709 
   99000    2679.8324   -109.77502    2.4247687   -107.35025    2036.8129    4.3957537    4.3957537    4.3957537    2036.8129   -42193.234    55636.357   -7332.6841    59837.856   -14907.397     7509.481    84.937611 
   99100    1177.4637   -108.43836    1.0653939   -107.37297   -40216.883    4.3957046    4.3957046    4.3957046   -40216.883   -106404.35   -76642.958    62396.658   -104311.69   -17463.204   -621.19444    84.934767 
   99200    3174.2485   -110.20589    2.8721268   -107.33377    18479.003    4.3885259    4.3885259    4.3885259    18479.003   -17262.706     78132.91   -5433.1962    38491.762    15089.391    8442.0966     84.51932 
   99300     850.2346   -108.15334   0.76931013   -107.38403   -21552.213    4.3862039    4.3862039    4.3862039   -21552.213   -102052.74   -32060.422    69456.526   -92021.658    -25684.82    779.63097    84.385229 
   99400    3102.5383   -110.15705    2.8072418   -107.34981    29394.633    4.3818241    4.3818241    4.3818241    29394.633    1378.7319    76930.973    9874.1945     42568.22    12886.881    -13780.47    84.132698 
   99500    932.68384   -108.24583   0.84391194   -107.40192   -24595.979    4.3876153    4.3876153    4.3876153   -24595.979   -112301.12   -1162.1046    39675.283   -88711.642    21566.189    11226.202     84.46672 
   99600     3160.394   -110.22802    2.8595909   -107.36843    9666.1098    4.3935574    4.3935574    4.3935574    9666.1098    8986.3056    23446.758   -3434.7343    18770.121   -18118.236   -12934.874    84.810364 
   99700     923.2201   -108.22723   0.83534895   -107.39189   -34210.203    4.3997274    4.3997274    4.3997274   -34210.203   -99448.033   -6204.5261    3021.9512   -89326.747    52800.308   -456.85895    85.168168 
   99800    2879.6472   -109.95197    2.6055653   -107.34641    6998.1663    4.4012851    4.4012851    4.4012851    6998.1663    4908.8873    13504.806    2580.8059      1549.69   -16837.993   -3737.9614    85.258661 
   99900    1250.7805   -108.50341    1.1317325   -107.37167   -34608.852    4.3940954    4.3940954    4.3940954   -34608.852   -80752.136    859.94672   -23934.367    -62710.31    42556.786    24298.209    84.841523 
  100000    1958.9017   -109.16565    1.7724554   -107.39319    11222.386    4.3730739    4.3730739    4.3730739    11222.386   -12291.121    35975.515    9982.7625   -54153.097    26808.881   -15617.453    83.629681 
Loop time of 22.17 on 1 procs for 100000 steps with 8 atoms

Pair  time (%) = 6.55209 (29.5539)
Kspce time (%) = 5.48008 (24.7185)
Neigh time (%) = 0.263119 (1.18683)
Comm  time (%) = 0.955187 (4.30847)
Outpt time (%) = 0.0260303 (0.117412)
Other time (%) = 8.89345 (40.1149)

Nlocal:    8 ave 8 max 8 min
Histogram: 1 0 0 0 0 0 0 0 0 0
Nghost:    2026 ave 2026 max 2026 min
Histogram: 1 0 0 0 0 0 0 0 0 0
Neighs:    2043 ave 2043 max 2043 min
Histogram: 1 0 0 0 0 0 0 0 0 0

Total # of neighbors = 2043
Ave neighs/atom = 255.375
Neighbor list builds = 3375
Dangerous builds = 0
unfix 20
unfix 21
print "seeds:1753698"
seeds:1753698
