LAMMPS (11 Aug 2017)
# ---- initialize simulations
clear
units metal
dimension 3
boundary p p p
atom_style atomic
atom_modify map array
# ---- create atoms
read_data /ufrc/phillpot/eragasa/pareto_optimization_3.5NN/rank_45/Ni_bcc.lmps_min_all/lammps.structure
  triclinic box = (0 0 0) to (2.8005 2.8005 2.8005) with tilt (0 0 0)
  1 by 1 by 1 MPI processor grid
  reading atoms ...
  2 atoms
# ---- define interatomic potential
include potential.mod
mass 1 58.6934

group Ni type 1
2 atoms in group Ni

pair_style eam/alloy
pair_coeff * * /ufrc/phillpot/eragasa/pareto_optimization_3.5NN/rank_45/Ni_bcc.lmps_min_all/Ni.eam.alloy Ni

neighbor 1.0 bin
neigh_modify every 1 delay 0 check yes
# ---- define settings
compute eng all pe/atom
compute eatoms all reduce sum c_eng
# ---- run minimization
reset_timestep 0
fix 1 all box/relax aniso 0.0 vmax 0.001
thermo 10
thermo_style custom step pe xhi xlo yhi ylo zhi xy xz yz press pxx pyy pzz pxy pxz pyz c_eatoms
min_style cg
minimize 1e-25 1e-25 5000 10000
Neighbor list info ...
  update every 1 steps, delay 0 steps, check yes
  max neighbors/atom: 2000, page size: 100000
  master list distance cutoff = 5.64464
  ghost atom cutoff = 5.64464
  binsize = 2.82232, bins = 1 1 1
  1 neighbor lists, perpetual/occasional/extra = 1 0 0
  (1) pair eam/alloy, perpetual
      attributes: half, newton on
      pair build: half/bin/newton/tri
      stencil: half/bin/3d/newton/tri
      bin: standard
Per MPI rank memory allocation (min/avg/max) = 4.24 | 4.24 | 4.24 Mbytes
Step PotEng Xhi Xlo Yhi Ylo Zhi Xy Xz Yz Press Pxx Pyy Pzz Pxy Pxz Pyz c_eatoms 
       0   -12.752228       2.8005            0       2.8005            0       2.8005            0            0            0   -673037.23   -673037.23   -673037.23   -673037.23  0.021308993  0.021308993  0.021308993   -12.752228 
      10       -13.03    2.7864975    0.0140025    2.7864975    0.0140025    2.7864975            0            0            0   -691306.18   -691306.18   -691306.18   -691306.18 0.0011639552 0.0011639552 0.0011639552       -13.03 
      20   -13.309264     2.772495     0.028005     2.772495     0.028005     2.772495            0            0            0   -708242.21   -708242.21   -708242.21   -708242.21  0.001382852  0.001382852  0.001382852   -13.309264 
      30   -13.589178    2.7584925    0.0420075    2.7584925    0.0420075    2.7584925            0            0            0   -723419.59   -723419.59   -723419.59   -723419.59 0.0016191665 0.0016191665 0.0016191665   -13.589178 
      40   -13.868789      2.74449      0.05601      2.74449      0.05601      2.74449            0            0            0   -736406.38   -736406.38   -736406.38   -736406.38  0.001878156  0.001878156 0.0018781561   -13.868789 
      50   -14.147191    2.7304875    0.0700125    2.7304875    0.0700125    2.7304875            0            0            0   -747965.07   -747965.07   -747965.07   -747965.07 0.0021614331 0.0021614332 0.0021614331   -14.147191 
      60   -14.423617     2.716485     0.084015     2.716485     0.084015     2.716485            0            0            0   -756784.34   -756784.34   -756784.34   -756784.34 0.0024744925 0.0024744924 0.0024744923   -14.423617 
      70   -14.696723    2.7024825    0.0980175    2.7024825    0.0980175    2.7024825            0            0            0   -761726.98   -761726.98   -761726.98   -761726.98 0.0028042916 0.0028042915 0.0028042916   -14.696723 
      80   -14.964963      2.68848      0.11202      2.68848      0.11202      2.68848            0            0            0   -761999.29   -761999.29   -761999.29   -761999.29 0.0031559876 0.0031559877 0.0031559876   -14.964963 
      90   -15.226598    2.6744775    0.1260225    2.6744775    0.1260225    2.6744775            0            0            0   -756676.29   -756676.29   -756676.29   -756676.29 0.0035303038 0.0035303039 0.0035303038   -15.226598 
     100   -15.479665     2.660475     0.140025     2.660475     0.140025     2.660475            0            0            0   -744680.93   -744680.93   -744680.93   -744680.93 0.0039267997 0.0039267997 0.0039267997   -15.479665 
     110   -15.721956    2.6464725    0.1540275    2.6464725    0.1540275    2.6464725            0            0            0    -724759.9    -724759.9    -724759.9    -724759.9 0.0043230038 0.0043230038 0.0043230037   -15.721956 
     120   -15.950982      2.63247      0.16803      2.63247      0.16803      2.63247            0            0            0   -695455.58   -695455.58   -695455.58   -695455.58 0.0047169465 0.0047169467 0.0047169465   -15.950982 
     130   -16.163946    2.6184675    0.1820325    2.6184675    0.1820325    2.6184675            0            0            0   -655073.59   -655073.59   -655073.59   -655073.59  0.005098977  0.005098977 0.0050989769   -16.163946 
     140   -16.357698     2.604465     0.196035     2.604465     0.196035     2.604465            0            0            0   -601644.89   -601644.89   -601644.89   -601644.89 0.0054441123 0.0054441124 0.0054441126   -16.357698 
     150   -16.528699    2.5904625    0.2100375    2.5904625    0.2100375    2.5904625            0            0            0   -532881.94   -532881.94   -532881.94   -532881.94 0.0056978445 0.0056978448 0.0056978445   -16.528699 
     160   -16.676925      2.57646      0.22404      2.57646      0.22404      2.57646            0            0            0   -485379.63   -485379.63   -485379.63   -485379.63 0.0058063157 0.0058063157 0.0058063156   -16.676925 
     170   -16.810006    2.5624575    0.2380425    2.5624575    0.2380425    2.5624575            0            0            0   -440249.24   -440249.24   -440249.24   -440249.24  0.005773488 0.0057734886  0.005773488   -16.810006 
     180   -16.925341     2.548455     0.252045     2.548455     0.252045     2.548455            0            0            0   -380865.59   -380865.59   -380865.59   -380865.59 0.0055400605 0.0055400602 0.0055400603   -16.925341 
     190   -17.019244    2.5344525    0.2660475    2.5344525    0.2660475    2.5344525            0            0            0   -302902.29   -302902.29   -302902.29   -302902.29 0.0050041241 0.0050041243 0.0050041244   -17.019244 
     200   -17.087195      2.52045      0.28005      2.52045      0.28005      2.52045            0            0            0   -202544.91   -202544.91   -202544.91   -202544.91  0.004015198 0.0040151986 0.0040151986   -17.087195 
     210   -17.124029    2.5064475    0.2940525    2.5064475    0.2940525    2.5064475            0            0            0    -75494.87    -75494.87    -75494.87    -75494.87 0.0021982175 0.0021982174 0.0021982176   -17.124029 
     220   -17.128968    2.4994097   0.30109031    2.4994097   0.30109031    2.4994097            0            0            0 1.9167714e-05 1.9167657e-05 1.9167791e-05 1.9167694e-05 4.227753e-10 2.092947e-11 -9.2089668e-11   -17.128968 
Loop time of 0.00355721 on 1 procs for 220 steps with 2 atoms

100.0% CPU use with 1 MPI tasks x no OpenMP threads

Minimization stats:
  Stopping criterion = energy tolerance
  Energy initial, next-to-last, final = 
        -12.7522278028     -17.1289675087     -17.1289675087
  Force two-norm initial, final = 15.9807 1.86876e-09
  Force max component initial, final = 9.22647 7.5428e-10
  Final line search alpha, max atom move = 1 7.5428e-10
  Iterations, force evaluations = 220 225

MPI task timing breakdown:
Section |  min time  |  avg time  |  max time  |%varavg| %total
---------------------------------------------------------------
Pair    | 0.0015984  | 0.0015984  | 0.0015984  |   0.0 | 44.93
Neigh   | 3.5048e-05 | 3.5048e-05 | 3.5048e-05 |   0.0 |  0.99
Comm    | 0.0004251  | 0.0004251  | 0.0004251  |   0.0 | 11.95
Output  | 0.00021529 | 0.00021529 | 0.00021529 |   0.0 |  6.05
Modify  | 0          | 0          | 0          |   0.0 |  0.00
Other   |            | 0.001283   |            |       | 36.08

Nlocal:    2 ave 2 max 2 min
Histogram: 1 0 0 0 0 0 0 0 0 0
Nghost:    557 ave 557 max 557 min
Histogram: 1 0 0 0 0 0 0 0 0 0
Neighs:    136 ave 136 max 136 min
Histogram: 1 0 0 0 0 0 0 0 0 0

Total # of neighbors = 136
Ave neighs/atom = 68
Neighbor list builds = 2
Dangerous builds = 0
# ---- define output variables ----
variable natoms equal "count(all)"
variable tot_energy equal "c_eatoms"
variable a11 equal "xhi-xlo"
variable a22 equal "yhi-ylo"
variable a33 equal "zhi-zlo"
variable tilt_xy equal "xy"
variable tilt_xz equal "xz"
variable tilt_yz equal "yz"
variable tot_press equal "press"
variable press_xx equal "pxx"
variable press_yy equal "pyy"
variable press_zz equal "pzz"
variable press_xy equal "pxy"
variable press_xz equal "pxz"
variable press_yz equal "pyz"

# ---- output ----
print "pypospack:output_section:begin"
pypospack:output_section:begin
print "tot_energy = ${tot_energy}"
tot_energy = -17.1289675087225
print "num_atoms = ${natoms}"
num_atoms = 2
print "a11 = ${a11}"
a11 = 2.19831938339388
print "a22 = ${a22}"
a22 = 2.19831938339388
print "a33 = ${a33}"
a33 = 2.19831938339388
print "a12 = ${tilt_xy}"
a12 = 0
print "a13 = ${tilt_xz}"
a13 = 0
print "a23 = ${tilt_yz}"
a23 = 0
print "tot_press = ${tot_press}"
tot_press = 1.91677137982227e-05
print "pxx = ${press_xx}"
pxx = 1.91676565910044e-05
print "pyy = ${press_yy}"
pyy = 1.9167790539613e-05
print "pzz = ${press_zz}"
pzz = 1.91676942640506e-05
print "pxy = ${press_xy}"
pxy = 4.22775295639837e-10
print "pxz = ${press_xz}"
pxz = 2.09294700811801e-11
print "pyz = ${press_yz}"
pyz = -9.20896683571923e-11
print "pypospack:output_section:done"
pypospack:output_section:done
print "pypospack:lammps_sim:done"
pypospack:lammps_sim:done
Total wall time: 0:00:00
