# ['Ni']

28 atoms
1 atom types

    0.0000     2.4866 xlo xhi
    0.0000     4.3069 ylo yhi
    0.0000    28.4238 zlo zhi

    0.0000     0.0000     0.0000 xy xz yz

Atoms

1 1     0.0000     0.0000     0.0000
2 1     1.2433     2.1534     0.0000
3 1     1.2433     0.7178     2.0303
4 1     0.0000     2.8712     2.0303
5 1     0.0000     1.4356     4.0605
6 1     1.2433     3.5890     4.0605
7 1     0.0000     0.0000     6.0908
8 1     1.2433     2.1534     6.0908
9 1     1.2433     0.7178     8.1211
10 1     0.0000     2.8712     8.1211
11 1     0.0000     1.4356    10.1514
12 1     1.2433     3.5890    10.1514
13 1     0.0000     0.0000    12.1816
14 1     1.2433     2.1534    12.1816
15 1     0.0000     1.4356    14.2119
16 1     1.2433     3.5890    14.2119
17 1     0.0000     0.0000    16.2422
18 1     1.2433     2.1534    16.2422
19 1     1.2433     0.7178    18.2724
20 1     0.0000     2.8712    18.2724
21 1     0.0000     1.4356    20.3027
22 1     1.2433     3.5890    20.3027
23 1     0.0000     0.0000    22.3330
24 1     1.2433     2.1534    22.3330
25 1     1.2433     0.7178    24.3632
26 1     0.0000     2.8712    24.3632
27 1     0.0000     1.4356    26.3935
28 1     1.2433     3.5890    26.3935
