       N       E                     dE             d eps       ncg     rms          rms(c)
DAV:   1    -0.444641231153E+03   -0.44464E+03   -0.13324E+04   256   0.186E+03
DAV:   2    -0.450091818354E+03   -0.54506E+01   -0.54582E+01   448   0.683E+01
DAV:   3    -0.450103359342E+03   -0.11541E-01   -0.11541E-01   272   0.321E+00
DAV:   4    -0.450103395783E+03   -0.36441E-04   -0.36446E-04   352   0.173E-01
DAV:   5    -0.450103396059E+03   -0.27675E-06   -0.27262E-06   352   0.120E-02    0.940E+01
DAV:   6    -0.571563926104E+02    0.39295E+03   -0.30727E+02   336   0.156E+02    0.475E+01
DAV:   7    -0.133286716026E+03   -0.76130E+02   -0.21052E+03   256   0.316E+02    0.766E+01
DAV:   8    -0.302789536612E+02    0.10301E+03   -0.16870E+03   256   0.524E+02    0.338E+01
DAV:   9    -0.112728599062E+02    0.19006E+02   -0.10317E+02   256   0.975E+01    0.680E+00
DAV:  10    -0.123153689492E+02   -0.10425E+01   -0.22223E+00   320   0.148E+01    0.976E+00
DAV:  11    -0.111540528475E+02    0.11613E+01   -0.25586E+01   256   0.496E+01    0.438E+00
DAV:  12    -0.109774718127E+02    0.17658E+00   -0.79644E+00   256   0.313E+01    0.418E+00
DAV:  13    -0.109858580308E+02   -0.83862E-02   -0.58493E-03   256   0.645E-01    0.386E+00
DAV:  14    -0.108299858921E+02    0.15587E+00   -0.68483E-01   256   0.841E+00    0.121E+00
DAV:  15    -0.108113911240E+02    0.18595E-01   -0.27869E-01   256   0.548E+00    0.495E-01
DAV:  16    -0.108123749336E+02   -0.98381E-03   -0.25417E-03   320   0.483E-01    0.452E-01
DAV:  17    -0.108100688555E+02    0.23061E-02   -0.57084E-03   256   0.812E-01    0.345E-01
DAV:  18    -0.108097107448E+02    0.35811E-03   -0.28421E-03   272   0.532E-01    0.701E-02
DAV:  19    -0.108096320644E+02    0.78680E-04   -0.47424E-04   256   0.227E-01    0.315E-02
DAV:  20    -0.108096342455E+02   -0.21811E-05   -0.10960E-05   208   0.312E-02    0.967E-03
DAV:  21    -0.108096347384E+02   -0.49287E-06   -0.10890E-06   128   0.100E-02
   1 F= -.10809635E+02 E0= -.10812870E+02  d E =0.970727E-02  mag=     0.9872
