# ['Ni']

28 atoms
1 atom types

    0.0000     2.4838 xlo xhi
    0.0000     4.3022 ylo yhi
    0.0000    28.3928 zlo zhi

    0.0000     0.0000     0.0000 xy xz yz

Atoms

1 1     0.0000     0.0000     0.0000
2 1     1.2419     2.1511     0.0000
3 1     1.2419     0.7170     2.0281
4 1     0.0000     2.8681     2.0281
5 1     0.0000     1.4340     4.0561
6 1     1.2419     3.5851     4.0561
7 1     0.0000     0.0000     6.0842
8 1     1.2419     2.1511     6.0842
9 1     1.2419     0.7170     8.1122
10 1     0.0000     2.8681     8.1122
11 1     0.0000     1.4340    10.1403
12 1     1.2419     3.5851    10.1403
13 1     0.0000     0.0000    12.1683
14 1     1.2419     2.1511    12.1683
15 1     0.0000     1.4340    14.1964
16 1     1.2419     3.5851    14.1964
17 1     0.0000     0.0000    16.2244
18 1     1.2419     2.1511    16.2244
19 1     1.2419     0.7170    18.2525
20 1     0.0000     2.8681    18.2525
21 1     0.0000     1.4340    20.2805
22 1     1.2419     3.5851    20.2805
23 1     0.0000     0.0000    22.3086
24 1     1.2419     2.1511    22.3086
25 1     1.2419     0.7170    24.3366
26 1     0.0000     2.8681    24.3366
27 1     0.0000     1.4340    26.3647
28 1     1.2419     3.5851    26.3647
