# ['Si']

215 atoms
1 atom types

    0.0000    88.8170 xlo xhi
    0.0000    88.8170 ylo yhi
    0.0000    88.8170 zlo zhi

    0.0000     0.0000     0.0000 xy xz yz

Atoms

1 1     7.4014     7.4014     7.4014
2 1     0.0000    14.8029    14.8029
3 1     7.4014    22.2043    22.2043
4 1    14.8029     0.0000    14.8029
5 1    22.2043     7.4014    22.2043
6 1    14.8029    14.8029     0.0000
7 1    22.2043    22.2043     7.4014
8 1     0.0000     0.0000    29.6056
9 1     7.4014     7.4014    37.0071
10 1     0.0000    14.8029    44.4085
11 1     7.4014    22.2043    51.8099
12 1    14.8029     0.0000    44.4085
13 1    22.2043     7.4014    51.8099
14 1    14.8029    14.8029    29.6056
15 1    22.2043    22.2043    37.0071
16 1     0.0000     0.0000    59.2114
17 1     7.4014     7.4014    66.6128
18 1     0.0000    14.8029    74.0141
19 1     7.4014    22.2043    81.4156
20 1    14.8029     0.0000    74.0141
21 1    22.2043     7.4014    81.4156
22 1    14.8029    14.8029    59.2114
23 1    22.2043    22.2043    66.6128
24 1     0.0000    29.6056     0.0000
25 1     7.4014    37.0071     7.4014
26 1     0.0000    44.4085    14.8029
27 1     7.4014    51.8099    22.2043
28 1    14.8029    29.6056    14.8029
29 1    22.2043    37.0071    22.2043
30 1    14.8029    44.4085     0.0000
31 1    22.2043    51.8099     7.4014
32 1     0.0000    29.6056    29.6056
33 1     7.4014    37.0071    37.0071
34 1     0.0000    44.4085    44.4085
35 1     7.4014    51.8099    51.8099
36 1    14.8029    29.6056    44.4085
37 1    22.2043    37.0071    51.8099
38 1    14.8029    44.4085    29.6056
39 1    22.2043    51.8099    37.0071
40 1     0.0000    29.6056    59.2114
41 1     7.4014    37.0071    66.6128
42 1     0.0000    44.4085    74.0141
43 1     7.4014    51.8099    81.4156
44 1    14.8029    29.6056    74.0141
45 1    22.2043    37.0071    81.4156
46 1    14.8029    44.4085    59.2114
47 1    22.2043    51.8099    66.6128
48 1     0.0000    59.2114     0.0000
49 1     7.4014    66.6128     7.4014
50 1     0.0000    74.0141    14.8029
51 1     7.4014    81.4156    22.2043
52 1    14.8029    59.2114    14.8029
53 1    22.2043    66.6128    22.2043
54 1    14.8029    74.0141     0.0000
55 1    22.2043    81.4156     7.4014
56 1     0.0000    59.2114    29.6056
57 1     7.4014    66.6128    37.0071
58 1     0.0000    74.0141    44.4085
59 1     7.4014    81.4156    51.8099
60 1    14.8029    59.2114    44.4085
61 1    22.2043    66.6128    51.8099
62 1    14.8029    74.0141    29.6056
63 1    22.2043    81.4156    37.0071
64 1     0.0000    59.2114    59.2114
65 1     7.4014    66.6128    66.6128
66 1     0.0000    74.0141    74.0141
67 1     7.4014    81.4156    81.4156
68 1    14.8029    59.2114    74.0141
69 1    22.2043    66.6128    81.4156
70 1    14.8029    74.0141    59.2114
71 1    22.2043    81.4156    66.6128
72 1    29.6056     0.0000     0.0000
73 1    37.0071     7.4014     7.4014
74 1    29.6056    14.8029    14.8029
75 1    37.0071    22.2043    22.2043
76 1    44.4085     0.0000    14.8029
77 1    51.8099     7.4014    22.2043
78 1    44.4085    14.8029     0.0000
79 1    51.8099    22.2043     7.4014
80 1    29.6056     0.0000    29.6056
81 1    37.0071     7.4014    37.0071
82 1    29.6056    14.8029    44.4085
83 1    37.0071    22.2043    51.8099
84 1    44.4085     0.0000    44.4085
85 1    51.8099     7.4014    51.8099
86 1    44.4085    14.8029    29.6056
87 1    51.8099    22.2043    37.0071
88 1    29.6056     0.0000    59.2114
89 1    37.0071     7.4014    66.6128
90 1    29.6056    14.8029    74.0141
91 1    37.0071    22.2043    81.4156
92 1    44.4085     0.0000    74.0141
93 1    51.8099     7.4014    81.4156
94 1    44.4085    14.8029    59.2114
95 1    51.8099    22.2043    66.6128
96 1    29.6056    29.6056     0.0000
97 1    37.0071    37.0071     7.4014
98 1    29.6056    44.4085    14.8029
99 1    37.0071    51.8099    22.2043
100 1    44.4085    29.6056    14.8029
101 1    51.8099    37.0071    22.2043
102 1    44.4085    44.4085     0.0000
103 1    51.8099    51.8099     7.4014
104 1    29.6056    29.6056    29.6056
105 1    37.0071    37.0071    37.0071
106 1    29.6056    44.4085    44.4085
107 1    37.0071    51.8099    51.8099
108 1    44.4085    29.6056    44.4085
109 1    51.8099    37.0071    51.8099
110 1    44.4085    44.4085    29.6056
111 1    51.8099    51.8099    37.0071
112 1    29.6056    29.6056    59.2114
113 1    37.0071    37.0071    66.6128
114 1    29.6056    44.4085    74.0141
115 1    37.0071    51.8099    81.4156
116 1    44.4085    29.6056    74.0141
117 1    51.8099    37.0071    81.4156
118 1    44.4085    44.4085    59.2114
119 1    51.8099    51.8099    66.6128
120 1    29.6056    59.2114     0.0000
121 1    37.0071    66.6128     7.4014
122 1    29.6056    74.0141    14.8029
123 1    37.0071    81.4156    22.2043
124 1    44.4085    59.2114    14.8029
125 1    51.8099    66.6128    22.2043
126 1    44.4085    74.0141     0.0000
127 1    51.8099    81.4156     7.4014
128 1    29.6056    59.2114    29.6056
129 1    37.0071    66.6128    37.0071
130 1    29.6056    74.0141    44.4085
131 1    37.0071    81.4156    51.8099
132 1    44.4085    59.2114    44.4085
133 1    51.8099    66.6128    51.8099
134 1    44.4085    74.0141    29.6056
135 1    51.8099    81.4156    37.0071
136 1    29.6056    59.2114    59.2114
137 1    37.0071    66.6128    66.6128
138 1    29.6056    74.0141    74.0141
139 1    37.0071    81.4156    81.4156
140 1    44.4085    59.2114    74.0141
141 1    51.8099    66.6128    81.4156
142 1    44.4085    74.0141    59.2114
143 1    51.8099    81.4156    66.6128
144 1    59.2114     0.0000     0.0000
145 1    66.6128     7.4014     7.4014
146 1    59.2114    14.8029    14.8029
147 1    66.6128    22.2043    22.2043
148 1    74.0141     0.0000    14.8029
149 1    81.4156     7.4014    22.2043
150 1    74.0141    14.8029     0.0000
151 1    81.4156    22.2043     7.4014
152 1    59.2114     0.0000    29.6056
153 1    66.6128     7.4014    37.0071
154 1    59.2114    14.8029    44.4085
155 1    66.6128    22.2043    51.8099
156 1    74.0141     0.0000    44.4085
157 1    81.4156     7.4014    51.8099
158 1    74.0141    14.8029    29.6056
159 1    81.4156    22.2043    37.0071
160 1    59.2114     0.0000    59.2114
161 1    66.6128     7.4014    66.6128
162 1    59.2114    14.8029    74.0141
163 1    66.6128    22.2043    81.4156
164 1    74.0141     0.0000    74.0141
165 1    81.4156     7.4014    81.4156
166 1    74.0141    14.8029    59.2114
167 1    81.4156    22.2043    66.6128
168 1    59.2114    29.6056     0.0000
169 1    66.6128    37.0071     7.4014
170 1    59.2114    44.4085    14.8029
171 1    66.6128    51.8099    22.2043
172 1    74.0141    29.6056    14.8029
173 1    81.4156    37.0071    22.2043
174 1    74.0141    44.4085     0.0000
175 1    81.4156    51.8099     7.4014
176 1    59.2114    29.6056    29.6056
177 1    66.6128    37.0071    37.0071
178 1    59.2114    44.4085    44.4085
179 1    66.6128    51.8099    51.8099
180 1    74.0141    29.6056    44.4085
181 1    81.4156    37.0071    51.8099
182 1    74.0141    44.4085    29.6056
183 1    81.4156    51.8099    37.0071
184 1    59.2114    29.6056    59.2114
185 1    66.6128    37.0071    66.6128
186 1    59.2114    44.4085    74.0141
187 1    66.6128    51.8099    81.4156
188 1    74.0141    29.6056    74.0141
189 1    81.4156    37.0071    81.4156
190 1    74.0141    44.4085    59.2114
191 1    81.4156    51.8099    66.6128
192 1    59.2114    59.2114     0.0000
193 1    66.6128    66.6128     7.4014
194 1    59.2114    74.0141    14.8029
195 1    66.6128    81.4156    22.2043
196 1    74.0141    59.2114    14.8029
197 1    81.4156    66.6128    22.2043
198 1    74.0141    74.0141     0.0000
199 1    81.4156    81.4156     7.4014
200 1    59.2114    59.2114    29.6056
201 1    66.6128    66.6128    37.0071
202 1    59.2114    74.0141    44.4085
203 1    66.6128    81.4156    51.8099
204 1    74.0141    59.2114    44.4085
205 1    81.4156    66.6128    51.8099
206 1    74.0141    74.0141    29.6056
207 1    81.4156    81.4156    37.0071
208 1    59.2114    59.2114    59.2114
209 1    66.6128    66.6128    66.6128
210 1    59.2114    74.0141    74.0141
211 1    66.6128    81.4156    81.4156
212 1    74.0141    59.2114    74.0141
213 1    81.4156    66.6128    81.4156
214 1    74.0141    74.0141    59.2114
215 1    81.4156    81.4156    66.6128
