# ['Ni']

20 atoms
1 atom types

    0.0000     2.7652 xlo xhi
    0.0000     2.7652 ylo yhi
    0.0000    27.6521 zlo zhi

    0.0000    -0.0000     0.0000 xy xz yz

Atoms

1 1     0.0000     0.0000     0.0000
2 1     1.3826     1.3826     0.0000
3 1     1.3826     0.0000     1.3826
4 1     0.0000     1.3826     1.3826
5 1     0.0000     0.0000     2.7652
6 1     1.3826     1.3826     2.7652
7 1     1.3826     0.0000     4.1478
8 1     0.0000     1.3826     4.1478
9 1     0.0000     0.0000     5.5304
10 1     1.3826     1.3826     5.5304
11 1     1.3826     0.0000     6.9130
12 1     0.0000     1.3826     6.9130
13 1     0.0000     0.0000     8.2956
14 1     1.3826     1.3826     8.2956
15 1     1.3826     0.0000     9.6782
16 1     0.0000     1.3826     9.6782
17 1     0.0000     0.0000    11.0608
18 1     1.3826     1.3826    11.0608
19 1     1.3826     0.0000    12.4435
20 1     0.0000     1.3826    12.4435
