# ['Ni']

107 atoms
1 atom types

    0.0000     9.4909 xlo xhi
    0.0000     9.4909 ylo yhi
    0.0000     9.4909 zlo zhi

    0.0000    -0.0000    -0.0000 xy xz yz

Atoms

1 1     1.5818     1.5818     0.0000
2 1     1.5818     0.0000     1.5818
3 1     0.0000     1.5818     1.5818
4 1     0.0000     0.0000     3.1636
5 1     1.5818     1.5818     3.1636
6 1     1.5818     0.0000     4.7455
7 1     0.0000     1.5818     4.7455
8 1     0.0000     0.0000     6.3273
9 1     1.5818     1.5818     6.3273
10 1     1.5818     0.0000     7.9091
11 1     0.0000     1.5818     7.9091
12 1     0.0000     3.1636     0.0000
13 1     1.5818     4.7455     0.0000
14 1     1.5818     3.1636     1.5818
15 1     0.0000     4.7455     1.5818
16 1     0.0000     3.1636     3.1636
17 1     1.5818     4.7455     3.1636
18 1     1.5818     3.1636     4.7455
19 1     0.0000     4.7455     4.7455
20 1     0.0000     3.1636     6.3273
21 1     1.5818     4.7455     6.3273
22 1     1.5818     3.1636     7.9091
23 1     0.0000     4.7455     7.9091
24 1     0.0000     6.3273     0.0000
25 1     1.5818     7.9091     0.0000
26 1     1.5818     6.3273     1.5818
27 1     0.0000     7.9091     1.5818
28 1     0.0000     6.3273     3.1636
29 1     1.5818     7.9091     3.1636
30 1     1.5818     6.3273     4.7455
31 1     0.0000     7.9091     4.7455
32 1     0.0000     6.3273     6.3273
33 1     1.5818     7.9091     6.3273
34 1     1.5818     6.3273     7.9091
35 1     0.0000     7.9091     7.9091
36 1     3.1636     0.0000     0.0000
37 1     4.7455     1.5818     0.0000
38 1     4.7455     0.0000     1.5818
39 1     3.1636     1.5818     1.5818
40 1     3.1636     0.0000     3.1636
41 1     4.7455     1.5818     3.1636
42 1     4.7455     0.0000     4.7455
43 1     3.1636     1.5818     4.7455
44 1     3.1636     0.0000     6.3273
45 1     4.7455     1.5818     6.3273
46 1     4.7455     0.0000     7.9091
47 1     3.1636     1.5818     7.9091
48 1     3.1636     3.1636     0.0000
49 1     4.7455     4.7455     0.0000
50 1     4.7455     3.1636     1.5818
51 1     3.1636     4.7455     1.5818
52 1     3.1636     3.1636     3.1636
53 1     4.7455     4.7455     3.1636
54 1     4.7455     3.1636     4.7455
55 1     3.1636     4.7455     4.7455
56 1     3.1636     3.1636     6.3273
57 1     4.7455     4.7455     6.3273
58 1     4.7455     3.1636     7.9091
59 1     3.1636     4.7455     7.9091
60 1     3.1636     6.3273     0.0000
61 1     4.7455     7.9091     0.0000
62 1     4.7455     6.3273     1.5818
63 1     3.1636     7.9091     1.5818
64 1     3.1636     6.3273     3.1636
65 1     4.7455     7.9091     3.1636
66 1     4.7455     6.3273     4.7455
67 1     3.1636     7.9091     4.7455
68 1     3.1636     6.3273     6.3273
69 1     4.7455     7.9091     6.3273
70 1     4.7455     6.3273     7.9091
71 1     3.1636     7.9091     7.9091
72 1     6.3273     0.0000     0.0000
73 1     7.9091     1.5818     0.0000
74 1     7.9091     0.0000     1.5818
75 1     6.3273     1.5818     1.5818
76 1     6.3273     0.0000     3.1636
77 1     7.9091     1.5818     3.1636
78 1     7.9091     0.0000     4.7455
79 1     6.3273     1.5818     4.7455
80 1     6.3273     0.0000     6.3273
81 1     7.9091     1.5818     6.3273
82 1     7.9091     0.0000     7.9091
83 1     6.3273     1.5818     7.9091
84 1     6.3273     3.1636     0.0000
85 1     7.9091     4.7455     0.0000
86 1     7.9091     3.1636     1.5818
87 1     6.3273     4.7455     1.5818
88 1     6.3273     3.1636     3.1636
89 1     7.9091     4.7455     3.1636
90 1     7.9091     3.1636     4.7455
91 1     6.3273     4.7455     4.7455
92 1     6.3273     3.1636     6.3273
93 1     7.9091     4.7455     6.3273
94 1     7.9091     3.1636     7.9091
95 1     6.3273     4.7455     7.9091
96 1     6.3273     6.3273     0.0000
97 1     7.9091     7.9091     0.0000
98 1     7.9091     6.3273     1.5818
99 1     6.3273     7.9091     1.5818
100 1     6.3273     6.3273     3.1636
101 1     7.9091     7.9091     3.1636
102 1     7.9091     6.3273     4.7455
103 1     6.3273     7.9091     4.7455
104 1     6.3273     6.3273     6.3273
105 1     7.9091     7.9091     6.3273
106 1     7.9091     6.3273     7.9091
107 1     6.3273     7.9091     7.9091
