# ['Ni']

107 atoms
1 atom types

    0.0000     9.7417 xlo xhi
    0.0000     9.7417 ylo yhi
    0.0000     9.7417 zlo zhi

    0.0000    -0.0000    -0.0000 xy xz yz

Atoms

1 1     1.6236     1.6236     0.0000
2 1     1.6236     0.0000     1.6236
3 1     0.0000     1.6236     1.6236
4 1     0.0000     0.0000     3.2472
5 1     1.6236     1.6236     3.2472
6 1     1.6236     0.0000     4.8708
7 1     0.0000     1.6236     4.8708
8 1     0.0000     0.0000     6.4945
9 1     1.6236     1.6236     6.4945
10 1     1.6236     0.0000     8.1181
11 1     0.0000     1.6236     8.1181
12 1     0.0000     3.2472     0.0000
13 1     1.6236     4.8708     0.0000
14 1     1.6236     3.2472     1.6236
15 1     0.0000     4.8708     1.6236
16 1     0.0000     3.2472     3.2472
17 1     1.6236     4.8708     3.2472
18 1     1.6236     3.2472     4.8708
19 1     0.0000     4.8708     4.8708
20 1     0.0000     3.2472     6.4945
21 1     1.6236     4.8708     6.4945
22 1     1.6236     3.2472     8.1181
23 1     0.0000     4.8708     8.1181
24 1     0.0000     6.4945     0.0000
25 1     1.6236     8.1181     0.0000
26 1     1.6236     6.4945     1.6236
27 1     0.0000     8.1181     1.6236
28 1     0.0000     6.4945     3.2472
29 1     1.6236     8.1181     3.2472
30 1     1.6236     6.4945     4.8708
31 1     0.0000     8.1181     4.8708
32 1     0.0000     6.4945     6.4945
33 1     1.6236     8.1181     6.4945
34 1     1.6236     6.4945     8.1181
35 1     0.0000     8.1181     8.1181
36 1     3.2472     0.0000     0.0000
37 1     4.8708     1.6236     0.0000
38 1     4.8708     0.0000     1.6236
39 1     3.2472     1.6236     1.6236
40 1     3.2472     0.0000     3.2472
41 1     4.8708     1.6236     3.2472
42 1     4.8708     0.0000     4.8708
43 1     3.2472     1.6236     4.8708
44 1     3.2472     0.0000     6.4945
45 1     4.8708     1.6236     6.4945
46 1     4.8708     0.0000     8.1181
47 1     3.2472     1.6236     8.1181
48 1     3.2472     3.2472     0.0000
49 1     4.8708     4.8708     0.0000
50 1     4.8708     3.2472     1.6236
51 1     3.2472     4.8708     1.6236
52 1     3.2472     3.2472     3.2472
53 1     4.8708     4.8708     3.2472
54 1     4.8708     3.2472     4.8708
55 1     3.2472     4.8708     4.8708
56 1     3.2472     3.2472     6.4945
57 1     4.8708     4.8708     6.4945
58 1     4.8708     3.2472     8.1181
59 1     3.2472     4.8708     8.1181
60 1     3.2472     6.4945     0.0000
61 1     4.8708     8.1181     0.0000
62 1     4.8708     6.4945     1.6236
63 1     3.2472     8.1181     1.6236
64 1     3.2472     6.4945     3.2472
65 1     4.8708     8.1181     3.2472
66 1     4.8708     6.4945     4.8708
67 1     3.2472     8.1181     4.8708
68 1     3.2472     6.4945     6.4945
69 1     4.8708     8.1181     6.4945
70 1     4.8708     6.4945     8.1181
71 1     3.2472     8.1181     8.1181
72 1     6.4945     0.0000     0.0000
73 1     8.1181     1.6236     0.0000
74 1     8.1181     0.0000     1.6236
75 1     6.4945     1.6236     1.6236
76 1     6.4945     0.0000     3.2472
77 1     8.1181     1.6236     3.2472
78 1     8.1181     0.0000     4.8708
79 1     6.4945     1.6236     4.8708
80 1     6.4945     0.0000     6.4945
81 1     8.1181     1.6236     6.4945
82 1     8.1181     0.0000     8.1181
83 1     6.4945     1.6236     8.1181
84 1     6.4945     3.2472     0.0000
85 1     8.1181     4.8708     0.0000
86 1     8.1181     3.2472     1.6236
87 1     6.4945     4.8708     1.6236
88 1     6.4945     3.2472     3.2472
89 1     8.1181     4.8708     3.2472
90 1     8.1181     3.2472     4.8708
91 1     6.4945     4.8708     4.8708
92 1     6.4945     3.2472     6.4945
93 1     8.1181     4.8708     6.4945
94 1     8.1181     3.2472     8.1181
95 1     6.4945     4.8708     8.1181
96 1     6.4945     6.4945     0.0000
97 1     8.1181     8.1181     0.0000
98 1     8.1181     6.4945     1.6236
99 1     6.4945     8.1181     1.6236
100 1     6.4945     6.4945     3.2472
101 1     8.1181     8.1181     3.2472
102 1     8.1181     6.4945     4.8708
103 1     6.4945     8.1181     4.8708
104 1     6.4945     6.4945     6.4945
105 1     8.1181     8.1181     6.4945
106 1     8.1181     6.4945     8.1181
107 1     6.4945     8.1181     8.1181
