<?xml version="1.0" encoding="ISO-8859-1"?>
<modeling>
 <generator>
  <i name="program" type="string">vasp </i>
  <i name="version" type="string">5.4.1  </i>
  <i name="subversion" type="string">24Jun15 (build Jun 05 2017 10:38:15) complex                          parallel </i>
  <i name="platform" type="string">IFC91_ompi </i>
  <i name="date" type="string">2017 08 29 </i>
  <i name="time" type="string">21:12:06 </i>
 </generator>
 <incar>
  <i type="string" name="SYSTEM"> automatically generated by pyflamestk</i>
  <i type="int" name="ISTART">     0</i>
  <i type="string" name="PREC">high                   ! avoid wrap aro</i>
  <i type="string" name="ALGO"> Normal                 ! blocked Davids</i>
  <i type="int" name="ISPIN">     1</i>
  <i type="int" name="ICHARG">     0</i>
  <i type="int" name="NELM">    40</i>
  <i name="EDIFF">      0.00000100</i>
  <i name="ENCUT">    800.00000000</i>
  <i type="logical" name="LREAL"> F  </i>
  <i type="int" name="ISMEAR">     0</i>
  <i name="SIGMA">      0.05000000</i>
  <i type="logical" name="LWAVE"> F  </i>
  <i type="logical" name="LCHARG"> F  </i>
  <i type="logical" name="LVTOT"> F  </i>
  <v type="int" name="KPOINT_BSE">    -1     0     0     0</v>
  <i type="int" name="NELM">    40</i>
 </incar>
 <kpoints>
  <generation param="Monkhorst-Pack">
   <v type="int" name="divisions">      11       11       11 </v>
   <v name="usershift">      0.00000000       0.00000000       0.00000000 </v>
   <v name="genvec1">      0.09090909      -0.00000000      -0.00000000 </v>
   <v name="genvec2">      0.00000000       0.09090909      -0.00000000 </v>
   <v name="genvec3">      0.00000000       0.00000000       0.09090909 </v>
   <v name="shift">      0.00000000       0.00000000       0.00000000 </v>
  </generation>
  <varray name="kpointlist" >
   <v>       0.00000000       0.00000000       0.00000000 </v>
   <v>       0.09090909      -0.00000000      -0.00000000 </v>
   <v>       0.18181818      -0.00000000      -0.00000000 </v>
   <v>       0.27272727      -0.00000000       0.00000000 </v>
   <v>       0.36363636      -0.00000000      -0.00000000 </v>
   <v>       0.45454545      -0.00000000       0.00000000 </v>
   <v>       0.09090909       0.09090909       0.00000000 </v>
   <v>       0.18181818       0.09090909       0.00000000 </v>
   <v>       0.27272727       0.09090909       0.00000000 </v>
   <v>       0.36363636       0.09090909      -0.00000000 </v>
   <v>       0.45454545       0.09090909      -0.00000000 </v>
   <v>      -0.45454545       0.09090909      -0.00000000 </v>
   <v>      -0.36363636       0.09090909      -0.00000000 </v>
   <v>      -0.27272727       0.09090909      -0.00000000 </v>
   <v>      -0.18181818       0.09090909      -0.00000000 </v>
   <v>      -0.09090909       0.09090909      -0.00000000 </v>
   <v>       0.18181818       0.18181818       0.00000000 </v>
   <v>       0.27272727       0.18181818       0.00000000 </v>
   <v>       0.36363636       0.18181818       0.00000000 </v>
   <v>       0.45454545       0.18181818       0.00000000 </v>
   <v>      -0.45454545       0.18181818      -0.00000000 </v>
   <v>      -0.36363636       0.18181818      -0.00000000 </v>
   <v>      -0.27272727       0.18181818      -0.00000000 </v>
   <v>      -0.18181818       0.18181818      -0.00000000 </v>
   <v>       0.27272727       0.27272727       0.00000000 </v>
   <v>       0.36363636       0.27272727       0.00000000 </v>
   <v>       0.45454545       0.27272727       0.00000000 </v>
   <v>      -0.45454545       0.27272727      -0.00000000 </v>
   <v>      -0.36363636       0.27272727      -0.00000000 </v>
   <v>      -0.27272727       0.27272727      -0.00000000 </v>
   <v>       0.36363636       0.36363636       0.00000000 </v>
   <v>       0.45454545       0.36363636       0.00000000 </v>
   <v>      -0.45454545       0.36363636      -0.00000000 </v>
   <v>      -0.36363636       0.36363636      -0.00000000 </v>
   <v>       0.45454545       0.45454545       0.00000000 </v>
   <v>      -0.45454545       0.45454545       0.00000000 </v>
   <v>       0.27272727       0.18181818       0.09090909 </v>
   <v>       0.36363636       0.18181818       0.09090909 </v>
   <v>       0.45454545       0.18181818       0.09090909 </v>
   <v>      -0.45454545       0.18181818       0.09090909 </v>
   <v>       0.36363636       0.27272727       0.09090909 </v>
   <v>       0.45454545       0.27272727       0.09090909 </v>
   <v>      -0.45454545       0.27272727       0.09090909 </v>
   <v>      -0.36363636       0.27272727       0.09090909 </v>
   <v>      -0.27272727       0.27272727       0.09090909 </v>
   <v>      -0.18181818       0.27272727       0.09090909 </v>
   <v>       0.45454545       0.36363636       0.09090909 </v>
   <v>      -0.45454545       0.36363636       0.09090909 </v>
   <v>      -0.36363636       0.36363636       0.09090909 </v>
   <v>      -0.27272727       0.36363636       0.09090909 </v>
   <v>      -0.45454545       0.45454545       0.09090909 </v>
   <v>      -0.36363636       0.45454545       0.09090909 </v>
   <v>      -0.45454545       0.36363636       0.18181818 </v>
   <v>      -0.36363636       0.36363636       0.18181818 </v>
   <v>      -0.36363636       0.45454545       0.18181818 </v>
   <v>      -0.27272727       0.45454545       0.18181818 </v>
  </varray>
  <varray name="weights" >
   <v>       0.00075131 </v>
   <v>       0.00601052 </v>
   <v>       0.00601052 </v>
   <v>       0.00601052 </v>
   <v>       0.00601052 </v>
   <v>       0.00601052 </v>
   <v>       0.00450789 </v>
   <v>       0.01803156 </v>
   <v>       0.01803156 </v>
   <v>       0.01803156 </v>
   <v>       0.01803156 </v>
   <v>       0.01803156 </v>
   <v>       0.01803156 </v>
   <v>       0.01803156 </v>
   <v>       0.01803156 </v>
   <v>       0.00901578 </v>
   <v>       0.00450789 </v>
   <v>       0.01803156 </v>
   <v>       0.01803156 </v>
   <v>       0.01803156 </v>
   <v>       0.01803156 </v>
   <v>       0.01803156 </v>
   <v>       0.01803156 </v>
   <v>       0.00901578 </v>
   <v>       0.00450789 </v>
   <v>       0.01803156 </v>
   <v>       0.01803156 </v>
   <v>       0.01803156 </v>
   <v>       0.01803156 </v>
   <v>       0.00901578 </v>
   <v>       0.00450789 </v>
   <v>       0.01803156 </v>
   <v>       0.01803156 </v>
   <v>       0.00901578 </v>
   <v>       0.00450789 </v>
   <v>       0.00901578 </v>
   <v>       0.01803156 </v>
   <v>       0.03606311 </v>
   <v>       0.03606311 </v>
   <v>       0.03606311 </v>
   <v>       0.01803156 </v>
   <v>       0.03606311 </v>
   <v>       0.03606311 </v>
   <v>       0.03606311 </v>
   <v>       0.03606311 </v>
   <v>       0.01803156 </v>
   <v>       0.01803156 </v>
   <v>       0.03606311 </v>
   <v>       0.03606311 </v>
   <v>       0.01803156 </v>
   <v>       0.01803156 </v>
   <v>       0.01803156 </v>
   <v>       0.01803156 </v>
   <v>       0.03606311 </v>
   <v>       0.01803156 </v>
   <v>       0.01803156 </v>
  </varray>
 </kpoints>
 <parameters>
  <separator name="general" >
   <i type="string" name="SYSTEM">automatically generated by pyflamestk</i>
   <i type="logical" name="LCOMPAT"> F  </i>
  </separator>
  <separator name="electronic" >
   <i type="string" name="PREC">high</i>
   <i name="ENMAX">    800.00000000</i>
   <i name="ENAUG">    888.80400000</i>
   <i name="EDIFF">      0.00000100</i>
   <i type="int" name="IALGO">    38</i>
   <i type="int" name="IWAVPR">    10</i>
   <i type="int" name="NBANDS">    16</i>
   <i name="NELECT">      8.00000000</i>
   <i type="int" name="TURBO">     0</i>
   <i type="int" name="IRESTART">     0</i>
   <i type="int" name="NREBOOT">     0</i>
   <i type="int" name="NMIN">     0</i>
   <i name="EREF">      0.00000000</i>
   <separator name="electronic smearing" >
    <i type="int" name="ISMEAR">     0</i>
    <i name="SIGMA">      0.05000000</i>
    <i name="KSPACING">      0.50000000</i>
    <i type="logical" name="KGAMMA"> T  </i>
   </separator>
   <separator name="electronic projectors" >
    <i type="logical" name="LREAL"> F  </i>
    <v name="ROPT">      0.00000000      0.00000000</v>
    <i type="int" name="LMAXPAW">  -100</i>
    <i type="int" name="LMAXMIX">     2</i>
    <i type="logical" name="NLSPLINE"> F  </i>
   </separator>
   <separator name="electronic startup" >
    <i type="int" name="ISTART">     0</i>
    <i type="int" name="ICHARG">     0</i>
    <i type="int" name="INIWAV">     1</i>
   </separator>
   <separator name="electronic spin" >
    <i type="int" name="ISPIN">     1</i>
    <i type="logical" name="LNONCOLLINEAR"> F  </i>
    <v name="MAGMOM">      1.00000000      1.00000000</v>
    <i name="NUPDOWN">     -1.00000000</i>
    <i type="logical" name="LSORBIT"> F  </i>
    <v name="SAXIS">      0.00000000      0.00000000      1.00000000</v>
    <i type="logical" name="LSPIRAL"> F  </i>
    <v name="QSPIRAL">      0.00000000      0.00000000      0.00000000</v>
    <i type="logical" name="LZEROZ"> F  </i>
   </separator>
   <separator name="electronic exchange-correlation" >
    <i type="logical" name="LASPH"> F  </i>
    <i type="logical" name="LMETAGGA"> F  </i>
   </separator>
   <separator name="electronic convergence" >
    <i type="int" name="NELM">    40</i>
    <i type="int" name="NELMDL">    -5</i>
    <i type="int" name="NELMIN">     2</i>
    <i name="ENINI">    800.00000000</i>
    <separator name="electronic convergence detail" >
     <i type="logical" name="LDIAG"> T  </i>
     <i type="logical" name="LSUBROT"> F  </i>
     <i name="WEIMIN">      0.00000000</i>
     <i name="EBREAK">      0.00000002</i>
     <i name="DEPER">      0.30000000</i>
     <i type="int" name="NRMM">     4</i>
     <i name="TIME">      0.40000000</i>
    </separator>
   </separator>
   <separator name="electronic mixer" >
    <i name="AMIX">      0.40000000</i>
    <i name="BMIX">      1.00000000</i>
    <i name="AMIN">      0.10000000</i>
    <i name="AMIX_MAG">      1.60000000</i>
    <i name="BMIX_MAG">      1.00000000</i>
    <separator name="electronic mixer details" >
     <i type="int" name="IMIX">     4</i>
     <i type="logical" name="MIXFIRST"> F  </i>
     <i type="int" name="MAXMIX">   -45</i>
     <i name="WC">    100.00000000</i>
     <i type="int" name="INIMIX">     1</i>
     <i type="int" name="MIXPRE">     1</i>
     <i type="int" name="MREMOVE">     5</i>
    </separator>
   </separator>
   <separator name="electronic dipolcorrection" >
    <i type="logical" name="LDIPOL"> F  </i>
    <i type="logical" name="LMONO"> F  </i>
    <i type="int" name="IDIPOL">     0</i>
    <i name="EPSILON">      1.00000000</i>
    <v name="DIPOL">   -100.00000000   -100.00000000   -100.00000000</v>
    <i name="EFIELD">      0.00000000</i>
   </separator>
  </separator>
  <separator name="grids" >
   <i type="int" name="NGX">    28</i>
   <i type="int" name="NGY">    28</i>
   <i type="int" name="NGZ">    28</i>
   <i type="int" name="NGXF">    40</i>
   <i type="int" name="NGYF">    40</i>
   <i type="int" name="NGZF">    40</i>
   <i type="logical" name="ADDGRID"> F  </i>
  </separator>
  <separator name="ionic" >
   <i type="int" name="NSW">     0</i>
   <i type="int" name="IBRION">    -1</i>
   <i type="int" name="ISIF">     2</i>
   <i name="PSTRESS">      0.00000000</i>
   <i name="EDIFFG">      0.00001000</i>
   <i type="int" name="NFREE">     0</i>
   <i name="POTIM">      0.50000000</i>
   <i name="SMASS">     -3.00000000</i>
   <i name="SCALEE">      1.00000000</i>
  </separator>
  <separator name="ionic md" >
   <i name="TEBEG">      0.00010000</i>
   <i name="TEEND">      0.00010000</i>
   <i type="int" name="NBLOCK">     1</i>
   <i type="int" name="KBLOCK">     1</i>
   <i type="int" name="NPACO">   256</i>
   <i name="APACO">     16.00000000</i>
  </separator>
  <separator name="symmetry" >
   <i type="int" name="ISYM">     2</i>
   <i name="SYMPREC">      0.00001000</i>
  </separator>
  <separator name="dos" >
   <i type="logical" name="LORBIT"> F  </i>
   <v name="RWIGS">     -1.00000000     -1.00000000</v>
   <i type="int" name="NEDOS">   301</i>
   <i name="EMIN">     10.00000000</i>
   <i name="EMAX">    -10.00000000</i>
   <i name="EFERMI">      0.00000000</i>
  </separator>
  <separator name="writing" >
   <i type="int" name="NWRITE">     2</i>
   <i type="logical" name="LWAVE"> F  </i>
   <i type="logical" name="LCHARG"> F  </i>
   <i type="logical" name="LPARD"> F  </i>
   <i type="logical" name="LVTOT"> F  </i>
   <i type="logical" name="LVHAR"> F  </i>
   <i type="logical" name="LELF"> F  </i>
   <i type="logical" name="LOPTICS"> F  </i>
   <v name="STM">      0.00000000      0.00000000      0.00000000      0.00000000      0.00000000      0.00000000      0.00000000</v>
  </separator>
  <separator name="performance" >
   <i type="int" name="NPAR">    16</i>
   <i type="int" name="NSIM">     4</i>
   <i type="int" name="NBLK">    -1</i>
   <i type="logical" name="LPLANE"> T  </i>
   <i type="logical" name="LSCALAPACK"> T  </i>
   <i type="logical" name="LSCAAWARE"> F  </i>
   <i type="logical" name="LSCALU"> F  </i>
   <i type="logical" name="LASYNC"> F  </i>
   <i type="logical" name="LORBITALREAL"> F  </i>
  </separator>
  <separator name="miscellaneous" >
   <i type="int" name="IDIOT">     3</i>
   <i type="logical" name="LMUSIC"> F  </i>
   <v name="POMASS">     16.00000000     24.30500000</v>
   <v name="DARWINR">      0.00000000      0.00000000</v>
   <v name="DARWINV">      1.00000000      1.00000000</v>
   <i type="logical" name="LCORR"> T  </i>
  </separator>
  <i type="logical" name="GGA_COMPAT"> T  </i>
  <i type="logical" name="LBERRY"> F  </i>
  <i type="int" name="ICORELEVEL">     0</i>
  <i type="logical" name="LDAU"> F  </i>
  <i type="int" name="I_CONSTRAINED_M">     0</i>
  <separator name="electronic exchange-correlation" >
   <i type="string" name="GGA">--</i>
   <i type="int" name="VOSKOWN">     0</i>
   <i type="logical" name="LHFCALC"> F  </i>
   <i type="string" name="PRECFOCK"></i>
   <i type="logical" name="LSYMGRAD"> F  </i>
   <i type="logical" name="LHFONE"> F  </i>
   <i type="logical" name="LRHFCALC"> F  </i>
   <i type="logical" name="LTHOMAS"> F  </i>
   <i type="logical" name="LMODELHF"> F  </i>
   <i name="ENCUT4O">     -1.00000000</i>
   <i type="int" name="EXXOEP">     0</i>
   <i type="int" name="FOURORBIT">     0</i>
   <i name="AEXX">      0.00000000</i>
   <i name="HFALPHA">      0.00000000</i>
   <i name="MCALPHA">      0.00000000</i>
   <i name="ALDAX">      1.00000000</i>
   <i name="AGGAX">      1.00000000</i>
   <i name="ALDAC">      1.00000000</i>
   <i name="AGGAC">      1.00000000</i>
   <i type="int" name="NKREDX">     1</i>
   <i type="int" name="NKREDY">     1</i>
   <i type="int" name="NKREDZ">     1</i>
   <i type="logical" name="SHIFTRED"> F  </i>
   <i type="logical" name="ODDONLY"> F  </i>
   <i type="logical" name="EVENONLY"> F  </i>
   <i type="int" name="LMAXFOCK">     0</i>
   <i type="int" name="NMAXFOCKAE">     0</i>
   <i type="logical" name="LFOCKAEDFT"> F  </i>
   <i name="HFSCREEN">      0.00000000</i>
   <i name="HFSCREENC">      0.00000000</i>
   <i type="int" name="NBANDSGWLOW">     0</i>
  </separator>
  <separator name="vdW DFT" >
   <i type="logical" name="LUSE_VDW"> F  </i>
   <i name="Zab_VDW">     -0.84910000</i>
   <i name="PARAM1">      0.12340000</i>
   <i name="PARAM2">      1.00000000</i>
   <i name="PARAM3">      0.00000000</i>
  </separator>
  <separator name="model GW" >
   <i type="int" name="MODEL_GW">     0</i>
   <i name="MODEL_EPS0">      5.78381065</i>
   <i name="MODEL_ALPHA">      1.00000000</i>
  </separator>
  <separator name="linear response parameters" >
   <i type="logical" name="LEPSILON"> F  </i>
   <i type="logical" name="LRPA"> F  </i>
   <i type="logical" name="LNABLA"> F  </i>
   <i type="logical" name="LVEL"> F  </i>
   <i type="int" name="KINTER">     0</i>
   <i name="CSHIFT">      0.10000000</i>
   <i name="OMEGAMAX">     -1.00000000</i>
   <i name="DEG_THRESHOLD">      0.00200000</i>
  </separator>
  <separator name="orbital magnetization" >
   <i type="logical" name="NUCIND"> F  </i>
   <v name="MAGPOS">      0.00000000      0.00000000      0.00000000</v>
   <i type="logical" name="LNICSALL"> T  </i>
   <i type="logical" name="ORBITALMAG"> F  </i>
   <i type="logical" name="LMAGBLOCH"> F  </i>
   <i type="logical" name="LCHIMAG"> F  </i>
   <i type="logical" name="LGAUGE"> T  </i>
   <i type="int" name="MAGATOM">     0</i>
   <v name="MAGDIPOL">      0.00000000      0.00000000      0.00000000</v>
   <v name="AVECCONST">      0.00000000      0.00000000      0.00000000</v>
  </separator>
  <separator name="response functions" >
   <i type="logical" name="LADDER"> F  </i>
   <i type="logical" name="LFXC"> F  </i>
   <i type="logical" name="LHARTREE"> T  </i>
   <i type="int" name="IBSE">     0</i>
   <v type="int" name="KPOINT">    -1     0     0     0</v>
   <i type="logical" name="LTCTE"> F  </i>
   <i type="logical" name="LTETE"> F  </i>
   <i type="logical" name="LTRIPLET"> F  </i>
   <i type="logical" name="LFXCEPS"> F  </i>
   <i type="logical" name="LFXHEG"> F  </i>
   <i type="int" name="NATURALO">     0</i>
   <i type="logical" name="L2ORDER"> F  </i>
   <i type="logical" name="LUSEW"> F  </i>
   <i name="ENCUTGW">     -2.00000000</i>
   <i name="ENCUTGWSOFT">     -2.00000000</i>
   <i name="ENCUTLF">     -1.00000000</i>
   <i type="int" name="LMAXMP2">    -1</i>
   <i name="SCISSOR">      0.00000000</i>
   <i type="int" name="NOMEGA">     0</i>
   <i type="int" name="NOMEGAR">     0</i>
   <i type="int" name="NBANDSGW">    -1</i>
   <i type="int" name="NBANDSO">    -1</i>
   <i type="int" name="NBANDSV">    -1</i>
   <i type="int" name="NELM">    40</i>
   <i type="int" name="NELMHF">     1</i>
   <i type="int" name="DIM">     3</i>
   <i type="int" name="ANTIRES">     0</i>
   <i name="OMEGAMAX">    -30.00000000</i>
   <i name="OMEGAMIN">    -30.00000000</i>
   <i name="OMEGATL">   -200.00000000</i>
   <i type="int" name="OMEGAGRID">     0</i>
   <i name="CSHIFT">     -0.10000000</i>
   <i type="logical" name="SELFENERGY"> F  </i>
   <i type="logical" name="LSPECTRAL"> F  </i>
   <i type="logical" name="LSPECTRALGW"> F  </i>
   <i type="logical" name="LSINGLES"> F  </i>
   <i type="logical" name="LFERMIGW"> F  </i>
   <i type="logical" name="ODDONLYGW"> F  </i>
   <i type="logical" name="EVENONLYGW"> F  </i>
   <i type="int" name="NKREDLFX">     1</i>
   <i type="int" name="NKREDLFY">     1</i>
   <i type="int" name="NKREDLFZ">     1</i>
   <i type="int" name="MAXMEM">  1800</i>
   <i type="int" name="TELESCOPE">     0</i>
   <i type="int" name="TAUPAR">     1</i>
   <i type="int" name="OMEGAPAR">    -1</i>
   <i name="LAMBDA">      1.00000000</i>
  </separator>
  <separator name="External order field" >
   <i name="OFIELD_KAPPA">      0.00000000</i>
   <v name="OFIELD_K">      0.00000000      0.00000000      0.00000000</v>
   <i name="OFIELD_Q6_NEAR">      0.00000000</i>
   <i name="OFIELD_Q6_FAR">      0.00000000</i>
   <i name="OFIELD_A">      0.00000000</i>
  </separator>
 </parameters>
 <atominfo>
  <atoms>       2 </atoms>
  <types>       2 </types>
  <array name="atoms" >
   <dimension dim="1">ion</dimension>
   <field type="string">element</field>
   <field type="int">atomtype</field>
   <set>
    <rc><c>O </c><c>   1</c></rc>
    <rc><c>Mg</c><c>   2</c></rc>
   </set>
  </array>
  <array name="atomtypes" >
   <dimension dim="1">type</dimension>
   <field type="int">atomspertype</field>
   <field type="string">element</field>
   <field>mass</field>
   <field>valence</field>
   <field type="string">pseudopotential</field>
   <set>
    <rc><c>   1</c><c>O </c><c>     16.00000000</c><c>      6.00000000</c><c>  PAW_PBE O_h 06Feb2004                 </c></rc>
    <rc><c>   1</c><c>Mg</c><c>     24.30500000</c><c>      2.00000000</c><c>  PAW_PBE Mg 13Apr2007                  </c></rc>
   </set>
  </array>
 </atominfo>
 <structure name="initialpos" >
  <crystal>
   <varray name="basis" >
    <v>       3.00978800       0.00000000       0.00000000 </v>
    <v>       1.50489400       2.60655300       0.00000000 </v>
    <v>       1.50489400       0.86885100       2.45748200 </v>
   </varray>
   <i name="volume">     19.27936883 </i>
   <varray name="rec_basis" >
    <v>       0.33224931      -0.19182422      -0.13564019 </v>
    <v>       0.00000000       0.38364844      -0.13564019 </v>
    <v>       0.00000000       0.00000000       0.40692058 </v>
   </varray>
  </crystal>
  <varray name="positions" >
   <v>       0.50000000       0.50000000       0.50000000 </v>
   <v>       0.00000000       0.00000000       0.00000000 </v>
  </varray>
 </structure>
 <calculation>
  <scstep>
   <time name="dav">    0.32    0.32</time>
   <time name="total">    0.33    0.33</time>
   <energy>
    <i name="alphaZ">     15.79325893 </i>
    <i name="ewald">   -354.45312954 </i>
    <i name="hartreedc">    -28.38683656 </i>
    <i name="XCdc">    -30.28251314 </i>
    <i name="pawpsdc"> 135820.98569984 </i>
    <i name="pawaedc">-135767.51118852 </i>
    <i name="eentropy">     -0.00000000 </i>
    <i name="bandstr">   -372.88271900 </i>
    <i name="atom">    455.36566902 </i>
    <i name="e_fr_energy">   -261.37175896 </i>
    <i name="e_wo_entrp">   -261.37175896 </i>
    <i name="e_0_energy">   -261.37175896 </i>
   </energy>
  </scstep>
  <scstep>
   <time name="dav">    0.30    0.30</time>
   <time name="total">    0.30    0.31</time>
   <energy>
    <i name="e_fr_energy">   -302.78552172 </i>
    <i name="e_wo_entrp">   -302.78552172 </i>
    <i name="e_0_energy">   -302.78552172 </i>
   </energy>
  </scstep>
  <scstep>
   <time name="dav">    0.32    0.32</time>
   <time name="total">    0.32    0.32</time>
   <energy>
    <i name="e_fr_energy">   -303.07448857 </i>
    <i name="e_wo_entrp">   -303.07448857 </i>
    <i name="e_0_energy">   -303.07448857 </i>
   </energy>
  </scstep>
  <scstep>
   <time name="dav">    0.44    0.44</time>
   <time name="total">    0.44    0.45</time>
   <energy>
    <i name="e_fr_energy">   -303.07534673 </i>
    <i name="e_wo_entrp">   -303.07534673 </i>
    <i name="e_0_energy">   -303.07534673 </i>
   </energy>
  </scstep>
  <scstep>
   <time name="dav">    0.33    0.33</time>
   <time name="total">    0.36    0.36</time>
   <energy>
    <i name="e_fr_energy">   -303.07534694 </i>
    <i name="e_wo_entrp">   -303.07534694 </i>
    <i name="e_0_energy">   -303.07534694 </i>
   </energy>
  </scstep>
  <scstep>
   <time name="dav">    0.24    0.24</time>
   <time name="total">    0.27    0.27</time>
   <energy>
    <i name="e_fr_energy">    -66.11292691 </i>
    <i name="e_wo_entrp">    -66.11292691 </i>
    <i name="e_0_energy">    -66.11292691 </i>
   </energy>
  </scstep>
  <scstep>
   <time name="dav">    0.38    0.38</time>
   <time name="total">    0.41    0.41</time>
   <energy>
    <i name="e_fr_energy">    -22.72563152 </i>
    <i name="e_wo_entrp">    -22.72563152 </i>
    <i name="e_0_energy">    -22.72563152 </i>
   </energy>
  </scstep>
  <scstep>
   <time name="dav">    0.24    0.24</time>
   <time name="total">    0.27    0.27</time>
   <energy>
    <i name="e_fr_energy">    -21.14164171 </i>
    <i name="e_wo_entrp">    -21.14164171 </i>
    <i name="e_0_energy">    -21.14164171 </i>
   </energy>
  </scstep>
  <scstep>
   <time name="dav">    0.25    0.25</time>
   <time name="total">    0.28    0.28</time>
   <energy>
    <i name="e_fr_energy">    -11.95942877 </i>
    <i name="e_wo_entrp">    -11.95942877 </i>
    <i name="e_0_energy">    -11.95942877 </i>
   </energy>
  </scstep>
  <scstep>
   <time name="dav">    0.29    0.29</time>
   <time name="total">    0.32    0.32</time>
   <energy>
    <i name="e_fr_energy">    -11.97903746 </i>
    <i name="e_wo_entrp">    -11.97903746 </i>
    <i name="e_0_energy">    -11.97903746 </i>
   </energy>
  </scstep>
  <scstep>
   <time name="dav">    0.27    0.27</time>
   <time name="total">    0.29    0.30</time>
   <energy>
    <i name="e_fr_energy">    -11.92056736 </i>
    <i name="e_wo_entrp">    -11.92056736 </i>
    <i name="e_0_energy">    -11.92056736 </i>
   </energy>
  </scstep>
  <scstep>
   <time name="dav">    0.29    0.29</time>
   <time name="total">    0.32    0.32</time>
   <energy>
    <i name="e_fr_energy">    -11.91664732 </i>
    <i name="e_wo_entrp">    -11.91664732 </i>
    <i name="e_0_energy">    -11.91664732 </i>
   </energy>
  </scstep>
  <scstep>
   <time name="dav">    0.32    0.32</time>
   <time name="total">    0.35    0.35</time>
   <energy>
    <i name="e_fr_energy">    -11.91667123 </i>
    <i name="e_wo_entrp">    -11.91667123 </i>
    <i name="e_0_energy">    -11.91667123 </i>
   </energy>
  </scstep>
  <scstep>
   <time name="dav">    0.31    0.31</time>
   <time name="total">    0.34    0.34</time>
   <energy>
    <i name="e_fr_energy">    -11.91663221 </i>
    <i name="e_wo_entrp">    -11.91663221 </i>
    <i name="e_0_energy">    -11.91663221 </i>
   </energy>
  </scstep>
  <scstep>
   <time name="dav">    0.29    0.29</time>
   <time name="total">    0.32    0.32</time>
   <energy>
    <i name="e_fr_energy">    -11.91663074 </i>
    <i name="e_wo_entrp">    -11.91663074 </i>
    <i name="e_0_energy">    -11.91663074 </i>
   </energy>
  </scstep>
  <scstep>
   <time name="dav">    0.17    0.17</time>
   <time name="total">    0.18    0.18</time>
   <energy>
    <i name="alphaZ">     15.79325893 </i>
    <i name="ewald">   -354.45312954 </i>
    <i name="hartreedc">   -141.78912533 </i>
    <i name="XCdc">    -20.67718013 </i>
    <i name="pawpsdc">    687.21044361 </i>
    <i name="pawaedc">   -636.81562718 </i>
    <i name="eentropy">     -0.00000000 </i>
    <i name="bandstr">    -16.55094011 </i>
    <i name="atom">    455.36566902 </i>
    <i name="e_fr_energy">    -11.91663073 </i>
    <i name="e_wo_entrp">    -11.91663073 </i>
    <i name="e_0_energy">    -11.91663073 </i>
   </energy>
  </scstep>
  <structure>
   <crystal>
    <varray name="basis" >
     <v>       3.00978800       0.00000000       0.00000000 </v>
     <v>       1.50489400       2.60655300       0.00000000 </v>
     <v>       1.50489400       0.86885100       2.45748200 </v>
    </varray>
    <i name="volume">     19.27936883 </i>
    <varray name="rec_basis" >
     <v>       0.33224931      -0.19182422      -0.13564019 </v>
     <v>       0.00000000       0.38364844      -0.13564019 </v>
     <v>       0.00000000       0.00000000       0.40692058 </v>
    </varray>
   </crystal>
   <varray name="positions" >
    <v>       0.50000000       0.50000000       0.50000000 </v>
    <v>       0.00000000       0.00000000       0.00000000 </v>
   </varray>
  </structure>
  <varray name="forces" >
   <v>       0.00000000      -0.00000000      -0.00000000 </v>
   <v>      -0.00000000       0.00000000       0.00000000 </v>
  </varray>
  <varray name="stress" >
   <v>     -39.85274142      -0.00000000       0.00000000 </v>
   <v>      -0.00000000     -39.85274546       0.00000000 </v>
   <v>      -0.00000000      -0.00000000     -39.85275403 </v>
  </varray>
  <energy>
   <i name="e_fr_energy">    -11.91663073 </i>
   <i name="e_wo_entrp">    -11.91663073 </i>
   <i name="e_0_energy">     -0.00000000 </i>
  </energy>
  <time name="totalsc">    5.36    5.42</time>
  <eigenvalues>
   <array>
    <dimension dim="1">band</dimension>
    <dimension dim="2">kpoint</dimension>
    <dimension dim="3">spin</dimension>
    <field>eigene</field>
    <field>occ</field>
    <set>
     <set comment="spin 1">
      <set comment="kpoint 1">
       <r>  -13.7550    1.0000 </r>
       <r>    3.3550    1.0000 </r>
       <r>    3.3550    1.0000 </r>
       <r>    3.3550    1.0000 </r>
       <r>    7.7791    0.0000 </r>
       <r>   18.9787    0.0000 </r>
       <r>   18.9787    0.0000 </r>
       <r>   18.9787    0.0000 </r>
       <r>   22.8148    0.0000 </r>
       <r>   24.5495    0.0000 </r>
       <r>   24.5495    0.0000 </r>
       <r>   26.9999    0.0000 </r>
       <r>   26.9999    0.0000 </r>
       <r>   26.9999    0.0000 </r>
       <r>   40.9532    0.0000 </r>
       <r>   40.9532    0.0000 </r>
      </set>
      <set comment="kpoint 2">
       <r>  -13.6722    1.0000 </r>
       <r>    2.8078    1.0000 </r>
       <r>    3.3023    1.0000 </r>
       <r>    3.3024    1.0000 </r>
       <r>    8.3150    0.0000 </r>
       <r>   17.8961    0.0000 </r>
       <r>   19.1697    0.0000 </r>
       <r>   19.1697    0.0000 </r>
       <r>   23.8697    0.0000 </r>
       <r>   23.8697    0.0000 </r>
       <r>   24.2150    0.0000 </r>
       <r>   27.0147    0.0000 </r>
       <r>   28.0258    0.0000 </r>
       <r>   28.0258    0.0000 </r>
       <r>   39.5426    0.0000 </r>
       <r>   40.8869    0.0000 </r>
      </set>
      <set comment="kpoint 3">
       <r>  -13.4412    1.0000 </r>
       <r>    1.6637    1.0000 </r>
       <r>    3.1628    1.0000 </r>
       <r>    3.1628    1.0000 </r>
       <r>    9.3926    0.0000 </r>
       <r>   16.4455    0.0000 </r>
       <r>   19.5812    0.0000 </r>
       <r>   19.5812    0.0000 </r>
       <r>   23.1332    0.0000 </r>
       <r>   23.1332    0.0000 </r>
       <r>   25.1733    0.0000 </r>
       <r>   28.5534    0.0000 </r>
       <r>   29.8567    0.0000 </r>
       <r>   29.8567    0.0000 </r>
       <r>   37.8248    0.0000 </r>
       <r>   40.4997    0.0000 </r>
      </set>
      <set comment="kpoint 4">
       <r>  -13.1158    1.0000 </r>
       <r>    0.4672    1.0000 </r>
       <r>    2.9886    1.0000 </r>
       <r>    2.9886    1.0000 </r>
       <r>   10.3667    0.0000 </r>
       <r>   15.5848    0.0000 </r>
       <r>   19.7450    0.0000 </r>
       <r>   19.7450    0.0000 </r>
       <r>   23.2860    0.0000 </r>
       <r>   23.2860    0.0000 </r>
       <r>   24.6804    0.0000 </r>
       <r>   31.3245    0.0000 </r>
       <r>   31.6889    0.0000 </r>
       <r>   31.6889    0.0000 </r>
       <r>   36.8675    0.0000 </r>
       <r>   39.1934    0.0000 </r>
      </set>
      <set comment="kpoint 5">
       <r>  -12.7891    1.0000 </r>
       <r>   -0.5052    1.0000 </r>
       <r>    2.8362    1.0000 </r>
       <r>    2.8362    1.0000 </r>
       <r>   10.8948    0.0000 </r>
       <r>   15.4177    0.0000 </r>
       <r>   19.5539    0.0000 </r>
       <r>   19.5539    0.0000 </r>
       <r>   24.1251    0.0000 </r>
       <r>   24.2955    0.0000 </r>
       <r>   24.2955    0.0000 </r>
       <r>   31.9602    0.0000 </r>
       <r>   33.0873    0.0000 </r>
       <r>   33.0873    0.0000 </r>
       <r>   37.0909    0.0000 </r>
       <r>   37.0909    0.0000 </r>
      </set>
      <set comment="kpoint 6">
       <r>  -12.5793    1.0000 </r>
       <r>   -1.0537    1.0000 </r>
       <r>    2.7476    1.0000 </r>
       <r>    2.7476    1.0000 </r>
       <r>   11.0431    0.0000 </r>
       <r>   15.5711    0.0000 </r>
       <r>   19.3710    0.0000 </r>
       <r>   19.3710    0.0000 </r>
       <r>   23.8179    0.0000 </r>
       <r>   25.2968    0.0000 </r>
       <r>   25.2968    0.0000 </r>
       <r>   31.4267    0.0000 </r>
       <r>   33.6786    0.0000 </r>
       <r>   33.6787    0.0000 </r>
       <r>   35.5873    0.0000 </r>
       <r>   35.5873    0.0000 </r>
      </set>
      <set comment="kpoint 7">
       <r>  -13.6452    1.0000 </r>
       <r>    2.7483    1.0000 </r>
       <r>    3.2332    1.0000 </r>
       <r>    3.2332    1.0000 </r>
       <r>    8.4867    0.0000 </r>
       <r>   17.5930    0.0000 </r>
       <r>   19.2363    0.0000 </r>
       <r>   19.2363    0.0000 </r>
       <r>   22.7797    0.0000 </r>
       <r>   24.7466    0.0000 </r>
       <r>   24.7987    0.0000 </r>
       <r>   27.4060    0.0000 </r>
       <r>   27.4060    0.0000 </r>
       <r>   28.5110    0.0000 </r>
       <r>   39.5720    0.0000 </r>
       <r>   40.5945    0.0000 </r>
      </set>
      <set comment="kpoint 8">
       <r>  -13.4653    1.0000 </r>
       <r>    1.9012    1.0000 </r>
       <r>    3.0820    1.0000 </r>
       <r>    3.1104    1.0000 </r>
       <r>    9.3711    0.0000 </r>
       <r>   16.4221    0.0000 </r>
       <r>   19.5447    0.0000 </r>
       <r>   19.5744    0.0000 </r>
       <r>   21.7289    0.0000 </r>
       <r>   24.5371    0.0000 </r>
       <r>   26.1394    0.0000 </r>
       <r>   28.2760    0.0000 </r>
       <r>   28.7282    0.0000 </r>
       <r>   29.9049    0.0000 </r>
       <r>   38.1773    0.0000 </r>
       <r>   40.0233    0.0000 </r>
      </set>
      <set comment="kpoint 9">
       <r>  -13.1733    1.0000 </r>
       <r>    0.8095    1.0000 </r>
       <r>    2.9047    1.0000 </r>
       <r>    2.9200    1.0000 </r>
       <r>   10.4008    0.0000 </r>
       <r>   15.5094    0.0000 </r>
       <r>   19.4303    0.0000 </r>
       <r>   19.8323    0.0000 </r>
       <r>   21.7475    0.0000 </r>
       <r>   24.4437    0.0000 </r>
       <r>   25.9361    0.0000 </r>
       <r>   30.7900    0.0000 </r>
       <r>   30.8919    0.0000 </r>
       <r>   31.4595    0.0000 </r>
       <r>   36.8337    0.0000 </r>
       <r>   38.5893    0.0000 </r>
      </set>
      <set comment="kpoint 10">
       <r>  -12.8472    1.0000 </r>
       <r>   -0.1748    1.0000 </r>
       <r>    2.6999    1.0000 </r>
       <r>    2.7569    1.0000 </r>
       <r>   11.1184    0.0000 </r>
       <r>   15.2314    0.0000 </r>
       <r>   18.9003    0.0000 </r>
       <r>   19.7787    0.0000 </r>
       <r>   22.7597    0.0000 </r>
       <r>   25.0355    0.0000 </r>
       <r>   25.4684    0.0000 </r>
       <r>   32.1846    0.0000 </r>
       <r>   32.5630    0.0000 </r>
       <r>   32.8827    0.0000 </r>
       <r>   36.2638    0.0000 </r>
       <r>   37.9645    0.0000 </r>
      </set>
      <set comment="kpoint 11">
       <r>  -12.5963    1.0000 </r>
       <r>   -0.8315    1.0000 </r>
       <r>    2.5198    1.0000 </r>
       <r>    2.6801    1.0000 </r>
       <r>   11.3916    0.0000 </r>
       <r>   15.4180    0.0000 </r>
       <r>   18.5296    0.0000 </r>
       <r>   19.6038    0.0000 </r>
       <r>   23.8776    0.0000 </r>
       <r>   25.2240    0.0000 </r>
       <r>   25.6998    0.0000 </r>
       <r>   32.0554    0.0000 </r>
       <r>   32.8902    0.0000 </r>
       <r>   34.0697    0.0000 </r>
       <r>   34.8002    0.0000 </r>
       <r>   37.6908    0.0000 </r>
      </set>
      <set comment="kpoint 12">
       <r>  -12.5242    1.0000 </r>
       <r>   -1.0056    1.0000 </r>
       <r>    2.4311    1.0000 </r>
       <r>    2.6942    1.0000 </r>
       <r>   11.4390    0.0000 </r>
       <r>   15.5336    0.0000 </r>
       <r>   18.4353    0.0000 </r>
       <r>   19.5419    0.0000 </r>
       <r>   24.5612    0.0000 </r>
       <r>   25.2495    0.0000 </r>
       <r>   25.4018    0.0000 </r>
       <r>   32.1656    0.0000 </r>
       <r>   33.1259    0.0000 </r>
       <r>   33.2725    0.0000 </r>
       <r>   35.7268    0.0000 </r>
       <r>   36.4638    0.0000 </r>
      </set>
      <set comment="kpoint 13">
       <r>  -12.6645    1.0000 </r>
       <r>   -0.6549    1.0000 </r>
       <r>    2.4576    1.0000 </r>
       <r>    2.7966    1.0000 </r>
       <r>   11.3518    0.0000 </r>
       <r>   15.3722    0.0000 </r>
       <r>   18.6048    0.0000 </r>
       <r>   19.6928    0.0000 </r>
       <r>   24.0557    0.0000 </r>
       <r>   24.7494    0.0000 </r>
       <r>   25.2908    0.0000 </r>
       <r>   32.3028    0.0000 </r>
       <r>   32.9135    0.0000 </r>
       <r>   33.8107    0.0000 </r>
       <r>   34.9870    0.0000 </r>
       <r>   38.4008    0.0000 </r>
      </set>
      <set comment="kpoint 14">
       <r>  -12.9534    1.0000 </r>
       <r>    0.1314    1.0000 </r>
       <r>    2.5969    1.0000 </r>
       <r>    2.9580    1.0000 </r>
       <r>   10.9402    0.0000 </r>
       <r>   15.3175    0.0000 </r>
       <r>   18.9647    0.0000 </r>
       <r>   20.0249    0.0000 </r>
       <r>   22.5626    0.0000 </r>
       <r>   24.2938    0.0000 </r>
       <r>   25.6193    0.0000 </r>
       <r>   31.5902    0.0000 </r>
       <r>   32.3499    0.0000 </r>
       <r>   32.7402    0.0000 </r>
       <r>   36.1387    0.0000 </r>
       <r>   38.3977    0.0000 </r>
      </set>
      <set comment="kpoint 15">
       <r>  -13.2791    1.0000 </r>
       <r>    1.1646    1.0000 </r>
       <r>    2.8235    1.0000 </r>
       <r>    3.1338    1.0000 </r>
       <r>   10.0642    0.0000 </r>
       <r>   15.8421    0.0000 </r>
       <r>   19.2823    0.0000 </r>
       <r>   20.0813    0.0000 </r>
       <r>   21.9057    0.0000 </r>
       <r>   23.8320    0.0000 </r>
       <r>   26.0561    0.0000 </r>
       <r>   29.4236    0.0000 </r>
       <r>   30.6385    0.0000 </r>
       <r>   31.1465    0.0000 </r>
       <r>   36.7434    0.0000 </r>
       <r>   39.6449    0.0000 </r>
      </set>
      <set comment="kpoint 16">
       <r>  -13.5405    1.0000 </r>
       <r>    2.1810    1.0000 </r>
       <r>    3.0913    1.0000 </r>
       <r>    3.2647    1.0000 </r>
       <r>    9.0119    0.0000 </r>
       <r>   16.9066    0.0000 </r>
       <r>   19.3051    0.0000 </r>
       <r>   19.5209    0.0000 </r>
       <r>   22.6243    0.0000 </r>
       <r>   23.9190    0.0000 </r>
       <r>   25.5602    0.0000 </r>
       <r>   27.9318    0.0000 </r>
       <r>   28.2126    0.0000 </r>
       <r>   29.5589    0.0000 </r>
       <r>   38.4191    0.0000 </r>
       <r>   40.3515    0.0000 </r>
      </set>
      <set comment="kpoint 17">
       <r>  -13.3461    1.0000 </r>
       <r>    1.5987    1.0000 </r>
       <r>    2.9216    1.0000 </r>
       <r>    2.9216    1.0000 </r>
       <r>    9.9420    0.0000 </r>
       <r>   15.6537    0.0000 </r>
       <r>   19.8897    0.0000 </r>
       <r>   19.8897    0.0000 </r>
       <r>   20.2313    0.0000 </r>
       <r>   25.5359    0.0000 </r>
       <r>   28.3235    0.0000 </r>
       <r>   28.6375    0.0000 </r>
       <r>   28.6375    0.0000 </r>
       <r>   30.1514    0.0000 </r>
       <r>   38.3368    0.0000 </r>
       <r>   39.5581    0.0000 </r>
      </set>
      <set comment="kpoint 18">
       <r>  -13.1108    1.0000 </r>
       <r>    0.8813    1.0000 </r>
       <r>    2.6983    1.0000 </r>
       <r>    2.7393    1.0000 </r>
       <r>   10.8383    0.0000 </r>
       <r>   14.8734    0.0000 </r>
       <r>   18.8735    0.0000 </r>
       <r>   20.2248    0.0000 </r>
       <r>   20.6645    0.0000 </r>
       <r>   25.7512    0.0000 </r>
       <r>   28.3827    0.0000 </r>
       <r>   30.1795    0.0000 </r>
       <r>   30.7511    0.0000 </r>
       <r>   31.4561    0.0000 </r>
       <r>   37.2397    0.0000 </r>
       <r>   38.4403    0.0000 </r>
      </set>
      <set comment="kpoint 19">
       <r>  -12.8212    1.0000 </r>
       <r>    0.1205    1.0000 </r>
       <r>    2.3672    1.0000 </r>
       <r>    2.5927    1.0000 </r>
       <r>   11.7026    0.0000 </r>
       <r>   14.5915    0.0000 </r>
       <r>   17.8781    0.0000 </r>
       <r>   20.3048    0.0000 </r>
       <r>   21.5225    0.0000 </r>
       <r>   26.1241    0.0000 </r>
       <r>   28.0657    0.0000 </r>
       <r>   31.1693    0.0000 </r>
       <r>   32.3414    0.0000 </r>
       <r>   33.6073    0.0000 </r>
       <r>   36.2742    0.0000 </r>
       <r>   37.6250    0.0000 </r>
      </set>
      <set comment="kpoint 20">
       <r>  -12.5678    1.0000 </r>
       <r>   -0.4540    1.0000 </r>
       <r>    2.0141    1.0000 </r>
       <r>    2.5211    1.0000 </r>
       <r>   12.1731    0.0000 </r>
       <r>   14.9240    0.0000 </r>
       <r>   17.2449    0.0000 </r>
       <r>   20.1690    0.0000 </r>
       <r>   22.3032    0.0000 </r>
       <r>   26.5688    0.0000 </r>
       <r>   27.7794    0.0000 </r>
       <r>   31.3751    0.0000 </r>
       <r>   33.3830    0.0000 </r>
       <r>   33.7279    0.0000 </r>
       <r>   35.2400    0.0000 </r>
       <r>   40.1535    0.0000 </r>
      </set>
      <set comment="kpoint 21">
       <r>  -12.4467    1.0000 </r>
       <r>   -0.6917    1.0000 </r>
       <r>    1.7594    1.0000 </r>
       <r>    2.5430    1.0000 </r>
       <r>   12.3357    0.0000 </r>
       <r>   15.3214    0.0000 </r>
       <r>   16.9851    0.0000 </r>
       <r>   20.0409    0.0000 </r>
       <r>   23.0171    0.0000 </r>
       <r>   26.0826    0.0000 </r>
       <r>   27.5088    0.0000 </r>
       <r>   32.0402    0.0000 </r>
       <r>   32.4851    0.0000 </r>
       <r>   33.6945    0.0000 </r>
       <r>   37.2962    0.0000 </r>
       <r>   37.7260    0.0000 </r>
      </set>
      <set comment="kpoint 22">
       <r>  -12.5099    1.0000 </r>
       <r>   -0.5350    1.0000 </r>
       <r>    1.6892    1.0000 </r>
       <r>    2.6543    1.0000 </r>
       <r>   12.3312    0.0000 </r>
       <r>   15.2697    0.0000 </r>
       <r>   17.1067    0.0000 </r>
       <r>   20.0832    0.0000 </r>
       <r>   23.8005    0.0000 </r>
       <r>   24.4767    0.0000 </r>
       <r>   27.4184    0.0000 </r>
       <r>   32.3625    0.0000 </r>
       <r>   32.5134    0.0000 </r>
       <r>   34.4654    0.0000 </r>
       <r>   35.4155    0.0000 </r>
       <r>   39.6884    0.0000 </r>
      </set>
      <set comment="kpoint 23">
       <r>  -12.7294    1.0000 </r>
       <r>   -0.0573    1.0000 </r>
       <r>    1.8610    1.0000 </r>
       <r>    2.8259    1.0000 </r>
       <r>   11.9660    0.0000 </r>
       <r>   15.0428    0.0000 </r>
       <r>   17.6540    0.0000 </r>
       <r>   20.3810    0.0000 </r>
       <r>   22.6544    0.0000 </r>
       <r>   24.3336    0.0000 </r>
       <r>   27.5262    0.0000 </r>
       <r>   31.5628    0.0000 </r>
       <r>   32.5696    0.0000 </r>
       <r>   33.8277    0.0000 </r>
       <r>   35.8386    0.0000 </r>
       <r>   39.9366    0.0000 </r>
      </set>
      <set comment="kpoint 24">
       <r>  -13.0178    1.0000 </r>
       <r>    0.5624    1.0000 </r>
       <r>    2.2835    1.0000 </r>
       <r>    3.0050    1.0000 </r>
       <r>   11.0856    0.0000 </r>
       <r>   15.2407    0.0000 </r>
       <r>   18.4843    0.0000 </r>
       <r>   20.9625    0.0000 </r>
       <r>   21.1453    0.0000 </r>
       <r>   24.2572    0.0000 </r>
       <r>   27.3441    0.0000 </r>
       <r>   29.9132    0.0000 </r>
       <r>   32.1313    0.0000 </r>
       <r>   33.4434    0.0000 </r>
       <r>   34.9924    0.0000 </r>
       <r>   39.5879    0.0000 </r>
      </set>
      <set comment="kpoint 25">
       <r>  -12.9437    1.0000 </r>
       <r>    0.5440    1.0000 </r>
       <r>    2.5517    1.0000 </r>
       <r>    2.5517    1.0000 </r>
       <r>   11.4709    0.0000 </r>
       <r>   14.0967    0.0000 </r>
       <r>   17.9850    0.0000 </r>
       <r>   20.6827    0.0000 </r>
       <r>   20.6827    0.0000 </r>
       <r>   26.7190    0.0000 </r>
       <r>   30.3506    0.0000 </r>
       <r>   30.6239    0.0000 </r>
       <r>   30.6239    0.0000 </r>
       <r>   32.6079    0.0000 </r>
       <r>   38.2293    0.0000 </r>
       <r>   38.2293    0.0000 </r>
      </set>
      <set comment="kpoint 26">
       <r>  -12.7168    1.0000 </r>
       <r>    0.0844    1.0000 </r>
       <r>    2.2586    1.0000 </r>
       <r>    2.4013    1.0000 </r>
       <r>   12.2322    0.0000 </r>
       <r>   13.6851    0.0000 </r>
       <r>   17.0872    0.0000 </r>
       <r>   20.9275    0.0000 </r>
       <r>   21.1564    0.0000 </r>
       <r>   27.2979    0.0000 </r>
       <r>   30.0733    0.0000 </r>
       <r>   30.9346    0.0000 </r>
       <r>   32.1340    0.0000 </r>
       <r>   35.1136    0.0000 </r>
       <r>   36.9052    0.0000 </r>
       <r>   37.6616    0.0000 </r>
      </set>
      <set comment="kpoint 27">
       <r>  -12.4993    1.0000 </r>
       <r>   -0.2321    1.0000 </r>
       <r>    1.7428    1.0000 </r>
       <r>    2.3279    1.0000 </r>
       <r>   12.7973    0.0000 </r>
       <r>   14.0336    0.0000 </r>
       <r>   16.4155    0.0000 </r>
       <r>   20.8773    0.0000 </r>
       <r>   21.4851    0.0000 </r>
       <r>   27.7938    0.0000 </r>
       <r>   30.0371    0.0000 </r>
       <r>   30.6735    0.0000 </r>
       <r>   32.6674    0.0000 </r>
       <r>   35.3201    0.0000 </r>
       <r>   36.2214    0.0000 </r>
       <r>   40.8177    0.0000 </r>
      </set>
      <set comment="kpoint 28">
       <r>  -12.3675    1.0000 </r>
       <r>   -0.2900    1.0000 </r>
       <r>    1.1807    1.0000 </r>
       <r>    2.3508    1.0000 </r>
       <r>   13.0711    0.0000 </r>
       <r>   14.8568    0.0000 </r>
       <r>   15.9912    0.0000 </r>
       <r>   20.6883    0.0000 </r>
       <r>   21.6583    0.0000 </r>
       <r>   27.4092    0.0000 </r>
       <r>   29.8152    0.0000 </r>
       <r>   30.9459    0.0000 </r>
       <r>   31.7380    0.0000 </r>
       <r>   35.4160    0.0000 </r>
       <r>   38.1724    0.0000 </r>
       <r>   40.1486    0.0000 </r>
      </set>
      <set comment="kpoint 29">
       <r>  -12.3723    1.0000 </r>
       <r>   -0.1397    1.0000 </r>
       <r>    0.8507    1.0000 </r>
       <r>    2.4650    1.0000 </r>
       <r>   13.2520    0.0000 </r>
       <r>   15.2204    0.0000 </r>
       <r>   15.8969    0.0000 </r>
       <r>   20.5325    0.0000 </r>
       <r>   22.2612    0.0000 </r>
       <r>   25.6829    0.0000 </r>
       <r>   29.5272    0.0000 </r>
       <r>   31.3819    0.0000 </r>
       <r>   31.9219    0.0000 </r>
       <r>   35.8303    0.0000 </r>
       <r>   37.4911    0.0000 </r>
       <r>   40.5975    0.0000 </r>
      </set>
      <set comment="kpoint 30">
       <r>  -12.5108    1.0000 </r>
       <r>   -0.0842    1.0000 </r>
       <r>    1.1308    1.0000 </r>
       <r>    2.6402    1.0000 </r>
       <r>   12.9408    0.0000 </r>
       <r>   14.9915    0.0000 </r>
       <r>   16.5322    0.0000 </r>
       <r>   20.4730    0.0000 </r>
       <r>   23.4132    0.0000 </r>
       <r>   23.8422    0.0000 </r>
       <r>   28.9800    0.0000 </r>
       <r>   31.5389    0.0000 </r>
       <r>   32.3761    0.0000 </r>
       <r>   34.4961    0.0000 </r>
       <r>   37.1445    0.0000 </r>
       <r>   40.9569    0.0000 </r>
      </set>
      <set comment="kpoint 31">
       <r>  -12.5641    1.0000 </r>
       <r>   -0.1932    1.0000 </r>
       <r>    2.2427    1.0000 </r>
       <r>    2.2427    1.0000 </r>
       <r>   12.6121    0.0000 </r>
       <r>   13.0387    0.0000 </r>
       <r>   16.5254    0.0000 </r>
       <r>   21.3802    0.0000 </r>
       <r>   21.3802    0.0000 </r>
       <r>   28.2150    0.0000 </r>
       <r>   29.2327    0.0000 </r>
       <r>   32.7621    0.0000 </r>
       <r>   32.7621    0.0000 </r>
       <r>   37.4782    0.0000 </r>
       <r>   37.6435    0.0000 </r>
       <r>   37.6435    0.0000 </r>
      </set>
      <set comment="kpoint 32">
       <r>  -12.4113    1.0000 </r>
       <r>   -0.3781    1.0000 </r>
       <r>    1.9292    1.0000 </r>
       <r>    2.1622    1.0000 </r>
       <r>   12.8402    0.0000 </r>
       <r>   13.1738    0.0000 </r>
       <r>   16.1509    0.0000 </r>
       <r>   21.4891    0.0000 </r>
       <r>   21.5256    0.0000 </r>
       <r>   28.9184    0.0000 </r>
       <r>   28.9444    0.0000 </r>
       <r>   32.7703    0.0000 </r>
       <r>   32.8014    0.0000 </r>
       <r>   37.4038    0.0000 </r>
       <r>   37.4298    0.0000 </r>
       <r>   40.4397    0.0000 </r>
      </set>
      <set comment="kpoint 33">
       <r>  -12.3105    1.0000 </r>
       <r>   -0.2953    1.0000 </r>
       <r>    1.2906    1.0000 </r>
       <r>    2.1790    1.0000 </r>
       <r>   13.0249    0.0000 </r>
       <r>   14.0577    0.0000 </r>
       <r>   15.8510    0.0000 </r>
       <r>   21.2926    0.0000 </r>
       <r>   21.2955    0.0000 </r>
       <r>   29.2990    0.0000 </r>
       <r>   29.3537    0.0000 </r>
       <r>   31.0462    0.0000 </r>
       <r>   32.0673    0.0000 </r>
       <r>   37.6863    0.0000 </r>
       <r>   39.0014    0.0000 </r>
       <r>   41.6550    0.0000 </r>
      </set>
      <set comment="kpoint 34">
       <r>  -12.2966    1.0000 </r>
       <r>    0.0787    1.0000 </r>
       <r>    0.5788    1.0000 </r>
       <r>    2.2897    1.0000 </r>
       <r>   13.3643    0.0000 </r>
       <r>   14.9813    0.0000 </r>
       <r>   15.5211    0.0000 </r>
       <r>   20.9464    0.0000 </r>
       <r>   21.2959    0.0000 </r>
       <r>   27.5772    0.0000 </r>
       <r>   30.2717    0.0000 </r>
       <r>   31.0682    0.0000 </r>
       <r>   31.1997    0.0000 </r>
       <r>   38.0525    0.0000 </r>
       <r>   38.4773    0.0000 </r>
       <r>   40.5344    0.0000 </r>
      </set>
      <set comment="kpoint 35">
       <r>  -12.3344    1.0000 </r>
       <r>   -0.5563    1.0000 </r>
       <r>    2.0714    1.0000 </r>
       <r>    2.0714    1.0000 </r>
       <r>   12.5059    0.0000 </r>
       <r>   12.9742    0.0000 </r>
       <r>   16.1301    0.0000 </r>
       <r>   21.7964    0.0000 </r>
       <r>   21.7964    0.0000 </r>
       <r>   28.2083    0.0000 </r>
       <r>   29.5498    0.0000 </r>
       <r>   33.5834    0.0000 </r>
       <r>   33.5834    0.0000 </r>
       <r>   37.4936    0.0000 </r>
       <r>   39.2153    0.0000 </r>
       <r>   39.2153    0.0000 </r>
      </set>
      <set comment="kpoint 36">
       <r>  -12.2967    1.0000 </r>
       <r>   -0.5228    1.0000 </r>
       <r>    1.8052    1.0000 </r>
       <r>    2.0774    1.0000 </r>
       <r>   12.6445    0.0000 </r>
       <r>   13.2600    0.0000 </r>
       <r>   16.0445    0.0000 </r>
       <r>   21.6298    0.0000 </r>
       <r>   21.7100    0.0000 </r>
       <r>   28.4090    0.0000 </r>
       <r>   29.9862    0.0000 </r>
       <r>   32.1100    0.0000 </r>
       <r>   33.1860    0.0000 </r>
       <r>   38.5488    0.0000 </r>
       <r>   39.4945    0.0000 </r>
       <r>   40.3608    0.0000 </r>
      </set>
      <set comment="kpoint 37">
       <r>  -13.2565    1.0000 </r>
       <r>    1.2247    1.0000 </r>
       <r>    2.7375    1.0000 </r>
       <r>    3.0249    1.0000 </r>
       <r>   10.2495    0.0000 </r>
       <r>   15.5682    0.0000 </r>
       <r>   19.2318    0.0000 </r>
       <r>   20.2264    0.0000 </r>
       <r>   20.9310    0.0000 </r>
       <r>   24.7152    0.0000 </r>
       <r>   27.3049    0.0000 </r>
       <r>   28.9966    0.0000 </r>
       <r>   30.6279    0.0000 </r>
       <r>   30.9730    0.0000 </r>
       <r>   36.8786    0.0000 </r>
       <r>   39.5808    0.0000 </r>
      </set>
      <set comment="kpoint 38">
       <r>  -12.9652    1.0000 </r>
       <r>    0.4066    1.0000 </r>
       <r>    2.3805    1.0000 </r>
       <r>    2.8653    1.0000 </r>
       <r>   11.2313    0.0000 </r>
       <r>   15.0156    0.0000 </r>
       <r>   18.4497    0.0000 </r>
       <r>   20.3494    0.0000 </r>
       <r>   21.4846    0.0000 </r>
       <r>   24.9578    0.0000 </r>
       <r>   27.3682    0.0000 </r>
       <r>   30.7273    0.0000 </r>
       <r>   31.8411    0.0000 </r>
       <r>   33.3451    0.0000 </r>
       <r>   35.6704    0.0000 </r>
       <r>   38.6481    0.0000 </r>
      </set>
      <set comment="kpoint 39">
       <r>  -12.6762    1.0000 </r>
       <r>   -0.3165    1.0000 </r>
       <r>    2.1175    1.0000 </r>
       <r>    2.6933    1.0000 </r>
       <r>   11.8723    0.0000 </r>
       <r>   15.0409    0.0000 </r>
       <r>   17.7650    0.0000 </r>
       <r>   20.0338    0.0000 </r>
       <r>   22.7376    0.0000 </r>
       <r>   25.2404    0.0000 </r>
       <r>   27.1396    0.0000 </r>
       <r>   32.0452    0.0000 </r>
       <r>   32.5540    0.0000 </r>
       <r>   34.1566    0.0000 </r>
       <r>   35.0691    0.0000 </r>
       <r>   39.8013    0.0000 </r>
      </set>
      <set comment="kpoint 40">
       <r>  -12.4930    1.0000 </r>
       <r>   -0.7405    1.0000 </r>
       <r>    1.9813    1.0000 </r>
       <r>    2.5851    1.0000 </r>
       <r>   12.0784    0.0000 </r>
       <r>   15.3485    0.0000 </r>
       <r>   17.4085    0.0000 </r>
       <r>   19.8262    0.0000 </r>
       <r>   23.7614    0.0000 </r>
       <r>   25.1288    0.0000 </r>
       <r>   27.1705    0.0000 </r>
       <r>   32.2949    0.0000 </r>
       <r>   32.6981    0.0000 </r>
       <r>   33.5697    0.0000 </r>
       <r>   35.9469    0.0000 </r>
       <r>   38.2775    0.0000 </r>
      </set>
      <set comment="kpoint 41">
       <r>  -12.8786    1.0000 </r>
       <r>    0.3756    1.0000 </r>
       <r>    2.3192    1.0000 </r>
       <r>    2.6174    1.0000 </r>
       <r>   11.7019    0.0000 </r>
       <r>   14.3203    0.0000 </r>
       <r>   17.8343    0.0000 </r>
       <r>   20.5630    0.0000 </r>
       <r>   21.0463    0.0000 </r>
       <r>   26.2115    0.0000 </r>
       <r>   29.6688    0.0000 </r>
       <r>   30.4486    0.0000 </r>
       <r>   31.1485    0.0000 </r>
       <r>   34.0574    0.0000 </r>
       <r>   36.0939    0.0000 </r>
       <r>   38.5924    0.0000 </r>
      </set>
      <set comment="kpoint 42">
       <r>  -12.6259    1.0000 </r>
       <r>   -0.0783    1.0000 </r>
       <r>    1.8853    1.0000 </r>
       <r>    2.4488    1.0000 </r>
       <r>   12.5383    0.0000 </r>
       <r>   14.2856    0.0000 </r>
       <r>   16.9508    0.0000 </r>
       <r>   20.3756    0.0000 </r>
       <r>   21.8898    0.0000 </r>
       <r>   26.3948    0.0000 </r>
       <r>   29.7685    0.0000 </r>
       <r>   30.8966    0.0000 </r>
       <r>   32.1606    0.0000 </r>
       <r>   35.2212    0.0000 </r>
       <r>   35.6132    0.0000 </r>
       <r>   39.6335    0.0000 </r>
      </set>
      <set comment="kpoint 43">
       <r>  -12.4371    1.0000 </r>
       <r>   -0.3529    1.0000 </r>
       <r>    1.4867    1.0000 </r>
       <r>    2.3515    1.0000 </r>
       <r>   12.9373    0.0000 </r>
       <r>   14.8449    0.0000 </r>
       <r>   16.3899    0.0000 </r>
       <r>   20.0757    0.0000 </r>
       <r>   22.5883    0.0000 </r>
       <r>   26.1314    0.0000 </r>
       <r>   29.7020    0.0000 </r>
       <r>   31.1361    0.0000 </r>
       <r>   32.2601    0.0000 </r>
       <r>   34.8126    0.0000 </r>
       <r>   36.6210    0.0000 </r>
       <r>   40.7343    0.0000 </r>
      </set>
      <set comment="kpoint 44">
       <r>  -12.3848    1.0000 </r>
       <r>   -0.3859    1.0000 </r>
       <r>    1.2578    1.0000 </r>
       <r>    2.3787    1.0000 </r>
       <r>   13.0693    0.0000 </r>
       <r>   15.1990    0.0000 </r>
       <r>   16.2186    0.0000 </r>
       <r>   19.9427    0.0000 </r>
       <r>   23.1891    0.0000 </r>
       <r>   25.2426    0.0000 </r>
       <r>   29.5131    0.0000 </r>
       <r>   31.3629    0.0000 </r>
       <r>   32.2014    0.0000 </r>
       <r>   34.8429    0.0000 </r>
       <r>   37.8114    0.0000 </r>
       <r>   39.1974    0.0000 </r>
      </set>
      <set comment="kpoint 45">
       <r>  -12.4907    1.0000 </r>
       <r>   -0.2145    1.0000 </r>
       <r>    1.3327    1.0000 </r>
       <r>    2.5150    1.0000 </r>
       <r>   12.9471    0.0000 </r>
       <r>   14.9212    0.0000 </r>
       <r>   16.5492    0.0000 </r>
       <r>   20.1007    0.0000 </r>
       <r>   23.4462    0.0000 </r>
       <r>   24.3936    0.0000 </r>
       <r>   29.2321    0.0000 </r>
       <r>   31.6957    0.0000 </r>
       <r>   32.0999    0.0000 </r>
       <r>   34.9778    0.0000 </r>
       <r>   36.2975    0.0000 </r>
       <r>   41.6963    0.0000 </r>
      </set>
      <set comment="kpoint 46">
       <r>  -12.7111    1.0000 </r>
       <r>    0.0611    1.0000 </r>
       <r>    1.7591    1.0000 </r>
       <r>    2.7048    1.0000 </r>
       <r>   12.2612    0.0000 </r>
       <r>   14.7371    0.0000 </r>
       <r>   17.3568    0.0000 </r>
       <r>   20.3921    0.0000 </r>
       <r>   22.1845    0.0000 </r>
       <r>   24.9155    0.0000 </r>
       <r>   28.8109    0.0000 </r>
       <r>   31.0926    0.0000 </r>
       <r>   32.0150    0.0000 </r>
       <r>   34.4411    0.0000 </r>
       <r>   36.0506    0.0000 </r>
       <r>   39.9923    0.0000 </r>
      </set>
      <set comment="kpoint 47">
       <r>  -12.5272    1.0000 </r>
       <r>   -0.1767    1.0000 </r>
       <r>    1.9700    1.0000 </r>
       <r>    2.2147    1.0000 </r>
       <r>   12.9324    0.0000 </r>
       <r>   13.4232    0.0000 </r>
       <r>   16.4195    0.0000 </r>
       <r>   20.8031    0.0000 </r>
       <r>   21.7392    0.0000 </r>
       <r>   27.7816    0.0000 </r>
       <r>   29.7883    0.0000 </r>
       <r>   31.9443    0.0000 </r>
       <r>   32.3698    0.0000 </r>
       <r>   36.3657    0.0000 </r>
       <r>   36.4576    0.0000 </r>
       <r>   39.8115    0.0000 </r>
      </set>
      <set comment="kpoint 48">
       <r>  -12.3714    1.0000 </r>
       <r>   -0.2289    1.0000 </r>
       <r>    1.4361    1.0000 </r>
       <r>    2.1015    1.0000 </r>
       <r>   13.3356    0.0000 </r>
       <r>   14.0516    0.0000 </r>
       <r>   15.9122    0.0000 </r>
       <r>   20.2872    0.0000 </r>
       <r>   22.2622    0.0000 </r>
       <r>   27.6458    0.0000 </r>
       <r>   29.9971    0.0000 </r>
       <r>   31.1885    0.0000 </r>
       <r>   32.6968    0.0000 </r>
       <r>   36.3274    0.0000 </r>
       <r>   37.5030    0.0000 </r>
       <r>   41.5596    0.0000 </r>
      </set>
      <set comment="kpoint 49">
       <r>  -12.3043    1.0000 </r>
       <r>   -0.0057    1.0000 </r>
       <r>    0.7906    1.0000 </r>
       <r>    2.1450    1.0000 </r>
       <r>   13.6032    0.0000 </r>
       <r>   14.9536    0.0000 </r>
       <r>   15.5321    0.0000 </r>
       <r>   19.8292    0.0000 </r>
       <r>   22.5838    0.0000 </r>
       <r>   26.6928    0.0000 </r>
       <r>   30.1088    0.0000 </r>
       <r>   31.3339    0.0000 </r>
       <r>   32.0225    0.0000 </r>
       <r>   36.6378    0.0000 </r>
       <r>   39.2870    0.0000 </r>
       <r>   40.3192    0.0000 </r>
      </set>
      <set comment="kpoint 50">
       <r>  -12.3501    1.0000 </r>
       <r>    0.1117    1.0000 </r>
       <r>    0.6286    1.0000 </r>
       <r>    2.3035    1.0000 </r>
       <r>   13.6894    0.0000 </r>
       <r>   15.0491    0.0000 </r>
       <r>   15.6733    0.0000 </r>
       <r>   19.8817    0.0000 </r>
       <r>   23.1696    0.0000 </r>
       <r>   25.0475    0.0000 </r>
       <r>   30.7897    0.0000 </r>
       <r>   30.8639    0.0000 </r>
       <r>   31.8794    0.0000 </r>
       <r>   36.6806    0.0000 </r>
       <r>   37.2420    0.0000 </r>
       <r>   41.7510    0.0000 </r>
      </set>
      <set comment="kpoint 51">
       <r>  -12.3176    1.0000 </r>
       <r>   -0.4179    1.0000 </r>
       <r>    1.7769    1.0000 </r>
       <r>    1.9607    1.0000 </r>
       <r>   12.9613    0.0000 </r>
       <r>   13.4381    0.0000 </r>
       <r>   15.9680    0.0000 </r>
       <r>   20.8911    0.0000 </r>
       <r>   22.1440    0.0000 </r>
       <r>   28.6086    0.0000 </r>
       <r>   29.7388    0.0000 </r>
       <r>   31.1741    0.0000 </r>
       <r>   33.7299    0.0000 </r>
       <r>   38.2518    0.0000 </r>
       <r>   38.3017    0.0000 </r>
       <r>   40.3739    0.0000 </r>
      </set>
      <set comment="kpoint 52">
       <r>  -12.2781    1.0000 </r>
       <r>   -0.2166    1.0000 </r>
       <r>    1.2252    1.0000 </r>
       <r>    1.9729    1.0000 </r>
       <r>   13.3300    0.0000 </r>
       <r>   14.1892    0.0000 </r>
       <r>   15.7235    0.0000 </r>
       <r>   20.1359    0.0000 </r>
       <r>   22.4206    0.0000 </r>
       <r>   28.6785    0.0000 </r>
       <r>   29.1106    0.0000 </r>
       <r>   30.8159    0.0000 </r>
       <r>   33.2811    0.0000 </r>
       <r>   38.2852    0.0000 </r>
       <r>   39.7341    0.0000 </r>
       <r>   40.8800    0.0000 </r>
      </set>
      <set comment="kpoint 53">
       <r>  -12.4392    1.0000 </r>
       <r>   -0.1067    1.0000 </r>
       <r>    1.3292    1.0000 </r>
       <r>    2.2193    1.0000 </r>
       <r>   13.5515    0.0000 </r>
       <r>   14.2710    0.0000 </r>
       <r>   16.1258    0.0000 </r>
       <r>   19.8805    0.0000 </r>
       <r>   22.9231    0.0000 </r>
       <r>   25.7391    0.0000 </r>
       <r>   30.7699    0.0000 </r>
       <r>   31.5245    0.0000 </r>
       <r>   31.5622    0.0000 </r>
       <r>   35.9771    0.0000 </r>
       <r>   36.5235    0.0000 </r>
       <r>   40.9227    0.0000 </r>
      </set>
      <set comment="kpoint 54">
       <r>  -12.3247    1.0000 </r>
       <r>    0.0021    1.0000 </r>
       <r>    0.8948    1.0000 </r>
       <r>    2.0453    1.0000 </r>
       <r>   13.9731    0.0000 </r>
       <r>   14.8263    0.0000 </r>
       <r>   15.6119    0.0000 </r>
       <r>   19.3107    0.0000 </r>
       <r>   23.8450    0.0000 </r>
       <r>   25.0389    0.0000 </r>
       <r>   30.2633    0.0000 </r>
       <r>   31.6079    0.0000 </r>
       <r>   32.4200    0.0000 </r>
       <r>   36.0323    0.0000 </r>
       <r>   38.1403    0.0000 </r>
       <r>   41.3991    0.0000 </r>
      </set>
      <set comment="kpoint 55">
       <r>  -12.2843    1.0000 </r>
       <r>   -0.0236    1.0000 </r>
       <r>    1.0940    1.0000 </r>
       <r>    1.7825    1.0000 </r>
       <r>   14.0028    0.0000 </r>
       <r>   14.4921    0.0000 </r>
       <r>   15.4779    0.0000 </r>
       <r>   19.2686    0.0000 </r>
       <r>   23.3008    0.0000 </r>
       <r>   26.7461    0.0000 </r>
       <r>   29.4003    0.0000 </r>
       <r>   31.3483    0.0000 </r>
       <r>   33.9862    0.0000 </r>
       <r>   37.1124    0.0000 </r>
       <r>   38.7522    0.0000 </r>
       <r>   41.6793    0.0000 </r>
      </set>
      <set comment="kpoint 56">
       <r>  -12.2671    1.0000 </r>
       <r>    0.3571    1.0000 </r>
       <r>    0.5605    1.0000 </r>
       <r>    1.7811    1.0000 </r>
       <r>   14.3937    0.0000 </r>
       <r>   15.0353    0.0000 </r>
       <r>   15.1477    0.0000 </r>
       <r>   18.7450    0.0000 </r>
       <r>   24.0925    0.0000 </r>
       <r>   25.4811    0.0000 </r>
       <r>   29.4072    0.0000 </r>
       <r>   31.6869    0.0000 </r>
       <r>   33.7916    0.0000 </r>
       <r>   37.1640    0.0000 </r>
       <r>   39.5407    0.0000 </r>
       <r>   40.7449    0.0000 </r>
      </set>
     </set>
    </set>
   </array>
  </eigenvalues>
  <separator name="orbital magnetization" >
   <v name="MAGDIPOLOUT">      0.00000000      0.00000000      0.00000000</v>
  </separator>
  <dos>
   <i name="efermi">      3.64381949 </i>
   <total>
    <array>
     <dimension dim="1">gridpoints</dimension>
     <dimension dim="2">spin</dimension>
     <field>energy</field>
     <field>total</field>
     <field>integrated</field>
     <set>
      <set comment="spin 1">
       <r>   -16.5303     0.0000     0.0000 </r>
       <r>   -16.3268     0.0000     0.0000 </r>
       <r>   -16.1232     0.0000     0.0000 </r>
       <r>   -15.9197     0.0000     0.0000 </r>
       <r>   -15.7162     0.0000     0.0000 </r>
       <r>   -15.5127     0.0000     0.0000 </r>
       <r>   -15.3092     0.0000     0.0000 </r>
       <r>   -15.1056     0.0000     0.0000 </r>
       <r>   -14.9021     0.0000     0.0000 </r>
       <r>   -14.6986     0.0000     0.0000 </r>
       <r>   -14.4951     0.0000     0.0000 </r>
       <r>   -14.2915     0.0000     0.0000 </r>
       <r>   -14.0880     0.0000     0.0000 </r>
       <r>   -13.8845     0.0000     0.0000 </r>
       <r>   -13.6810     0.0379     0.0077 </r>
       <r>   -13.4775     0.2320     0.0549 </r>
       <r>   -13.2739     0.3634     0.1289 </r>
       <r>   -13.0704     0.5925     0.2495 </r>
       <r>   -12.8669     0.8644     0.4254 </r>
       <r>   -12.6634     1.2873     0.6874 </r>
       <r>   -12.4598     2.5516     1.2067 </r>
       <r>   -12.2563     3.6615     1.9519 </r>
       <r>   -12.0528     0.2363     2.0000 </r>
       <r>   -11.8493     0.0000     2.0000 </r>
       <r>   -11.6458     0.0000     2.0000 </r>
       <r>   -11.4422     0.0000     2.0000 </r>
       <r>   -11.2387     0.0000     2.0000 </r>
       <r>   -11.0352     0.0000     2.0000 </r>
       <r>   -10.8317     0.0000     2.0000 </r>
       <r>   -10.6282     0.0000     2.0000 </r>
       <r>   -10.4246     0.0000     2.0000 </r>
       <r>   -10.2211     0.0000     2.0000 </r>
       <r>   -10.0176     0.0000     2.0000 </r>
       <r>    -9.8141     0.0000     2.0000 </r>
       <r>    -9.6105     0.0000     2.0000 </r>
       <r>    -9.4070     0.0000     2.0000 </r>
       <r>    -9.2035     0.0000     2.0000 </r>
       <r>    -9.0000     0.0000     2.0000 </r>
       <r>    -8.7965     0.0000     2.0000 </r>
       <r>    -8.5929     0.0000     2.0000 </r>
       <r>    -8.3894     0.0000     2.0000 </r>
       <r>    -8.1859     0.0000     2.0000 </r>
       <r>    -7.9824     0.0000     2.0000 </r>
       <r>    -7.7788     0.0000     2.0000 </r>
       <r>    -7.5753     0.0000     2.0000 </r>
       <r>    -7.3718     0.0000     2.0000 </r>
       <r>    -7.1683     0.0000     2.0000 </r>
       <r>    -6.9648     0.0000     2.0000 </r>
       <r>    -6.7612     0.0000     2.0000 </r>
       <r>    -6.5577     0.0000     2.0000 </r>
       <r>    -6.3542     0.0000     2.0000 </r>
       <r>    -6.1507     0.0000     2.0000 </r>
       <r>    -5.9471     0.0000     2.0000 </r>
       <r>    -5.7436     0.0000     2.0000 </r>
       <r>    -5.5401     0.0000     2.0000 </r>
       <r>    -5.3366     0.0000     2.0000 </r>
       <r>    -5.1331     0.0000     2.0000 </r>
       <r>    -4.9295     0.0000     2.0000 </r>
       <r>    -4.7260     0.0000     2.0000 </r>
       <r>    -4.5225     0.0000     2.0000 </r>
       <r>    -4.3190     0.0000     2.0000 </r>
       <r>    -4.1155     0.0000     2.0000 </r>
       <r>    -3.9119     0.0000     2.0000 </r>
       <r>    -3.7084     0.0000     2.0000 </r>
       <r>    -3.5049     0.0000     2.0000 </r>
       <r>    -3.3014     0.0000     2.0000 </r>
       <r>    -3.0978     0.0000     2.0000 </r>
       <r>    -2.8943     0.0000     2.0000 </r>
       <r>    -2.6908     0.0000     2.0000 </r>
       <r>    -2.4873     0.0000     2.0000 </r>
       <r>    -2.2838     0.0000     2.0000 </r>
       <r>    -2.0802     0.0000     2.0000 </r>
       <r>    -1.8767     0.0000     2.0000 </r>
       <r>    -1.6732     0.0000     2.0000 </r>
       <r>    -1.4697     0.0000     2.0000 </r>
       <r>    -1.2661     0.0000     2.0000 </r>
       <r>    -1.0626     0.0331     2.0067 </r>
       <r>    -0.8591     0.2418     2.0559 </r>
       <r>    -0.6556     0.7274     2.2040 </r>
       <r>    -0.4521     0.6185     2.3299 </r>
       <r>    -0.2485     2.0329     2.7436 </r>
       <r>    -0.0450     2.2060     3.1926 </r>
       <r>     0.1585     1.7925     3.5574 </r>
       <r>     0.3620     0.2830     3.6150 </r>
       <r>     0.5656     0.7864     3.7750 </r>
       <r>     0.7691     0.4803     3.8728 </r>
       <r>     0.9726     1.1140     4.0995 </r>
       <r>     1.1761     0.4851     4.1982 </r>
       <r>     1.3796     1.5311     4.5098 </r>
       <r>     1.5832     0.7505     4.6626 </r>
       <r>     1.7867     1.0359     4.8734 </r>
       <r>     1.9902     1.9286     5.2659 </r>
       <r>     2.1937     2.3834     5.7510 </r>
       <r>     2.3972     2.6396     6.2882 </r>
       <r>     2.6008     2.7031     6.8383 </r>
       <r>     2.8043     2.8154     7.4113 </r>
       <r>     3.0078     1.6271     7.7425 </r>
       <r>     3.2113     0.9650     7.9389 </r>
       <r>     3.4149     0.2992     7.9998 </r>
       <r>     3.6184     0.0011     8.0000 </r>
       <r>     3.8219     0.0000     8.0000 </r>
       <r>     4.0254     0.0000     8.0000 </r>
       <r>     4.2289     0.0000     8.0000 </r>
       <r>     4.4325     0.0000     8.0000 </r>
       <r>     4.6360     0.0000     8.0000 </r>
       <r>     4.8395     0.0000     8.0000 </r>
       <r>     5.0430     0.0000     8.0000 </r>
       <r>     5.2466     0.0000     8.0000 </r>
       <r>     5.4501     0.0000     8.0000 </r>
       <r>     5.6536     0.0000     8.0000 </r>
       <r>     5.8571     0.0000     8.0000 </r>
       <r>     6.0606     0.0000     8.0000 </r>
       <r>     6.2642     0.0000     8.0000 </r>
       <r>     6.4677     0.0000     8.0000 </r>
       <r>     6.6712     0.0000     8.0000 </r>
       <r>     6.8747     0.0000     8.0000 </r>
       <r>     7.0783     0.0000     8.0000 </r>
       <r>     7.2818     0.0000     8.0000 </r>
       <r>     7.4853     0.0000     8.0000 </r>
       <r>     7.6888     0.0000     8.0000 </r>
       <r>     7.8923     0.0073     8.0015 </r>
       <r>     8.0959     0.0000     8.0015 </r>
       <r>     8.2994     0.0195     8.0055 </r>
       <r>     8.5029     0.0696     8.0196 </r>
       <r>     8.7064     0.0143     8.0225 </r>
       <r>     8.9099     0.0002     8.0226 </r>
       <r>     9.1135     0.0882     8.0405 </r>
       <r>     9.3170     0.0123     8.0430 </r>
       <r>     9.5205     0.2241     8.0887 </r>
       <r>     9.7240     0.0000     8.0887 </r>
       <r>     9.9276     0.0151     8.0917 </r>
       <r>    10.1311     0.2013     8.1327 </r>
       <r>    10.3346     0.1971     8.1728 </r>
       <r>    10.5381     0.2215     8.2179 </r>
       <r>    10.7416     0.0006     8.2180 </r>
       <r>    10.9452     0.3295     8.2851 </r>
       <r>    11.1487     0.3737     8.3611 </r>
       <r>    11.3522     0.5029     8.4635 </r>
       <r>    11.5557     0.4615     8.5574 </r>
       <r>    11.7593     0.3362     8.6258 </r>
       <r>    11.9628     0.4535     8.7181 </r>
       <r>    12.1663     0.5301     8.8260 </r>
       <r>    12.3698     0.7528     8.9792 </r>
       <r>    12.5733     0.4027     9.0612 </r>
       <r>    12.7769     0.2396     9.1099 </r>
       <r>    12.9804     1.3183     9.3782 </r>
       <r>    13.1839     1.0431     9.5905 </r>
       <r>    13.3874     0.9326     9.7803 </r>
       <r>    13.5910     0.6546     9.9135 </r>
       <r>    13.7945     0.6015    10.0360 </r>
       <r>    13.9980     0.4076    10.1189 </r>
       <r>    14.2015     0.9976    10.3220 </r>
       <r>    14.4050     0.8763    10.5003 </r>
       <r>    14.6086     0.3653    10.5747 </r>
       <r>    14.8121     0.4404    10.6643 </r>
       <r>    15.0156     2.2478    11.1218 </r>
       <r>    15.2191     1.5275    11.4326 </r>
       <r>    15.4226     1.5442    11.7469 </r>
       <r>    15.6262     1.6210    12.0768 </r>
       <r>    15.8297     0.6369    12.2065 </r>
       <r>    16.0332     1.1269    12.4358 </r>
       <r>    16.2367     0.7249    12.5833 </r>
       <r>    16.4403     0.8489    12.7561 </r>
       <r>    16.6438     0.6912    12.8968 </r>
       <r>    16.8473     0.0062    12.8980 </r>
       <r>    17.0508     0.6460    13.0295 </r>
       <r>    17.2543     0.4314    13.1173 </r>
       <r>    17.4579     0.5720    13.2337 </r>
       <r>    17.6614     0.1761    13.2696 </r>
       <r>    17.8649     0.6450    13.4008 </r>
       <r>    18.0684     0.2413    13.4500 </r>
       <r>    18.2720     0.0004    13.4500 </r>
       <r>    18.4755     0.4731    13.5463 </r>
       <r>    18.6790     0.5037    13.6489 </r>
       <r>    18.8825     0.3377    13.7176 </r>
       <r>    19.0860     0.3919    13.7973 </r>
       <r>    19.2896     0.7270    13.9453 </r>
       <r>    19.4931     0.7964    14.1074 </r>
       <r>    19.6966     1.0931    14.3299 </r>
       <r>    19.9001     1.5770    14.6508 </r>
       <r>    20.1037     1.9257    15.0427 </r>
       <r>    20.3072     1.4680    15.3415 </r>
       <r>    20.5107     1.3333    15.6129 </r>
       <r>    20.7142     0.6797    15.7512 </r>
       <r>    20.9177     0.6995    15.8936 </r>
       <r>    21.1213     0.6588    16.0277 </r>
       <r>    21.3248     0.5800    16.1457 </r>
       <r>    21.5283     0.9916    16.3475 </r>
       <r>    21.7318     0.7984    16.5100 </r>
       <r>    21.9353     0.8789    16.6889 </r>
       <r>    22.1389     0.1664    16.7227 </r>
       <r>    22.3424     0.9399    16.9140 </r>
       <r>    22.5459     0.3535    16.9860 </r>
       <r>    22.7494     1.3031    17.2512 </r>
       <r>    22.9530     0.4311    17.3389 </r>
       <r>    23.1565     0.4204    17.4245 </r>
       <r>    23.3600     0.7290    17.5729 </r>
       <r>    23.5635     0.4448    17.6634 </r>
       <r>    23.7670     0.2473    17.7137 </r>
       <r>    23.9706     1.3416    17.9868 </r>
       <r>    24.1741     0.4209    18.0724 </r>
       <r>    24.3776     0.7183    18.2186 </r>
       <r>    24.5811     0.9061    18.4030 </r>
       <r>    24.7847     0.5066    18.5061 </r>
       <r>    24.9882     0.5780    18.6237 </r>
       <r>    25.1917     1.2105    18.8701 </r>
       <r>    25.3952     1.3714    19.1492 </r>
       <r>    25.5987     0.6226    19.2759 </r>
       <r>    25.8023     0.8282    19.4444 </r>
       <r>    26.0058     0.2095    19.4871 </r>
       <r>    26.2093     1.1247    19.7160 </r>
       <r>    26.4128     0.3497    19.7871 </r>
       <r>    26.6164     0.2751    19.8431 </r>
       <r>    26.8199     0.5828    19.9617 </r>
       <r>    27.0234     0.0554    19.9730 </r>
       <r>    27.2269     0.7224    20.1201 </r>
       <r>    27.4304     1.1089    20.3457 </r>
       <r>    27.6340     0.7158    20.4914 </r>
       <r>    27.8375     0.7224    20.6384 </r>
       <r>    28.0410     0.2480    20.6889 </r>
       <r>    28.2445     0.3527    20.7607 </r>
       <r>    28.4480     0.4696    20.8563 </r>
       <r>    28.6516     0.3766    20.9329 </r>
       <r>    28.8551     0.5288    21.0405 </r>
       <r>    29.0586     0.6357    21.1699 </r>
       <r>    29.2621     0.5200    21.2757 </r>
       <r>    29.4657     0.9423    21.4675 </r>
       <r>    29.6692     0.8170    21.6338 </r>
       <r>    29.8727     1.3722    21.9130 </r>
       <r>    30.0762     1.0225    22.1212 </r>
       <r>    30.2797     0.9166    22.3077 </r>
       <r>    30.4833     0.3419    22.3773 </r>
       <r>    30.6868     0.6125    22.5019 </r>
       <r>    30.8903     1.6783    22.8435 </r>
       <r>    31.0938     1.2297    23.0938 </r>
       <r>    31.2974     1.6529    23.4302 </r>
       <r>    31.5009     1.6508    23.7661 </r>
       <r>    31.7044     1.5616    24.0840 </r>
       <r>    31.9079     0.9616    24.2797 </r>
       <r>    32.1114     2.1256    24.7123 </r>
       <r>    32.3150     2.2303    25.1662 </r>
       <r>    32.5185     1.5719    25.4861 </r>
       <r>    32.7220     1.5603    25.8037 </r>
       <r>    32.9255     1.1394    26.0355 </r>
       <r>    33.1291     0.3170    26.1001 </r>
       <r>    33.3326     0.6555    26.2335 </r>
       <r>    33.5361     0.5714    26.3498 </r>
       <r>    33.7396     1.0576    26.5650 </r>
       <r>    33.9431     0.6916    26.7058 </r>
       <r>    34.1467     0.6461    26.8372 </r>
       <r>    34.3502     0.2211    26.8822 </r>
       <r>    34.5537     0.4362    26.9710 </r>
       <r>    34.7572     0.0492    26.9810 </r>
       <r>    34.9607     1.0113    27.1869 </r>
       <r>    35.1643     0.9902    27.3884 </r>
       <r>    35.3678     0.7169    27.5343 </r>
       <r>    35.5713     0.4203    27.6198 </r>
       <r>    35.7748     0.9236    27.8078 </r>
       <r>    35.9784     0.7593    27.9623 </r>
       <r>    36.1819     1.0173    28.1694 </r>
       <r>    36.3854     1.3468    28.4435 </r>
       <r>    36.5889     0.6862    28.5831 </r>
       <r>    36.7924     0.9832    28.7832 </r>
       <r>    36.9960     0.5810    28.9015 </r>
       <r>    37.1995     0.5705    29.0176 </r>
       <r>    37.4030     0.6520    29.1503 </r>
       <r>    37.6065     0.9252    29.3386 </r>
       <r>    37.8101     1.0848    29.5594 </r>
       <r>    38.0136     0.3978    29.6404 </r>
       <r>    38.2171     0.8364    29.8106 </r>
       <r>    38.4206     1.3414    30.0836 </r>
       <r>    38.6241     0.8182    30.2501 </r>
       <r>    38.8277     0.5032    30.3525 </r>
       <r>    39.0312     0.1446    30.3820 </r>
       <r>    39.2347     0.4774    30.4791 </r>
       <r>    39.4382     0.4199    30.5646 </r>
       <r>    39.6418     0.9683    30.7616 </r>
       <r>    39.8453     1.0559    30.9766 </r>
       <r>    40.0488     0.5479    31.0881 </r>
       <r>    40.2523     0.4153    31.1726 </r>
       <r>    40.4558     0.8239    31.3403 </r>
       <r>    40.6594     0.4201    31.4258 </r>
       <r>    40.8629     0.7708    31.5826 </r>
       <r>    41.0664     0.4559    31.6754 </r>
       <r>    41.2699     0.0001    31.6754 </r>
       <r>    41.4734     0.3507    31.7468 </r>
       <r>    41.6770     0.6784    31.8849 </r>
       <r>    41.8805     0.5656    32.0000 </r>
       <r>    42.0840     0.0000    32.0000 </r>
       <r>    42.2875     0.0000    32.0000 </r>
       <r>    42.4911     0.0000    32.0000 </r>
       <r>    42.6946     0.0000    32.0000 </r>
       <r>    42.8981     0.0000    32.0000 </r>
       <r>    43.1016     0.0000    32.0000 </r>
       <r>    43.3051     0.0000    32.0000 </r>
       <r>    43.5087     0.0000    32.0000 </r>
       <r>    43.7122     0.0000    32.0000 </r>
       <r>    43.9157     0.0000    32.0000 </r>
       <r>    44.1192     0.0000    32.0000 </r>
       <r>    44.3228     0.0000    32.0000 </r>
       <r>    44.5263     0.0000    32.0000 </r>
      </set>
     </set>
    </array>
   </total>
  </dos>
 </calculation>
 <structure name="finalpos" >
  <crystal>
   <varray name="basis" >
    <v>       3.00978800       0.00000000       0.00000000 </v>
    <v>       1.50489400       2.60655300       0.00000000 </v>
    <v>       1.50489400       0.86885100       2.45748200 </v>
   </varray>
   <i name="volume">     19.27936883 </i>
   <varray name="rec_basis" >
    <v>       0.33224931      -0.19182422      -0.13564019 </v>
    <v>       0.00000000       0.38364844      -0.13564019 </v>
    <v>       0.00000000       0.00000000       0.40692058 </v>
   </varray>
  </crystal>
  <varray name="positions" >
   <v>       0.50000000       0.50000000       0.50000000 </v>
   <v>       0.00000000       0.00000000       0.00000000 </v>
  </varray>
 </structure>
</modeling>
