    2    2    1    1
  0.9639684E+01  0.3009788E-09  0.3009788E-09  0.3009788E-09  0.5000000E-15
  1.000000000000000E-004
  CAR 
 automatically generated by pyflamestk   
      8     10     16
 
  0.1250000E+00  0.1250000E+00  0.1250000E+00  0.3125000E-01
    1      -13.613645   1.000000
    2        2.409942   1.000000
    3        3.253044   1.000000
    4        3.253044   1.000000
    5        8.691561   0.000000
    6       17.309286   0.000000
    7       19.316831   0.000000
    8       19.316834   0.000000
    9       23.528811   0.000000
   10       23.528812   0.000000
   11       24.865643   0.000000
   12       27.258991   0.000000
   13       28.680063   0.000000
   14       28.680064   0.000000
   15       38.898008   0.000000
   16       40.804997   0.000000
 
  0.3750000E+00  0.1250000E+00  0.1250000E+00  0.9375000E-01
    1      -12.965826   1.000000
    2        0.256468   1.000000
    3        2.403796   1.000000
    4        2.961841   1.000000
    5       11.115493   0.000000
    6       15.243277   0.000000
    7       18.617650   0.000000
    8       20.290220   0.000000
    9       22.113917   0.000000
   10       24.330632   0.000000
   11       26.409647   0.000000
   12       31.061216   0.000000
   13       32.317094   0.000000
   14       33.207832   0.000000
   15       35.573577   0.000000
   16       38.848815   0.000000
 
 -0.3750000E+00  0.1250000E+00  0.1250000E+00  0.9375000E-01
    1      -12.533267   1.000000
    2       -0.863912   1.000000
    3        2.255805   1.000000
    4        2.626473   1.000000
    5       11.720591   0.000000
    6       15.427342   0.000000
    7       17.910339   0.000000
    8       19.720974   0.000000
    9       23.697915   0.000000
   10       25.948565   0.000000
   11       26.024716   0.000000
   12       32.283300   0.000000
   13       32.874448   0.000000
   14       33.239580   0.000000
   15       35.794962   0.000000
   16       37.502130   0.000000
 
 -0.1250000E+00  0.1250000E+00  0.1250000E+00  0.9375000E-01
    1      -13.252725   1.000000
    2        1.136991   1.000000
    3        2.888549   1.000000
    4        2.891188   1.000000
    5       10.282620   0.000000
    6       15.497654   0.000000
    7       19.417821   0.000000
    8       19.904887   0.000000
    9       21.070431   0.000000
   10       24.909861   0.000000
   11       26.870790   0.000000
   12       29.950979   0.000000
   13       30.260068   0.000000
   14       30.983669   0.000000
   15       37.180206   0.000000
   16       38.952792   0.000000
 
  0.3750000E+00  0.3750000E+00  0.1250000E+00  0.9375000E-01
    1      -12.731831   1.000000
    2        0.073948   1.000000
    3        2.203452   1.000000
    4        2.436522   1.000000
    5       12.213446   0.000000
    6       13.908881   0.000000
    7       17.161343   0.000000
    8       20.781462   0.000000
    9       21.237191   0.000000
   10       27.083062   0.000000
   11       30.145870   0.000000
   12       30.398520   0.000000
   13       32.328378   0.000000
   14       34.820694   0.000000
   15       36.465834   0.000000
   16       37.869581   0.000000
 
 -0.3750000E+00  0.3750000E+00  0.1250000E+00  0.1875000E+00
    1      -12.323582   1.000000
    2       -0.039041   1.000000
    3        0.953823   1.000000
    4        2.027296   1.000000
    5       13.759507   0.000000
    6       14.770989   0.000000
    7       15.563877   0.000000
    8       19.545100   0.000000
    9       22.991908   0.000000
   10       26.444223   0.000000
   11       29.972598   0.000000
   12       31.402369   0.000000
   13       32.668830   0.000000
   14       36.334583   0.000000
   15       38.880543   0.000000
   16       41.085879   0.000000
 
 -0.1250000E+00  0.3750000E+00  0.1250000E+00  0.1875000E+00
    1      -12.577802   1.000000
    2       -0.244805   1.000000
    3        1.691319   1.000000
    4        2.525326   1.000000
    5       12.582796   0.000000
    6       14.792978   0.000000
    7       16.931911   0.000000
    8       20.118319   0.000000
    9       22.696193   0.000000
   10       25.354523   0.000000
   11       28.863660   0.000000
   12       31.631798   0.000000
   13       32.234488   0.000000
   14       34.881110   0.000000
   15       35.525331   0.000000
   16       41.006990   0.000000
 
 -0.3750000E+00 -0.3750000E+00  0.1250000E+00  0.9375000E-01
    1      -12.359316   1.000000
    2       -0.401261   1.000000
    3        1.689769   1.000000
    4        2.146277   1.000000
    5       12.853530   0.000000
    6       13.485710   0.000000
    7       16.014906   0.000000
    8       21.474415   0.000000
    9       21.489274   0.000000
   10       28.908929   0.000000
   11       29.391974   0.000000
   12       31.963345   0.000000
   13       32.661383   0.000000
   14       37.794278   0.000000
   15       38.168172   0.000000
   16       41.095497   0.000000
 
  0.3750000E+00  0.3750000E+00  0.3750000E+00  0.3125000E-01
    1      -12.768065   1.000000
    2       -0.598216   1.000000
    3        2.819842   1.000000
    4        2.819842   1.000000
    5       10.925560   0.000000
    6       15.437904   0.000000
    7       19.523749   0.000000
    8       19.523751   0.000000
    9       24.071571   0.000000
   10       24.442160   0.000000
   11       24.442163   0.000000
   12       31.898345   0.000000
   13       33.212605   0.000000
   14       33.212608   0.000000
   15       36.839217   0.000000
   16       36.839221   0.000000
 
 -0.3750000E+00  0.3750000E+00  0.3750000E+00  0.9375000E-01
    1      -12.406606   1.000000
    2       -0.280623   1.000000
    3        1.059345   1.000000
    4        2.497182   1.000000
    5       13.072970   0.000000
    6       15.238976   0.000000
    7       16.122843   0.000000
    8       20.427531   0.000000
    9       22.507017   0.000000
   10       25.548602   0.000000
   11       29.076524   0.000000
   12       31.616026   0.000000
   13       32.040700   0.000000
   14       35.365529   0.000000
   15       37.236437   0.000000
   16       40.110279   0.000000
