# ['Ni']

10 atoms
1 atom types

    0.0000     3.3030 xlo xhi
    0.0000     2.3644 ylo yhi
    0.0000    23.6439 zlo zhi

    0.0000     0.0000     0.0000 xy xz yz

Atoms

1 1     0.0000     0.0000     0.0000
2 1     1.6515     1.1822     1.1822
3 1     0.0000     0.0000     2.3644
4 1     1.6515     1.1822     3.5466
5 1     0.0000     0.0000     4.7288
6 1     1.6515     1.1822     5.9110
7 1     0.0000     0.0000     7.0932
8 1     1.6515     1.1822     8.2754
9 1     0.0000     0.0000     9.4576
10 1     1.6515     1.1822    10.6398
