# ['Al']

6 atoms
1 atom types

    0.0000     2.8541 xlo xhi
    0.0000     4.9435 ylo yhi
    0.0000     6.9900 zlo zhi

    0.0000     0.0000     0.0000 xy xz yz

Atoms

1 1     0.0000     0.0000     0.0000
2 1     1.4271     2.4718     0.0000
3 1     1.4271     0.8239     2.3300
4 1     0.0000     3.2957     2.3300
5 1     0.0000     1.6478     4.6600
6 1     1.4271     4.1196     4.6600
