# ['Ni']

18 atoms
1 atom types

    0.0000     2.5950 xlo xhi
    0.0000     4.4947 ylo yhi
    0.0000    38.1326 zlo zhi

    0.0000     0.0000    -0.0004 xy xz yz

Atoms

1 1     0.0000     0.0000     0.0000
2 1     1.2975     0.7491     2.1185
3 1     0.0000     1.4982     4.2369
4 1     1.2975     2.2474     0.0000
5 1     0.0000     2.9965     2.1185
6 1     1.2975     3.7456     4.2369
7 1     0.0000     0.0000     6.3554
8 1     1.2975     0.7491     8.4739
9 1     0.0000     1.4982    10.5924
10 1     1.2975     2.2474     6.3554
11 1     0.0000     2.9965     8.4739
12 1     1.2975     3.7456    10.5924
13 1     0.0000     0.0000    12.7108
14 1     1.2975     0.7491    14.8293
15 1     0.0000     1.4982    16.9478
16 1     1.2975     2.2474    12.7108
17 1     0.0000     2.9965    14.8293
18 1     1.2975     3.7456    16.9478
