# ['Ni']

107 atoms
1 atom types

    0.0000    10.0781 xlo xhi
    0.0000    10.0781 ylo yhi
    0.0000    10.0781 zlo zhi

    0.0000    -0.0000    -0.0000 xy xz yz

Atoms

1 1     1.6797     1.6797     0.0000
2 1     1.6797     0.0000     1.6797
3 1     0.0000     1.6797     1.6797
4 1     0.0000     0.0000     3.3594
5 1     1.6797     1.6797     3.3594
6 1     1.6797     0.0000     5.0390
7 1     0.0000     1.6797     5.0390
8 1     0.0000     0.0000     6.7187
9 1     1.6797     1.6797     6.7187
10 1     1.6797     0.0000     8.3984
11 1     0.0000     1.6797     8.3984
12 1     0.0000     3.3594     0.0000
13 1     1.6797     5.0390     0.0000
14 1     1.6797     3.3594     1.6797
15 1     0.0000     5.0390     1.6797
16 1     0.0000     3.3594     3.3594
17 1     1.6797     5.0390     3.3594
18 1     1.6797     3.3594     5.0390
19 1     0.0000     5.0390     5.0390
20 1     0.0000     3.3594     6.7187
21 1     1.6797     5.0390     6.7187
22 1     1.6797     3.3594     8.3984
23 1     0.0000     5.0390     8.3984
24 1     0.0000     6.7187     0.0000
25 1     1.6797     8.3984     0.0000
26 1     1.6797     6.7187     1.6797
27 1     0.0000     8.3984     1.6797
28 1     0.0000     6.7187     3.3594
29 1     1.6797     8.3984     3.3594
30 1     1.6797     6.7187     5.0390
31 1     0.0000     8.3984     5.0390
32 1     0.0000     6.7187     6.7187
33 1     1.6797     8.3984     6.7187
34 1     1.6797     6.7187     8.3984
35 1     0.0000     8.3984     8.3984
36 1     3.3594     0.0000     0.0000
37 1     5.0390     1.6797     0.0000
38 1     5.0390     0.0000     1.6797
39 1     3.3594     1.6797     1.6797
40 1     3.3594     0.0000     3.3594
41 1     5.0390     1.6797     3.3594
42 1     5.0390     0.0000     5.0390
43 1     3.3594     1.6797     5.0390
44 1     3.3594     0.0000     6.7187
45 1     5.0390     1.6797     6.7187
46 1     5.0390     0.0000     8.3984
47 1     3.3594     1.6797     8.3984
48 1     3.3594     3.3594     0.0000
49 1     5.0390     5.0390     0.0000
50 1     5.0390     3.3594     1.6797
51 1     3.3594     5.0390     1.6797
52 1     3.3594     3.3594     3.3594
53 1     5.0390     5.0390     3.3594
54 1     5.0390     3.3594     5.0390
55 1     3.3594     5.0390     5.0390
56 1     3.3594     3.3594     6.7187
57 1     5.0390     5.0390     6.7187
58 1     5.0390     3.3594     8.3984
59 1     3.3594     5.0390     8.3984
60 1     3.3594     6.7187     0.0000
61 1     5.0390     8.3984     0.0000
62 1     5.0390     6.7187     1.6797
63 1     3.3594     8.3984     1.6797
64 1     3.3594     6.7187     3.3594
65 1     5.0390     8.3984     3.3594
66 1     5.0390     6.7187     5.0390
67 1     3.3594     8.3984     5.0390
68 1     3.3594     6.7187     6.7187
69 1     5.0390     8.3984     6.7187
70 1     5.0390     6.7187     8.3984
71 1     3.3594     8.3984     8.3984
72 1     6.7187     0.0000     0.0000
73 1     8.3984     1.6797     0.0000
74 1     8.3984     0.0000     1.6797
75 1     6.7187     1.6797     1.6797
76 1     6.7187     0.0000     3.3594
77 1     8.3984     1.6797     3.3594
78 1     8.3984     0.0000     5.0390
79 1     6.7187     1.6797     5.0390
80 1     6.7187     0.0000     6.7187
81 1     8.3984     1.6797     6.7187
82 1     8.3984     0.0000     8.3984
83 1     6.7187     1.6797     8.3984
84 1     6.7187     3.3594     0.0000
85 1     8.3984     5.0390     0.0000
86 1     8.3984     3.3594     1.6797
87 1     6.7187     5.0390     1.6797
88 1     6.7187     3.3594     3.3594
89 1     8.3984     5.0390     3.3594
90 1     8.3984     3.3594     5.0390
91 1     6.7187     5.0390     5.0390
92 1     6.7187     3.3594     6.7187
93 1     8.3984     5.0390     6.7187
94 1     8.3984     3.3594     8.3984
95 1     6.7187     5.0390     8.3984
96 1     6.7187     6.7187     0.0000
97 1     8.3984     8.3984     0.0000
98 1     8.3984     6.7187     1.6797
99 1     6.7187     8.3984     1.6797
100 1     6.7187     6.7187     3.3594
101 1     8.3984     8.3984     3.3594
102 1     8.3984     6.7187     5.0390
103 1     6.7187     8.3984     5.0390
104 1     6.7187     6.7187     6.7187
105 1     8.3984     8.3984     6.7187
106 1     8.3984     6.7187     8.3984
107 1     6.7187     8.3984     8.3984
