LAMMPS (11 Aug 2017)
# ---- initialize simulations
clear
units metal
dimension 3
boundary p p p
atom_style atomic
atom_modify map array
# ---- create atoms
read_data /home/sullberg/repos/pypospack/dev/cluster_sampling/dev__cluster_sampling/rank_7/Ni_fcc_vac.lmps_min_pos/lammps.structure
  triclinic box = (0 0 0) to (10.0781 10.0781 10.0781) with tilt (0 -0 -0)
  1 by 1 by 1 MPI processor grid
  reading atoms ...
  107 atoms
# ---- define interatomic potential
include potential.mod
mass 1 58.6934

group Ni type 1
107 atoms in group Ni

pair_style eam/alloy
pair_coeff * * /home/sullberg/repos/pypospack/dev/cluster_sampling/dev__cluster_sampling/rank_7/Ni_fcc_vac.lmps_min_pos/Ni.eam.alloy Ni

neighbor 1.0 bin
neigh_modify every 1 delay 0 check yes
# ---- define settings
compute eng all pe/atom
compute eatoms all reduce sum c_eng

# ---- run minimization
reset_timestep 0
thermo 1
thermo_style custom step pe lx ly lz xy xz yz press pxx pyy pzz pxy pxz pyz c_eatoms
min_style cg
minimize 1e-20 1e-20 1000 100000
Neighbor list info ...
  update every 1 steps, delay 0 steps, check yes
  max neighbors/atom: 2000, page size: 100000
  master list distance cutoff = 5.64464
  ghost atom cutoff = 5.64464
  binsize = 2.82232, bins = 4 4 4
  1 neighbor lists, perpetual/occasional/extra = 1 0 0
  (1) pair eam/alloy, perpetual
      attributes: half, newton on
      pair build: half/bin/newton/tri
      stencil: half/bin/3d/newton/tri
      bin: standard
Per MPI rank memory allocation (min/avg/max) = 4.229 | 4.229 | 4.229 Mbytes
Step PotEng Lx Ly Lz Xy Xz Yz Press Pxx Pyy Pzz Pxy Pxz Pyz c_eatoms 
       0   -681.77475      10.0781      10.0781      10.0781            0           -0           -0   -5572.4453   -5572.4453   -5572.4453   -5572.4453 2.9760695e-08 2.9759957e-08 2.9764518e-08   -681.77475 
       1   -681.83235      10.0781      10.0781      10.0781            0           -0           -0   -6999.3604   -6999.3604   -6999.3604   -6999.3604 -8.0211497e-06 -8.0211689e-06 -8.0211693e-06   -681.83235 
       2   -681.84512      10.0781      10.0781      10.0781            0           -0           -0   -7253.8892   -7253.8892   -7253.8892   -7253.8892 -5.4004321e-05 -5.4004346e-05 -5.4004338e-05   -681.84512 
       3   -681.84739      10.0781      10.0781      10.0781            0           -0           -0   -7443.3462   -7443.3462   -7443.3462   -7443.3462 -1.7748164e-05 -1.7748184e-05 -1.774815e-05   -681.84739 
       4   -681.84757      10.0781      10.0781      10.0781            0           -0           -0   -7441.1962   -7441.1962   -7441.1962   -7441.1962 -1.7227842e-05 -1.7227837e-05 -1.7227796e-05   -681.84757 
       5   -681.84761      10.0781      10.0781      10.0781            0           -0           -0   -7436.2574   -7436.2574   -7436.2574   -7436.2574 -5.1748997e-06 -5.1749366e-06 -5.1749469e-06   -681.84761 
       6   -681.84762      10.0781      10.0781      10.0781            0           -0           -0    -7436.055    -7436.055    -7436.055    -7436.055 -4.7895815e-06 -4.789587e-06 -4.7895829e-06   -681.84762 
       7   -681.84762      10.0781      10.0781      10.0781            0           -0           -0    -7439.104    -7439.104    -7439.104    -7439.104 -3.5579876e-06 -3.5580041e-06 -3.5579927e-06   -681.84762 
       8   -681.84762      10.0781      10.0781      10.0781            0           -0           -0   -7439.6015   -7439.6015   -7439.6015   -7439.6015 -1.7859905e-06 -1.7859802e-06 -1.7859502e-06   -681.84762 
       9   -681.84762      10.0781      10.0781      10.0781            0           -0           -0   -7439.6139   -7439.6139   -7439.6139   -7439.6139 -8.777299e-07 -8.7777558e-07 -8.7779917e-07   -681.84762 
      10   -681.84762      10.0781      10.0781      10.0781            0           -0           -0   -7439.6064   -7439.6064   -7439.6064   -7439.6064 -8.8128422e-07 -8.8128016e-07 -8.8124248e-07   -681.84762 
      11   -681.84762      10.0781      10.0781      10.0781            0           -0           -0   -7439.6191   -7439.6191   -7439.6191   -7439.6191 -4.6384386e-07 -4.6383824e-07 -4.6382247e-07   -681.84762 
      12   -681.84762      10.0781      10.0781      10.0781            0           -0           -0   -7439.6212   -7439.6212   -7439.6212   -7439.6212 -3.9950876e-07 -3.9950407e-07 -3.9952623e-07   -681.84762 
      13   -681.84762      10.0781      10.0781      10.0781            0           -0           -0   -7439.6212   -7439.6212   -7439.6212   -7439.6212 -2.4213098e-07 -2.4211143e-07 -2.4211534e-07   -681.84762 
      14   -681.84762      10.0781      10.0781      10.0781            0           -0           -0   -7439.6216   -7439.6216   -7439.6216   -7439.6216 -2.0447425e-07 -2.0451059e-07 -2.0447423e-07   -681.84762 
      15   -681.84762      10.0781      10.0781      10.0781            0           -0           -0   -7439.6219   -7439.6219   -7439.6219   -7439.6219 -1.2327982e-07 -1.2329709e-07 -1.2328551e-07   -681.84762 
      16   -681.84762      10.0781      10.0781      10.0781            0           -0           -0   -7439.6218   -7439.6218   -7439.6218   -7439.6218 1.9334043e-08 1.9329633e-08 1.9305783e-08   -681.84762 
      17   -681.84762      10.0781      10.0781      10.0781            0           -0           -0   -7439.6217   -7439.6217   -7439.6217   -7439.6217 1.9279174e-08 1.9298245e-08 1.9272049e-08   -681.84762 
      18   -681.84762      10.0781      10.0781      10.0781            0           -0           -0   -7439.6217   -7439.6217   -7439.6217   -7439.6217 2.1781301e-08 2.1777956e-08 2.1771439e-08   -681.84762 
      19   -681.84762      10.0781      10.0781      10.0781            0           -0           -0   -7439.6217   -7439.6217   -7439.6217   -7439.6217 1.6203593e-08 1.6200161e-08 1.6184521e-08   -681.84762 
      20   -681.84762      10.0781      10.0781      10.0781            0           -0           -0   -7439.6217   -7439.6217   -7439.6217   -7439.6217 8.8660757e-09 8.8874716e-09 8.8655761e-09   -681.84762 
      21   -681.84762      10.0781      10.0781      10.0781            0           -0           -0   -7439.6217   -7439.6217   -7439.6217   -7439.6217 6.1451671e-09 6.1622621e-09 6.128159e-09   -681.84762 
      22   -681.84762      10.0781      10.0781      10.0781            0           -0           -0   -7439.6217   -7439.6217   -7439.6217   -7439.6217 3.379338e-09 3.3543145e-09 3.3221229e-09   -681.84762 
      23   -681.84762      10.0781      10.0781      10.0781            0           -0           -0   -7439.6217   -7439.6217   -7439.6217   -7439.6217 3.0415649e-09 3.0212985e-09 3.0120668e-09   -681.84762 
      24   -681.84762      10.0781      10.0781      10.0781            0           -0           -0   -7439.6217   -7439.6217   -7439.6217   -7439.6217 2.2461582e-09 2.2060816e-09 2.2215475e-09   -681.84762 
      25   -681.84762      10.0781      10.0781      10.0781            0           -0           -0   -7439.6217   -7439.6217   -7439.6217   -7439.6217 1.6137081e-09 1.6214627e-09 1.5976991e-09   -681.84762 
      26   -681.84762      10.0781      10.0781      10.0781            0           -0           -0   -7439.6217   -7439.6217   -7439.6217   -7439.6217 5.6754562e-10 5.7740729e-10 5.8585705e-10   -681.84762 
      27   -681.84762      10.0781      10.0781      10.0781            0           -0           -0   -7439.6217   -7439.6217   -7439.6217   -7439.6217 2.7782105e-10 2.8446791e-10 2.9617592e-10   -681.84762 
      28   -681.84762      10.0781      10.0781      10.0781            0           -0           -0   -7439.6217   -7439.6217   -7439.6217   -7439.6217 1.6690985e-10 1.7392597e-10 1.4323315e-10   -681.84762 
      29   -681.84762      10.0781      10.0781      10.0781            0           -0           -0   -7439.6217   -7439.6217   -7439.6217   -7439.6217 1.0257006e-10 1.0074543e-10 1.1084604e-10   -681.84762 
      30   -681.84762      10.0781      10.0781      10.0781            0           -0           -0   -7439.6217   -7439.6217   -7439.6217   -7439.6217 1.3111242e-10 1.6321715e-10 9.3425204e-11   -681.84762 
      31   -681.84762      10.0781      10.0781      10.0781            0           -0           -0   -7439.6217   -7439.6217   -7439.6217   -7439.6217 8.3194264e-11 9.075343e-11 6.766322e-11   -681.84762 
      32   -681.84762      10.0781      10.0781      10.0781            0           -0           -0   -7439.6217   -7439.6217   -7439.6217   -7439.6217 6.0125776e-11 6.1863515e-11 1.8680696e-11   -681.84762 
      33   -681.84762      10.0781      10.0781      10.0781            0           -0           -0   -7439.6217   -7439.6217   -7439.6217   -7439.6217 4.6354193e-11 5.2653498e-11 3.8165097e-11   -681.84762 
      34   -681.84762      10.0781      10.0781      10.0781            0           -0           -0   -7439.6217   -7439.6217   -7439.6217   -7439.6217 1.1555966e-11 1.6986401e-11 8.1847516e-11   -681.84762 
      35   -681.84762      10.0781      10.0781      10.0781            0           -0           -0   -7439.6217   -7439.6217   -7439.6217   -7439.6217 2.2112731e-11 1.9766783e-12 6.466562e-11   -681.84762 
      36   -681.84762      10.0781      10.0781      10.0781            0           -0           -0   -7439.6217   -7439.6217   -7439.6217   -7439.6217 2.8107932e-11 5.0177219e-12 2.4849671e-11   -681.84762 
      37   -681.84762      10.0781      10.0781      10.0781            0           -0           -0   -7439.6217   -7439.6217   -7439.6217   -7439.6217 3.844748e-11 1.3445757e-11 7.5374438e-12   -681.84762 
Loop time of 0.0219471 on 1 procs for 37 steps with 107 atoms

72.0% CPU use with 1 MPI tasks x no OpenMP threads

Minimization stats:
  Stopping criterion = energy tolerance
  Energy initial, next-to-last, final = 
        -681.774752741     -681.847615759     -681.847615759
  Force two-norm initial, final = 1.07063 8.45838e-14
  Force max component initial, final = 0.210788 1.7028e-14
  Final line search alpha, max atom move = 1 1.7028e-14
  Iterations, force evaluations = 37 74

MPI task timing breakdown:
Section |  min time  |  avg time  |  max time  |%varavg| %total
---------------------------------------------------------------
Pair    | 0.020837   | 0.020837   | 0.020837   |   0.0 | 94.94
Neigh   | 0          | 0          | 0          |   0.0 |  0.00
Comm    | 0.00034308 | 0.00034308 | 0.00034308 |   0.0 |  1.56
Output  | 0.00051761 | 0.00051761 | 0.00051761 |   0.0 |  2.36
Modify  | 0          | 0          | 0          |   0.0 |  0.00
Other   |            | 0.0002499  |            |       |  1.14

Nlocal:    107 ave 107 max 107 min
Histogram: 1 0 0 0 0 0 0 0 0 0
Nghost:    983 ave 983 max 983 min
Histogram: 1 0 0 0 0 0 0 0 0 0
Neighs:    4134 ave 4134 max 4134 min
Histogram: 1 0 0 0 0 0 0 0 0 0

Total # of neighbors = 4134
Ave neighs/atom = 38.6355
Neighbor list builds = 0
Dangerous builds = 0

# ---- define output variables ----
variable natoms equal "count(all)"
variable tot_energy equal "c_eatoms"
variable a11 equal "xhi-xlo"
variable a22 equal "yhi-ylo"
variable a33 equal "zhi-zlo"
variable tilt_xy equal "xy"
variable tilt_xz equal "xz"
variable tilt_yz equal "yz"
variable tot_press equal "press"
variable press_xx equal "pxx"
variable press_yy equal "pyy"
variable press_zz equal "pzz"
variable press_xy equal "pxy"
variable press_xz equal "pxz"
variable press_yz equal "pyz"

# ---- output ----
print "pypospack:output_section:begin"
pypospack:output_section:begin
print "tot_energy = ${tot_energy}"
tot_energy = -681.84761575935
print "num_atoms = ${natoms}"
num_atoms = 107
print "a11 = ${a11}"
a11 = 10.0781
print "a22 = ${a22}"
a22 = 10.0781
print "a33 = ${a33}"
a33 = 10.0781
print "a12 = ${tilt_xy}"
a12 = 0
print "a13 = ${tilt_xz}"
a13 = -0
print "a23 = ${tilt_yz}"
a23 = -0
print "tot_press = ${tot_press}"
tot_press = -7439.62172488487
print "pxx = ${press_xx}"
pxx = -7439.6217248849
print "pyy = ${press_yy}"
pyy = -7439.62172488486
print "pzz = ${press_zz}"
pzz = -7439.62172488485
print "pxy = ${press_xy}"
pxy = 3.84474797263351e-11
print "pxz = ${press_xz}"
pxz = 1.34457570342381e-11
print "pyz = ${press_yz}"
pyz = 7.53744376555835e-12
print "pypospack:output_section:done"
pypospack:output_section:done
print "pypospack:lammps_sim:done"
pypospack:lammps_sim:done
Total wall time: 0:00:00
