LAMMPS (10 Feb 2015)
Reading data file ...
  triclinic box = (0 0 0) to (4.2565 4.2565 4.2565) with tilt (0 0 0)
  1 by 1 by 1 MPI processor grid
  reading atoms ...
  8 atoms
4 atoms in group Mg
4 atoms in group O
Setting atom values ...
  4 settings made for charge
Setting atom values ...
  4 settings made for charge
PPPM initialization ...
  G vector (1/distance) = 0.352506
  grid = 8 8 8
  stencil order = 5
  estimated absolute RMS force accuracy = 3.81426e-05
  estimated relative force accuracy = 2.64886e-06
  using double precision FFTs
  3d grid and FFT values/proc = 3375 512
Neighbor list info ...
  1 neighbor list requests
  update every 1 steps, delay 0 steps, check yes
  master list distance cutoff = 11
Setting up minimization ...
Memory usage per processor = 4.06549 Mbytes
Step PotEng Lx Ly Lz Xy Xz Yz Press Pxx Pyy Pzz Pxy Pxz Pyz eatoms 
       0   -108.09373       4.2565       4.2565       4.2565            0            0            0    -32837.55    -32837.55    -32837.55    -32837.55 6.8800808e-12 1.9793426e-10 1.5308399e-10   -108.09373 
       9   -108.11055     4.226584     4.226584     4.226584            0            0            0    13.792758    13.792758    13.792758    13.792758 -4.4920118e-11 -8.154534e-11 2.0970287e-11   -108.11055 
Loop time of 0.00998712 on 1 procs for 9 steps with 8 atoms

Minimization stats:
  Stopping criterion = linesearch alpha is zero
  Energy initial, next-to-last, final = 
         -108.09372829     -108.110551709     -108.110551709
  Force two-norm initial, final = 4.74176 0.0024943
  Force max component initial, final = 4.74176 0.00196378
  Final line search alpha, max atom move = 0.00390625 7.67103e-06
  Iterations, force evaluations = 9 28

Pair  time (%) = 0.00277305 (27.7662)
Kspce time (%) = 0.00155115 (15.5315)
Neigh time (%) = 0 (0)
Comm  time (%) = 0.000297546 (2.9793)
Outpt time (%) = 0 (0)
Other time (%) = 0.00536537 (53.7229)

Nlocal:    8 ave 8 max 8 min
Histogram: 1 0 0 0 0 0 0 0 0 0
Nghost:    2189 ave 2189 max 2189 min
Histogram: 1 0 0 0 0 0 0 0 0 0
Neighs:    2344 ave 2344 max 2344 min
Histogram: 1 0 0 0 0 0 0 0 0 0

Total # of neighbors = 2344
Ave neighs/atom = 293
Neighbor list builds = 0
Dangerous builds = 0
pypospack:output_section:begin
tot_energy = -108.110551708828
num_atoms = 8
xx = 4.22658398474032
yy = 4.22658398474032
zz = 4.22658398474032
xy = 0
xz = 0
yz = 0
tot_press = 13.7927584127517
pxx = 13.7927584125475
pyy = 13.7927584121258
pzz = 13.7927584135819
pxy = -4.49201179574407e-11
pxz = -8.15453399591787e-11
pyz = 2.09702873442201e-11
pypospack:output_section:done
pypospack:lammps_sim:done
PPPM initialization ...
  G vector (1/distance) = 0.352801
  grid = 8 8 8
  stencil order = 5
  estimated absolute RMS force accuracy = 3.76353e-05
  estimated relative force accuracy = 2.61363e-06
  using double precision FFTs
  3d grid and FFT values/proc = 3375 512
Setting up run ...
Memory usage per processor = 3.06549 Mbytes
Step Temp PotEng KinEng TotEng Press Lx Ly Lz Press Pxx Pyy Pzz Pxy Pxz Pyz Volume 
       0          700   -108.11055   0.63337471   -107.47718    8974.1902     4.226584     4.226584     4.226584    8974.1902    4227.3599    15474.798    7220.4125    20.652695   -4439.6279    3630.2457    75.503748 
     100     207.8808   -107.57987   0.18809492   -107.39177    8330.5737    4.2467918    4.2467918    4.2467918    8330.5737   -2908.7232    16695.314    11205.131   -683.87539    5349.3161   -5676.5671    76.591912 
     200     449.0395   -107.62492   0.40630038   -107.21862   -15730.553    4.2577777    4.2577777    4.2577777   -15730.553   -13281.696   -15316.625   -18593.336    2603.1696    4008.7294   -6728.5628    77.187851 
     300    771.36745   -107.76343   0.69794948   -107.06548    12567.749    4.2384752    4.2384752    4.2384752    12567.749   -192.92251    21412.983    16483.186   -651.70369   -5192.5012     1482.689    76.142818 
     400     520.2168   -107.43149   0.47070309   -106.96079    6601.0139    4.2510071    4.2510071    4.2510071    6601.0139    3482.6249    8197.5069    8122.9097   -2109.6135    8819.8054   -8778.6044    76.820209 
     500    380.37356   -107.22276   0.34416999   -106.87859   -12795.963     4.272025     4.272025     4.272025   -12795.963    -3733.754   -5889.0174   -28765.116   -2333.9521    777.60449   -5271.5652    77.965303 
     600    1075.2551   -107.80543   0.97291342   -106.83251    10611.726    4.2401926    4.2401926    4.2401926    10611.726   -891.64837    23291.266      9435.56    466.62715    -6173.732    2284.6877     76.23541 
     700    626.24461   -107.40341   0.56663929   -106.83677    16633.352      4.25088      4.25088      4.25088    16633.352    19352.635    24539.193    6008.2285    4831.1191    10725.746   -4879.7571    76.813318 
     800    701.01386   -107.46329   0.63429208   -106.82899   -39145.154    4.2781925    4.2781925    4.2781925   -39145.154   -27400.003   -49095.841   -40939.618   -5757.7223    1024.6786    1649.7727    78.303463 
     900    684.33087   -107.44598   0.61919695   -106.82679     28812.26    4.2319446    4.2319446    4.2319446     28812.26     15622.69    36038.159    34775.932    1180.7282   -4644.6754    6316.5258    75.791397 
    1000    838.82139   -107.60441   0.75898323   -106.84543   -8931.4889    4.2557686    4.2557686    4.2557686   -8931.4889   -2436.7541   -7081.4899   -17276.223   -3100.9854    10955.509   -6413.4559    77.078633 
    1100    448.62325   -107.23895   0.40592375   -106.83302   -20758.027    4.2787398    4.2787398    4.2787398   -20758.027   -28782.307    -6551.005   -26940.768     1621.867   -715.68625    2989.5132    78.333519 
    1200    761.27868   -107.50694   0.68882095   -106.81812    25412.191    4.2282843    4.2282843    4.2282843    25412.191    10013.776     50183.74    16039.058    4338.5221   -11891.469    4891.7793    75.594909 
    1300    806.27496    -107.5677   0.72953453   -106.83816   -6265.6758    4.2565795    4.2565795    4.2565795   -6265.6758   -11412.621    11262.316   -18646.722   -5422.9309    11158.295    -4923.173    77.122703 
    1400    801.84852   -107.55599   0.72552939   -106.83046    -22958.34    4.2724297    4.2724297    4.2724297    -22958.34   -40336.674     2081.234   -30619.579    6449.3696   -947.64776    1612.2147    77.987462 
    1500     592.0616   -107.36501   0.53570977    -106.8293    22460.185    4.2308597    4.2308597    4.2308597    22460.185    1615.0328    55831.772    9933.7494   -854.01651   -19067.446    8375.9782    75.733124 
    1600    866.45628   -107.62685   0.78398785   -106.84286   -7172.6741    4.2520239    4.2520239    4.2520239   -7172.6741   -17692.584    22334.586   -26160.024    4373.5022    11702.033    5381.1329    76.875348 
    1700    716.70097    -107.4816    0.6484861   -106.83311   -21108.699    4.2739589    4.2739589    4.2739589   -21108.699   -44014.539     15661.71   -34973.269   -2974.7352    -1691.178    625.74455    78.071229 
    1800     419.9132   -107.21787   0.37994629   -106.83792    2242.9184    4.2373841    4.2373841    4.2373841    2242.9184   -15131.595    17159.279    4701.0714    1049.4666   -23475.012    10854.533    76.084028 
    1900    857.80538    -107.6221   0.77616033   -106.84594    1018.3418    4.2411485    4.2411485    4.2411485    1018.3418    -9143.702    19921.261   -7722.5333   -2602.8943    13466.298   -2170.4947    76.286981 
    2000    672.68149   -107.44476   0.60865635   -106.83611   -35744.936    4.2817148    4.2817148    4.2817148   -35744.936   -55433.454   -9605.9253   -42195.429    4601.0627   -518.07241    4843.0512    78.497029 
    2100    537.08976   -107.32608   0.48597011   -106.84011    3114.4308    4.2309263    4.2309263    4.2309263    3114.4308   -8631.7095    14209.243    3765.7585     5439.444   -26914.501    6222.9633    75.736702 
    2200     818.9843   -107.58696    0.7410342   -106.84592    13337.344    4.2364812    4.2364812    4.2364812    13337.344    10057.509    27407.977    2546.5449   -2227.3049    11023.779    1331.1584    76.035405 
    2300    784.65856   -107.53674   0.70997555   -106.82676   -43251.932    4.2848707    4.2848707    4.2848707   -43251.932   -54811.233   -35355.861   -39588.702    584.11288    253.82096   -4460.6913    78.670725 
    2400     549.7506    -107.3324    0.4974259   -106.83497    6372.5968    4.2273115    4.2273115    4.2273115    6372.5968     1678.504    16811.032    628.25389   -2896.5352    -26823.71    14779.002    75.542745 
    2500    707.39704   -107.48507    0.6400677   -106.84501    15780.234    4.2382014    4.2382014    4.2382014    15780.234    13906.386    12262.602    21171.715     4612.643     8190.013    4506.9502    76.128063 
    2600    846.36897   -107.58993   0.76581243   -106.82412   -34782.479     4.280652     4.280652     4.280652   -34782.479   -42381.141   -24078.449   -37887.848   -476.07246    -3142.389   -13526.732     78.43859 
    2700    360.65261   -107.15423   0.32632606   -106.82791    18345.241    4.2328754    4.2328754    4.2328754    18345.241   -503.81124    27922.641    27616.893   -174.14183   -21274.389    10990.647    75.841418 
    2800     757.5022   -107.52069   0.68540391   -106.83528    2587.0744    4.2414292    4.2414292    4.2414292    2587.0744    8453.4446   -1529.1303    836.90876    520.41229    5280.0627    2381.3603    76.302129 
    2900    790.40609   -107.54457   0.71517604   -106.82939   -1301.6873    4.2661887    4.2661887    4.2661887   -1301.6873   -16151.374   -11541.305    23787.617    6.7714584   -6135.7041   -11792.961    77.646198 
    3000     660.3741   -107.43517   0.59752037   -106.83765   -6110.3907    4.2482278    4.2482278    4.2482278   -6110.3907   -24224.113    20568.482   -14675.541    4826.1258   -18942.837    11837.505    76.669637 
    3100    651.44317   -107.42829   0.58943947   -106.83885    14019.415    4.2374026    4.2374026    4.2374026    14019.415    18677.091   -1508.1903    24889.344   -2066.4501    1556.7711    8177.3384    76.085024 
    3200    920.07092   -107.67195   0.83249951   -106.83945   -7391.0703    4.2582419    4.2582419    4.2582419   -7391.0703    -13183.69    3333.6866   -12323.207    339.10263   -3684.1202    -5393.163    77.213098 
    3300    414.71284   -107.21609    0.3752409   -106.84085   -12320.496    4.2609044    4.2609044    4.2609044   -12320.496   -27327.247    8948.6656   -18582.908   -25.940058   -14323.366    8744.9826    77.358024 
    3400    716.88356   -107.47968   0.64865131   -106.83103    6936.5448    4.2324185    4.2324185    4.2324185    6936.5448    18799.236   -11939.015    13949.413    2837.4132     2246.025    8616.6503    75.816863 
    3500    712.47977   -107.48316   0.64466667   -106.83849    5401.6537    4.2517917    4.2517917    4.2517917    5401.6537   -7592.7016    5997.0648    17800.598    3730.9006   -7383.9046   -9776.5269    76.862753 
    3600    682.79091   -107.45206   0.61780356   -106.83426   -22978.143    4.2649654    4.2649654    4.2649654   -22978.143   -31540.223    -928.0837   -36466.123   -2537.7487   -13418.129     8806.647    77.579422 
    3700    651.79118   -107.41993   0.58975436   -106.83017    11992.727    4.2362754    4.2362754    4.2362754    11992.727    11562.239   -5099.5932    29515.537    4194.1265    6602.5223    10494.287    76.024324 
    3800     890.0991   -107.64119   0.80538037   -106.83581    3298.0981     4.244054     4.244054     4.244054    3298.0981   -6976.4853    8994.2477    7876.5319    750.88366   -9542.7076    -16933.92    76.443875 
    3900    555.76149   -107.33962   0.50286468   -106.83675   -13211.345    4.2665449    4.2665449    4.2665449   -13211.345   -32787.732   -1167.1296   -5679.1721    -45.35177   -14990.141    16532.886    77.665646 
    4000    756.52971    -107.5197   0.68452398   -106.83518   -4134.9575    4.2410644    4.2410644    4.2410644   -4134.9575   -689.77789   -17533.516    5818.4214    6025.6816    11929.395    12969.593    76.282443 
    4100     630.2902   -107.40779   0.57029982   -106.83749    15233.518    4.2347303    4.2347303    4.2347303    15233.518   -1254.4641    11579.728    35375.291   -4261.3846   -12545.836   -8297.0805    75.941169 
    4200    678.51847   -107.45149   0.61393777   -106.83755   -26699.262    4.2677844    4.2677844    4.2677844   -26699.262   -35438.471   -11000.668   -33658.647    3335.8676   -11265.239    11114.882    77.733355 
    4300     602.5187   -107.38106   0.54517158   -106.83589    -2069.299    4.2471514    4.2471514    4.2471514    -2069.299    1721.9422   -12896.412    4966.5726    7073.2818    7444.8072     10023.28    76.611371 
    4400    715.10031   -107.48011   0.64703779   -106.83307    17255.573    4.2307083    4.2307083    4.2307083    17255.573    9508.1704    14095.626    28162.923   -8660.7047   -13403.171   -4321.2397    75.724996 
    4500    780.06198   -107.54361   0.70581647   -106.83779   -15828.095    4.2645583    4.2645583    4.2645583   -15828.095   -27223.873   -11386.315   -8874.0972    763.71189   -10719.318   -2157.9103    77.557207 
    4600    699.69386     -107.471   0.63309771    -106.8379   -4310.4447    4.2513865    4.2513865    4.2513865   -4310.4447   -5371.5579   -20187.474    12627.698    4243.2276    8325.7737     12342.62    76.840778 
    4700    654.72123   -107.42649   0.59240553   -106.83409    12031.262    4.2276036    4.2276036    4.2276036    12031.262    9122.1633     2412.974    24558.648   -8047.1284   -8181.0027   -9543.2156    75.558405 
    4800     653.0463   -107.43263   0.59089002   -106.84174   -12693.431    4.2599886    4.2599886    4.2599886   -12693.431   -23410.703   -16995.679    2326.0904    -2298.326   -11620.337   -5196.7618    77.308156 
    4900    701.87298   -107.47482   0.63506942   -106.83975   -16983.434    4.2572972    4.2572972    4.2572972   -16983.434   -5291.2398   -24036.627   -21622.434    3841.0747    14475.095    21065.771    77.161724 
    5000    528.11159   -107.31101   0.47784646   -106.83317    34244.516    4.2244894    4.2244894    4.2244894    34244.516    31293.818     19827.74    51611.989   -7570.1755   -6339.4503   -498.27838    75.391552 
    5100    891.95978     -107.648   0.80706396   -106.84093   -26313.528    4.2637584    4.2637584    4.2637584   -26313.528   -26061.921   -20812.543    -32066.12   -968.98005   -8732.0003    -3405.319    77.513574 
    5200    591.70721   -107.37704   0.53538912   -106.84165   -4394.6118    4.2519623    4.2519623    4.2519623   -4394.6118    4800.8277   -17117.449   -867.21371    5582.2803    11506.465    24824.205    76.872007 
    5300    761.14418    -107.5187   0.68869925      -106.83    15982.496    4.2232047    4.2232047    4.2232047    15982.496    22217.492    9078.3951    16651.599   -9739.9126     -6412.02    4421.9902     75.32279 
    5400    660.71481   -107.43303   0.59782864    -106.8352    -25832.27    4.2677895    4.2677895    4.2677895    -25832.27   -27153.047   -30867.607   -19476.154   -5184.3825   -5663.3425   -16587.741    77.733633 
    5500    720.32012   -107.48622   0.65176078   -106.83446   -8595.8187    4.2460962    4.2460962    4.2460962   -8595.8187    6812.6968    -14407.72   -18192.433    7220.4017    2455.3911    19770.656     76.55428 
    5600     517.0764    -107.3007   0.46786159   -106.83284    21982.766    4.2344817    4.2344817    4.2344817    21982.766    20247.374    8286.7503    37414.173   -4207.2244    2107.6511    198.62727    75.927794 
    5700    877.65376   -107.62495   0.79411957   -106.83083   -24315.734    4.2597536    4.2597536    4.2597536   -24315.734   -18707.586   -23341.537   -30898.078   -4641.6725   -5875.5706   -25443.003    77.295361 
    5800    638.21489    -107.4107   0.57747025   -106.83323    6936.9188     4.244559     4.244559     4.244559    6936.9188    7653.2439   -2887.0264    16044.539    6338.0143    1609.3322    17071.537    76.471167 
    5900     713.2054    -107.4822   0.64532323   -106.83687   -9896.1491    4.2489525    4.2489525    4.2489525   -9896.1491   -155.16559   -24401.311   -5131.9711    1167.9636    7710.8927   -2457.4739    76.708878 
    6000    749.50747   -107.51425   0.67817011   -106.83608    3104.7016    4.2453988    4.2453988    4.2453988    3104.7016    3585.6192   -13311.825    19040.311   -78.509409    -7517.487   -22131.364    76.516569 
    6100    847.93545   -107.60679   0.76722982   -106.83956   -12588.398     4.248912     4.248912     4.248912   -12588.398   -6860.8071   -17690.016    -13214.37    4686.1858    8759.0118    20872.134    76.706682 
    6200     488.7374   -107.28273   0.44221987   -106.84051   -1101.1749    4.2506277    4.2506277    4.2506277   -1101.1749    6385.3215   -14971.077     5282.231    4388.5441    9020.3706    5005.6524    76.799643 
    6300    849.28213   -107.60452   0.76844832   -106.83607   -1806.3754    4.2420733    4.2420733    4.2420733   -1806.3754    5590.9513   -2613.7042   -8396.3734    315.78535   -6808.2341   -17568.494    76.336896 
    6400    733.68746   -107.50247   0.66385583   -106.83861   -10278.411    4.2548052    4.2548052    4.2548052   -10278.411   -8048.3122   -5205.6658   -17581.255     808.4244    8079.1514    8935.9722    77.026302 
    6500    735.67992   -107.50376   0.66565865    -106.8381    -3155.431    4.2449658    4.2449658    4.2449658    -3155.431    4188.1539   -1107.0674    -12547.38    5863.0663    7233.1073    4522.5828    76.493156 
    6600    586.15753   -107.36953   0.53036765   -106.83916    16294.977    4.2468569    4.2468569    4.2468569    16294.977    7549.9047    20055.074    21279.953    -69.83704   -4257.3797   -25735.407    76.595434 
    6700    995.21982   -107.73369   0.90049581    -106.8332    -17282.48    4.2575588    4.2575588    4.2575588    -17282.48   -16000.132   -15463.932   -20383.375   -3985.5338    1257.2827    1030.5663    77.175944 
    6800    486.35685   -107.27592    0.4400659   -106.83585    25259.371    4.2360529    4.2360529    4.2360529    25259.371    24319.673    21799.142    29659.297    7199.6816    10423.746    8796.9046    76.012345 
    6900    687.17192   -107.46206   0.62176759   -106.84029   -11510.019    4.2537366    4.2537366    4.2537366   -11510.019   -4888.7996   -6667.6747   -22973.582   -1958.9144   -69.714477   -27916.611    76.968283 
    7000    778.19007   -107.54069   0.70412273   -106.83657   -3471.7873    4.2516493    4.2516493    4.2516493   -3471.7873   -678.50658    5367.0128   -15103.868    -7579.526   -3427.7791   -144.44902    76.855033 
    7100    684.35432   -107.45574   0.61921817   -106.83653     15040.53    4.2325906    4.2325906    4.2325906     15040.53    24253.498    26126.601   -5258.5089     8467.525    15762.794    8521.1511    75.826113 
    7200    475.39504   -107.27322   0.43014742   -106.84307   -10013.635    4.2617166    4.2617166    4.2617166   -10013.635   -11589.576    -10130.51   -8320.8177    539.47656   -1544.9088    -17784.39     77.40227 
    7300    1027.8294   -107.76503    0.9300016   -106.83503   -6007.8702    4.2471882    4.2471882    4.2471882   -6007.8702   -3750.7485     2021.442   -16294.304   -9927.6071   -1774.5954    2801.6297     76.61336 
    7400    688.62291   -107.45638   0.62308048    -106.8333     23956.67    4.2326305    4.2326305    4.2326305     23956.67    20390.557    30917.541    20561.913     10602.12    17450.682   -1150.8077    75.828254 
    7500    558.01592   -107.34264   0.50490453   -106.83774   -26073.752    4.2632409    4.2632409    4.2632409   -26073.752   -21775.785   -20102.482   -36342.987   -40.626943   -10354.485   -16326.391    77.485357 
    7600    702.01502    -107.4719   0.63519794    -106.8367      5578.89     4.240078     4.240078     4.240078      5578.89    784.32554    13672.952    2279.3927   -7359.1049   -2386.7953   -2065.0307    76.229231 
    7700    861.39699   -107.61647    0.7794101   -106.83706    10107.979    4.2384311    4.2384311    4.2384311    10107.979    4393.2422    31975.049   -6044.3541    9167.6798    14422.453   -4418.3561     76.14044 
    7800    322.01552   -107.13129   0.29136641   -106.83992   -12976.775    4.2633364    4.2633364    4.2633364   -12976.775   -20052.062   -977.81892   -17900.445   -368.78353   -8131.8759   -19488.374     77.49056 
    7900     746.6035   -107.51113   0.67554253   -106.83559    4427.5228     4.230548     4.230548     4.230548    4427.5228   -2585.7176    19919.671   -4051.3847   -5993.9418   -1309.3933   -3622.7801    75.716385 
    8000     822.9815   -107.58745   0.74465096   -106.84279    12214.505    4.2437205    4.2437205    4.2437205    12214.505    -6609.666    37604.746    5648.4338    2564.7578    9578.4956    1253.9736    76.425855 
    8100    692.52025   -107.46437   0.62660687   -106.83776   -29192.857    4.2643221    4.2643221    4.2643221   -29192.857   -26280.524   -21332.464   -39965.582    1480.2389   -5698.4621   -20604.437     77.54432 
    8200     506.9188   -107.29543   0.45867079   -106.83676    9934.3125    4.2293076    4.2293076    4.2293076    9934.3125    246.51522    17483.655    12072.768   -13647.782   -2567.3202   -1208.0393    75.649805 
    8300    1011.0635   -107.75373   0.91483149    -106.8389   -4000.0806    4.2457031    4.2457031    4.2457031   -4000.0806   -11584.845    10683.048   -11098.444     -3167.49    10582.764    7816.8976     76.53302 
    8400    675.42227   -107.44947   0.61113626   -106.83833   -10045.725      4.25797      4.25797      4.25797   -10045.725   -17008.385    4272.7158   -17401.505    928.82142   -7002.7211   -11521.226    77.198311 
    8500    351.20505   -107.15742   0.31777771   -106.83965    10892.561    4.2351445    4.2351445    4.2351445    10892.561   -8083.6193    33602.486     7158.815   -18887.827   -1656.4316   -1834.0106    75.963455 
    8600    833.14345   -107.59354    0.7538457   -106.83969   -5027.1752    4.2481061    4.2481061    4.2481061   -5027.1752   -19014.245    4466.7559   -534.03605    946.33316    8843.4946    12200.407    76.663043 
    8700    864.59286   -107.62008   0.78230179   -106.83778   -4465.1932    4.2501469    4.2501469    4.2501469   -4465.1932   -16675.251     16748.93   -13469.259    296.20892   -10840.789   -13541.964    76.773584 
    8800    458.73436   -107.25705   0.41507249   -106.84198    583.84114    4.2439865    4.2439865    4.2439865    583.84114   -15925.861    -1746.223    19423.607   -17320.019    3738.3088    1567.5077     76.44023 
    8900    865.20894   -107.62301   0.78285923   -106.84015   -11060.518    4.2464436    4.2464436    4.2464436   -11060.518   -20408.906   -13588.635     815.9858    7517.9588    3016.7685    3984.2653    76.573072 
    9000    804.50965   -107.56863   0.72793724   -106.84069     18364.96    4.2437738    4.2437738    4.2437738     18364.96   -7591.8002    36900.031    25786.649    3904.8028   -5470.3301   -11020.722    76.428738 
    9100    606.52987    -107.3935   0.54880097    -106.8447   -7491.2757     4.251401     4.251401     4.251401   -7491.2757   -21514.159   -335.64203   -624.02563   -9480.0453    608.13954    11459.494    76.841566 
    9200    535.85365   -107.32895   0.48485165    -106.8441    3325.3801    4.2402879    4.2402879    4.2402879    3325.3801   -18668.554     19736.64     8908.054     16810.38    3504.0895    3658.5591    76.240553 
    9300    904.37171    -107.6575   0.81829453    -106.8392    8517.0022    4.2456627    4.2456627    4.2456627    8517.0022   -14087.736    26871.846    12766.896    10141.358   -3862.0598    1328.7195    76.530839 
    9400    691.09408   -107.46449   0.62531644   -106.83917   -6667.4921    4.2556745    4.2556745    4.2556745   -6667.4921   -19390.514   -5870.6325    5258.6706   -4413.6587    3106.1979    12099.451    77.073525 
    9500    468.88666   -107.26392    0.4242585   -106.83966    3748.5163    4.2379034    4.2379034    4.2379034    3748.5163   -10717.216    3690.5815    18272.183    19038.141    6300.6465    4415.3618    76.112004 
    9600    882.07173   -107.63679   0.79811704   -106.83867    10605.441    4.2473555    4.2473555    4.2473555    10605.441   -9371.3803    5965.6069    35222.097    7571.8632   -3917.1722    788.96429    76.622416 
    9700    905.32844   -107.65767   0.81916019   -106.83851   -11365.309    4.2562235    4.2562235    4.2562235   -11365.309   -19105.856   -1996.6498    -12993.42   -4416.4646    7913.2177    2348.8356    77.103355 
    9800    280.34058   -107.09982   0.25365804   -106.84617    13762.575    4.2340142    4.2340142    4.2340142    13762.575   -12554.222    18110.001    35731.945    19640.132    1232.6681    4276.0793    75.902647 
    9900    896.07068   -107.65703   0.81078358   -106.84625   -1718.8421      4.25062      4.25062      4.25062   -1718.8421   -16543.998    11022.446    365.02567   -647.56959   -1729.4088   -10755.517    76.799224 
   10000    807.04689   -107.57076   0.73023299   -106.84052    6109.1682    4.2506867    4.2506867    4.2506867    6109.1682    -12991.96    31416.374   -96.909171   -3962.9701      6076.63   -2372.3876    76.802841 
   10100    310.15337   -107.12313   0.28063329   -106.84249      9514.59    4.2384427    4.2384427    4.2384427      9514.59   -12783.358    7332.9861    33994.142    18220.855    1241.4645    4890.7805    76.141067 
   10200    745.07211   -107.51274    0.6741569   -106.83858   -8754.2376    4.2524363    4.2524363    4.2524363   -8754.2376     -10716.5   -17118.519    1572.3058   -3593.6419   -2909.4108   -3629.7107    76.897717 
   10300    838.67813   -107.59295    0.7588536   -106.83409    4438.1419    4.2452473    4.2452473    4.2452473    4438.1419   -2916.8363    20281.906   -4050.6436    1203.5383    9796.5684    958.18871    76.508377 
   10400    495.84895    -107.2883   0.44865455   -106.83965    -2779.717    4.2462148    4.2462148    4.2462148    -2779.717   -22974.137   -13058.139    27693.125    19798.576    2852.4975    1245.0017    76.560698 
   10500    846.45607   -107.60112   0.76589124   -106.83523   -10745.188    4.2492219    4.2492219    4.2492219   -10745.188   -7664.0585   -15204.412   -9367.0933    -4052.821   -5024.0739    4841.4245    76.723469 
   10600    756.65631   -107.52081   0.68463853   -106.83617     8660.361    4.2434516    4.2434516    4.2434516     8660.361   -7163.0029    22035.439    11108.647    3686.6966    9461.5792   -3944.6795    76.411328 
   10700    672.31725   -107.44997   0.60832678   -106.84164   -3251.1102    4.2463331    4.2463331    4.2463331   -3251.1102   -24202.492    12547.181    1901.9807    22231.411    206.25502    2558.1391    76.567094 
   10800    600.71332   -107.38596   0.54353803   -106.84242    1199.0989    4.2474095    4.2474095    4.2474095    1199.0989   -4953.8457    11508.667   -2957.5244   -6283.7504    1871.4803   -852.15559    76.625336 
   10900    619.12162   -107.39899   0.56019425    -106.8388    1839.3104    4.2500757    4.2500757    4.2500757    1839.3104   -12434.636    33378.769   -15426.202     684.3766    13397.679   -14189.716    76.769726 
   11000    860.18343    -107.6114   0.77831204   -106.83308   -980.44869    4.2463883    4.2463883    4.2463883   -980.44869   -20998.396    14398.909    3658.1404    16259.943    4817.4041   -1226.1438    76.570083 
   11100    755.07198   -107.52025     0.683205   -106.83704   -5919.6425    4.2460115    4.2460115    4.2460115   -5919.6425   -14018.147   -10442.016    6701.2352   -15647.713    3401.8785   -6307.0246    76.549703 
   11200    631.39938   -107.41191   0.57130343   -106.84061   -6333.6399    4.2490794    4.2490794    4.2490794   -6333.6399   -14274.365    3240.9604   -7967.5146   -2021.6146    15282.551   -9753.4959     76.71575 
   11300    994.68852   -107.73514   0.90001508   -106.83512    -5101.559    4.2487373    4.2487373    4.2487373    -5101.559   -21859.714    9288.7653   -2733.7283    5111.4539     4758.819    7180.2531    76.697222 
   11400    549.51107   -107.33483   0.49720917   -106.83762    4962.6843    4.2490707    4.2490707    4.2490707    4962.6843   -15240.618    9140.6736    20987.997   -21079.593     361.6229     537.4961     76.71528 
   11500    493.26478   -107.28633   0.44631634   -106.84001   -3816.1691    4.2477675    4.2477675    4.2477675   -3816.1691   -13929.302    21399.795       -18919   -1536.5124    12266.602   -7500.9989    76.644715 
   11600    730.46772   -107.49944   0.66094255    -106.8385    6864.5103    4.2454515    4.2454515    4.2454515    6864.5103   -15320.532    27680.126    8233.9366    934.86045   -921.77899    8636.2992     76.51942 
   11700    736.06186   -107.50691   0.66600424    -106.8409    3644.4555    4.2464194    4.2464194    4.2464194    3644.4555   -13561.581    12938.846    11556.101   -12510.003    133.23241    2013.0375    76.571766 
   11800    551.59897   -107.34276   0.49909834   -106.84366   -18069.152    4.2534805    4.2534805    4.2534805   -18069.152   -16517.852   -3986.7488   -33702.856   -959.45851    11983.046   -16876.985    76.954378 
   11900    728.57279   -107.49791   0.65922797   -106.83868   -2695.5289     4.240832     4.240832     4.240832   -2695.5289   -17663.097    5812.7669     3763.743    147.85566   -9174.4233   -7781.9123    76.269906 
   12000    924.27104   -107.67531   0.83629986   -106.83901   -8122.1783    4.2440441    4.2440441    4.2440441   -8122.1783   -17707.983     -3324.06   -3334.4922   -12188.743   -2306.8657    1087.7769    76.443343 
   12100    631.68522   -107.41436   0.57156206    -106.8428   -16390.109    4.2542698    4.2542698    4.2542698   -16390.109   -9562.4466    -20278.41   -19329.471    2729.0051    10751.034   -21771.836    76.997229 
   12200    626.56225   -107.40917   0.56692669   -106.84225    1036.8561    4.2399971    4.2399971    4.2399971    1036.8561   -9856.7383    9691.0777     3276.229   -4982.3041   -11251.111    3351.4781    76.224866 
   12300    817.48644   -107.58129   0.73967891   -106.84162    4279.5455    4.2443593    4.2443593    4.2443593    4279.5455   -13121.076    17074.148    8885.5646   -15294.742   -6626.9831    4548.6559    76.460373 
   12400    659.01307   -107.43787   0.59628887   -106.84158    4383.2549    4.2516379    4.2516379    4.2516379    4383.2549   -12230.829    12035.442    13345.152    7726.6569    11569.545   -7790.8993    76.854411 
   12500    525.55709   -107.31641    0.4755351   -106.84088    4541.5729    4.2428709    4.2428709    4.2428709    4541.5729   -17130.569    41182.362   -10427.074      -7703.3   -4320.5108     7920.711    76.379964 
   12600    636.19054   -107.41488   0.57563857   -106.83924   -1198.9292    4.2497544    4.2497544    4.2497544   -1198.9292   -29572.827    19952.928    6023.1116    -11573.34    -6567.759    5646.3592    76.752315 
   12700     884.6751    -107.6355   0.80047262   -106.83503    6383.0031    4.2470463    4.2470463    4.2470463    6383.0031    58.431015     19220.58   -130.00206      4056.38    16451.244   -1871.8694    76.605683 
   12800    709.56659   -107.48229   0.64203076   -106.84026   -2335.2281    4.2468095    4.2468095    4.2468095   -2335.2281   -8300.9926    13300.037   -12004.729    -8642.045   -1958.8861     -4373.84    76.592871 
   12900    690.77036   -107.46597   0.62502354   -106.84095   -16559.609    4.2507602    4.2507602    4.2507602   -16559.609   -20229.928   -19715.474   -9733.4258    -15976.81   -5439.3067    8774.7585    76.806825 
   13000     1007.082   -107.74501   0.91122899   -106.83378    9902.6682    4.2411922    4.2411922    4.2411922    9902.6682    9395.9077    13339.589    6972.5083   -498.37147    10949.376   -5072.2334     76.28934 
   13100    696.03647    -107.4692   0.62978843   -106.83941   -15306.857    4.2541612    4.2541612    4.2541612   -15306.857   -24645.193    6981.9763   -28257.355   -1929.2613   -5266.7631   -5451.8336    76.991332 
   13200    429.50359   -107.23197   0.38862387   -106.84335   -9187.7465    4.2447778    4.2447778    4.2447778   -9187.7465   -19249.008   -4731.3948   -3582.8365   -18423.441   -5185.6378    11843.262    76.482992 
   13300    845.66383   -107.60448    0.7651744   -106.83931     17805.12    4.2374042    4.2374042    4.2374042     17805.12    2753.1401    42730.505    7931.7146    5597.4821    4784.1267    -1465.244    76.085113 
   13400    795.75359   -107.55843   0.72001457   -106.83841   -15505.513    4.2599559    4.2599559    4.2599559   -15505.513   -24374.632    6473.5203   -28615.427    2389.8125   -4965.5799    3899.4849    77.306377 
   13500    432.92397   -107.23318    0.3917187   -106.84146    4040.8013    4.2397126    4.2397126    4.2397126    4040.8013   -3747.5493    5691.5883    10178.365   -15795.661   -7331.0461    16907.779    76.209524 
   13600     874.4192   -107.62986   0.79119287   -106.83867    9947.9382     4.237246     4.237246     4.237246    9947.9382    6973.6731    7405.6659    15464.476    14004.977    2661.6457    1415.1712     76.07659 
   13700    811.17635   -107.56982   0.73396941   -106.83585    -13211.79    4.2574693    4.2574693    4.2574693    -13211.79   -27945.754    4157.2835   -15846.899    4969.3394    421.39852    5043.0604    77.171081 
   13800    505.33977   -107.29947   0.45724204   -106.84223   -1653.2026    4.2362794    4.2362794    4.2362794   -1653.2026   -8528.5188   -11166.429     14735.34   -18243.391   -8340.3853    16283.731     76.02454 
   13900    644.16479   -107.42754   0.58285384   -106.84468    1965.5767    4.2401732    4.2401732    4.2401732    1965.5767   -10068.623   -3525.5663    19490.919    7998.8191    188.83785    -3574.584    76.234363 
   14000    840.76637   -107.59723   0.76074308   -106.83649   -16286.027    4.2587397    4.2587397    4.2587397   -16286.027   -31875.614   -6042.1529   -10940.315    8391.4019   -329.99452   -2861.2008    77.240184 
   14100    541.92144   -107.32832   0.49034191   -106.83798    13328.228    4.2375787    4.2375787    4.2375787    13328.228     2181.328    10333.453    27469.904   -21914.895   -8896.0346     6421.913    76.094512 
   14200    736.50919   -107.50511   0.66640899    -106.8387   -3176.1186     4.239774     4.239774     4.239774   -3176.1186    -1601.703    -11627.44    3700.7874    4622.4077     3233.735   -3405.1284    76.212835 
   14300    622.23112   -107.40263   0.56300779   -106.83962    1010.5121    4.2519762    4.2519762    4.2519762    1010.5121   -16212.642    21090.209    -1846.031    15702.217    563.44054   -7101.1213    76.872763 
   14400    823.82806   -107.58429   0.74541694   -106.83887    5556.8049    4.2364866    4.2364866    4.2364866    5556.8049   -6364.7091    15593.858    7441.2659   -24168.549   -5673.6428    218.10527    76.035694 
   14500    538.30445   -107.33183   0.48706918   -106.84476   -590.41701    4.2460812    4.2460812    4.2460812   -590.41701   -12109.578    434.43459    9903.8919    3402.9599    1455.1071    4893.0582    76.553468 
   14600    694.09508   -107.46807   0.62803181   -106.84004   -13634.514    4.2510119    4.2510119    4.2510119   -13634.514   -26223.483    150.49942   -14830.559     20718.72    817.96719   -8702.2013    76.820471 
   14700    740.86616   -107.50607   0.67035127   -106.83572    19800.452    4.2359163    4.2359163    4.2359163    19800.452     9597.462    29817.344     19986.55   -14231.205    -4122.227    1348.9509    76.004993 
   14800    886.01368   -107.63988    0.8016838    -106.8382   -13152.717    4.2495508    4.2495508    4.2495508   -13152.717   -9892.3114    -19045.96   -10519.879    5213.5626   -2026.2907    1665.6467    76.741287 
   14900    546.43123   -107.33646   0.49442246   -106.84203    5427.2387    4.2439316    4.2439316    4.2439316    5427.2387    789.72699    11245.036    4246.9527    18191.879     3393.335   -13360.066    76.437261 
   15000    867.32921   -107.62519   0.78477769   -106.84041    3667.0375    4.2383932    4.2383932    4.2383932    3667.0375   -869.23636    19340.604   -7470.2554   -1203.6848   -5832.0124    6228.5981    76.138395 
   15100    746.60476   -107.51525   0.67554368    -106.8397   -1023.5131    4.2501618    4.2501618    4.2501618   -1023.5131   -14459.228    5847.8099    5540.8789   -2255.7256   -2450.4016   -3371.3224    76.774395 
   15200    616.53287   -107.39836    0.5578519   -106.84051   -104.98571    4.2417248    4.2417248    4.2417248   -104.98571   -10491.543     8266.689    1909.8969    10632.295    3357.5093   -7888.9886    76.318085 
   15300    490.55515    -107.2872   0.44386461   -106.84333     4518.988    4.2423602    4.2423602    4.2423602     4518.988   -3999.7696    25023.648   -7466.9147   -79.003327   -8510.9956     4758.995    76.352388 
   15400    876.34493   -107.63199   0.79293531   -106.83906   -2210.9608    4.2467617    4.2467617    4.2467617   -2210.9608   -12735.261    10129.794   -4027.4153   -13894.517    2021.8148   -3961.0984    76.590282 
   15500    769.21583   -107.53569   0.69600265   -106.83969     10439.58    4.2421644    4.2421644    4.2421644     10439.58    5525.3621    12305.754    13487.623    8167.8443       94.273   -3680.8663    76.341818 
   15600    599.95882   -107.38685   0.54285534   -106.84399     -8276.18    4.2466417    4.2466417    4.2466417     -8276.18    4684.5479   -1067.8617   -28445.226    -4471.195   -14056.597   -2075.9066    76.583793 
   15700    708.93166   -107.48429   0.64145626   -106.84284    6396.2351    4.2422156    4.2422156    4.2422156    6396.2351    8056.0439    11184.148   -51.486099   -10179.607    3000.1827    1143.1077    76.344581 
   15800    997.51732   -107.74177   0.90257463    -106.8392    4732.7426    4.2434221    4.2434221    4.2434221    4732.7426    16914.471   -8266.1012    5549.8575    10185.491    -3011.233   -5008.1944    76.409737 
   15900    458.15135   -107.26059   0.41454497   -106.84604   -4222.1345    4.2474504    4.2474504    4.2474504   -4222.1345    6866.7745   -612.95828    -18920.22   -1354.2767   -14207.079    338.70816    76.627552 
   16000    499.17272    -107.2983   0.45166197   -106.84664   -9376.0181    4.2423873    4.2423873    4.2423873   -9376.0181   -14658.397   -3797.8125   -9671.8447   -7225.4094    6169.4967    7679.7053    76.353849 
   16100    1016.1565   -107.75817   0.91943977   -106.83873    2411.7957    4.2453134    4.2453134    4.2453134    2411.7957    7204.2727   -7619.7613    7650.8757   -309.08291    2408.3064   -4288.1114     76.51195 
   16200    732.53767   -107.50537   0.66281547   -106.84256   -10337.036    4.2504696    4.2504696    4.2504696   -10337.036   -7558.4351    -1629.711   -21822.962    2502.0166    -11943.05     5632.881    76.791076 
   16300    473.85127   -107.27306   0.42875059   -106.84431    -5733.901    4.2419178    4.2419178    4.2419178    -5733.901   -10534.519    6317.5851   -12984.769   -9048.3446    8001.7278    5267.8296    76.328503 
   16400    985.93727   -107.73103   0.89209676   -106.83893    7349.6165    4.2452689    4.2452689    4.2452689    7349.6165    23672.035   -8769.7416    7146.5561   -6979.8974     5089.593   -200.28192    76.509543 
   16500    882.14203   -107.63902   0.79818065   -106.84084    2576.6077    4.2447105    4.2447105    4.2447105    2576.6077      9202.23    12396.217   -13868.624    5225.4286   -7498.5998     2279.534    76.479357 
   16600    233.17658   -107.05943   0.21098307   -106.84844    7920.7737    4.2446909    4.2446909    4.2446909    7920.7737     9250.879    26969.947   -12458.505   -13709.219    13169.342    4978.0985      76.4783 
   16700     917.6064   -107.66645   0.83026955   -106.83618   -3870.5692    4.2553372    4.2553372    4.2553372   -3870.5692    20121.911   -9888.3797   -21845.239   -2457.2324    6095.4639    516.18276    77.055196 
   16800    838.31839   -107.59407   0.75852809   -106.83554    22351.145    4.2357509    4.2357509    4.2357509    22351.145    37811.452    17796.823     11445.16   -1914.2549   -2663.5745    2181.0977    75.996088 
   16900    427.60194   -107.23419   0.38690322   -106.84729   -3555.5797    4.2430634    4.2430634    4.2430634   -3555.5797   -2077.1126    10552.521   -19142.148   -14917.035    11525.718    10350.245    76.390359 
   17000    656.44549   -107.43691   0.59396567   -106.84295   -13181.511    4.2563462    4.2563462    4.2563462   -13181.511   -3020.8973   -24466.548   -12057.087    677.14166    6733.1023    -6416.227    77.110023 
   17100     966.3014   -107.70955   0.87432981   -106.83522    21425.646    4.2334502    4.2334502    4.2334502    21425.646    22177.181    20420.834    21678.921    2233.7521   -6832.2477    -20.32221    75.872321 
   17200    516.19623   -107.31174    0.4670652   -106.84468   -4288.6734    4.2501538    4.2501538    4.2501538   -4288.6734   -4170.9181     9109.347   -17804.449   -4916.4114    10735.886    12545.017    76.773962 
   17300    565.04597   -107.35327   0.51126547     -106.842   -6538.2687    4.2521208    4.2521208    4.2521208   -6538.2687    15325.372   -11089.304   -23850.874    1194.4087   -377.51957   -11350.846    76.880602 
   17400    957.85402   -107.69912   0.86668645   -106.83243    31821.256    4.2285717    4.2285717    4.2285717    31821.256    37329.494    37884.858    20249.416    15085.752   -9647.0237   -3913.5231    75.610322 
   17500    679.05539   -107.45842   0.61442358     -106.844   -2733.0553    4.2520697    4.2520697    4.2520697   -2733.0553    14323.993    418.23469   -22941.394   -6753.6049     12984.73    5913.7953    76.877831 
   17600    401.73749    -107.2059   0.36350052    -106.8424   -14551.794    4.2549116    4.2549116    4.2549116   -14551.794    20877.867   -30829.865   -33703.385   -2961.3927   -1356.5953   -13925.064    77.032081 
   17700    850.41715   -107.60051   0.76947531   -106.83103    21914.797    4.2281606    4.2281606    4.2281606    21914.797    33273.391    18677.585    13793.415    13264.337   -9165.8647   -4093.4094    75.588276 
   17800     854.9001   -107.61257   0.77353158   -106.83904    -7183.472    4.2511975    4.2511975    4.2511975    -7183.472    13808.946    -13516.77   -21842.593   -11517.982    8155.4682    3286.1073    76.830534 
   17900    505.06125   -107.30307   0.45699003   -106.84608   -25695.944    4.2517547    4.2517547    4.2517547   -25695.944   -4717.9469   -28146.009   -44223.875   -4240.4403    2697.9044   -16078.184    76.860745 
   18000    810.51928   -107.57252   0.73337487   -106.83914    12698.443    4.2267317    4.2267317    4.2267317    12698.443    12585.514    29724.026   -4214.2102    564.74591   -14586.337   -7253.3514    75.511665 
   18100    1036.6597   -107.77636   0.93799144   -106.83837   -11873.368    4.2566647    4.2566647    4.2566647   -11873.368    448.44751   -8884.0066   -27184.545   -3742.0664     145.5748    3986.4531    77.127335 
   18200    590.10922   -107.37895   0.53394323   -106.84501   -13621.819    4.2470141    4.2470141    4.2470141   -13621.819    14236.887   -22008.687   -33093.656   -2574.8267    2993.3661   -14419.376    76.603941 
   18300    511.28893   -107.30304   0.46262497   -106.84041    14531.732    4.2284185    4.2284185    4.2284185    14531.732    21016.418    31440.128   -8861.3509    2540.9122   -19759.463   -6403.3989    75.602105 
   18400    947.94579   -107.69154   0.85772127   -106.83382   -9954.0782     4.257355     4.257355     4.257355   -9954.0782    6372.2154   -8381.7988   -27852.651    5804.5449    585.96278    1555.0284    77.164862 
   18500    596.41191   -107.37825   0.53964603   -106.83861   -2252.0478    4.2436462    4.2436462    4.2436462   -2252.0478     30657.77   -18059.095   -19354.819   -5136.2027   -4169.5171   -15115.416    76.421843 
   18600    403.61359   -107.20636   0.36519806   -106.84116   -148.43904     4.235635     4.235635     4.235635   -148.43904   -7756.9813    25697.759   -18386.095    14256.652   -17927.392   -575.07738     75.98985 
   18700    865.37993   -107.62211   0.78301395   -106.83909    370.21933    4.2477182    4.2477182    4.2477182    370.21933    4992.8854    10067.095   -13949.322    853.63963    397.96524    2418.0773    76.642049 
   18800    825.73952   -107.58685   0.74714647    -106.8397    10217.212    4.2417772    4.2417772    4.2417772    10217.212    16487.209    10437.168     3727.258   -7066.2887   -5787.2424   -8456.9027    76.320913 
   18900    397.60227   -107.20777   0.35975889   -106.84801   -12351.684    4.2462032    4.2462032    4.2462032   -12351.684   -33571.472    21314.418   -24797.998    9570.6459   -16376.287    -1526.355     76.56007 
   19000    784.11937   -107.55266   0.70948769   -106.84317    6192.7167    4.2390068    4.2390068    4.2390068    6192.7167   -3341.3942    22014.475   -94.931064    286.80262    5791.6864    6307.8578    76.171469 
   19100    977.73063   -107.72537   0.88467122   -106.84069    6350.0947    4.2451228    4.2451228    4.2451228    6350.0947    18017.664   -4153.6738    5186.2939   -174.62755   -2665.0527   -4867.5517    76.501647 
   19200    446.63651   -107.24991    0.4041261   -106.84579   -12452.992    4.2522019    4.2522019    4.2522019   -12452.992   -27997.097     24106.19   -33468.071   -463.36727   -16210.496   -4912.2272    76.885002 
   19300     661.0467   -107.43557   0.59812894   -106.83744    14794.044    4.2337418    4.2337418    4.2337418    14794.044    11777.789    30013.166    2591.1763    6159.5241    13732.511    8212.1286    75.887999 
   19400    884.58139   -107.63708   0.80038783   -106.83669    359.94294    4.2493243    4.2493243    4.2493243    359.94294    11604.207   -3591.6555   -6932.7226    -2695.929   -5449.9419   -4031.3077    76.729014 
   19500    610.94719   -107.39299   0.55279786   -106.84019   -12724.535    4.2501992    4.2501992    4.2501992   -12724.535   -16611.096    10988.663   -32551.172    334.46212   -19207.505    -7274.432    76.776418 
   19600    610.17241   -107.39067   0.55209682   -106.83857    16260.178    4.2321352    4.2321352    4.2321352    16260.178    19663.536    22861.115    6255.8831    9737.3757    11365.833    5561.3801     75.80164 
   19700    995.49764   -107.73828   0.90074718   -106.83753   -8652.7165    4.2534147    4.2534147    4.2534147   -8652.7165    4439.7989    -16541.86   -13856.089   -8718.4578   -4189.9905    4162.6721    76.950806 
   19800    825.79154   -107.58641   0.74719354   -106.83922    4748.0648    4.2437356    4.2437356    4.2437356    4748.0648    2580.3119    22910.798   -11246.915    6563.4154    -18065.16    -9150.621    76.426675 
   19900    619.64078   -107.40046     0.560664    -106.8398    8136.3744     4.233544     4.233544     4.233544    8136.3744    13652.008     10653.89     103.2254    3565.4076    13179.746    7303.6465    75.877363 
   20000    780.14641   -107.54391   0.70589287   -106.83802    -13095.74    4.2566779    4.2566779    4.2566779    -13095.74   -10366.197   -4310.0989   -24610.925    -3270.623    2126.1687    14160.487    77.128051 
   20100    769.50976   -107.53024    0.6962686   -106.83397    14489.512    4.2410668    4.2410668    4.2410668    14489.512    8611.8146    43569.639    -8712.918    4390.0808   -9494.3893   -8541.8519    76.282572 
   20200    417.84435     -107.218   0.37807435   -106.83992    1780.5331    4.2365203    4.2365203    4.2365203    1780.5331    3261.3564    15197.533    -13117.29    1485.6464    15453.606    14087.313    76.037506 
   20300    618.43187   -107.40192   0.55957015   -106.84235   -7306.5146    4.2516466    4.2516466    4.2516466   -7306.5146   -5244.1541    11124.377   -27799.767   -3169.4124    2788.4662     15059.97    76.854883 
   20400    992.13062   -107.73258   0.89770063   -106.83488    17089.303    4.2379664    4.2379664    4.2379664    17089.303    17006.708    32658.138    1603.0644   -6625.1272   -564.97766   -5699.4324    76.115397 
   20500    484.26678   -107.28373   0.43817476   -106.84556   -1169.6136    4.2403034    4.2403034    4.2403034   -1169.6136    9141.9088   -6.2388078   -12644.511    6536.7477    12526.202    16076.348    76.241386 
   20600    661.14552   -107.44196   0.59821836   -106.84374   -5112.4953    4.2510997    4.2510997    4.2510997   -5112.4953   -2204.3504    12218.784    -25351.92   -7830.4792    2912.0338    17203.319     76.82523 
   20700    1158.3983   -107.88109    1.0481431   -106.83295     16861.64    4.2368689    4.2368689    4.2368689     16861.64    15613.175    27391.398    7580.3469   -4529.9401    2453.3776   -9987.4575    76.056282 
   20800    433.84774   -107.23904   0.39255455   -106.84648   -1991.7553    4.2422514    4.2422514    4.2422514   -1991.7553    3578.8907    2980.5258   -12534.682    12513.122     13395.29    14329.526    76.346511 
   20900    461.06208   -107.26271   0.41717866   -106.84553   -7165.2725     4.249687     4.249687     4.249687   -7165.2725   -8939.0351     17062.98   -29619.762   -7135.3312    1652.6842    18845.264    76.748663 
   21000    1036.5342   -107.77193   0.93787793   -106.83405    6253.1394    4.2377941    4.2377941    4.2377941    6253.1394     2439.588    15670.849    648.98155     5089.872   -4858.1298   -9973.4196    76.106117 
   21100    363.81047   -107.17309   0.32918336   -106.84391    2912.5008    4.2417643    4.2417643    4.2417643    2912.5008     2790.844    14574.746   -8628.0882    14708.223    12279.673    16147.227    76.320215 
   21200    544.30552   -107.33592   0.49249907   -106.84342   -16887.786    4.2479352    4.2479352    4.2479352   -16887.786   -4966.6202   -11220.903   -34475.833    -465.4585     -113.129    14791.236    76.653795 
   21300    981.49454   -107.72392   0.88807688   -106.83584    6699.8724    4.2377667    4.2377667    4.2377667    6699.8724    3307.2316    17369.092   -576.70656    853.66716   -15028.758   -2632.3639    76.104642 
   21400    663.24383   -107.44167   0.60011695   -106.84155   -769.39202    4.2447286    4.2447286    4.2447286   -769.39202    13696.132   -3973.3758   -12030.932    7203.4409    9636.1995    16937.451    76.480333 
   21500    560.06198   -107.34971   0.50675585   -106.84296    -13264.02    4.2469278    4.2469278    4.2469278    -13264.02    686.48204     -3704.12   -36774.421   -690.28289   -3229.2042    12852.397    76.599269 
   21600    828.56946   -107.58907   0.74970706   -106.83936    7895.4355    4.2362631    4.2362631    4.2362631    7895.4355   -968.93116    35610.086   -10954.849   -10695.971   -19068.739   -7279.2318    76.023657 
   21700     750.2494   -107.51931   0.67884142   -106.84046    5529.5618    4.2444804    4.2444804    4.2444804    5529.5618    17526.054    13227.426   -14164.795    5400.4701    8039.9012    15552.381    76.466919 
   21800    447.09126   -107.24718   0.40453757   -106.84264   -19293.616    4.2500372    4.2500372    4.2500372   -19293.616   -1498.3624   -11470.364   -44912.121   -4811.3595   -8481.3695    15082.856    76.767639 
   21900    581.99732   -107.36569   0.52660341   -106.83909    5350.0041    4.2332246    4.2332246    4.2332246    5350.0041    79.267977     28145.09   -12174.346   -3744.8028   -23314.454   -10495.353    75.860192 
   22000     979.0407   -107.72317    0.8858566   -106.83731   -938.69177    4.2441291    4.2441291    4.2441291   -938.69177    15447.409   -8287.4128    -9976.072    8223.4816    7493.0694    10709.843    76.447936 
   22100    589.38935   -107.37674   0.53329187   -106.84345   -23936.282    4.2520245    4.2520245    4.2520245   -23936.282    -18020.57    -10301.12   -43487.155   -3367.3381   -15184.052    12769.553    76.875381 
   22200     529.6189   -107.32271   0.47921031    -106.8435    5471.0794    4.2277909    4.2277909    4.2277909    5471.0794    2395.0893    26089.242   -12071.093    -1175.416   -20499.352    -12142.14    75.568449 
   22300    1090.8376   -107.82805    0.9870128   -106.84104   -4926.5387    4.2485585    4.2485585    4.2485585   -4926.5387    7738.4221   -1222.1388   -21295.899    2672.1418     7463.083   -65.327024    76.687542 
   22400    709.02577   -107.48292   0.64154142   -106.84138   -17377.444    4.2528698    4.2528698    4.2528698   -17377.444   -8876.7972    2608.5652     -45864.1    -2211.849   -20375.151    9695.3721    76.921239 
   22500    408.64201   -107.20898   0.36974788   -106.83923     10683.58     4.226735     4.226735     4.226735     10683.58    14202.283    32642.718   -14794.262   -9254.3341   -10547.679   -15488.519    75.511839 
   22600    929.46667    -107.6812   0.84100098    -106.8402    -2630.046    4.2474465    4.2474465    4.2474465    -2630.046     10916.96    3221.8213   -22028.919   -7156.5961    12192.187   -8848.8747    76.627341 
   22700    733.24474   -107.50302   0.66345525   -106.83957    4220.1026    4.2477428    4.2477428    4.2477428    4220.1026    20386.254    20108.839   -27834.785    -525.5184   -18936.786    5898.2803     76.64338 
   22800     337.2154   -107.14807   0.30511958   -106.84295    922.70691    4.2375888    4.2375888    4.2375888    922.70691    17361.963     11264.51   -25858.352   -14097.334   -7066.1705   -15710.863    76.095057 
   22900    681.96174   -107.45773   0.61705332   -106.84067   -3109.5219    4.2448245    4.2448245    4.2448245   -3109.5219    18432.233   -3036.0752   -24724.724    52.619159    17598.461   -6542.9599    76.485521 
   23000    920.56759   -107.66968    0.8329489   -106.83673   -451.14316    4.2431899    4.2431899    4.2431899   -451.14316    7042.9756    11496.638   -19893.043   -1148.7469   -16742.314    3185.0147    76.397193 
   23100    416.45977    -107.2234   0.37682155   -106.84658    -14181.46    4.2417802    4.2417802    4.2417802    -14181.46   -6055.1194   -7020.7734   -29468.487   -12335.763   -4756.5474    -15971.01    76.321077 
   23200     680.4871   -107.46102   0.61571903    -106.8453   -8016.7731    4.2367759    4.2367759    4.2367759   -8016.7731   -5096.6059    4184.0337   -23137.747    186.63242    19034.072   -4454.7542    76.051272 
   23300    1086.5737   -107.82128   0.98315468   -106.83812   -6854.5329    4.2517516    4.2517516    4.2517516   -6854.5329    6392.0844   -4177.3433    -22778.34    5915.8653   -8023.3402    2976.8444    76.860577 
   23400    607.74173   -107.39604   0.54989749   -106.84614   -9274.4737    4.2411651    4.2411651    4.2411651   -9274.4737    1200.2395   -10370.043   -18653.618   -11530.082   -1359.9521   -19642.125    76.287879 
   23500    555.25738   -107.34661   0.50240855    -106.8442    3173.0048    4.2290804    4.2290804    4.2290804    3173.0048    9658.6831    10791.365   -10931.033   -4538.2837    16527.147   -5726.0615    75.637616 
   23600    1018.1104   -107.76008   0.92120772   -106.83887    -9391.553    4.2556037    4.2556037    4.2556037    -9391.553    7585.1814    -15309.58   -20450.261    10964.549   -1491.3376    3420.0982    77.069676 
   23700    728.85641   -107.50697    0.6594846   -106.84749    10706.961    4.2322766    4.2322766    4.2322766    10706.961    23031.637    7380.1863    1709.0606   -7297.9437    2501.8737   -16596.062    75.809239 
   23800    352.66881   -107.17187   0.31910215   -106.85277    5364.6704    4.2326049    4.2326049    4.2326049    5364.6704    19236.812    16944.183   -20086.984   -7943.3026    20384.875   -1137.5496    75.826881 
   23900    815.45621   -107.57729   0.73784192   -106.83945   -17322.261    4.2586308    4.2586308    4.2586308   -17322.261   -12579.233   -9385.2329   -30002.317     8460.225   -1686.0614    6782.0601     77.23426 
   24000    833.09412   -107.58918   0.75380107   -106.83537      27130.7    4.2253237    4.2253237    4.2253237      27130.7    29207.898    35195.512    16988.691   -7440.1422   -718.57477   -10959.603    75.436226 
   24100    585.05057   -107.37558   0.52936605   -106.84621   -10711.548    4.2419245    4.2419245    4.2419245   -10711.548   -3702.9467   -2735.7571    -25695.94   -11686.082    20993.782    3635.5965    76.328865 
   24200    649.34255   -107.43015   0.58753879   -106.84261    -13049.54    4.2488609    4.2488609    4.2488609    -13049.54   -18900.841     5249.811   -25497.589    1609.4463   -5804.6522    12581.898    76.703915 
   24300    888.98667   -107.63986   0.80437382   -106.83548    26102.198    4.2249672    4.2249672    4.2249672    26102.198    27009.385    32505.932    18791.276    1389.5639   -10055.979   -5050.7671    75.417134 
   24400    734.66149   -107.50672   0.66473716   -106.84199   -16424.376    4.2501942    4.2501942    4.2501942   -16424.376   -8691.5495   -9030.4852   -31551.093   -4963.8123    19657.894   -750.50494     76.77615 
   24500    292.30423   -107.11112   0.26448301   -106.84664   -1796.2669    4.2396277    4.2396277    4.2396277   -1796.2669   -1454.8312    19146.115   -23080.084    103.14209   -11302.384    9664.5559    76.204945 
   24600    811.91779   -107.57577   0.73464028   -106.84113    8926.0797     4.233038     4.233038     4.233038    8926.0797    11498.479    17621.001   -2341.2415    5841.1152   -17834.753    2113.3397    75.850158 
   24700    930.60765    -107.6806   0.84203336   -106.83857   -11670.798    4.2495675    4.2495675    4.2495675   -11670.798   -7309.1564   -3931.6021   -23771.637   -3194.2881    16245.997   -4145.8605    76.742189 
   24800    362.00766   -107.17594   0.32755214   -106.84839    6500.5928    4.2298201    4.2298201    4.2298201    6500.5928    13413.798     21595.71   -15507.729    1161.3165   -18169.399    3016.0641    75.677308 
   24900    724.18235   -107.50673   0.65525541   -106.85148   -7863.6928    4.2433544    4.2433544    4.2433544   -7863.6928   -2023.8927   -4347.3349   -17219.851    7497.0098   -16814.459    4108.7269    76.406079 
   25000    1147.6641   -107.87877    1.0384306   -106.84034    1093.2078    4.2440073    4.2440073    4.2440073    1093.2078     9280.799     1594.978   -7596.1537    -653.4108    8528.6374   -4254.7387    76.441355 
   25100    471.42719    -107.2744   0.42655723   -106.84784     6858.169    4.2312044    4.2312044    4.2312044     6858.169    22166.522     17544.33   -19136.345    863.02413   -23412.189     4518.164    75.751639 
   25200      441.854   -107.24827   0.39979879   -106.84847   -22195.896    4.2501773    4.2501773    4.2501773   -22195.896   -20101.995   -16785.465   -29700.227    12620.458   -6820.4436    4402.9913    76.775232 
   25300    980.21923     -107.728   0.88692295   -106.84108     12668.67     4.231698     4.231698     4.231698     12668.67    13333.802    10635.749    14036.458    9541.3956    7349.3888   -2898.8871    75.778148 
   25400    724.79235    -107.5035   0.65580735   -106.84769    9019.1811    4.2336073    4.2336073    4.2336073    9019.1811    12424.998    20626.624   -5994.0792    -5423.709   -20876.943    6422.8629     75.88077 
   25500    417.08471   -107.22637   0.37738701   -106.84898   -24973.669    4.2522449    4.2522449    4.2522449   -24973.669   -27872.694   -25924.587   -21123.726    16796.296   -4223.4734    12460.735    76.887333 
   25600    778.39205   -107.54642   0.70430549   -106.84212    16714.261    4.2301726    4.2301726    4.2301726    16714.261     6029.322    22246.888    21866.574    4384.4725    12694.618   -6626.4872    75.696234 
   25700    1023.9075   -107.76645   0.92645298      -106.84    130.99475    4.2403186    4.2403186    4.2403186    130.99475    7290.9775    1687.3878    -8585.381   -7260.0191   -13141.932    7436.0329    76.242206 
   25800    427.61557   -107.23563   0.38691555   -106.84871   -11376.629    4.2440199    4.2440199    4.2440199   -11376.629   -10825.737   -8120.1445   -15184.005    18920.794   -3132.8226    10313.552    76.442032 
   25900    481.52046   -107.28466   0.43568983   -106.84897    9393.1387    4.2315562    4.2315562    4.2315562    9393.1387   -2364.3098    22732.926    7810.7996    4683.2282    17664.449   -5285.9749    75.770535 
   26000    1110.6968   -107.84485    1.0049818   -106.83987   -3286.2253     4.244815     4.244815     4.244815   -3286.2253    7153.9642   -2322.1599    -14690.48   -4855.6301   -1245.1316     2889.918    76.485006 
   26100    596.24202   -107.38687   0.53949231   -106.84738    1445.3248     4.238765     4.238765     4.238765    1445.3248    8738.0838    2646.4513   -7048.5608    17115.227   -855.80017    6776.9516    76.158437 
   26200    370.22975   -107.18606   0.33499166   -106.85106   -4675.2046    4.2370838    4.2370838    4.2370838   -4675.2046   -21856.805      10515.3   -2684.1082    3846.5247    19198.588   -2421.4759    76.067851 
   26300    1017.2482   -107.76268   0.92042758   -106.84226   -4277.5086    4.2409544    4.2409544    4.2409544   -4277.5086   -133.46336   -2503.5697   -10195.493   -7229.5634   -1392.1675    2001.7907    76.276508 
   26400    787.76404   -107.55585   0.71278546   -106.84307    8360.8782    4.2364393    4.2364393    4.2364393    8360.8782     16180.16    12974.209   -4071.7343    11406.408    -2223.939    5232.2439    76.033145 
   26500    422.28796   -107.23066   0.38209502   -106.84856   -11332.043    4.2421315    4.2421315    4.2421315   -11332.043   -23351.719    4215.3936   -14859.805    6232.2054    23557.327    -4222.764     76.34004 
   26600     771.9525   -107.54232   0.69847884   -106.84384   -3497.6858     4.236837     4.236837     4.236837   -3497.6858   -1434.8176    10231.681   -19289.921   -10418.687   -5956.3123    1749.1902    76.054562 
   26700    815.14828   -107.57993   0.73756329   -106.84237    9223.6197    4.2375124    4.2375124    4.2375124    9223.6197    23670.659    20549.768   -16549.568    3320.8807   -10918.044    5076.9324    76.090939 
   26800    724.61674   -107.50036   0.65564845   -106.84471    1942.5234    4.2399413    4.2399413    4.2399413    1942.5234    5750.0595    12447.981    -12370.47    9611.0676    21488.364   -1123.7817    76.221857 
   26900    563.47896    -107.3564    0.5098476   -106.84655   -821.96635    4.2381037    4.2381037    4.2381037   -821.96635    5789.9292    11735.971   -19991.799    -6530.766   -11865.846     1904.353    76.122797 
   27000    719.49187   -107.49584   0.65101136   -106.84483    5419.3007    4.2390512    4.2390512    4.2390512    5419.3007    15054.666     17533.02   -16329.784   -3923.7551   -21320.079    1692.8211    76.173862 
   27100    931.89195   -107.68348   0.84319542   -106.84028    12378.831    4.2368473    4.2368473    4.2368473    12378.831    29107.707    7324.5515    704.23464    6400.8729    12242.165   -871.73237    76.055115 
   27200    494.15377   -107.29557   0.44712071   -106.84845   -12454.954    4.2426429    4.2426429    4.2426429   -12454.954   -9168.0242      1021.53   -29218.368   -2541.0528   -18248.047    1966.8696    76.367651 
   27300    493.54407    -107.2973   0.44656905   -106.85073   -1233.3352    4.2349871    4.2349871    4.2349871   -1233.3352   -2146.4662    18048.469   -19602.009   -7432.4396   -19866.516    2413.4681    75.954982 
   27400    1035.3099   -107.77978   0.93677016   -106.84301    16186.528    4.2353786    4.2353786    4.2353786    16186.528    34448.004    12802.091    1309.4904   -1398.3789    8798.6372   -2990.3933    75.976049 
   27500    731.75371   -107.50916   0.66210614   -106.84706   -18423.545      4.25062      4.25062      4.25062   -18423.545   -18832.891    382.14169   -36819.885    -4955.981   -23171.326    620.02858    76.799226 
   27600    409.40544   -107.21923   0.37043865   -106.84879    3988.0716    4.2291401    4.2291401    4.2291401    3988.0716   -6937.8972    24913.739   -6011.6265   -9135.1858    -12980.22      1543.36    75.640817 
   27700    891.36148   -107.65282    0.8065226    -106.8463    8547.4813    4.2351415    4.2351415    4.2351415    8547.4813    19104.933   -4784.4575    11321.968     1595.266    11410.569   -2766.0646    75.963293 
   27800    925.84737   -107.67826   0.83772616   -106.84054   -15271.269    4.2522626    4.2522626    4.2522626   -15271.269   -9460.5696   -12655.371   -23697.867    1040.7088   -19117.692    1419.7202    76.888294 
   27900     458.7648    -107.2609   0.41510003    -106.8458    8605.9018    4.2245856    4.2245856    4.2245856    8605.9018    4641.0177    14174.995    7001.6929   -11192.103    -9630.197   -1622.9998    75.396702 
   28000    454.62813   -107.26404   0.41135708   -106.85268    1379.3773    4.2384577    4.2384577    4.2384577    1379.3773    3991.4251   -5583.2524     5729.959    4865.1674    15314.767   -311.41905    76.141872 
   28100    1077.0818   -107.81131   0.97456621   -106.83675   -9248.7236    4.2519865    4.2519865    4.2519865   -9248.7236   -948.49772   -8311.1531    -18486.52    8225.3172   -4222.2507    613.83179    76.873317 
   28200    690.55309    -107.4668   0.62482695   -106.84197    14376.943    4.2235251    4.2235251    4.2235251    14376.943    14043.553    19460.159    9627.1166   -13294.835   -5842.9316    1511.9933    75.339934 
   28300    290.96518   -107.11792   0.26327141   -106.85465   -9987.4517    4.2379233    4.2379233    4.2379233   -9987.4517   -16483.872   -13312.431   -166.05205    5154.3424    16953.502   -330.43939    76.113076 
   28400    980.85089   -107.73063    0.8874945   -106.84313   -2971.9191     4.247591     4.247591     4.247591   -2971.9191    1117.9639    2721.4084    -12755.13    5208.9381    5729.0541    1765.7434     76.63516 
   28500    981.38586   -107.72951   0.88797855   -106.84154    9221.4339    4.2322137    4.2322137    4.2322137    9221.4339    24351.956    376.42499    2935.9202   -12652.165   -2643.4012    5149.6355    75.805857 
   28600    304.91893   -107.12603   0.27589705   -106.85014   -5405.6935     4.237534     4.237534     4.237534   -5405.6935   -5341.7795   -10479.435   -395.86627     8104.604    19713.912   -67.417939    76.092102 
   28700     700.3668   -107.47974    0.6337066   -106.84603    802.14846    4.2406879    4.2406879    4.2406879    802.14846     5161.951    8768.6002   -11524.106    3094.3885    2406.8661    2852.7026    76.262129 
   28800    966.77959   -107.71501   0.87476249   -106.84025    3763.4159    4.2385176    4.2385176    4.2385176    3763.4159    22910.725   -499.33279   -11121.145   -4308.6213   -10755.014    1520.9645    76.145102 
   28900    580.53296   -107.37146   0.52527842   -106.84618    3632.2591    4.2341919    4.2341919    4.2341919    3632.2591    16823.524    -6545.201    618.45439    11184.691     19297.86    546.71448    75.912205 
   29000    479.58395   -107.28244   0.43393764    -106.8485    1696.8768    4.2385854    4.2385854    4.2385854    1696.8768   -1450.9398    25875.643   -19334.072     2387.823   -2167.5556    1293.4191    76.148758 
   29100     903.0107   -107.65906   0.81706306   -106.84199   -1594.0957    4.2431892    4.2431892    4.2431892   -1594.0957    10653.011    7401.4196   -22836.718   -186.14509   -20016.047    615.90438    76.397154 
   29200    914.01298   -107.66754   0.82701815   -106.84052    15600.914    4.2317418    4.2317418    4.2317418    15600.914    33123.913    5390.3477    8288.4824    8127.0998    12339.808   -1403.9205    75.780506 
   29300    480.74272   -107.28397   0.43498611   -106.84898   -6641.6893    4.2386773    4.2386773    4.2386773   -6641.6893   -15983.065    20603.455   -24545.457    1754.5901   -9992.7718    -3346.126     76.15371 
   29400    618.82739   -107.40704   0.55992803   -106.84711   -8925.1665    4.2429453    4.2429453    4.2429453   -8925.1665   -4115.6628    892.46225   -23552.299    -4983.636   -19435.016    3575.7442     76.38398 
   29500    970.95445   -107.71739   0.87853999   -106.83885    11763.894    4.2318277    4.2318277    4.2318277    11763.894    32372.442   -6207.3508    9126.5903   -5183.9743     7896.306   -1998.3949    75.785119 
   29600    497.89612   -107.29866   0.45050688   -106.84815   -9236.7572    4.2394061    4.2394061    4.2394061   -9236.7572   -15170.913    20304.546   -32843.905    5586.5363   -20162.632   -1986.9604       76.193 
   29700    441.17848   -107.24866   0.39918756   -106.84947   -8600.3738    4.2413957    4.2413957    4.2413957   -8600.3738    -12909.62    9160.0819   -22051.584   -11551.085     -13378.5    108.29454    76.300322 
   29800     961.8901   -107.71165   0.87033838   -106.84131    7514.9856    4.2341305    4.2341305    4.2341305    7514.9856    23741.479    -9712.293    8515.7711   -15594.958    8638.0097    -1701.573    75.908901 
   29900    870.24489   -107.63124   0.78741587   -106.84382   -957.63853    4.2370883    4.2370883    4.2370883   -957.63853    5277.4483    16645.176    -24795.54    9692.2813   -23852.557   -184.00767    76.068097 
   30000    534.43124   -107.33045   0.48356462   -106.84688   -6962.0515     4.241051     4.241051     4.241051   -6962.0515   -3347.1478   -2081.7299   -15457.277   -9122.8519    -8680.607   -222.74248    76.281722 
   30100    632.86811   -107.41783   0.57263237    -106.8452   -959.79652     4.237843     4.237843     4.237843   -959.79652    10108.634   -24834.232    11846.208   -15227.962    11846.541    474.44845    76.108748 
   30200    987.44944   -107.73285   0.89346501   -106.83939    4337.1772    4.2335668    4.2335668    4.2335668    4337.1772    19348.675     2494.726   -8831.8697    8014.3477   -15660.598   -4866.1421    75.878591 
   30300    537.44847   -107.33182   0.48629467   -106.84552   -2192.0734    4.2415487    4.2415487    4.2415487   -2192.0734    3837.4987   -1237.2345   -9176.4843   -11033.696   -3730.7045     1754.279    76.308578 
   30400    285.75068   -107.10981   0.25855322   -106.85126   -13985.057    4.2403289    4.2403289    4.2403289   -13985.057   -17396.124   -34712.223    10153.175   -14125.978    12632.809    2092.2351    76.242761 
   30500    1045.5057   -107.78875   0.94599551   -106.84275    10251.453    4.2299511    4.2299511    4.2299511    10251.453    26655.254    913.47098    3185.6343    7663.4551   -1690.2645   -2994.9328    75.684343 
   30600    960.30662   -107.71388   0.86890561   -106.84497   -6007.3355    4.2446899    4.2446899    4.2446899   -6007.3355    4778.6997   -14985.396   -7815.3104   -14427.574    1144.9862    3815.1967    76.478246 
   30700    203.57926   -107.03874   0.18420279   -106.85454   -11091.632    4.2401489    4.2401489    4.2401489   -11091.632   -24196.985   -26037.332    16959.422   -13129.339    10491.447    140.43655    76.233053 
   30800     924.7549    -107.6819   0.83673767   -106.84516    5715.0495    4.2286398    4.2286398    4.2286398    5715.0495    9853.6003   -3095.3514      10386.9    9818.7239    1016.9795    94.584313    75.613976 
   30900     941.9493    -107.6949   0.85229552   -106.84261   -888.02416    4.2443467    4.2443467    4.2443467   -888.02416    3677.6865   -7256.3712    914.61213    -8897.642   -2293.6477    5026.5427    76.459694 
   31000    382.95979   -107.19761   0.34651006    -106.8511   -4737.3451    4.2369803    4.2369803    4.2369803   -4737.3451   -11259.865   -23822.497    20870.327   -10564.064    12344.009     1884.174    76.062278 
   31100    610.26778   -107.39898   0.55218311    -106.8468   -1707.8548    4.2332487    4.2332487    4.2332487   -1707.8548   -389.57308   -868.82353   -3865.1677    9827.2839   -3903.5974   -4207.2694    75.861487 
   31200    911.07167   -107.66415   0.82435679   -106.83979   -7110.0772    4.2448974    4.2448974    4.2448974   -7110.0772    3023.9909   -9389.9683   -14964.254    1160.0814   -16542.003    3989.1336    76.489459 
   31300    713.49535   -107.48717   0.64558559   -106.84158    9205.9538    4.2335615    4.2335615    4.2335615    9205.9538    12743.079   -1062.3576     15937.14    -8386.673    11407.056    2389.9668    75.878302 
   31400    578.17836   -107.36836   0.52314793   -106.84521   -9132.3298    4.2359361    4.2359361    4.2359361   -9132.3298   -16308.816    5476.9733   -16565.147    6579.2518    -6670.995   -4500.2485    76.006056 
   31500    654.03273   -107.43696   0.59178255   -106.84518   -6075.8223    4.2427846    4.2427846    4.2427846   -6075.8223   -8759.3675    8061.8513   -17529.951    5270.3127   -20552.509     7644.738    76.375302 
   31600     966.1124    -107.7131   0.87415881   -106.83894    10442.947    4.2338844    4.2338844    4.2338844    10442.947    19434.016     1950.389    9944.4361   -9247.0685    7230.2911   -3057.8067     75.89567 
   31700    560.20804   -107.35296   0.50688801   -106.84607   -9545.6187     4.237323     4.237323     4.237323   -9545.6187   -13874.977    1370.5761   -16132.455    6777.9077   -12228.702   -4041.1432    76.080737 
   31800    473.41008   -107.27686   0.42835139   -106.84851   -7707.0705    4.2403839    4.2403839    4.2403839   -7707.0705   -9317.2896    2006.1232   -15810.045    3756.7685   -16638.914    8244.5037    76.245732 
   31900    966.90486   -107.71514   0.87487583   -106.84027    8050.4021    4.2362197    4.2362197    4.2362197    8050.4021    28290.376    2168.0192   -6307.1889   -8643.8669    6816.0537   -4068.5548    76.021323 
   32000    670.31283   -107.45156   0.60651314   -106.84505   -670.31313    4.2359156    4.2359156    4.2359156   -670.31313    1996.8339    17094.566   -21102.339    8596.5814   -19984.526   -8139.7498    76.004954 
   32100    478.71905   -107.28029   0.43315506   -106.84713   -6771.8479    4.2404512    4.2404512    4.2404512   -6771.8479   -11016.748    11189.481   -20488.277    3484.0358   -10612.113    4351.7608    76.249359 
   32200    817.82829   -107.58102   0.73998823   -106.84104    3018.7706    4.2389758    4.2389758    4.2389758    3018.7706    17238.389    9850.5244   -18032.602   -2869.6303    14571.688   -1370.4159    76.169799 
   32300    864.92481   -107.62305   0.78260214   -106.84045    4625.1195    4.2334885    4.2334885    4.2334885    4625.1195    10521.681    13724.414   -10370.736    5573.2711   -17137.888   -10735.282    75.874379 
   32400    620.22885   -107.40531    0.5611961   -106.84411   -690.16417    4.2389249    4.2389249    4.2389249   -690.16417   -7190.6816    10411.946   -5291.7565    5594.8837   -7905.5669    4351.1012    76.167058 
   32500    631.42112   -107.41513    0.5713231    -106.8438   -4317.3981    4.2408412    4.2408412    4.2408412   -4317.3981    7140.8373    497.17949   -20590.211    121.02176    18656.146    -6020.396    76.270404 
   32600    832.36604   -107.59286   0.75314228   -106.83972    8315.0588    4.2345746    4.2345746    4.2345746    8315.0588    20487.254    13522.236   -9064.3137   -2956.8792   -5631.3672   -9909.7419    75.932792 
   32700    732.96794   -107.50456    0.6632048   -106.84136   -181.25153     4.237373     4.237373     4.237373   -181.25153   -1827.0676    3887.2904   -2603.9774    12023.931   -3480.9175    6827.8985    76.083428 
   32800    374.70064   -107.18651   0.33903701   -106.84748    -8530.807    4.2399765    4.2399765    4.2399765    -8530.807   -4180.1262    5964.7211   -27377.016    -1629.556    17532.926   -11035.414    76.223758 
   32900    812.72131   -107.57907   0.73536732    -106.8437   -24.627632    4.2373031    4.2373031    4.2373031   -24.627632    12779.532    1162.9044    -14016.32   -10435.502   -1356.2623   -9955.2909    76.079666 
   33000    915.07175   -107.66862   0.82797615   -106.84065    4526.7542    4.2369199    4.2369199    4.2369199    4526.7542   -3891.2654    10708.706    6762.8214    21702.006    -1097.268    3329.7326    76.059027 
   33100    497.76049   -107.29851   0.45038415   -106.84813   -11087.196    4.2392044    4.2392044    4.2392044   -11087.196   -14538.636    1452.1504   -20175.102    594.33531    17546.247   -8951.6593    76.182126 
   33200    728.30527   -107.50432   0.65898591   -106.84533   -5470.9042    4.2379243    4.2379243    4.2379243   -5470.9042    3809.9403   -4367.1739   -15855.479   -13971.681    480.92802   -14079.804    76.113132 
   33300    915.78716   -107.66934   0.82862347   -106.84072    1909.5121    4.2356266    4.2356266    4.2356266    1909.5121   -1701.3172    -9389.268    16819.121    21799.468   -2087.4604    2188.7475    75.989396 
   33400    546.73039   -107.34111   0.49469314   -106.84642   -10259.204    4.2385693    4.2385693    4.2385693   -10259.204   -12246.597   -8024.8701   -10506.145    3530.4362    14641.205   -5291.9333     76.14789 
   33500    544.01663   -107.33781   0.49223768   -106.84557   -11028.994    4.2406307    4.2406307    4.2406307   -11028.994    -3264.964   -8072.0242   -21749.994    -13923.25    169.52948   -13824.017    76.259046 
   33600    782.82991   -107.54902   0.70832096    -106.8407     3158.725    4.2365388    4.2365388    4.2365388     3158.725   -3299.2092    3050.3617    9725.0225    16237.313   -5487.2665    6303.5152    76.038502 
   33700    737.14268   -107.50863   0.66698219   -106.84165   -1168.6546    4.2356148    4.2356148    4.2356148   -1168.6546   -8278.5712     7716.383   -2943.7758    10792.223    13573.943   -4099.4212    75.988761 
   33800    647.01003   -107.42979   0.58542827   -106.84436   -8799.1071    4.2406268    4.2406268    4.2406268   -8799.1071   -2559.6305    280.07043   -24117.761   -13169.115    750.81321    -13724.65    76.258835 
   33900    705.02666   -107.48039   0.63792294   -106.84247    237.05899    4.2406895    4.2406895    4.2406895    237.05899      -1351.4   -7343.7729    9406.3498    11176.084   -11248.431    7679.7732    76.262217 
   34000    829.70924    -107.5897   0.75073835   -106.83896    6000.4102    4.2326508    4.2326508    4.2326508    6000.4102   -1009.6717    3326.4708    15684.431    13747.759    12217.022    -649.0496    75.829348 
   34100    623.34001   -107.40708   0.56401114   -106.84307    -4551.548     4.239989     4.239989     4.239989    -4551.548    4450.0765   -5118.0957   -12986.625    -15913.02    6228.8323   -13437.309    76.224429 
   34200    526.80116   -107.32107   0.47666076   -106.84441   -4852.9897    4.2408154    4.2408154    4.2408154   -4852.9897   -3956.5112   -10813.094     210.6355    6411.5212   -12169.608    3545.9238     76.26901 
   34300    773.19413    -107.5403    0.6996023   -106.84069    9349.8947    4.2304423    4.2304423    4.2304423    9349.8947    5842.3138     9934.605    12272.765    12621.595    7866.4768    10135.391     75.71071 
   34400    833.84134   -107.59616   0.75447717   -106.84168   -5596.3061    4.2433668    4.2433668    4.2433668   -5596.3061    1272.6462    3828.9709   -21890.535   -14707.376    9423.4818   -9814.5812    76.406747 
   34500    592.20769   -107.37952   0.53584196   -106.84368   -1719.9169    4.2408945    4.2408945    4.2408945   -1719.9169    5907.8696   -5945.6032   -5122.0172    3279.9244   -12979.725    1677.1589    76.273279 
   34600    752.68552   -107.52189   0.68104568   -106.84084    10204.075    4.2293324    4.2293324    4.2293324    10204.075    8317.8358    10805.201    11489.189    11421.017    6349.1765    18287.513    75.651137 
   34700    933.80917   -107.68457   0.84493016   -106.83964     2667.104    4.2414235    4.2414235    4.2414235     2667.104    11146.677    9857.3117   -13002.677   -3360.4544    6492.1955   -6891.7158    76.301825 
   34800    572.81754    -107.3634   0.51829735    -106.8451    1010.7326    4.2392065    4.2392065    4.2392065    1010.7326    8964.9032   -1093.5589   -4839.1467   -503.44522   -14371.759    2027.2961    76.182236 
   34900    421.41395   -107.22797    0.3813042   -106.84667    3208.4392    4.2347904    4.2347904    4.2347904    3208.4392    9993.3729    -790.0955    422.04021    9075.0695    3412.0698    19736.656    75.944403 
   35000    943.88396   -107.69324   0.85404605    -106.8392    2697.0859    4.2406346    4.2406346    4.2406346    2697.0859    5824.2016    15284.731   -13017.675    7219.4418    5993.0566     -5564.88    76.259253 
   35100     743.4574   -107.51578   0.67269588   -106.84309    8709.9844    4.2362262    4.2362262    4.2362262    8709.9844    15678.511    20615.014   -10163.572   -5163.5107   -11838.872    6403.3853    76.021672 
   35200    461.41037   -107.26537    0.4174938   -106.84788   -2050.0732    4.2382433    4.2382433    4.2382433   -2050.0732    86.183161   -1363.5213   -4872.8815    8891.3464   -2713.7877    17224.541    76.130318 
[...]
   91200    440.07512   -107.24742   0.39818922   -106.84924   -7115.9597    4.2330754    4.2330754    4.2330754   -7115.9597    22107.987   -21376.525   -22079.341   -9558.2419    542.84297    -27794.91    75.852169 
   91300    483.39638    -107.2886   0.43738721   -106.85122   -1606.6603    4.2337612    4.2337612    4.2337612   -1606.6603     14673.22   -888.79726   -18604.403     7212.835    6977.9174   -17506.532    75.889042 
   91400    1118.4061   -107.85114    1.0119574   -106.83918    3258.8063    4.2380105    4.2380105    4.2380105    3258.8063    6683.5146    9067.9634    -5975.059    2113.5107    1877.6808    9286.0499    76.117773 
   91500    665.96548   -107.44805   0.60257956   -106.84547    786.77646    4.2323155    4.2323155    4.2323155    786.77646    25179.278   -3145.6813   -19673.267   -5858.1401   -1056.1003   -28904.709    75.811325 
   91600    600.42926   -107.38969   0.54328101    -106.8464   -480.82461    4.2333836    4.2333836    4.2333836   -480.82461    2525.8521    15447.052   -19415.378    4590.7184    7597.3097    -11063.72    75.868741 
   91700    936.14153   -107.68725   0.84704053   -106.84021    2475.7253    4.2354556    4.2354556    4.2354556    2475.7253   -2998.4074    19623.828   -9198.2444     4704.322    4535.6947    1441.3336    75.980193 
   91800    667.14866   -107.44599   0.60365013   -106.84234    2482.4406    4.2332192    4.2332192    4.2332192    2482.4406    25924.421   -4450.0182   -14027.081   -402.08939    -3132.807   -28517.241    75.859899 
   91900    511.93611   -107.30536   0.46321055   -106.84215   -4055.2212    4.2366448    4.2366448    4.2366448   -4055.2212    4144.2964    3621.7927   -19931.753    -38.43958    8372.7013   -1587.5186    76.044214 
   92000     574.9611   -107.36086   0.52023688   -106.84063   -1344.1646    4.2328633    4.2328633    4.2328633   -1344.1646    337.52681    10850.961   -15220.981    3673.4647    2915.0917    1090.7828    75.840768 
   92100    683.01742   -107.45897   0.61800851   -106.84096   -36.423399    4.2329515    4.2329515    4.2329515   -36.423399     28217.87   -10739.363   -17587.777   -931.02896   -5982.8157   -25435.927    75.845512 
   92200    811.66249   -107.57438   0.73440928   -106.83998   -1772.1852    4.2371925    4.2371925    4.2371925   -1772.1852    12057.454   -1348.4609   -16025.549   -1540.7341      8139.26    5463.5192    76.073708 
   92300    672.68827    -107.4522   0.60866248   -106.84353   -299.03313    4.2329547    4.2329547    4.2329547   -299.03313   -5112.6258    26222.541   -22007.015     4770.128   -1335.4998    4951.0429    75.845683 
   92400    859.16658   -107.61883   0.77739198   -106.84143    1373.2909    4.2339866    4.2339866    4.2339866    1373.2909    15214.076    9623.9782   -20718.181   -4591.8193   -8313.1279    -20343.88    75.901165 
   92500    916.68244   -107.66876   0.82943354   -106.83932    1013.9141    4.2356142    4.2356142    4.2356142    1013.9141    15211.678    5301.9343    -17471.87   -1500.9664    7970.2721    8200.6468     75.98873 
   92600    489.52208   -107.28774   0.44292986   -106.84481     -2999.41    4.2326063    4.2326063    4.2326063     -2999.41    -4341.228    19652.212   -24309.214    4167.9282   -4738.2235     4347.247    75.826958 
   92700     579.6133   -107.36741    0.5244463   -106.84296   -4015.1558    4.2348481    4.2348481    4.2348481   -4015.1558    7544.5857   -1545.5824    -18044.47   -763.45612   -9675.6527   -14496.781    75.947503 
   92800     753.8594   -107.52117   0.68210783   -106.83906   -322.82008    4.2359185    4.2359185    4.2359185   -322.82008    25122.131   -15952.197   -10138.394    224.14987    5036.3059      15846.3    76.005109 
   92900    560.07361   -107.34972   0.50676637   -106.84295   -338.35174    4.2333323    4.2333323    4.2333323   -338.35174     5596.255    15651.574   -22262.884    2588.5561   -6118.9116    4312.8242    75.865981 
   93000    659.82178   -107.43965   0.59702062   -106.84263    1162.2107    4.2329048    4.2329048    4.2329048    1162.2107    3968.3918    12935.156   -13416.915    3279.4041   -9105.8352     -9589.29    75.842998 
   93100    871.09247   -107.62943   0.78818277   -106.84124    483.47766    4.2358712    4.2358712    4.2358712    483.47766    23117.338    -9968.484   -11698.421   -3770.2217    2350.7963    22848.581    76.002561 
   93200    863.39909   -107.62146   0.78122164   -106.84023    2429.9352      4.23521      4.23521      4.23521    2429.9352    5236.3969    18812.285   -16758.876    3721.0682   -6491.9123    6613.1555     75.96698 
   93300    606.66694   -107.39087     0.548925   -106.84195    -664.3235    4.2326543    4.2326543    4.2326543    -664.3235   -5194.0678    13652.291   -10451.194    3469.0114   -7824.3607   -6190.5837    75.829536 
   93400    560.30605   -107.35006   0.50697668   -106.84308   -6205.3071    4.2354614    4.2354614    4.2354614   -6205.3071    14655.388   -25170.642   -8100.6673   -11849.225    2990.6012    22216.422    75.980505 
   93500    847.20041   -107.60507   0.76656474    -106.8385    3273.8193    4.2344237    4.2344237    4.2344237    3273.8193     15247.18    2564.9716    -7990.694    1271.0035    -4678.943    5283.6525    75.924676 
   93600    579.66167   -107.36819   0.52449006    -106.8437   -544.46588    4.2325636    4.2325636    4.2325636   -544.46588    3322.7815    4430.7071   -9386.8862    3537.3339     -8290.36   -2645.7513    75.824663 
   93700    429.13626   -107.23707    0.3882915   -106.84878   -10656.384    4.2361547    4.2361547    4.2361547   -10656.384    9158.9009   -21874.868   -19253.184    -13588.79    4274.8922     24686.81    76.017824 
   93800     1097.485   -107.83251   0.99302745   -106.83949    5943.8536    4.2363529    4.2363529    4.2363529    5943.8536     12165.18     11461.68   -5795.2994   -1663.9894   -373.20139    1698.3999    76.028496 
   93900    847.64306   -107.61101   0.76696526   -106.84404    2637.7138    4.2324235    4.2324235    4.2324235    2637.7138   -1427.1889    11709.346   -2369.0155    4883.9692   -9375.0394   -2543.7889    75.817131 
   94000    308.44307    -107.1309   0.27908577   -106.85182   -9507.3913    4.2324935    4.2324935    4.2324935   -9507.3913   -6135.4214   -9895.1809   -12491.572   -9990.3971    4958.3922    29360.393    75.820893 
   94100    905.86834   -107.66402   0.81964871   -106.84437    2461.7505    4.2371514    4.2371514    4.2371514    2461.7505    1078.0761    8646.2035    -2339.028   -2423.5471    5433.1066    1240.2808    76.071495 
   94200    828.52872   -107.59207   0.74967019    -106.8424    1472.0506    4.2361683    4.2361683    4.2361683    1472.0506    10175.532    554.42073   -6313.8013    5137.6325    -5202.784    -2002.541    76.018557 
   94300    234.66652   -107.06145   0.21233119   -106.84912   -10213.909    4.2330802    4.2330802    4.2330802   -10213.909     8425.028   -15112.453   -23954.302   -9515.9256    4254.7274    28031.313    75.852427 
   94400    837.76577   -107.60309   0.75802808   -106.84506    1233.8158    4.2346859    4.2346859    4.2346859    1233.8158    9747.6948    9113.6838   -15159.931   -4483.0607    7001.2921    482.57359    75.938777 
   94500     1046.269   -107.78726   0.94668617   -106.84057    10704.553    4.2337802    4.2337802    4.2337802    10704.553     23733.51    9677.5074   -1297.3598    4803.8386   -1935.7845    2414.4451    75.890065 
   94600     460.5119   -107.26663   0.41668085   -106.84995    -4620.681    4.2344113    4.2344113    4.2344113    -4620.681    8161.2269   -2783.1695   -19240.101   -11480.632    4886.4343    24745.785    75.924006 
   94700    672.64936   -107.45464   0.60862727   -106.84601   -451.98551    4.2373451    4.2373451    4.2373451   -451.98551   -6478.8817    19023.391   -13900.466   -7820.7145    6924.6756   -1740.8369    76.081925 
   94800    987.20543   -107.73012   0.89324421   -106.83688    8723.4034    4.2341698    4.2341698    4.2341698    8723.4034    14946.978    12433.242   -1210.0094    4939.9035   -2276.7552    7764.0037    75.911015 
   94900     504.7086   -107.30092   0.45667094   -106.84425   -2061.2321    4.2333089    4.2333089    4.2333089   -2061.2321    14034.255   -5906.9724   -14310.978    -10873.21    5825.5198    24114.603    75.864724 
   95000    496.98255   -107.29549   0.44968026   -106.84581   -2972.9239    4.2344066    4.2344066    4.2344066   -2972.9239   -2470.7797    16708.322   -23156.314   -9000.5146    8156.0407   -2898.1252    75.923753 
   95100    859.88174   -107.61839   0.77803907   -106.84035    10907.784    4.2334811    4.2334811    4.2334811    10907.784    21261.982    18293.277   -6831.9073    4334.0988   -5177.0537    4989.1276    75.873981 
   95200     716.8668   -107.49102   0.64863615   -106.84239    683.67526    4.2364724    4.2364724    4.2364724    683.67526    19901.048   -1907.9506   -15942.072   -4870.8045    4537.4565    20104.477    76.034931 
   95300    519.93916   -107.31422   0.47045188   -106.84377   -3103.6805    4.2343376    4.2343376    4.2343376   -3103.6805   -4952.3779    20101.273   -24459.937   -8496.3652    8143.7939   -2603.8874    75.920043 
   95400    808.40641   -107.57162   0.73146311   -106.84016    5179.6853    4.2318801    4.2318801    4.2318801    5179.6853    5865.5517    15853.315    -6179.811    2727.9305    -9698.846   -464.47312    75.787934 
   95500     857.7315   -107.61545   0.77609349   -106.83935   -1723.6632    4.2370057    4.2370057    4.2370057   -1723.6632    7246.1601   -10901.796   -1515.3542    3530.8266    3201.9118     15172.54    76.063649 
   95600    533.53723   -107.32742    0.4827557   -106.84466   -4978.9986    4.2330855    4.2330855    4.2330855   -4978.9986   -8038.6347    9284.3446   -16182.706    -7504.933    12552.659   -4577.2672    75.852716 
   95700    655.69529   -107.43713   0.59328688   -106.84385   -348.91925    4.2326854    4.2326854    4.2326854   -348.91925    2949.1052    4449.5059   -8445.3688    2062.8447   -9725.5468   -7480.1469    75.831207 
   95800    926.78042   -107.67711    0.8385704   -106.83854   -3204.5316     4.238565     4.238565     4.238565   -3204.5316    11110.585   -16500.864   -4223.3153    11029.266    2384.5963    10415.983    76.147658 
   95900    661.13015   -107.44072   0.59820446   -106.84251   -4062.3506    4.2316491    4.2316491    4.2316491   -4062.3506    4643.6411    9825.8839   -26656.577   -5552.3109    11665.797   -4518.4118    75.775521 
   96000    573.43829   -107.36307   0.51885901   -106.84422   -4928.7715    4.2325559    4.2325559    4.2325559   -4928.7715    1474.4576    4144.8966   -20405.669    3231.6838   -9633.1437   -11569.402    75.824247 
   96100     811.1607    -107.5737   0.73395524   -106.83975     -6199.45     4.238372     4.238372     4.238372     -6199.45   -6357.4033   -14398.832    2157.8854    19351.299    867.83603    4826.8687    76.137254 
   96200    676.03341   -107.45278   0.61168923   -106.84109   -1500.5473    4.2314997    4.2314997    4.2314997   -1500.5473   -8797.3008    13203.408   -8907.7494   -3516.2581    9164.5391    31.010827    75.767498 
   96300    460.68945   -107.26178    0.4168415   -106.84493   -7478.0972    4.2334166    4.2334166    4.2334166   -7478.0972   -11589.479    5197.1171   -16041.929     2814.262   -10727.821   -12462.842    75.870515 
   96400    784.90642    -107.5526   0.71019983    -106.8424   -2963.0104    4.2373817    4.2373817    4.2373817   -2963.0104   -166.79855   -14750.062    6027.8298    23394.584   -210.12752   -2137.8156    76.083899 
   96500    1015.2425    -107.7574   0.91861274   -106.83879     5806.996    4.2323782    4.2323782    4.2323782     5806.996    19727.509    8485.3189    -10791.84   -298.61538    8322.0267    2351.9019    75.814699 
   96600    594.80819    -107.3834   0.53819495    -106.8452   -1469.7452    4.2336944    4.2336944    4.2336944   -1469.7452    13282.143    5446.1302   -23137.509      2456.16   -10643.274   -11116.528     75.88545 
   96700    594.21257    -107.3832   0.53765602   -106.84555   -3430.5587    4.2363097    4.2363097    4.2363097   -3430.5587    1142.2173   -14519.138    3085.2446    27165.374   -4270.4298   -4323.2473    76.026167 
   96800    900.07538   -107.65317   0.81440712   -106.83876    8251.7953    4.2320858    4.2320858    4.2320858    8251.7953    8226.8378     12792.92    3735.6282    -209.6672    2864.7621    3696.4493    75.798986 
   96900    425.76303   -107.23121   0.38523934   -106.84597   -2235.3706    4.2348326    4.2348326    4.2348326   -2235.3706   -3382.8663    11556.823   -14880.068    4390.9065   -9160.2147   -8745.4327    75.946671 
   97000     333.3458    -107.1502   0.30161828   -106.84858   -6982.7481     4.237515     4.237515     4.237515   -6982.7481    -7615.893   -15093.418     1761.067    28108.184   -3751.4809   -6031.4214    76.091077 
   97100    1082.9358   -107.81896   0.97986306    -106.8391    11978.166    4.2313597    4.2313597    4.2313597    11978.166    22962.203    7708.5622    5263.7336   -6250.0193    1675.1829    2851.0472    75.759978 
   97200    868.84643    -107.6308   0.78615051   -106.84465    389.65284    4.2346432    4.2346432    4.2346432    389.65284    16563.782   -2899.5784   -12495.245    4899.9345   -8370.5294   -4893.4486    75.936482 
   97300    425.51117   -107.23671   0.38501145    -106.8517   -10094.857    4.2358509    4.2358509    4.2358509   -10094.857   -3807.6362   -26144.565   -332.37001    31024.833   -2927.3375   -7755.0765    76.001469 
   97400    1024.7307   -107.76932    0.9271979   -106.84212    5462.8026    4.2328674    4.2328674    4.2328674    5462.8026    8315.5547    2530.3877    5542.4654   -7987.0798    6126.8562    456.58079    75.840989 
   97500    793.46449   -107.56077   0.71794335   -106.84283   -5971.2875    4.2380371    4.2380371    4.2380371   -5971.2875   -5410.9305   -8128.4808   -4374.4511     5821.328   -5026.9595   -3919.3515    76.119211 
   97600    190.18078   -107.02167   0.17207956   -106.84959   -12126.166    4.2340192    4.2340192    4.2340192   -12126.166    -21343.18   -17351.676    2316.3567     31852.36   -3664.3481   -9312.2833    75.902919 
   97700    796.62593   -107.56484   0.72080389   -106.84404    4368.0669    4.2324811    4.2324811    4.2324811    4368.0669   -2561.7549    19453.901   -3787.9451   -6857.2403    9017.8044    393.42153    75.820226 
   97800    929.51226   -107.68273   0.84104223   -106.84168    552.06158    4.2356224    4.2356224    4.2356224    552.06158    1486.7964    7485.8554   -7316.4671    4503.8225    676.09033   -395.81805    75.989172 
   97900    396.95364   -107.20887     0.359172    -106.8497   -4001.7892    4.2344409    4.2344409    4.2344409   -4001.7892   -1375.5632   -3887.3414   -6742.4631    29769.573   -3961.3974    -9157.798    75.925601 
   98000     801.1328   -107.56857    0.7248818   -106.84369     -924.939    4.2375504    4.2375504    4.2375504     -924.939    3220.6216    14351.305   -20346.744   -3119.9125    8004.1637   -475.51882    76.092985 
   98100    920.23987   -107.67131   0.83265237   -106.83866    2714.1838    4.2332252    4.2332252    4.2332252    2714.1838    3475.1916    5146.7105   -479.35084    7645.4934    4477.4644    377.78702    75.860224 
   98200    501.99437   -107.29878   0.45421506   -106.84457   -6723.2276    4.2326834    4.2326834    4.2326834   -6723.2276   -6100.2134   -16040.535     1971.066    28049.598   -2462.9209   -8009.4711      75.8311 
   98300    608.88712   -107.39453   0.55093386   -106.84359   -7562.6206    4.2372574    4.2372574    4.2372574   -7562.6206   -10518.525    12751.268   -24920.605   -4858.7259    12024.211    203.17789    76.077206 
   98400    861.46298   -107.61853   0.77946981   -106.83906    253.92518    4.2340741    4.2340741    4.2340741    253.92518   -6445.5562    14259.304   -7051.9719    7807.5262     8774.114    381.55839     75.90587 
   98500    735.58002   -107.50608   0.66556826   -106.84052   -3689.3817    4.2348459    4.2348459    4.2348459   -3689.3817    107.50547   -9788.0338   -1387.6169    24001.186   -2934.8598   -8734.2274    75.947384 
   98600    639.03247   -107.41872   0.57821001   -106.84051   -6163.5914    4.2359062    4.2359062    4.2359062   -6163.5914     3814.645    9686.1043   -31991.524   -7453.0708    12902.116    217.12134    76.004444 
   98700    644.37956   -107.42367   0.58304817   -106.84062   -3465.2962    4.2331614    4.2331614    4.2331614   -3465.2962    1724.1405    5422.2274   -17542.256    7622.4463     7163.842    4712.4212    75.856793 
   98800    778.93403   -107.54392   0.70479588   -106.83913   -3441.4141    4.2345836    4.2345836    4.2345836   -3441.4141    7150.0225   -19387.329    1913.0642    18232.448   -5395.0302   -3290.0505    75.933277 
   98900     623.2097   -107.40528   0.56389323   -106.84139   -2366.9188    4.2354041    4.2354041    4.2354041   -2366.9188     7943.466     7625.293   -22669.516   -6992.3247    13372.706    -1010.685    75.977424 
   99000    546.47783   -107.33838   0.49446463   -106.84392   -3720.8957    4.2353669    4.2353669    4.2353669   -3720.8957   -3158.1695    9486.9289   -17491.447     8328.725    3427.8204     6950.303    75.975422 
   99100    935.40396   -107.68676   0.84637316   -106.84039    2652.4362    4.2328127    4.2328127    4.2328127    2652.4362    3836.4498   -3573.6476    7694.5064    18509.468   -6318.4909    789.36252    75.838052 
   99200    894.05822   -107.64967   0.80896266   -106.84071    7083.1018    4.2330535    4.2330535    4.2330535    7083.1018    14681.026    19233.211   -12664.931   -7794.1095    14489.052   -345.44488    75.850991 
   99300    535.17713   -107.32945   0.48423952   -106.84521   -7913.6407     4.239072     4.239072     4.239072   -7913.6407   -2837.0389     9500.142   -30404.025    7563.9818    1031.1133    2772.8445    76.174985 
   99400    733.99174   -107.50477   0.66413115   -106.84064     2572.807    4.2317422    4.2317422    4.2317422     2572.807    12508.576   -3866.8665   -923.28837    17108.878   -8737.7652   -1185.1881    75.780526 
   99500    735.43315    -107.5049   0.66543537   -106.83947    5865.8698    4.2320278    4.2320278    4.2320278    5865.8698     17307.02    3449.3698   -3158.7802   -13849.261    11198.577   -7.6000766     75.79587 
   99600    380.86642   -107.18961   0.34461594   -106.84499   -8363.0856    4.2391036    4.2391036    4.2391036   -8363.0856   -652.04136   -2096.7912   -22340.424    3828.5517   -2358.9132    3240.9633     76.17669 
   99700    625.47466   -107.40909   0.56594262   -106.84314    3391.3827    4.2302151    4.2302151    4.2302151    3391.3827    15991.921   -7491.9194    1674.1459    13475.693   -10443.384    1310.4423    75.698516 
   99800    938.77307    -107.6895    0.8494216   -106.84008    3580.3936    4.2343559    4.2343559    4.2343559    3580.3936    10694.979   -6300.7224    6346.9246   -20826.892     7407.935   -2713.1387    75.921025 
   99900    769.54872   -107.53906   0.69630386   -106.84276   -3146.2204    4.2372081    4.2372081    4.2372081   -3146.2204    3736.3124    3885.9539   -17060.928    1418.5425   -6147.3569    5039.1596     76.07455 
  100000     633.7664    -107.4173   0.57344516   -106.84386    2418.1727    4.2304536    4.2304536    4.2304536    2418.1727    10759.122    1627.8095   -5132.4131    10047.827   -12811.643    2688.5539    75.711321 
Loop time of 22.671 on 1 procs for 100000 steps with 8 atoms

Pair  time (%) = 7.5129 (33.1387)
Kspce time (%) = 5.35528 (23.6217)
Neigh time (%) = 0 (0)
Comm  time (%) = 1.07905 (4.75959)
Outpt time (%) = 0.0259948 (0.114661)
Other time (%) = 8.69782 (38.3653)

Nlocal:    8 ave 8 max 8 min
Histogram: 1 0 0 0 0 0 0 0 0 0
Nghost:    2189 ave 2189 max 2189 min
Histogram: 1 0 0 0 0 0 0 0 0 0
Neighs:    2472 ave 2472 max 2472 min
Histogram: 1 0 0 0 0 0 0 0 0 0

Total # of neighbors = 2472
Ave neighs/atom = 309
Neighbor list builds = 0
Dangerous builds = 0
seeds:8451899
