# ['Ni']

28 atoms
1 atom types

    0.0000     2.2175 xlo xhi
    0.0000     3.8407 ylo yhi
    0.0000    25.3476 zlo zhi

    0.0000     0.0000     0.0000 xy xz yz

Atoms

1 1     0.0000     0.0000     0.0000
2 1     1.1087     1.9204     0.0000
3 1     1.1087     0.6401     1.8106
4 1     0.0000     2.5605     1.8106
5 1     0.0000     1.2802     3.6211
6 1     1.1087     3.2006     3.6211
7 1     0.0000     0.0000     5.4316
8 1     1.1087     1.9204     5.4316
9 1     1.1087     0.6401     7.2422
10 1     0.0000     2.5605     7.2422
11 1     0.0000     1.2802     9.0527
12 1     1.1087     3.2006     9.0527
13 1     0.0000     0.0000    10.8633
14 1     1.1087     1.9204    10.8633
15 1     0.0000     1.2802    12.6738
16 1     1.1087     3.2006    12.6738
17 1     0.0000     0.0000    14.4844
18 1     1.1087     1.9204    14.4844
19 1     1.1087     0.6401    16.2949
20 1     0.0000     2.5605    16.2949
21 1     0.0000     1.2802    18.1055
22 1     1.1087     3.2006    18.1055
23 1     0.0000     0.0000    19.9160
24 1     1.1087     1.9204    19.9160
25 1     1.1087     0.6401    21.7266
26 1     0.0000     2.5605    21.7266
27 1     0.0000     1.2802    23.5371
28 1     1.1087     3.2006    23.5371
