# ['Ni']

10 atoms
1 atom types

    0.0000     3.2450 xlo xhi
    0.0000     2.3229 ylo yhi
    0.0000    23.2292 zlo zhi

    0.0000     0.0000     0.0000 xy xz yz

Atoms

1 1     0.0000     0.0000     0.0000
2 1     1.6225     1.1615     1.1615
3 1     0.0000     0.0000     2.3229
4 1     1.6225     1.1615     3.4844
5 1     0.0000     0.0000     4.6458
6 1     1.6225     1.1615     5.8073
7 1     0.0000     0.0000     6.9688
8 1     1.6225     1.1615     8.1302
9 1     0.0000     0.0000     9.2917
10 1     1.6225     1.1615    10.4531
