# ['Ni']

20 atoms
1 atom types

    0.0000     3.5977 xlo xhi
    0.0000     3.5977 ylo yhi
    0.0000    35.9769 zlo zhi

    0.0000    -0.0000     0.0000 xy xz yz

Atoms

1 1     0.0000     0.0000     0.0000
2 1     1.7988     1.7988     0.0000
3 1     1.7988     0.0000     1.7988
4 1     0.0000     1.7988     1.7988
5 1     0.0000     0.0000     3.5977
6 1     1.7988     1.7988     3.5977
7 1     1.7988     0.0000     5.3965
8 1     0.0000     1.7988     5.3965
9 1     0.0000     0.0000     7.1954
10 1     1.7988     1.7988     7.1954
11 1     1.7988     0.0000     8.9942
12 1     0.0000     1.7988     8.9942
13 1     0.0000     0.0000    10.7931
14 1     1.7988     1.7988    10.7931
15 1     1.7988     0.0000    12.5919
16 1     0.0000     1.7988    12.5919
17 1     0.0000     0.0000    14.3907
18 1     1.7988     1.7988    14.3907
19 1     1.7988     0.0000    16.1896
20 1     0.0000     1.7988    16.1896
