# ['Ni']

107 atoms
1 atom types

    0.0000    10.0743 xlo xhi
    0.0000    10.0743 ylo yhi
    0.0000    10.0743 zlo zhi

    0.0000    -0.0000    -0.0000 xy xz yz

Atoms

1 1     1.6791     1.6791     0.0000
2 1     1.6791     0.0000     1.6791
3 1     0.0000     1.6791     1.6791
4 1     0.0000     0.0000     3.3581
5 1     1.6791     1.6791     3.3581
6 1     1.6791     0.0000     5.0372
7 1     0.0000     1.6791     5.0372
8 1     0.0000     0.0000     6.7162
9 1     1.6791     1.6791     6.7162
10 1     1.6791     0.0000     8.3953
11 1     0.0000     1.6791     8.3953
12 1     0.0000     3.3581     0.0000
13 1     1.6791     5.0372     0.0000
14 1     1.6791     3.3581     1.6791
15 1     0.0000     5.0372     1.6791
16 1     0.0000     3.3581     3.3581
17 1     1.6791     5.0372     3.3581
18 1     1.6791     3.3581     5.0372
19 1     0.0000     5.0372     5.0372
20 1     0.0000     3.3581     6.7162
21 1     1.6791     5.0372     6.7162
22 1     1.6791     3.3581     8.3953
23 1     0.0000     5.0372     8.3953
24 1     0.0000     6.7162     0.0000
25 1     1.6791     8.3953     0.0000
26 1     1.6791     6.7162     1.6791
27 1     0.0000     8.3953     1.6791
28 1     0.0000     6.7162     3.3581
29 1     1.6791     8.3953     3.3581
30 1     1.6791     6.7162     5.0372
31 1     0.0000     8.3953     5.0372
32 1     0.0000     6.7162     6.7162
33 1     1.6791     8.3953     6.7162
34 1     1.6791     6.7162     8.3953
35 1     0.0000     8.3953     8.3953
36 1     3.3581     0.0000     0.0000
37 1     5.0372     1.6791     0.0000
38 1     5.0372     0.0000     1.6791
39 1     3.3581     1.6791     1.6791
40 1     3.3581     0.0000     3.3581
41 1     5.0372     1.6791     3.3581
42 1     5.0372     0.0000     5.0372
43 1     3.3581     1.6791     5.0372
44 1     3.3581     0.0000     6.7162
45 1     5.0372     1.6791     6.7162
46 1     5.0372     0.0000     8.3953
47 1     3.3581     1.6791     8.3953
48 1     3.3581     3.3581     0.0000
49 1     5.0372     5.0372     0.0000
50 1     5.0372     3.3581     1.6791
51 1     3.3581     5.0372     1.6791
52 1     3.3581     3.3581     3.3581
53 1     5.0372     5.0372     3.3581
54 1     5.0372     3.3581     5.0372
55 1     3.3581     5.0372     5.0372
56 1     3.3581     3.3581     6.7162
57 1     5.0372     5.0372     6.7162
58 1     5.0372     3.3581     8.3953
59 1     3.3581     5.0372     8.3953
60 1     3.3581     6.7162     0.0000
61 1     5.0372     8.3953     0.0000
62 1     5.0372     6.7162     1.6791
63 1     3.3581     8.3953     1.6791
64 1     3.3581     6.7162     3.3581
65 1     5.0372     8.3953     3.3581
66 1     5.0372     6.7162     5.0372
67 1     3.3581     8.3953     5.0372
68 1     3.3581     6.7162     6.7162
69 1     5.0372     8.3953     6.7162
70 1     5.0372     6.7162     8.3953
71 1     3.3581     8.3953     8.3953
72 1     6.7162     0.0000     0.0000
73 1     8.3953     1.6791     0.0000
74 1     8.3953     0.0000     1.6791
75 1     6.7162     1.6791     1.6791
76 1     6.7162     0.0000     3.3581
77 1     8.3953     1.6791     3.3581
78 1     8.3953     0.0000     5.0372
79 1     6.7162     1.6791     5.0372
80 1     6.7162     0.0000     6.7162
81 1     8.3953     1.6791     6.7162
82 1     8.3953     0.0000     8.3953
83 1     6.7162     1.6791     8.3953
84 1     6.7162     3.3581     0.0000
85 1     8.3953     5.0372     0.0000
86 1     8.3953     3.3581     1.6791
87 1     6.7162     5.0372     1.6791
88 1     6.7162     3.3581     3.3581
89 1     8.3953     5.0372     3.3581
90 1     8.3953     3.3581     5.0372
91 1     6.7162     5.0372     5.0372
92 1     6.7162     3.3581     6.7162
93 1     8.3953     5.0372     6.7162
94 1     8.3953     3.3581     8.3953
95 1     6.7162     5.0372     8.3953
96 1     6.7162     6.7162     0.0000
97 1     8.3953     8.3953     0.0000
98 1     8.3953     6.7162     1.6791
99 1     6.7162     8.3953     1.6791
100 1     6.7162     6.7162     3.3581
101 1     8.3953     8.3953     3.3581
102 1     8.3953     6.7162     5.0372
103 1     6.7162     8.3953     5.0372
104 1     6.7162     6.7162     6.7162
105 1     8.3953     8.3953     6.7162
106 1     8.3953     6.7162     8.3953
107 1     6.7162     8.3953     8.3953
