# ['Ni']

107 atoms
1 atom types

    0.0000    10.5250 xlo xhi
    0.0000    10.5250 ylo yhi
    0.0000    10.5250 zlo zhi

    0.0000    -0.0000    -0.0000 xy xz yz

Atoms

1 1     1.7542     1.7542     0.0000
2 1     1.7542     0.0000     1.7542
3 1     0.0000     1.7542     1.7542
4 1     0.0000     0.0000     3.5083
5 1     1.7542     1.7542     3.5083
6 1     1.7542     0.0000     5.2625
7 1     0.0000     1.7542     5.2625
8 1     0.0000     0.0000     7.0167
9 1     1.7542     1.7542     7.0167
10 1     1.7542     0.0000     8.7709
11 1     0.0000     1.7542     8.7709
12 1     0.0000     3.5083     0.0000
13 1     1.7542     5.2625     0.0000
14 1     1.7542     3.5083     1.7542
15 1     0.0000     5.2625     1.7542
16 1     0.0000     3.5083     3.5083
17 1     1.7542     5.2625     3.5083
18 1     1.7542     3.5083     5.2625
19 1     0.0000     5.2625     5.2625
20 1     0.0000     3.5083     7.0167
21 1     1.7542     5.2625     7.0167
22 1     1.7542     3.5083     8.7709
23 1     0.0000     5.2625     8.7709
24 1     0.0000     7.0167     0.0000
25 1     1.7542     8.7709     0.0000
26 1     1.7542     7.0167     1.7542
27 1     0.0000     8.7709     1.7542
28 1     0.0000     7.0167     3.5083
29 1     1.7542     8.7709     3.5083
30 1     1.7542     7.0167     5.2625
31 1     0.0000     8.7709     5.2625
32 1     0.0000     7.0167     7.0167
33 1     1.7542     8.7709     7.0167
34 1     1.7542     7.0167     8.7709
35 1     0.0000     8.7709     8.7709
36 1     3.5083     0.0000     0.0000
37 1     5.2625     1.7542     0.0000
38 1     5.2625     0.0000     1.7542
39 1     3.5083     1.7542     1.7542
40 1     3.5083     0.0000     3.5083
41 1     5.2625     1.7542     3.5083
42 1     5.2625     0.0000     5.2625
43 1     3.5083     1.7542     5.2625
44 1     3.5083     0.0000     7.0167
45 1     5.2625     1.7542     7.0167
46 1     5.2625     0.0000     8.7709
47 1     3.5083     1.7542     8.7709
48 1     3.5083     3.5083     0.0000
49 1     5.2625     5.2625     0.0000
50 1     5.2625     3.5083     1.7542
51 1     3.5083     5.2625     1.7542
52 1     3.5083     3.5083     3.5083
53 1     5.2625     5.2625     3.5083
54 1     5.2625     3.5083     5.2625
55 1     3.5083     5.2625     5.2625
56 1     3.5083     3.5083     7.0167
57 1     5.2625     5.2625     7.0167
58 1     5.2625     3.5083     8.7709
59 1     3.5083     5.2625     8.7709
60 1     3.5083     7.0167     0.0000
61 1     5.2625     8.7709     0.0000
62 1     5.2625     7.0167     1.7542
63 1     3.5083     8.7709     1.7542
64 1     3.5083     7.0167     3.5083
65 1     5.2625     8.7709     3.5083
66 1     5.2625     7.0167     5.2625
67 1     3.5083     8.7709     5.2625
68 1     3.5083     7.0167     7.0167
69 1     5.2625     8.7709     7.0167
70 1     5.2625     7.0167     8.7709
71 1     3.5083     8.7709     8.7709
72 1     7.0167     0.0000     0.0000
73 1     8.7709     1.7542     0.0000
74 1     8.7709     0.0000     1.7542
75 1     7.0167     1.7542     1.7542
76 1     7.0167     0.0000     3.5083
77 1     8.7709     1.7542     3.5083
78 1     8.7709     0.0000     5.2625
79 1     7.0167     1.7542     5.2625
80 1     7.0167     0.0000     7.0167
81 1     8.7709     1.7542     7.0167
82 1     8.7709     0.0000     8.7709
83 1     7.0167     1.7542     8.7709
84 1     7.0167     3.5083     0.0000
85 1     8.7709     5.2625     0.0000
86 1     8.7709     3.5083     1.7542
87 1     7.0167     5.2625     1.7542
88 1     7.0167     3.5083     3.5083
89 1     8.7709     5.2625     3.5083
90 1     8.7709     3.5083     5.2625
91 1     7.0167     5.2625     5.2625
92 1     7.0167     3.5083     7.0167
93 1     8.7709     5.2625     7.0167
94 1     8.7709     3.5083     8.7709
95 1     7.0167     5.2625     8.7709
96 1     7.0167     7.0167     0.0000
97 1     8.7709     8.7709     0.0000
98 1     8.7709     7.0167     1.7542
99 1     7.0167     8.7709     1.7542
100 1     7.0167     7.0167     3.5083
101 1     8.7709     8.7709     3.5083
102 1     8.7709     7.0167     5.2625
103 1     7.0167     8.7709     5.2625
104 1     7.0167     7.0167     7.0167
105 1     8.7709     8.7709     7.0167
106 1     8.7709     7.0167     8.7709
107 1     7.0167     8.7709     8.7709
