LAMMPS (10 Feb 2015)
# ---- initialize simulations
clear
units metal
dimension 3
boundary p p p
atom_style charge
atom_modify map array
# ---- create atoms
read_data /Users/eugeneragasa/pyflamestk_git/pypospack/tests/tests_integration/workflow/WorkflowLammpsThermalExpansion/param_4927/MgO_NaCl_unit.npt.T1000/lammps.structure
  triclinic box = (0 0 0) to (4.2565 4.2565 4.2565) with tilt (0 0 0)
  1 by 1 by 1 MPI processor grid
  reading atoms ...
  8 atoms
# ---- define interatomic potential
include potential.mod
mass 1 24.305
mass 2 15.999

group Mg type 1
4 atoms in group Mg
group O type 2
4 atoms in group O

set group Mg charge 1.66679564584
  4 settings made for charge
set group O charge -1.66679564584
  4 settings made for charge

variable R_cut equal 10.0

pair_style buck/coul/long ${R_cut}
pair_style buck/coul/long 10
pair_coeff 1 1 0.0 0.5 0.0 ${R_cut}
pair_coeff 1 1 0.0 0.5 0.0 10
pair_coeff 1 2 1241.53975785 0.290586946924 0.0 ${R_cut}
pair_coeff 1 2 1241.53975785 0.290586946924 0.0 10
pair_coeff 2 2 7336.97641517 0.111647641293 25.3936876208 ${R_cut}
pair_coeff 2 2 7336.97641517 0.111647641293 25.3936876208 10

kspace_style pppm 1.0e-5

neighbor 1.0 bin
neigh_modify every 1 delay 0 check yes
# ---- define settings
compute eng all pe/atom
compute eatoms all reduce sum c_eng
# ---- run minimization
reset_timestep 0
fix 1 all box/relax iso 0.0 vmax 0.001
thermo 10
thermo_style custom step pe lx ly lz xy xz yz press pxx pyy pzz pxy pxz pyz c_eatoms
min_style cg
minimize 1e-25 1e-25 5000 10000
PPPM initialization ...
  G vector (1/distance) = 0.352901
  grid = 8 8 8
  stencil order = 5
  estimated absolute RMS force accuracy = 3.98348e-05
  estimated relative force accuracy = 2.76637e-06
  using double precision FFTs
  3d grid and FFT values/proc = 3375 512
Neighbor list info ...
  1 neighbor list requests
  update every 1 steps, delay 0 steps, check yes
  master list distance cutoff = 11
Memory usage per processor = 4.06549 Mbytes
Step PotEng Lx Ly Lz Xy Xz Yz Press Pxx Pyy Pzz Pxy Pxz Pyz eatoms 
       0    -112.5899       4.2565       4.2565       4.2565            0            0            0    58061.201    58061.201    58061.201    58061.201 6.8070985e-11 -1.221979e-10 1.2952011e-11    -112.5899 
      10   -112.63526     4.299065     4.299065     4.299065            0            0            0    6762.9013    6762.9013    6762.9013    6762.9013 -3.6532134e-11 6.5076144e-11 2.4224675e-10   -112.63526 
      13     -112.636    4.3051131    4.3051131    4.3051131            0            0            0   -6.5125139   -6.5125139   -6.5125139   -6.5125139 2.4815902e-11 -1.1583773e-10 3.0521581e-11     -112.636 
Loop time of 0.010293 on 1 procs for 13 steps with 8 atoms

Minimization stats:
  Stopping criterion = linesearch alpha is zero
  Energy initial, next-to-last, final = 
        -112.589903458     -112.636003249     -112.636003249
  Force two-norm initial, final = 8.38407 0.00186563
  Force max component initial, final = 8.38407 0.000962014
  Final line search alpha, max atom move = 0.00390625 3.75787e-06
  Iterations, force evaluations = 13 30

Pair  time (%) = 0.00285339 (27.7217)
Kspce time (%) = 0.00164247 (15.9571)
Neigh time (%) = 0 (0)
Comm  time (%) = 0.000347614 (3.37719)
Outpt time (%) = 1.09673e-05 (0.106551)
Other time (%) = 0.00543857 (52.8375)

Nlocal:    8 ave 8 max 8 min
Histogram: 1 0 0 0 0 0 0 0 0 0
Nghost:    2189 ave 2189 max 2189 min
Histogram: 1 0 0 0 0 0 0 0 0 0
Neighs:    2344 ave 2344 max 2344 min
Histogram: 1 0 0 0 0 0 0 0 0 0

Total # of neighbors = 2344
Ave neighs/atom = 293
Neighbor list builds = 0
Dangerous builds = 0
unfix 1
# ---- define output variables ----
variable natoms equal "count(all)"
variable tot_energy equal "c_eatoms"
variable length_x equal "lx"
variable length_y equal "ly"
variable length_z equal "lz"
variable tilt_xy equal "xy"
variable tilt_xz equal "xz"
variable tilt_yz equal "yz"
variable tot_press equal "press"
variable press_xx equal "pxx"
variable press_yy equal "pyy"
variable press_zz equal "pzz"
variable press_xy equal "pxy"
variable press_xz equal "pxz"
variable press_yz equal "pyz"

# ---- output ----
print "pypospack:output_section:begin"
pypospack:output_section:begin
print "tot_energy = ${tot_energy}"
tot_energy = -112.63600324896
print "num_atoms = ${natoms}"
num_atoms = 8
print "xx = ${length_x}"
xx = 4.30511307073731
print "yy = ${length_y}"
yy = 4.30511307073731
print "zz = ${length_z}"
zz = 4.30511307073731
print "xy = ${tilt_xy}"
xy = 0
print "xz = ${tilt_xz}"
xz = 0
print "yz = ${tilt_yz}"
yz = 0
print "tot_press = ${tot_press}"
tot_press = -6.51251387968517
print "pxx = ${press_xx}"
pxx = -6.51251387980119
print "pyy = ${press_yy}"
pyy = -6.51251387961014
print "pzz = ${press_zz}"
pzz = -6.51251387964418
print "pxy = ${press_xy}"
pxy = 2.48159019880152e-11
print "pxz = ${press_xz}"
pxz = -1.15837732664817e-10
print "pyz = ${press_yz}"
pyz = 3.05215812050655e-11
print "pypospack:output_section:done"
pypospack:output_section:done
print "pypospack:lammps_sim:done"
pypospack:lammps_sim:done
#------------------------------------------------------------------------------
# RUN THERMOSTAT
# running using an NPT Nose-Hoover style thermostat
#------------------------------------------------------------------------------
variable tempdamp equal 0.1
variable pressdamp equal 1.0
# set initial velocities
velocity all create 1000 4707365 mom yes dist gaussian loop all
# fix for Nose-Hoover style thermostat
fix 20 all npt temp 1000 1000 0.1 aniso 0.0 0.0 1.0 drag 1.0 couple xyz
variable boxx equal lx
variable boxy equal ly
variable boxz equal lz
variable boxp equal press
variable boxt equal temp
# calculate averages every 10000 steps
reset_timestep 0
fix 21 all ave/time 10 10 100 v_boxx v_boxy v_boxz v_boxp v_boxt file lattice.out
thermo_style custom step temp pe ke etotal press lx ly lz press pxx pyy pzz pxy pxz pyz vol
thermo_modify flush yes
thermo 100
run 100000
PPPM initialization ...
  G vector (1/distance) = 0.352409
  grid = 8 8 8
  stencil order = 5
  estimated absolute RMS force accuracy = 4.075e-05
  estimated relative force accuracy = 2.82993e-06
  using double precision FFTs
  3d grid and FFT values/proc = 3375 512
Memory usage per processor = 3.06549 Mbytes
Step Temp PotEng KinEng TotEng Press Lx Ly Lz Press Pxx Pyy Pzz Pxy Pxz Pyz Volume 
       0         1000   -112.63601   0.90482102   -111.73119    12104.349    4.3051131    4.3051131    4.3051131    12104.349    6505.3608    14351.444    15456.242   -405.48691    1979.1078    5796.3544    79.790959 
     100    352.24631   -111.93249   0.31871987   -111.61377   -265.44711    4.3299232    4.3299232    4.3299232   -265.44711   -15676.108    14843.884    35.883192    1220.9182   -4162.9141   -7483.5646    81.178416 
     200    676.18352   -111.96798   0.61182506   -111.35615   -23423.542    4.3437035    4.3437035    4.3437035   -23423.542   -26470.613   -20889.748   -22910.266   -7077.4663    2638.7601   -13925.752    81.955958 
     300    868.28543   -111.93446    0.7856429   -111.14882    26652.425     4.326273     4.326273     4.326273    26652.425    8483.8391    45475.563    25997.872     5408.777   -6486.2482     4889.576    80.973288 
     400     581.2048   -111.51317   0.52588632   -110.98728   -12828.599    4.3394032    4.3394032    4.3394032   -12828.599   -14500.456   -3433.0753   -20552.265   -6787.0347   -2186.0289   -17088.971    81.712786 
     500    1090.0822   -111.85932   0.98632932   -110.87299   -28563.189     4.352316     4.352316     4.352316   -28563.189    -25231.09   -25740.751   -34717.726    -4455.357   -3397.2321    -10868.19    82.444417 
     600    1285.8544    -111.9767     1.163468   -110.81323    19115.626    4.3440358    4.3440358    4.3440358    19115.626   -3622.1245    14829.058    46139.944    3473.3981    197.67585    3818.2208    81.974765 
     700    1008.4153   -111.72311   0.91243539   -110.81067   -29373.326    4.3492213    4.3492213    4.3492213   -29373.326   -15946.956   -36362.377   -35810.645   -8520.0241    -4737.618    -21938.67    82.268676 
     800    779.36705     -111.517   0.70518768   -110.81181    9912.5436    4.3385501    4.3385501    4.3385501    9912.5436    1457.2682    18983.032    9297.3306    1535.6892   -683.57132   -7568.5337    81.664604 
     900    997.46377   -111.71987   0.90252618   -110.81734   -8133.9491    4.3496689    4.3496689    4.3496689   -8133.9491    8510.5471   -7380.7113   -25531.683   -4454.6808   -3051.7935    1958.3935    82.294083 
    1000    722.62921   -111.47673    0.6538501   -110.82288   -26081.745    4.3533735    4.3533735    4.3533735   -26081.745   -10564.492   -19445.721    -48235.02   -2458.8461   -7554.8735   -26162.985    82.504529 
    1100    1232.2443   -111.92818    1.1149605   -110.81322    21101.153    4.3243339    4.3243339    4.3243339    21101.153    9975.9814    9826.8298    43500.649   -2061.9101    -2473.739    6821.3979    80.864456 
    1200    1324.4439   -112.02619    1.1983847    -110.8278    2953.7952     4.342383     4.342383     4.342383    2953.7952    19959.806   -10392.738   -705.68153    174.54632    2108.8106   -5875.2115    81.881231 
    1300    626.79444   -111.38291   0.56713678   -110.81577   -15820.345    4.3645381    4.3645381    4.3645381   -15820.345    -16375.08    -34610.19    3524.2362   -5031.8633   -4987.5552   -11029.517    83.140927 
    1400      1070.51   -111.76975   0.96861996   -110.80113   -5579.3637    4.3326305    4.3326305    4.3326305   -5579.3637    7658.8439    12823.584   -37220.518    2687.6113   -8276.4496     2605.348    81.330786 
    1500    796.45744   -111.52911   0.72065143   -110.80846    21820.909    4.3342727    4.3342727    4.3342727    21820.909    69779.989   -1075.2815   -3241.9816     2881.535     5966.222   -1553.3141    81.423297 
    1600    1213.0208   -111.90623    1.0975667   -110.80866   -36402.889    4.3615019    4.3615019    4.3615019   -36402.889   -30846.726   -46459.838   -31902.104    -3803.942   -13035.681   -7502.0936    82.967538 
    1700    1009.2597   -111.71955    0.9131994   -110.80635    21036.667    4.3374618    4.3374618    4.3374618    21036.667    48065.009    8709.4864    6335.5065    3286.0576    1811.2923    5190.8024     81.60316 
    1800    1155.5211   -111.85336    1.0455398   -110.80782   -13806.375    4.3382017    4.3382017    4.3382017   -13806.375    10884.431   -27372.008   -24931.546   -4531.9142    14744.919   -7966.2663    81.644927 
    1900    567.08028   -111.32677   0.51310616   -110.81366    7146.2675    4.3475197    4.3475197    4.3475197    7146.2675    11175.094   -19414.802    29678.511   -5778.9859   -16175.267    -1094.597    82.172155 
    2000    1126.6774   -111.83093    1.0194414   -110.81149   -6563.5143    4.3459964    4.3459964    4.3459964   -6563.5143     8855.509    4449.0479     -32995.1    2035.0128    16955.379    10097.208    82.085811 
    2100    790.57452   -111.53098   0.71532844   -110.81565   -369.05196    4.3443403    4.3443403    4.3443403   -369.05196    5228.8956   -29125.981    22789.929   -11951.816    2833.3636   -13029.166    81.992005 
    2200    1301.0397    -111.9914     1.177208    -110.8142   -10896.489    4.3365255    4.3365255    4.3365255   -10896.489   -11633.946   -22251.016    1195.4964   -10223.139   -8941.7173   -1975.4887    81.550328 
    2300    838.87729   -111.57964    0.7590338    -110.8206    9860.8327    4.3476757    4.3476757    4.3476757    9860.8327    35654.173   -8134.3499    2062.6746    2357.3893   -785.64619     516.0393    82.180999 
    2400    959.54847   -111.68658   0.86821962   -110.81836   -26018.491    4.3521549    4.3521549    4.3521549   -26018.491   -9386.7188   -41533.342   -27135.413   -17898.802    7136.5209   -8443.1232    82.435262 
    2500    924.03052   -111.64614   0.83608223   -110.81006    35316.749    4.3232929    4.3232929    4.3232929    35316.749    65889.023    2388.6181    37672.605   -5657.9871   -12096.174   -826.94883    80.806068 
    2600    786.64903   -111.53942   0.71177658   -110.82765   -14810.094    4.3517169    4.3517169    4.3517169   -14810.094   -3680.5403   -10908.278   -29841.464    -3666.029    11850.812   -4712.0561    82.410379 
    2700    1184.0381   -111.88461    1.0713426   -110.81326   -27457.018    4.3502105    4.3502105    4.3502105   -27457.018   -23269.616   -37841.707    -21259.73    -17565.01    19708.327   -6858.3213    82.324824 
    2800    946.51064   -111.66167   0.85642272   -110.80524    36903.811    4.3243972    4.3243972    4.3243972    36903.811    81704.526   -6538.3916    35545.298     228.3504   -4025.8432    3225.2561    80.868008 
    2900    1303.2198   -112.00121    1.1791807   -110.82203   -29728.981    4.3469043    4.3469043    4.3469043   -29728.981    -19967.51   -24426.722   -44792.712    3861.1557    12060.514   -2183.4222    82.137263 
    3000    698.61066   -111.45744   0.63211761   -110.82532    21089.712    4.3491236    4.3491236    4.3491236    21089.712    64524.052    -35026.13    33771.213   -11696.139    5271.2766    4211.5413    82.263137 
    3100    1163.5196   -111.87583     1.052777   -110.82306    -4512.203    4.3381558    4.3381558    4.3381558    -4512.203    14443.486   -7737.5463   -20242.549    4392.9854    4134.8866    3857.3262    81.642337 
    3200    886.50839   -111.63188   0.80213142   -110.82975   -3271.4282    4.3369137    4.3369137    4.3369137   -3271.4282    5185.3727   -11851.146   -3148.5115   -4519.9791    9360.3527   -1182.9241    81.572233 
    3300    959.49501   -111.68984   0.86817125   -110.82167    5761.9545    4.3507594    4.3507594    4.3507594    5761.9545    44261.528   -24855.222    -2120.442    -12299.61     6735.456    6218.9456    82.355989 
    3400    1283.3021   -111.97675    1.1611587   -110.81559   -4227.3536    4.3438424    4.3438424    4.3438424   -4227.3536    8077.0209   -20307.908   -451.17335    1791.5538    4361.1879   -5593.2062    81.963819 
    3500     853.1712   -111.59554   0.77196723   -110.82358    12805.357    4.3339497    4.3339497    4.3339497    12805.357    29193.127   -3374.0747    12597.018   -6721.0273    6986.4922    56.264137    81.405095 
    3600    980.05577   -111.71183   0.88677505   -110.82505   -15027.816    4.3539901    4.3539901    4.3539901   -15027.816    12644.884   -37402.866   -20325.465   -7989.4223   -993.79063    511.92637    82.539592 
    3700    1042.8618   -111.76074   0.94360328   -110.81713   -9622.9596      4.34039      4.34039      4.34039   -9622.9596    -7836.809   -18029.325    -3002.745    16739.798    5316.8845   -1665.3142    81.768546 
    3800     796.4182   -111.53942   0.72061592    -110.8188    11022.391    4.3308177    4.3308177    4.3308177    11022.391    69233.731   -12812.942   -23353.616   -8767.5363     12410.13   -1067.2227     81.22874 
    3900    1154.1314   -111.86687    1.0442823   -110.82259   -14091.304    4.3556554    4.3556554    4.3556554   -14091.304   -2642.8114   -41909.545     2278.445     3054.286   -2367.6705    5696.0926    82.634333 
    4000    1421.5231   -112.10134     1.286224   -110.81511   -1409.9389    4.3397415    4.3397415    4.3397415   -1409.9389    27388.525   -7590.9297   -24027.412   -1774.6101    10995.879      3863.97    81.731896 
    4100    480.33381   -111.25922   0.43461613    -110.8246    10064.154    4.3399666    4.3399666    4.3399666    10064.154    21714.223   -10026.681    18504.919    118.92026    4200.1756   -714.56862    81.744618 
    4200    1084.7259   -111.79773    0.9814828   -110.81625   -29642.748    4.3493684    4.3493684    4.3493684   -29642.748   -16841.994   -36389.213   -35697.036   -6909.8255   -12202.284    9665.9797    82.277028 
    4300    980.22807    -111.6979   0.88693096   -110.81097    28239.393    4.3379428    4.3379428    4.3379428    28239.393    67884.733    557.59311    16275.853    4688.5523    9065.6138    -1797.481    81.630316 
    4400    1113.3752    -111.8286    1.0074053   -110.82119    -26350.35    4.3493473    4.3493473    4.3493473    -26350.35   -11037.146   -28873.437   -39140.469   -7034.2062   -7412.7489    451.30974     82.27583 
    4500    827.91432   -111.56924   0.74911427   -110.82012   -1808.6567    4.3424973    4.3424973    4.3424973   -1808.6567    17098.853   -21849.994   -674.82996    352.34751    -13494.93     7386.499      81.8877 
    4600    1292.3988   -111.98386    1.1693896   -110.81447    5650.5996    4.3387133    4.3387133    4.3387133    5650.5996    25285.022   -1553.1253   -6780.0981    12007.521    495.57339   -2216.6934    81.673816 
    4700    629.45393   -111.39293   0.56954315   -110.82339   -16814.702      4.35758      4.35758      4.35758   -16814.702    -10594.66   -34012.159   -5837.2866   -12190.933   -4259.5398   -4715.2904    82.743922 
    4800      945.878   -111.67325   0.85585029    -110.8174   -144.37247    4.3426295    4.3426295    4.3426295   -144.37247    29158.591   -16691.651   -12900.057    11708.413   -6428.1364    2784.6284    81.895177 
    4900    1583.5676   -112.25079    1.4328453   -110.81795    1200.6199    4.3319481    4.3319481    4.3319481    1200.6199    107.57593   -5951.8154    9446.0991    2087.0464    13870.736   -352.49493    81.292363 
    5000    789.61417   -111.54384   0.71445949   -110.82938    11730.872    4.3451058    4.3451058    4.3451058    11730.872    49845.979   -13080.521   -1572.8432   -2597.0112   -2848.5688   -2494.0131    82.035355 
    5100    1046.5361   -111.76459   0.94692788   -110.81766    -28315.19    4.3591286    4.3591286    4.3591286    -28315.19   -22982.392   -18615.102   -43348.076   -3269.6654   -7071.5971    6756.5646    82.832169 
    5200    823.38291   -111.55121   0.74501416   -110.80619    15135.423    4.3415862    4.3415862    4.3415862    15135.423    10359.756    13427.239    21619.274    5798.1099    9337.2479   -8166.2179    81.836167 
    5300    928.32754   -111.64214   0.83997027   -110.80216    24198.006    4.3295478    4.3295478    4.3295478    24198.006    58734.794    8654.0565    5205.1662   -10936.098   -16557.696    2253.3395    81.157306 
    5400    987.47507   -111.71282    0.8934882   -110.81933   -10283.671     4.353153     4.353153     4.353153   -10283.671   -31612.539   -2023.2607    2784.7884    7891.9324   -3952.7533    2822.0624    82.491995 
    5500    982.45829   -111.70164   0.88894891    -110.8127    4402.4942    4.3433636    4.3433636    4.3433636    4402.4942    16911.933    3569.0339   -7273.4848    8033.0394    6936.9691   -6303.9876    81.936716 
    5600    999.30679   -111.71224   0.90419378   -110.80805    6062.6255    4.3325704    4.3325704    4.3325704    6062.6255    11895.426    3917.0905    2375.3601   -1413.0898    702.54862    4085.6392    81.327397 
    5700    887.59795   -111.61737   0.80311728   -110.81425    -28316.15    4.3542007    4.3542007    4.3542007    -28316.15   -32148.869     -12302.9   -40496.683    11410.777    1176.1498    -3931.697    82.551571 
    5800    512.11505    -111.2784   0.46337246   -110.81503    15067.447    4.3389363    4.3389363    4.3389363    15067.447    8479.6305    7785.6319    28937.079    8969.1079    5612.4629    7129.3988    81.686413 
    5900    1388.9425   -112.07382    1.2567444   -110.81707    1662.3693    4.3365229    4.3365229    4.3365229    1662.3693    29031.281   -5430.5633    -18613.61   -784.40885    8491.6864    4288.9307    81.550182 
    6000    1030.2896    -111.7545    0.9322277   -110.82227   -6636.1386    4.3553567    4.3553567    4.3553567   -6636.1386   -12557.094   -6321.6499   -1029.6722    3539.5079    15948.448   -3028.2254    82.617337 
    6100    1000.6275   -111.71638   0.90538875   -110.81099   -12671.558    4.3438192    4.3438192    4.3438192   -12671.558    17469.295   -16600.055   -38883.916    4826.1471    5868.7439    797.09991    81.962505 
    6200    1103.4244   -111.80472   0.99840155   -110.80631   -15913.574    4.3473009    4.3473009    4.3473009   -15913.574    4985.9542   -27007.053   -25719.623   -11524.327   -7537.0105    5066.6126     82.15975 
    6300    1083.8411    -111.7813   0.98068217   -110.80062   -18099.983    4.3525843    4.3525843    4.3525843   -18099.983   -19826.252   -20171.592   -14302.105   -3856.2115    12042.617   -2166.1526    82.459667 
    6400    807.80034   -111.53327   0.73091472   -110.80236    9960.1645    4.3422312    4.3422312    4.3422312    9960.1645    253.21105    11411.421    18215.861   -718.12751   -1294.4092    596.02174    81.872646 
    6500    1514.1806   -112.17276    1.3700624    -110.8027   -15112.155    4.3517989    4.3517989    4.3517989   -15112.155   -18343.306   -10828.006   -16165.152   -9851.1827   -13968.228    8965.2807    82.415038 
    6600    1090.9652   -111.78824   0.98712828   -110.80111    2148.7892    4.3491358    4.3491358    4.3491358    2148.7892   -24366.819    5313.5235    25499.663   -7753.5315     8998.673    3004.8746    82.263828 
    6700      827.119   -111.55414   0.74839465   -110.80574   -6023.9668    4.3392723    4.3392723    4.3392723   -6023.9668   -5774.2504    32608.962   -44906.612    3526.6292   -9166.2131    8139.8924    81.705392 
    6800     1053.696   -111.76395   0.95340628   -110.81055   -11384.616    4.3481838    4.3481838    4.3481838   -11384.616   -14739.162    5185.9123   -24600.599   -6235.2662   -6422.6915    1743.5332    82.209817 
    6900    979.87509   -111.69473   0.88661157   -110.80812    4068.2804    4.3444566    4.3444566    4.3444566    4068.2804    2513.1071    27241.146   -17549.412    8989.6296     4315.151    2514.2168    81.998588 
    7000    844.56316   -111.57777    0.7641785   -110.81359   -1161.2925    4.3371138    4.3371138    4.3371138   -1161.2925    11041.007   -14718.462    193.57825   -20.521463   -1847.0887    7656.4923    81.583523 
    7100    1250.6049   -111.94607    1.1315736    -110.8145   -5146.9008    4.3453392    4.3453392    4.3453392   -5146.9008   -11619.979    10113.388   -13934.111    4754.3712   -1423.7238   -7042.4266    82.048577 
    7200     1192.106   -111.88711    1.0786426   -110.80847     8440.261    4.3437033    4.3437033    4.3437033     8440.261    4934.7077    1538.9034    18847.172    10422.398    16.185172    11459.981    81.955942 
    7300    727.04045      -111.47   0.65784148   -110.81216   -1993.5782    4.3379763    4.3379763    4.3379763   -1993.5782    34812.206    1988.8365   -42781.777   -8195.6685   -5922.8287    10693.642    81.632206 
    7400    790.98583   -111.53216    0.7157006   -110.81645   -5676.6975    4.3472995    4.3472995    4.3472995   -5676.6975   -10501.877    12098.653   -18626.869    12682.449   -5927.6289   -6036.9995    82.159669 
    7500    1192.8025   -111.88866    1.0792727   -110.80939     8820.694    4.3386447    4.3386447    4.3386447     8820.694    24007.716    13634.647   -11180.282   -8135.9682    2291.3856    5706.0642    81.669945 
    7600    936.19056   -111.66298   0.84708489   -110.81589    2345.4357    4.3368248    4.3368248    4.3368248    2345.4357    22466.675   -3909.7864   -11520.581   -1126.3895   -15831.817    14578.266    81.567214 
    7700    1074.4045   -111.79002   0.97214381   -110.81787   -29849.835    4.3543214    4.3543214    4.3543214   -29849.835   -34057.371   -9358.4816   -46133.652   -2368.8229   -3188.5865   -8590.4846    82.558433 
    7800    1095.3865   -111.80052   0.99112868   -110.80939    23283.168    4.3305352    4.3305352    4.3305352    23283.168    26012.478    33630.477     10206.55   -5252.2787    6739.0448   -155.43597    81.212844 
    7900    1105.8955   -111.81603    1.0006375   -110.81539   -5264.3684    4.3345848    4.3345848    4.3345848   -5264.3684     8784.694   -8546.3006   -16031.499    8664.7827   -13380.818    6349.2067    81.440893 
    8000     644.1214   -111.39841   0.58281458    -110.8156   -29248.227    4.3588834    4.3588834    4.3588834   -29248.227   -36489.894   -3002.2784   -48252.507     822.0925    3111.5092    -9049.881    82.818196 
    8100    1301.9514   -111.98252     1.178033   -110.80449    9410.6667     4.328374     4.328374     4.328374    9410.6667    8119.2224   -860.37303    20973.151    14109.461    5768.2584   -620.42154    81.091313 
    8200    1083.4857   -111.79875   0.98036063   -110.81839    7015.3019    4.3301244    4.3301244    4.3301244    7015.3019    23974.589     15833.94   -18762.624   -4301.6994    -6956.744    731.59819    81.189735 
    8300    626.48347   -111.38928   0.56685541   -110.82243   -17147.777    4.3562058    4.3562058    4.3562058   -17147.777   -15791.439    9740.5769   -45392.469     5264.311    13651.112   -7973.3488    82.665668 
    8400     1165.104   -111.86262    1.0542106   -110.80841   -8651.1212    4.3463411    4.3463411    4.3463411   -8651.1212   -5093.9604    7261.0929   -28120.496   -4848.3705   -1325.2085    4436.1763    82.105345 
    8500    838.39089   -111.56255    0.7585937   -110.80396    24697.259    4.3336071    4.3336071    4.3336071    24697.259    21695.752    30439.725    21956.299   -3840.9352   -320.82716   -5534.2229    81.385792 
    8600    1108.4227   -111.81399    1.0029242   -110.81107   -19781.112    4.3408977    4.3408977    4.3408977   -19781.112   -21638.354   -3650.7602   -34054.223   -1614.2916     15652.24   -2238.3298    81.797242 
    8700    883.09269   -111.61378   0.79904082   -110.81474    9529.9434      4.35212      4.35212      4.35212    9529.9434   -1051.2056    10129.036    19511.999    1727.9839   -8294.7271    -6816.078    82.433279 
    8800    1129.2703   -111.82832    1.0217875   -110.80653   -4110.0684    4.3445515    4.3445515    4.3445515   -4110.0684    9958.8191   -2010.5839    -20278.44    2309.7612    9339.5423   -9228.8869    82.003963 
    8900    589.80725   -111.34208   0.53366999   -110.80841    4724.5759    4.3366563    4.3366563    4.3366563    4724.5759   -5911.7685     31910.14   -11824.644    2703.6128    9082.2603     1588.859    81.557708 
    9000    1148.9452   -111.84895    1.0395898   -110.80936   -11283.963    4.3470885    4.3470885    4.3470885   -11283.963   -15885.169    6064.7716   -24031.492    3206.0058   -3541.7908   -5744.1635    82.147707 
    9100    1147.9221     -111.846     1.038664   -110.80733    5176.0003    4.3473669    4.3473669    4.3473669    5176.0003   -170.08696   -7864.9918     23563.08   -5369.3368   -3119.2781   -1672.6675    82.163489 
    9200    833.06864   -111.57256   0.75377801   -110.81878   -3368.0626    4.3436849    4.3436849    4.3436849   -3368.0626    -29230.14    21899.489   -2773.5372     357.4925     3264.838   -3649.6832    81.954905 
    9300    1051.5892   -111.77277       0.9515   -110.82127   -4826.2272    4.3394917    4.3394917    4.3394917   -4826.2272   -21190.345   -9746.7733    16458.437   -5720.4272   -11187.943    1503.1637    81.717783 
    9400      1018.04   -111.73911   0.92114403   -110.81797    12442.275    4.3373286    4.3373286    4.3373286    12442.275     23088.51    30043.154   -15804.838   -1946.2098   -2358.3529   -4333.0761    81.595646 
    9500    894.52246   -111.63428   0.80938272   -110.82489   -33878.671    4.3559382    4.3559382    4.3559382   -33878.671   -45858.589   -26353.027   -29424.398    12789.202     4530.331   -2466.3354    82.650433 
    9600    1027.9844   -111.74425    0.9301419   -110.81411    1288.8444    4.3410377    4.3410377    4.3410377    1288.8444   -17220.161   -2145.1679    23231.862    7745.6737    -7536.108   -1112.4615    81.805157 
    9700    1348.2946   -112.02756    1.2199653   -110.80759    14491.154    4.3340191    4.3340191    4.3340191    14491.154    22922.537     16817.86    3733.0651    3558.6813    15924.499   -3702.4074    81.409008 
    9800    997.71534   -111.71902   0.90275381   -110.81627   -20515.293    4.3521827    4.3521827    4.3521827   -20515.293    -29438.57   -44277.308        12170    4339.9652   -4715.9039    3558.9069    82.436844 
    9900     782.8146   -111.51862    0.7083071   -110.81031     14149.72    4.3394372    4.3394372    4.3394372     14149.72    4019.0342    27162.686     11267.44     -156.821   -4994.9571   -1213.2805    81.714706 
   10000    1035.6269   -111.74363   0.93705701   -110.80658    3077.2814    4.3486605    4.3486605    4.3486605    3077.2814    29800.581    12389.815   -32958.551   -3619.0012    12315.483   -1081.5161    82.236857 
   10100    994.51421   -111.70618   0.89985736   -110.80632   -16029.697    4.3491499    4.3491499    4.3491499   -16029.697   -16426.787   -18124.741   -13537.563    2518.3642   -10071.441    2936.0104    82.264628 
   10200    873.72839   -111.59944   0.79056781   -110.80887    23662.456     4.326157     4.326157     4.326157    23662.456    27500.819    30331.479    13155.071    -9015.837   -1784.7909    2247.0589    80.966772 
   10300    1268.8631   -111.97021     1.148094   -110.82211   -14094.747    4.3482534    4.3482534    4.3482534   -14094.747   -1713.9256       -23563   -17007.317    937.23036    1272.3485    -3997.912    82.213763 
   10400    983.94273   -111.70876   0.89029206   -110.81847    2758.5821    4.3476104    4.3476104    4.3476104    2758.5821     7283.285   -33628.054    34620.516    2703.2882   -4807.8704    6241.5082    82.177298 
   10500    893.32719   -111.62487   0.80830122   -110.81657    2088.8892    4.3360887    4.3360887    4.3360887    2088.8892    11840.207    18129.771   -23703.311    1262.0529   -10428.797   -608.95105    81.525687 
   10600    1051.0688   -111.76714   0.95102912   -110.81611   -8311.2785    4.3442225    4.3442225    4.3442225   -8311.2785   -3661.2308   -12888.013   -8384.5918    5319.9081    1882.1424   -638.15778    81.985338 
   10700    1181.3546   -111.88108    1.0689144   -110.81216    1845.0187    4.3439552    4.3439552    4.3439552    1845.0187    19604.965    -12115.89   -1954.0181    6287.1742    4186.4083    6810.9019    81.970201 
   10800    763.24554    -111.5046    0.6906006     -110.814    2866.4301    4.3468192    4.3468192    4.3468192    2866.4301    -700.5216   -971.67094    10271.483   -1331.2917   -4822.2574     3926.126    82.132443 
   10900    1289.7549    -111.9734    1.1669974   -110.80641   -5790.4021     4.340134     4.340134     4.340134   -5790.4021    6922.9258   -9992.5805   -14301.552   -946.01057    11642.849    655.62357    81.754075 
   11000    1106.3818   -111.80867    1.0010775   -110.80759    16386.326     4.336865     4.336865     4.336865    16386.326    26556.917     -9832.59    32434.652    8980.1634   -4868.0321   -1471.7778    81.569484 
   11100    741.55297   -111.48279   0.67097271   -110.81182   -20661.124    4.3548267    4.3548267    4.3548267   -20661.124   -16362.706    9860.6356   -55481.303   -7751.3206    11608.295    2682.2827     82.58718 
   11200    895.27994   -111.61485   0.81006811   -110.80478   -2330.8069    4.3408689    4.3408689    4.3408689   -2330.8069   -13549.443    16576.299   -10019.276   -10.757109   -324.15508    4281.0812    81.795615 
   11300    1225.9963   -111.91132    1.1093072   -110.80201     23190.37    4.3276522    4.3276522    4.3276522     23190.37     47189.99    7571.6978    14809.422    729.08575   -2747.5358    1216.5541    81.050754 
   11400    747.28593   -111.49313   0.67616001   -110.81697   -10363.123    4.3572579    4.3572579    4.3572579   -10363.123    -23582.15   -837.32075   -6669.8986    253.06943    2195.3475    8356.3817    82.725576 
   11500    1073.8934    -111.7782   0.97168134   -110.80652    1355.1671    4.3508323    4.3508323    4.3508323    1355.1671    32886.671    652.22876   -29473.399    5492.1448   -12207.828    1735.9793     82.36013 
   11600    989.74729   -111.69885   0.89554415    -110.8033    26898.935    4.3280554    4.3280554    4.3280554    26898.935    45661.907   -8223.9438    43258.841   -2817.4001    290.83616    3991.8466    81.073407 
   11700    857.03318   -111.59454   0.77546163   -110.81908   -18458.105    4.3416894    4.3416894    4.3416894   -18458.105   -11238.715   -7127.4787   -37008.122   -5883.7989    3327.7938     8268.683    81.842001 
   11800    870.43164   -111.60627   0.78758484   -110.81868    -9819.318    4.3590905    4.3590905    4.3590905    -9819.318    783.12246   -5769.9206   -24471.156   -5600.4072   -3739.0917    2114.2543    82.829999 
   11900    1411.1109   -112.08685    1.2768028   -110.81005   -11134.383     4.345089     4.345089     4.345089   -11134.383    5867.6023   -23366.164   -15904.586   -471.49737     8038.475    4562.1005    82.034403 
   12000    762.06517   -111.50155   0.68953258   -110.81202    27708.321    4.3265553    4.3265553    4.3265553    27708.321    62041.625    7267.5968     13815.74   -16300.637      6905.68    367.35045    80.989138 
   12100    1108.6717   -111.82549    1.0031495   -110.82234   -18935.969    4.3556953    4.3556953    4.3556953   -18935.969    13215.731   -20334.091   -49689.547    2450.7973   -6685.9822   -1038.0647    82.636606 
   12200    1082.2891   -111.78387   0.97927793   -110.80459   -4435.7002    4.3546364    4.3546364    4.3546364   -4435.7002    12296.286   -24247.355   -1356.0319   -1662.6512   -4630.7993    1336.2152     82.57635 
   12300    864.92851   -111.58395   0.78260549   -110.80135    6717.8873    4.3327856    4.3327856    4.3327856    6717.8873    3780.3167    7665.3427    8708.0024     1327.354    5057.8339   -700.75305    81.339518 
   12400    918.10744   -111.64372   0.83072291     -110.813   -13177.199    4.3470231    4.3470231    4.3470231   -13177.199   -8134.7096    -9387.134   -22009.752    6082.5311   -3768.9555   -4320.1013    82.143999 
   12500    1161.5108   -111.85695    1.0509594   -110.80599    10938.223    4.3524492    4.3524492    4.3524492    10938.223     64216.87   -24781.226   -6620.9761    3342.9199   -2028.6074    2043.3584    82.451987 
   12600    923.91821   -111.64484   0.83598061   -110.80886   -5386.4477    4.3481918    4.3481918    4.3481918   -5386.4477    25183.638   -7127.8256   -34215.156    5254.0072    3086.9069    1166.5482    82.210272 
   12700    715.78649   -111.45399   0.64765866   -110.80633   -3426.8841    4.3457917    4.3457917    4.3457917   -3426.8841    15272.397    4130.3688   -29683.418    3594.0743   -4179.3863   -8758.5411    82.074211 
   12800    1265.3102   -111.94903    1.1448793   -110.80415    13818.242    4.3391573    4.3391573    4.3391573    13818.242    21753.041     11602.41    8099.2758    3846.9934    5782.1523    204.23331    81.698895 
   12900    859.28673   -111.60063   0.77750069   -110.82313   -16906.274    4.3445612    4.3445612    4.3445612   -16906.274   -22329.457   -790.39671   -27598.967   -7572.2407   -11329.156   -4067.8702    82.004515 
   13000    903.40763   -111.64304   0.81742221   -110.82562    9516.3916    4.3426294    4.3426294    4.3426294    9516.3916    26166.358   -6581.3897    8964.2067   -4690.5801   -4469.1748    476.33168     81.89517 
   13100    1451.8294   -112.12491    1.3136457   -110.81126    6385.2425       4.3471       4.3471       4.3471    6385.2425    27670.498    9742.7662   -18257.537   -1721.1668    2128.0982    4899.3083    82.148358 
   13200    605.25744   -111.36354   0.54764965   -110.81589    290.61136      4.34011      4.34011      4.34011    290.61136   -10514.639    24552.121   -13165.648    -1041.915   -14107.204   -9676.9695     81.75272 
   13300    881.15345    -111.6119   0.79728616   -110.81461    -3088.561    4.3436949    4.3436949    4.3436949    -3088.561    18612.907   -13319.162   -14559.428    327.25481    3984.9565    3483.5241     81.95547 
   13400     1098.604   -111.79916   0.99404001   -110.80512    16595.881    4.3480107    4.3480107    4.3480107    16595.881    15882.887   -103.31859    34008.074    874.11907     2861.944    5278.4574    82.200002 
   13500    987.27033   -111.70307   0.89330294   -110.80977   -781.62663    4.3403605    4.3403605    4.3403605   -781.62663   -9392.4041    13269.902   -6222.3774    3951.8659   -13041.773   -7336.9031    81.766878 
   13600    1202.5079   -111.90021    1.0880544   -110.81216   -2553.2079    4.3487569    4.3487569    4.3487569   -2553.2079    12537.295   -18989.069   -1207.8499     12575.05    5255.4741    5890.3386    82.242328 
   13700    1482.1277   -112.14183    1.3410603   -110.80077   -5697.9685    4.3468849    4.3468849    4.3468849   -5697.9685   -9191.5533    -4660.963    -3241.389    5995.4822   -8925.0536   -3018.3654    82.136165 
   13800    649.62709   -111.39704   0.58779624   -110.80925   -1323.5637    4.3426944    4.3426944    4.3426944   -1323.5637   -8993.3014    13740.092   -8717.4814    4039.0631   -8413.3253   -15228.284    81.898848 
   13900    1003.4655   -111.71765   0.90795669    -110.8097   -10770.327    4.3501254    4.3501254    4.3501254   -10770.327   -18580.994   -22863.958    9133.9713    6872.6566    4407.8954     846.3606    82.319993 
   14000    1111.8029   -111.80836    1.0059826   -110.80238    25312.304    4.3429786    4.3429786    4.3429786    25312.304    16465.057   -3452.3254    62924.182    4130.0958    -1890.248   -975.14561    81.914933 
   14100    1025.7531   -111.73659     0.928123   -110.80846   -4250.2266    4.3451454    4.3451454    4.3451454   -4250.2266    1392.9744   -13123.854   -1019.8003    3477.1445   -1875.6524   -9238.7114      82.0376 
   14200    1138.3263     -111.838    1.0299815   -110.80802   -4643.3015    4.3483658    4.3483658    4.3483658   -4643.3015   -1522.6728   -26442.629    14035.398    1866.7058    10431.845    11808.307    82.220143 
   14300    1036.6284   -111.75202   0.93796314   -110.81406    1505.7524    4.3394106    4.3394106    4.3394106    1505.7524    7092.0189   -11647.083    9072.3211    4056.7082    -931.4754    13590.773    81.713201 
   14400    823.77132   -111.57182    0.7453656   -110.82646    4999.8459    4.3393464    4.3393464    4.3393464    4999.8459   -4663.8868   -1682.0876    21345.512    3396.9206   -10633.643   -15866.022    81.709575 
   14500    1004.8617   -111.73288   0.90921997   -110.82366   -17826.676    4.3610727    4.3610727    4.3610727   -17826.676   -17712.584   -44795.281    9027.8356    4757.2011    1273.7792    9788.8351    82.943044 
   14600    1376.4315    -112.0606    1.2454242   -110.81517    6945.8273    4.3323617    4.3323617    4.3323617    6945.8273    14525.476   -14858.809    21170.815   -1850.1343   -4061.0294    2503.4042    81.315647 
   14700    719.92692   -111.47271   0.65140501   -110.82131    20541.237    4.3261668    4.3261668    4.3261668    20541.237    4639.8653   -12103.744    69087.591    5090.8317   -4659.0035   -6031.2331    80.967322 
   14800    1221.5089   -111.92626    1.1052469   -110.82101   -37667.372    4.3623167    4.3623167    4.3623167   -37667.372   -47889.509    -39780.99   -25331.616    5748.1214    7002.2603    11411.504    83.014046 
   14900    1128.8178   -111.83519    1.0213781   -110.81381     22496.78    4.3404916    4.3404916    4.3404916     22496.78    5821.0001   -9424.3267    71093.667   -1202.1551   -9893.5752   -8536.2745    81.774289 
   15000    877.40551   -111.61208   0.79389494   -110.81819    5285.0141    4.3254565    4.3254565    4.3254565    5285.0141    10340.407     1158.984    4355.6511    6924.4994    1620.2475   -8555.7074    80.927449 
   15100     766.6629   -111.52648    0.6936927   -110.83279    7188.4878    4.3469188    4.3469188    4.3469188    7188.4878   -16561.393   -10655.077    48781.933     -2765.15   -239.95145    11559.791    82.138086 
   15200    1444.5402   -112.12378    1.3070503   -110.81673    -25704.42    4.3553781    4.3553781    4.3553781    -25704.42   -22814.483   -29421.007   -24877.769   -4365.2636     4184.352   -1188.6118    82.618552 
   15300    666.24348   -111.42428   0.60283111   -110.82145    19633.329    4.3289511    4.3289511    4.3289511    19633.329    4448.1395   -6154.0004    60605.847    7787.1633   -10555.379   -18703.259    81.123755 
   15400     1065.082   -111.79682    0.9637086   -110.83311    4890.1518    4.3366726    4.3366726    4.3366726    4890.1518   -8248.7936    13934.811     8984.438   -6279.6232    8882.9415     6573.105    81.558625 
   15500     1096.225   -111.81366    0.9918874   -110.82177   -6366.1659    4.3567395    4.3567395    4.3567395   -6366.1659   -19261.947   -19166.268    19329.717   -1353.1314   -4914.4979    11657.043    82.696051 
   15600    913.07603   -111.64359   0.82617038   -110.81742    3902.2925    4.3351783    4.3351783    4.3351783    3902.2925   -6724.9742    16376.088    2055.7631     3429.537   -1378.8877   -5428.1848    81.474348 
   15700    664.05077   -111.42891   0.60084709   -110.82807    2742.1444    4.3381369    4.3381369    4.3381369    2742.1444   -11629.259   -574.10571    20429.798   -3299.7549    9366.3012    5890.1383    81.641273 
   15800    1223.5363   -111.92508    1.1070814     -110.818    7579.6321    4.3459299    4.3459299    4.3459299    7579.6321   -8119.1204    19026.573    11831.443    4927.6348    7789.1925    472.52854     82.08204 
   15900    1064.1188   -111.78369   0.96283706   -110.82085    2967.5819    4.3446784    4.3446784    4.3446784    2967.5819     -13963.7    20891.859    1974.5863   -2580.6601     292.5367   -4683.0583    82.011149 
   16000    968.59535   -111.69088   0.87640543   -110.81448    4647.0782    4.3451456    4.3451456    4.3451456    4647.0782   -10987.491    8195.3521    16733.374   -6848.7745    8195.9161    9367.0536    82.037609 
   16100    1337.6865   -112.01302    1.2103668   -110.80266   -2006.0372    4.3428605    4.3428605    4.3428605   -2006.0372    945.07862   -11533.653    4570.4627    4638.7429   -11370.746   -7263.8059    81.908247 
   16200    718.05514   -111.45661   0.64971138    -110.8069   -16253.838    4.3462205    4.3462205    4.3462205   -16253.838   -21265.565   -23066.995   -4428.9545    -1639.328    7187.1945   -1803.5046     82.09851 
   16300    943.23549   -111.66389   0.85345929   -110.81043   -5671.9321    4.3444883    4.3444883    4.3444883   -5671.9321   -8787.0401   -11583.753    3354.9968    1385.9242    6760.6913    13952.207    82.000385 
   16400    1626.9899   -112.27643    1.4721346   -110.80429   -5724.7462    4.3473386    4.3473386    4.3473386   -5724.7462   -7761.3137   -6522.2928   -2890.6321   -787.15264   -2529.6597   -9135.3168    82.161889 
   16500    674.41969   -111.43123   0.61022911     -110.821   -2238.6931    4.3467305    4.3467305    4.3467305   -2238.6931   -40790.581    9357.6982    24716.803    3898.8174     3057.802    521.41266    82.127413 
   16600    1037.2698   -111.75984    0.9385435    -110.8213   -8073.6056    4.3363851    4.3363851    4.3363851   -8073.6056   -12268.169    10807.313   -22759.961   -2133.9935    12739.813    15785.898    81.542409 
   16700    1178.5077   -111.88083    1.0663386   -110.81449    4666.0956    4.3422079    4.3422079    4.3422079    4666.0956    5363.4188   -6036.3523     14671.22    8126.6281   -8995.0538   -8621.1869     81.87133 
   16800    713.49947    -111.4622   0.64558931   -110.81661   -14777.872    4.3532998    4.3532998    4.3532998   -14777.872   -20001.646   -5611.2321   -18720.739   -4389.8844    9556.9558    2283.6934     82.50034 
   16900    978.38202   -111.69235   0.88526062   -110.80709    12188.773    4.3393324    4.3393324    4.3393324    12188.773    26399.541    5958.1398    4208.6385    1247.4715    7833.3612    3247.2307    81.708783 
   17000    1171.1675    -111.8631    1.0596969    -110.8034    13580.328    4.3426361    4.3426361    4.3426361    13580.328   -9764.8575     19413.01     31092.83   -630.06483   -5207.6979   -10902.885    81.895554 
   17100    798.91879   -111.53533   0.72287851   -110.81245   -7358.9855    4.3445059    4.3445059    4.3445059   -7358.9855   -13171.482    25620.114   -34525.588   -11905.212    22425.742   -7400.4848    82.001383 
   17200    590.74519   -111.34997   0.53451866   -110.81545    24502.039    4.3382055    4.3382055    4.3382055    24502.039    9531.5962    15390.012     48584.51    794.15415    1766.6746    9548.5999    81.645146 
   17300    1372.5374    -112.0566    1.2419007    -110.8147   -10567.545    4.3487762    4.3487762    4.3487762   -10567.545   -16976.739   -1952.0103   -12773.886   -5609.8722    5620.3541   -1626.8417    82.243423 
   17400    716.30713   -111.46737   0.64812975   -110.81925    15305.661    4.3388729    4.3388729    4.3388729    15305.661   -5193.3715    36858.647    14251.708   -3439.0643    12407.719    240.33425    81.682831 
   17500    743.75716   -111.49233   0.67296711   -110.81937    11783.232    4.3381697    4.3381697    4.3381697    11783.232   -2640.5138    9406.0669    28584.144   -1847.1447   -6402.5755    17589.117    81.643125 
   17600    1155.5538   -111.85463    1.0455694   -110.80906   -11567.785    4.3524935    4.3524935    4.3524935   -11567.785    -39792.72     8450.134   -3360.7699    1345.0935   -3346.8731    1912.6232    82.454509 
   17700    976.56647   -111.69175   0.88361786   -110.80813    5533.9702    4.3353594    4.3353594    4.3353594    5533.9702   -4642.1743   -6425.8744    27669.959   -252.52993    7975.9719    3423.7147    81.484561 
   17800     1027.067   -111.74455   0.92931182   -110.81524    2331.9088    4.3329402    4.3329402    4.3329402    2331.9088    15302.473   -19939.532    11632.785    10417.141   -13412.083    4537.5939    81.348228 
   17900    1332.1846   -112.01677    1.2053886   -110.81139   -8808.2894    4.3532021    4.3532021    4.3532021   -8808.2894   -14724.168   -22751.598    11050.898    6696.8459    3028.3378   -3915.2077    82.494787 
   18000     880.1936   -111.60691   0.79641766   -110.81049   -15699.464    4.3428715    4.3428715    4.3428715   -15699.464   -23443.244   -19268.219   -4386.9278    5622.6613    2105.2093    360.04238    81.908873 
   18100    694.51691   -111.43584    0.6284135   -110.80743    6859.9742    4.3316706    4.3316706    4.3316706    6859.9742   -8284.3961   -6354.9625    35219.281    11440.229   -11665.333    5718.8895    81.276738 
   18200    1426.5806   -112.09871    1.2908001   -110.80791    3411.8617    4.3459338    4.3459338    4.3459338    3411.8617   -6836.2012   -6334.2402    23406.027   -434.12208    6240.2387   -2853.8012    82.082261 
   18300     1148.238   -111.85814    1.0389499   -110.81919    -19133.42    4.3462965    4.3462965    4.3462965    -19133.42   -14107.097   -29559.892   -13733.271    11715.994     -3824.23    7522.8192    82.102813 
   18400    604.88151   -111.37077    0.5473095   -110.82346    17013.293     4.339533     4.339533     4.339533    17013.293   -4010.4663    8673.4091    46376.937    4860.4378   -11088.962    -2204.328    81.720121 
   18500    1318.5787   -112.00583    1.1930777   -110.81275   -4452.6884    4.3446865    4.3446865    4.3446865   -4452.6884   -27439.161     9380.432    4700.6636   -10646.083   -5196.1079    6691.3942    82.011611 
   18600    511.93664   -111.28647   0.46321103   -110.82326    5903.7713    4.3422197    4.3422197    4.3422197    5903.7713     -13903.7     19617.03    11997.984    13608.213   -5696.8751    7047.9033    81.871998 
   18700    845.99727    -111.5917   0.76547611   -110.82622    16946.317    4.3410204    4.3410204    4.3410204    16946.317     4042.794    19760.048    27036.108   -8584.3594   -13849.778    1454.6367    81.804175 
   18800    1537.1543   -112.20671    1.3908495   -110.81586   -4077.7195    4.3453817    4.3453817    4.3453817   -4077.7195    -6889.065    10746.683   -16090.777    1404.8649    20997.208   -568.77595    82.050984 
   18900    694.66008   -111.44315   0.62854304   -110.81461    11038.961    4.3374451    4.3374451    4.3374451    11038.961   -13047.317    4618.3212    41545.877    11004.913   -12070.623    2001.1776     81.60222 
   19000    1007.7933   -111.72119   0.91187259   -110.80932   -11926.189    4.3435324    4.3435324    4.3435324   -11926.189   -16147.592   -1443.7521   -18187.223   -6026.5387    9850.4909   -5523.7795    81.946269 
   19100    1070.4144   -111.77315   0.96853343   -110.80461    166.14761    4.3488876    4.3488876    4.3488876    166.14761   -17708.865    1305.4085    16901.899     7006.523    2438.8759   -3401.2831    82.249744 
   19200     1213.604   -111.90354    1.0980944   -110.80544   -5499.8221    4.3370548    4.3370548    4.3370548   -5499.8221   -5082.3331   -13276.858    1859.7246    1884.9818   -17244.615   -2027.3023    81.580194 
   19300    931.72566   -111.65384   0.84304496   -110.81079    11001.561    4.3405123    4.3405123    4.3405123    11001.561    14492.589    7148.4349    11363.659    4448.7573     17662.29    6329.2175    81.775457 
   19400    1309.3173   -111.98961    1.1846978   -110.80491   -9113.6273    4.3528351    4.3528351    4.3528351   -9113.6273   -23659.316   -4117.0342    435.46795    44.044604   -3335.9118   -2761.1853     82.47392 
   19500     738.2227   -111.47828   0.66795941   -110.81032    10006.387    4.3382768    4.3382768    4.3382768    10006.387   -15701.073    37456.378    8263.8569    446.36588   -2755.8405     5804.776    81.649169 
   19600    805.88234   -111.54492   0.72917928   -110.81574    14163.163     4.335027     4.335027     4.335027    14163.163   -8513.6476    31125.938    19877.198   -10603.271    18245.492    7362.0996     81.46582 
   19700    1354.0716   -112.03816    1.2251924   -110.81296   -3575.9659     4.354427     4.354427     4.354427   -3575.9659   -4455.5608    20571.982   -26844.319   -2999.7281   -8555.2074   -2473.2881    82.564443 
   19800    575.81179   -111.34416   0.52100661   -110.82316    12257.246     4.343129     4.343129     4.343129    12257.246    -1848.183    14845.216    23774.706   -6709.2019    2106.3615   -12837.523    81.923444 
   19900    818.26066   -111.56026   0.74037944   -110.81988    3754.8673    4.3368369    4.3368369    4.3368369    3754.8673   -11440.974    25349.655   -2644.0797    -9763.754    15744.199   -3273.4092    81.567896 
   20000    1233.8974   -111.92574    1.1164563   -110.80929    13272.323    4.3410415    4.3410415    4.3410415    13272.323     -2148.27    24603.476    17361.763    2431.8057   -13459.231   -8589.2656    81.805371 
   20100    671.41241   -111.42281   0.60750806    -110.8153    5969.9233    4.3437273    4.3437273    4.3437273    5969.9233    2922.8268    23248.992    -8262.049   -12930.991    13438.806    2784.5509    81.957305 
   20200    1103.4487   -111.80791   0.99842356   -110.80949    -13398.54    4.3472416    4.3472416    4.3472416    -13398.54    -15356.06    -8334.995   -16504.565   -5336.8509    11756.084    2105.3817    82.156385 
   20300    1150.5553    -111.8431    1.0410466   -110.80205    21389.193    4.3331269    4.3331269    4.3331269    21389.193    25528.399    3456.8211     35182.36    2416.4479    1091.1948   -5769.6289    81.358741 
   20400    801.00362   -111.54341   0.72476491   -110.81864   -17318.177    4.3387012    4.3387012    4.3387012   -17318.177   -24346.188   -12395.205   -15213.137   -6068.9268    15644.974    8914.9451    81.673133 
   20500    932.38853   -111.66373   0.84364474   -110.82009   -17849.465    4.3489242    4.3489242    4.3489242   -17849.465   -33259.866    -26228.73    5940.2016   -3691.6727    8038.9001   -3848.2422    82.251818 
   20600    1635.6619   -112.28715    1.4799813   -110.80716   -90.266851    4.3352364    4.3352364    4.3352364   -90.266851    7533.4354   -4029.3687   -3774.8673    15531.805   -1215.5844   -6202.6007    81.477624 
   20700    967.35407   -111.68958   0.87528229   -110.81429   -20324.815    4.3474112    4.3474112    4.3474112   -20324.815   -26984.532   -27667.606   -6322.3061   -8534.4879    8947.1091     3421.493    82.166005 
   20800    829.98692   -111.56038   0.75098961   -110.80939   -9647.7394    4.3421411    4.3421411    4.3421411   -9647.7394   -21702.912   -11851.312    4611.0053    488.96372   -854.39429   -5493.5756    81.867552 
   20900     1034.455   -111.73761   0.93599663   -110.80162    16009.305    4.3313766    4.3313766    4.3313766    16009.305    41639.129   -8264.7083    14653.495    4838.1418   -2730.3453   -2559.4523    81.260192 
   21000    764.10033    -111.5034   0.69137403   -110.81203   -12432.115    4.3476943    4.3476943    4.3476943   -12432.115   -16884.611   -23405.448    2993.7138   -20851.881    -2181.317    411.29055    82.182053 
   21100    1141.2952   -111.84408    1.0326679   -110.81141    -1264.598    4.3407447    4.3407447    4.3407447    -1264.598    18488.628    237.63988   -22520.062   -1080.4759   -5718.1269   -14620.339     81.78859 
   21200    1221.8079   -111.91286    1.1055175   -110.80734    17052.176    4.3351535    4.3351535    4.3351535    17052.176     19170.16   -2332.1259    34318.493   -3605.6609    6017.0892    8672.7435    81.472951 
   21300    873.66117   -111.60509   0.79050699   -110.81458   -5977.7081    4.3394392    4.3394392    4.3394392   -5977.7081    4648.3217   -5558.0324   -17023.414   -11696.762   -1939.5747    -4465.475     81.71482 
   21400    637.94203   -111.39347   0.57722336   -110.81625    9966.0503    4.3385163    4.3385163    4.3385163    9966.0503    8773.5887   -5427.6013    26552.164    90.259217   -6529.0722    -15832.29    81.662693 
   21500     1239.812   -111.93092    1.1218079   -110.80911    4579.3791    4.3409496    4.3409496    4.3409496    4579.3791     22964.94   -1822.6893    -7404.113    1770.1792    5807.3842    6983.0909    81.800177 
   21600     957.8564   -111.68059    0.8666886   -110.81391    14116.912    4.3341789    4.3341789    4.3341789    14116.912    16726.219    22077.835    3546.6827   -728.94249     3092.514   -1821.4945    81.418014 
   21700    986.07054   -111.71016   0.89221735   -110.81795    2904.3548    4.3392516    4.3392516    4.3392516    2904.3548    24131.555    -5847.676   -9570.8149    4253.0012     -5802.79   -3238.7845    81.704223 
   21800    1123.0235   -111.82494    1.0161353    -110.8088    5310.5791    4.3425709    4.3425709    4.3425709    5310.5791   -6565.5188    2164.8064     20332.45    4296.1199    4023.4825    9836.2646    81.891866 
   21900    897.04492    -111.6195    0.8116651   -110.80784    6611.0293    4.3314979    4.3314979    4.3314979    6611.0293    27551.991    -8142.143    423.24037    1109.3273   -6783.5315   -6703.1545    81.267017 
   22000    850.43881   -111.58629   0.76949491   -110.81679   -11830.729    4.3453511    4.3453511    4.3453511   -11830.729   -24983.038   -25042.738     14533.59    12744.382   -8751.5869   -4560.0456    82.049248 
   22100    1459.6905   -112.12759    1.3207587   -110.80684    2092.2538    4.3380611    4.3380611    4.3380611    2092.2538     3881.489    18709.509   -16314.236    5765.8523    536.88693    5423.2124    81.636994 
   22200    1146.9042   -111.84808    1.0377431   -110.81034    8813.7108    4.3269389    4.3269389    4.3269389    8813.7108    9586.8005    7634.2012    9220.1307    830.56675   -4125.3658   -13264.867    81.010682 
   22300    824.13044   -111.56722   0.74569054   -110.82153   -20922.193    4.3452552    4.3452552    4.3452552   -20922.193   -30462.035   -17573.931   -14730.614    15381.366   -8739.0708   -5451.7791    82.043819 
   22400    963.21141   -111.68139   0.87153392   -110.80985    5268.4663    4.3413168    4.3413168    4.3413168    5268.4663    46.415369   -7159.9443    22918.928    1550.1264    2684.8791    -2704.792    81.820937 
   22500    1058.6141   -111.76612   0.95785631   -110.80826   -1682.5192     4.335991     4.335991     4.335991   -1682.5192   -7130.2802     -10128.8    12211.523   -509.27179    2746.2808   -11977.892    81.520178 
   22600    873.12641   -111.60289   0.79002313   -110.81287   -5955.1815    4.3405234    4.3405234    4.3405234   -5955.1815   -27028.224    9597.1272   -434.44811     10422.62   -2776.5936    9034.3455    81.776081 
   22700    1113.9743   -111.81822    1.0079474   -110.81027    6440.6183    4.3347778    4.3347778    4.3347778    6440.6183    1455.8546    19140.817   -1274.8162   -8300.2716    3060.6944     1946.403    81.451767 
   22800    1118.0695   -111.82597    1.0116528   -110.81432   -8861.5241    4.3390416    4.3390416    4.3390416   -8861.5241    14155.733   -18324.693   -22415.612   -3855.4225   -12116.782   -16330.829     81.69236 
   22900    647.05629   -111.40028   0.58547013   -110.81481    14513.648     4.337066     4.337066     4.337066    14513.648   -1421.3253     8272.257    36690.014    3286.2058   -3181.9228    9501.1136    81.580826 
   23000    1003.5573   -111.71924   0.90803978    -110.8112   -2345.2698    4.3388351    4.3388351    4.3388351   -2345.2698    29285.655     -29519.8   -6801.6647   -7250.3253   -860.37903   -7574.6422    81.680697 
   23100    1033.9844    -111.7443    0.9355708   -110.80873    6832.7106    4.3437396    4.3437396    4.3437396    6832.7106    16066.032   -30352.492    34784.591    2995.2819   -9328.0413    -8235.175    81.958001 
   23200    1070.9098   -111.77704   0.96898169   -110.80806    1897.9107    4.3370063    4.3370063    4.3370063    1897.9107   -4477.0003     12885.28   -2714.5476    15715.381    2745.6361    9811.6229    81.577458 
   23300    886.61442   -111.61258   0.80222736   -110.81035    3692.5868    4.3347337    4.3347337    4.3347337    3692.5868    7219.2154   -4663.4786    8522.0235    -8613.591    320.00867   -12804.098    81.449284 
   23400    1199.4344   -111.89531    1.0852735   -110.81004       -15876    4.3419381    4.3419381    4.3419381       -15876   -8592.0782   -26165.228   -12870.695    14086.211    4915.1008   -700.35003    81.856067 
   23500    680.90868   -111.42637   0.61610048   -110.81027    18221.947    4.3358778    4.3358778    4.3358778    18221.947   -6686.9243    20976.859    40375.907    11319.568    1730.0272    5612.0197    81.513795 
   23600     1129.451   -111.82982     1.021951   -110.80787   -11366.077    4.3437648    4.3437648    4.3437648   -11366.077   -7543.6081   -20054.834   -6499.7898   -10490.391      12362.2   -15247.084    81.959423 
   23700      1393.86    -112.0604    1.2611939    -110.7992   -10646.612    4.3454731    4.3454731    4.3454731   -10646.612   -23153.365   -12608.687    3822.2158    13082.677    5038.1249    9920.9425    82.056163 
   23800    1078.9401   -111.77418   0.97624763   -110.79793    15827.229    4.3255614    4.3255614    4.3255614    15827.229     2591.611    24738.203    20151.873   -4691.3931   -2343.3476   -9444.6531    80.933336 
   23900    892.58211   -111.62017   0.80762705   -110.81255   -7042.9338    4.3451913    4.3451913    4.3451913   -7042.9338    7685.7264   -18453.833   -10360.694   -3642.5551    8509.3863   -15872.954    82.040198 
   24000    1180.0899   -111.86763    1.0677702   -110.79986    -20828.22    4.3498408    4.3498408    4.3498408    -20828.22   -20410.686   -48917.624    6843.6501     11655.07   -2777.3388    9328.5704    82.303839 
   24100    729.86315    -111.4555   0.66039552   -110.79511    37127.629    4.3234377    4.3234377    4.3234377    37127.629     63740.88    16848.382    30793.625   -6576.3879     -12198.5   -12214.343    80.814191 
   24200    966.52722    -111.6799   0.87453414   -110.80537    9374.0965    4.3445347    4.3445347    4.3445347    9374.0965    17175.003    10252.536    694.75049   -6864.1005    107.56443   -14099.977    82.003012 
   24300    1147.3775   -111.83207    1.0381713    -110.7939   -8472.4541    4.3540862    4.3540862    4.3540862   -8472.4541    8141.2235   -27175.873   -6382.7126    829.66681   -7058.0053    794.82148    82.545056 
   24400    800.97292   -111.51842   0.72473713   -110.79368    19719.195    4.3241844    4.3241844    4.3241844    19719.195    28975.149   -2935.7254    33118.161   -11805.408   -14478.254   -17357.229    80.856066 
   24500    902.29216   -111.62042   0.81641291   -110.80401    7477.8757    4.3342299    4.3342299    4.3342299    7477.8757   -1191.7309    10768.207    12857.151    3940.0108    4901.9298   -3717.6019    81.420885 
   24600      1031.63   -111.73539   0.93344052   -110.80195   -16381.442    4.3537758    4.3537758    4.3537758   -16381.442   -23460.313   -33875.237    8191.2242    276.25987    269.80965   -9206.3722    82.527406 
   24700     839.6171   -111.55879   0.75970319   -110.79909    4598.9131    4.3375241    4.3375241    4.3375241    4598.9131   -16007.843    22330.148    7474.4339   -11093.436   -5216.7529   -19158.794    81.606678 
   24800    1229.2023   -111.90833    1.1122081   -110.79612    -2015.792    4.3311227    4.3311227    4.3311227    -2015.792   -23410.392     25871.78   -8508.7642    19382.295    21658.843    8569.7297    81.245903 
   24900    1182.1093   -111.87081    1.0695973   -110.80122   -17310.428    4.3477699    4.3477699    4.3477699   -17310.428   -22575.997   -26171.115   -3184.1714   -442.61977   -1719.1808   -2271.0275    82.186343 
   25000     1111.181   -111.80471    1.0054199   -110.79929    -15980.07    4.3459816    4.3459816    4.3459816    -15980.07   -20675.894    567.15295   -27831.468   -4191.2485    11180.911   -1865.6863    82.084973 
   25100    1105.9768   -111.79785    1.0007111   -110.79714   -11227.728    4.3345822    4.3345822    4.3345822   -11227.728   -25446.662   -24776.592     16540.07    21148.765    13060.922    8624.5358    81.440744 
   25200    1092.8674   -111.78994   0.98884942   -110.80109   -13552.309    4.3396749    4.3396749    4.3396749   -13552.309   -27436.176   -11625.249   -1595.5032   -4338.3255    953.54402   -7359.6778    81.728134 
   25300    1115.1586   -111.80925     1.009019   -110.80023   -16605.914    4.3496673    4.3496673    4.3496673   -16605.914   -36676.654   -963.91349   -12177.176    8720.2927    15955.798   -4682.9225    82.293991 
   25400    1020.4098   -111.72307   0.92328824   -110.79978    1153.7711    4.3362672    4.3362672    4.3362672    1153.7711   -24927.102   -13452.354     41840.77    3657.4416    7864.4584   -3941.1788    81.535759 
   25500    1059.2675   -111.76298    0.9584475   -110.80453    15966.344     4.331043     4.331043     4.331043    15966.344    1299.4347    16764.149    29835.447   -9142.7544    478.75804   -18497.606    81.241414 
   25600     785.3956   -111.51926   0.71064244   -110.80861   -5743.7264    4.3519572    4.3519572    4.3519572   -5743.7264   -41120.698   -2117.5673    26007.086    8674.2166    10337.948   -10652.613     82.42403 
   25700    836.20341   -111.55619   0.75661442   -110.79958   -13298.595    4.3457284    4.3457284    4.3457284   -13298.595   -40106.419    554.86061   -344.22605   -8164.5402    251.71611   -6165.8758    82.070627 
   25800    1198.7897   -111.87655    1.0846901   -110.79186    19661.182    4.3246748    4.3246748    4.3246748    19661.182    78.323693    35535.231    23369.992   -5347.2772     1859.156   -8494.7178     80.88358 
   25900    946.04602   -111.66266   0.85600232   -110.80665   -9443.5816    4.3447132    4.3447132    4.3447132   -9443.5816   -32683.062   -202.00314    4554.3202    6607.8225    12666.186     12761.99     82.01312 
   26000     1037.734   -111.74769   0.93896352   -110.80873    -11648.62    4.3362804    4.3362804    4.3362804    -11648.62    -23218.98   -25472.663    13745.783   -16887.406   -6142.4984    6464.2446    81.536504 
   26100    1063.9397   -111.76515   0.96267496   -110.80248    19684.711    4.3221359    4.3221359    4.3221359    19684.711   -2589.7932    5354.8001    56289.125   -253.69405    5160.3003   -7731.0946    80.741207 
   26200    763.90024   -111.50481   0.69119299   -110.81362   -36951.904    4.3525098    4.3525098    4.3525098   -36951.904   -63760.351   -40127.756   -6967.6059    6157.0952    18335.294    5542.7962    82.455431 
   26300    1143.0449   -111.84176    1.0342511   -110.80751   -6026.5498    4.3349343    4.3349343    4.3349343   -6026.5498   -21747.247   -17154.905    20822.503   -21946.322   -11669.422    7327.3184    81.460591 
   26400    1402.5903   -112.06812    1.2690932   -110.79903    20222.944    4.3149547    4.3149547    4.3149547    20222.944    4537.9844    51414.302    4716.5452    8829.7251    18014.861   -4913.8409    80.339428 
   26500    642.99141   -111.40442   0.58179214   -110.82263   -23187.463    4.3473738    4.3473738    4.3473738   -23187.463   -43650.922   -21940.392   -3971.0739   -3776.6128    2215.7809    15141.656    82.163884 
   26600    888.49494   -111.60929   0.80392889   -110.80536   -6066.7446    4.3453098    4.3453098    4.3453098   -6066.7446   -26572.689   -15624.503    23996.958   -17532.763     350.1699    18582.224    82.046908 
   26700    982.65914   -111.68633   0.88913064    -110.7972    8737.3396    4.3313372    4.3313372    4.3313372    8737.3396   -28611.374    6414.6485    48408.744    8820.3282     3818.292    1097.1311    81.257975 
   26800    748.52242   -111.48548   0.67727881    -110.8082   -16440.881    4.3399842    4.3399842    4.3399842   -16440.881   -42330.861   -47725.502    40733.718   -14574.478    8325.7273    8882.3978    81.745613 
   26900     1421.992   -112.08954    1.2866483   -110.80289   -1220.1991    4.3361816    4.3361816    4.3361816   -1220.1991    2697.0994     -21891.2    15533.503   -11277.798   -4825.8332    961.44878     81.53093 
   27000    1155.0166   -111.85366    1.0450833   -110.80858   -22027.118    4.3428481    4.3428481    4.3428481   -22027.118   -21415.196    -20457.26   -24208.899    782.14532    19776.822   -2181.3385    81.907545 
   27100    783.72527   -111.51815   0.70913109   -110.80902   -22234.378    4.3390796    4.3390796    4.3390796   -22234.378   -22615.997   -45714.524    1627.3881   -15015.226   -1856.1521   -916.19923    81.694504 
   27200    990.18907   -111.69878   0.89594388   -110.80283    17252.119      4.33217      4.33217      4.33217    17252.119    4912.1363    332.03604    46512.185    2960.8148   -7736.1541    1605.6788    81.304856 
   27300    962.27667   -111.67994   0.87068815   -110.80925   -11189.395    4.3450287    4.3450287    4.3450287   -11189.395   -34315.648   -18147.226     18894.69     1672.679    12573.825    6594.8594    82.030988 
   27400    1011.8083   -111.72221   0.91550542    -110.8067    4056.5733     4.340414     4.340414     4.340414    4056.5733   -22297.941   -9192.1543    43659.815   -11388.001   -4702.6777    13131.406    81.769902 
   27500    1015.5372   -111.72398   0.91887942    -110.8051    11853.149    4.3325765    4.3325765    4.3325765    11853.149    2451.5292    36895.941   -3788.0223    6530.3459   -6955.3891    5804.9525    81.327744 
   27600    699.42796   -111.44612   0.63285711   -110.81327   -12156.323    4.3416105    4.3416105    4.3416105   -12156.323   -35503.733    2554.0619   -3519.2981   -6145.1195    4556.0679    2548.3452    81.837545 
   27700    1110.4999   -111.81219    1.0048036   -110.80739   -10082.092    4.3397163    4.3397163    4.3397163   -10082.092   -23856.191   -8436.3332    2046.2495   -12617.477   -7658.8559    6048.3532    81.730476 
   27800    838.92482   -111.56954   0.75907681   -110.81046    1182.9799    4.3293939    4.3293939    4.3293939    1182.9799   -1219.1921    24180.768   -19412.636    3010.0711   -11819.014    -17465.68     81.14865 
   27900    1137.1658   -111.84115    1.0289315   -110.81222   -11936.836    4.3333763    4.3333763    4.3333763   -11936.836   -23925.542   -23157.343    11272.377   -9080.3478    12680.769    2804.5163    81.372789 
   28000    1190.0361   -111.88416    1.0767696   -110.80739   -11768.671    4.3466364    4.3466364    4.3466364   -11768.671   -34845.945    22992.008   -23452.077    1261.2288   -15566.897    902.02283    82.122081 
   28100    799.34578    -111.5369   0.72326486   -110.81364    840.13428    4.3297514    4.3297514    4.3297514    840.13428   -8011.9957    40035.383   -29502.985    99.643452   -2806.1051   -3662.0718    81.168753 
   28200    993.67248   -111.71492   0.89909574   -110.81582    4939.6944    4.3229589    4.3229589    4.3229589    4939.6944    2736.9885    5908.5785    6173.5162   -12455.468    8145.4942   -5322.7981    80.787341 
   28300    982.41233   -111.70412   0.88890732   -110.81521   -22385.079    4.3532993    4.3532993    4.3532993   -22385.079   -37148.123    8442.6221   -38449.737    1783.7437   -20612.147   -4248.1194    82.500309 
   28400    1047.1939   -111.75613   0.94752308   -110.80861   -2549.7056    4.3330672    4.3330672    4.3330672   -2549.7056    20663.361   -18674.467   -9638.0111   -4525.1246    1284.3763   -10053.197    81.355377 
   28500    919.30168   -111.63527   0.83180348   -110.80346    15646.308    4.3145478    4.3145478    4.3145478    15646.308    9133.9842    31506.102    6298.8391   -17519.927   -133.05122   -1125.7136    80.316698 
   28600    995.05429   -111.71362   0.90034603   -110.81328   -18553.753    4.3494317    4.3494317    4.3494317   -18553.753   -27071.661    7213.2437   -35802.841    110.27802    -25553.43   -6759.2222     82.28062 
   28700    1129.3598   -111.82658    1.0218685   -110.80471    -11920.54    4.3445111    4.3445111    4.3445111    -11920.54    2615.5569   -8762.3866   -29614.789   -3043.6448    7214.1357    -6629.751     82.00168 
   28800    739.05499   -111.47318   0.66871249   -110.80447   -2846.3275    4.3246846    4.3246846    4.3246846   -2846.3275   -1670.8945    14458.695   -21326.783    -13932.47   -15220.784    5962.3026    80.884133 
   28900     1177.042   -111.87532    1.0650123   -110.81031   -7279.7764    4.3305025    4.3305025    4.3305025   -7279.7764   -9209.9017   -8101.4242   -4528.0034     11044.11       -21658   -2465.8102    81.211004 
   29000    986.30642   -111.70522   0.89243078   -110.81279    1289.4566    4.3437106    4.3437106    4.3437106    1289.4566    9275.9393    1225.6166    -6633.186   -757.45965    8325.4892   -4387.3586    81.956359 
   29100    823.12475   -111.56025   0.74478057   -110.81547   -23468.745    4.3415328    4.3415328    4.3415328   -23468.745   -35459.201   -4356.5822   -30590.452   -16089.755   -22268.732    7056.6323    81.833147 
   29200    1223.8514   -111.91461    1.1073665   -110.80724    12903.192    4.3185388    4.3185388    4.3185388    12903.192   -3818.5831     41912.31    615.84754    5783.6551   -4792.3481    8398.6278    80.539787 
   29300    891.60036   -111.62757   0.80673874   -110.82083    14881.624    4.3364422    4.3364422    4.3364422    14881.624    9237.3502    34120.628     1286.893   -13355.882    7459.6492   -7832.8746    81.545626 
   29400    797.02013   -111.52977   0.72116057   -110.80861   -27978.886    4.3557977    4.3557977    4.3557977   -27978.886    -25865.26   -34782.954   -23288.445   -6689.3474   -17845.082    38.072094    82.642437 
   29500    1277.4874   -111.95455    1.1558974   -110.79865    20439.403    4.3169596    4.3169596    4.3169596    20439.403    12211.565    28103.115     21003.53     7957.798    2568.5602   -436.72973    80.451463 
   29600    871.55722    -111.6031   0.78860328    -110.8145     20342.19    4.3221383    4.3221383    4.3221383     20342.19    19679.098    9176.9596    32170.514   -5752.3557   -4273.9188   -10592.758    80.741347 
   29700    916.85566   -111.63792   0.82959026   -110.80833   -24513.292    4.3536826    4.3536826    4.3536826   -24513.292   -26130.986   -17244.341    -30164.55    1609.8813   -11824.002   -7543.3052    82.522105 
   29800    1150.8355   -111.84125    1.0413002   -110.79995    17751.772    4.3272301    4.3272301    4.3272301    17751.772    7008.9337    59232.843   -12986.462    13689.964    1848.4839   -4615.2537    81.027041 
   29900    889.68575   -111.61386   0.80500636   -110.80886    5997.7813    4.3226572    4.3226572    4.3226572    5997.7813    10802.161    7696.2649   -505.08171    -9367.429    -7684.039   -9600.9585    80.770426 
   30000    901.63043   -111.62818   0.81581416   -110.81237   -1998.8309    4.3388593    4.3388593    4.3388593   -1998.8309   -5541.6907    14570.486   -15025.287   -11393.837   -12220.069   -3240.5961    81.682062 
   30100    1325.9217    -112.0055    1.1997219   -110.80578   -6575.2082    4.3397039    4.3397039    4.3397039   -6575.2082   -5156.6516   -9029.8582   -5539.1149    6100.5993    5669.0411    3419.2963    81.729774 
   30200    832.88272   -111.56714   0.75360979   -110.81353   -17987.864    4.3344503    4.3344503    4.3344503   -17987.864   -24864.929   -17336.507   -11762.156   -23626.659   -7850.3098   -5091.3553    81.433309 
   30300    1052.5745   -111.76275    0.9523915   -110.81036    9067.4093    4.3240126    4.3240126    4.3240126    9067.4093   -1930.1118    42542.019   -13409.679   -12829.166   -8668.3966    3033.2623    80.846433 
   30400     1118.487   -111.82662    1.0120306   -110.81459   -18444.443    4.3456805    4.3456805    4.3456805   -18444.443   -21773.083    3352.3977   -36912.644   -2223.6487    9428.7626    5706.2384    82.067909 
   30500    566.75644    -111.3287   0.51281314   -110.81589    -15349.53    4.3402695    4.3402695    4.3402695    -15349.53   -44899.887   -4917.7441    3769.0414   -28449.677   -11574.768   -10675.534    81.761732 
   30600    1294.8888   -111.97379    1.1716426   -110.80214    17982.597    4.3212313    4.3212313    4.3212313    17982.597   -4478.7014    36967.918    21458.574   -1542.7051    5422.9328    705.98221    80.690526 
   30700    1242.9176   -111.93658    1.1246179   -110.81196   -1779.2398    4.3383106    4.3383106    4.3383106   -1779.2398    -15335.14   -9227.3757    19224.796   -2168.4994    3853.8967    1885.9646    81.651078 
   30800    698.93664   -111.45476   0.63241256   -110.82235    -7729.086    4.3351162    4.3351162    4.3351162    -7729.086     -34740.7    17009.266   -5455.8243    -21766.73   -15152.364   -15157.122    81.470844 
   30900    1056.4613   -111.77046    0.9559084   -110.81455    8384.1741    4.3301259    4.3301259    4.3301259    8384.1741   -11703.977    46265.966   -9409.4666   -672.63661   -868.93175     5393.362    81.189819 
   31000    1066.3165   -111.77899   0.96482555   -110.81416    244.86908      4.33415      4.33415      4.33415    244.86908   -19859.126    20088.517    505.21572   -219.60768   -8209.0588   -4549.4664    81.416384 
   31100    452.81126   -111.23155   0.40971314   -110.82184    993.80392    4.3388513    4.3388513    4.3388513    993.80392   -31909.304    32625.284    2265.4319   -17961.587   -10435.199    -12447.69    81.681611 
   31200    1461.7218   -112.12763    1.3225966   -110.80503    881.06375    4.3391822    4.3391822    4.3391822    881.06375   -5182.9338   -2650.0121    10476.137    526.97961   -5164.6198    1238.7179      81.7003 
   31300    1333.2524   -112.01111    1.2063548   -110.80475    16682.885    4.3271538    4.3271538    4.3271538    16682.885   -8928.4639    28191.072    30786.048   -9939.8066   -16599.148    296.98028     81.02275 
   31400    672.03249   -111.42772   0.60806912   -110.81965    -4490.123     4.334643     4.334643     4.334643    -4490.123   -9639.6024    5416.0673   -9246.8338    -17051.36   -6840.1836   -15726.316    81.444168 
   31500    1149.3745   -111.84987    1.0399782    -110.8099   -9379.4659    4.3398779    4.3398779    4.3398779   -9379.4659    -17296.26   -4503.2692   -6338.8683    4213.0542    4000.3145    -3792.557    81.739605 
   31600    880.57479   -111.60801   0.79676257   -110.81125   -608.61402    4.3265976    4.3265976    4.3265976   -608.61402   -25793.133    30854.468    -6887.177   -10319.055   -8098.0956    6997.0363    80.991515 
   31700    580.41876   -111.34385   0.52517509   -110.81867    3373.3252    4.3357005    4.3357005    4.3357005    3373.3252   -22489.519   -5909.4858     38518.98   -11032.034   -4210.5342   -13932.336    81.503795 
   31800    1549.8585   -112.20589    1.4023445   -110.80354   -1694.4675    4.3393739    4.3393739    4.3393739   -1694.4675   -7628.4187   -14007.159    16552.175    8231.0775    8470.4756     5159.176    81.711132 
   31900    987.18398   -111.70423   0.89322481   -110.81101    13123.055    4.3290788    4.3290788    4.3290788    13123.055   -1324.5447     4779.375    35914.335    -11726.97    -10753.14   -2528.4112    81.130936 
   32000     977.6274   -111.69795   0.88457781   -110.81337   -5133.5002    4.3365874    4.3365874    4.3365874   -5133.5002   -1658.4637   -19659.713    5917.6756   -5919.2924    622.83581   -5335.4434     81.55382 
   32100    1156.1176   -111.84797    1.0460795   -110.80189   -8524.9678     4.337507     4.337507     4.337507   -8524.9678   -281.55067   -6994.5982   -18298.755    1932.3364   -4676.3474   -930.19924    81.605713 
   32200    552.63937   -111.31141   0.50003971   -110.81137   -2281.3315    4.3307911    4.3307911    4.3307911   -2281.3315   -19003.648    -5519.235    17678.888   -22958.756   -7711.1394   -8280.2501    81.227243 
   32300    1120.2056   -111.82359    1.0135856   -110.81001    2212.5707    4.3328949    4.3328949    4.3328949    2212.5707   -1632.5051   -13841.672     22111.89   -5381.2647   -5191.9312   -14782.391    81.345672 
   32400    1324.0986   -112.00831    1.1980722   -110.81024   -5304.0753    4.3366192    4.3366192    4.3366192   -5304.0753   -9225.5329   -18270.713     11584.02   -5724.5353   -391.29602    8953.0262    81.555615 
   32500    905.41463   -111.63587   0.81923818   -110.81663   -13671.814     4.336465     4.336465     4.336465   -13671.814   -20834.418   -25122.187    4941.1635   -26055.439   -13875.527   -3953.5022    81.546913 
   32600    1183.6908   -111.87734    1.0710283   -110.80631    4940.5518    4.3298076    4.3298076    4.3298076    4940.5518    4997.7603     1116.941     8706.954    6701.0516    3892.0138   -12761.103    81.171914 
   32700    982.59001   -111.70108   0.88906809   -110.81201   -8792.6494    4.3338637    4.3338637    4.3338637   -8792.6494    10524.761   -19321.254   -17581.455    -6274.578    6145.8594    12594.836    81.400251 
   32800    618.57078   -111.37718   0.55969584   -110.81749   -2765.1446    4.3387058    4.3387058    4.3387058   -2765.1446   -8854.6762   -13979.441    14538.684   -20792.184   -12923.873   -9873.7489    81.673395 
   32900    1130.2369   -111.83036    1.0226621    -110.8077    780.49781    4.3354195    4.3354195    4.3354195    780.49781    15746.174   -10575.222   -2829.4586      13452.6    18696.095    5202.0556    81.487949 
   33000    888.11379   -111.61636   0.80358402   -110.81278   -5397.4181    4.3304395    4.3304395    4.3304395   -5397.4181   -8570.1045   -33417.204    25795.054   -22691.055    3587.2972    2118.1918    81.207463 
   33100    1167.0368   -111.86883    1.0559594   -110.81287    -5063.094    4.3307538    4.3307538    4.3307538    -5063.094   -9550.4678   -26272.347    20633.532   -8667.3415   -17069.864   -4404.1362    81.225144 
   33200    1129.3248    -111.8332    1.0218368   -110.81136   -6987.1476    4.3449067    4.3449067    4.3449067   -6987.1476   -6267.1582   -23879.636    9185.3516    8686.8851   -1015.0116   -728.96015    82.024079 
   33300    734.84226   -111.47466   0.66490072   -110.80976   -16385.261     4.340819     4.340819     4.340819   -16385.261   -18267.014   -26898.223   -3990.5457   -27474.102   -3416.3753    6671.1801    81.792789 
   33400    932.94086   -111.64192   0.84414449   -110.79778     19587.81    4.3197048    4.3197048    4.3197048     19587.81    10295.066    12357.424    36110.938    6018.0053   -14379.285   -1432.4076    80.605041 
   33500    751.62253   -111.49206   0.68008386   -110.81198   -9151.1219    4.3452839    4.3452839    4.3452839   -9151.1219    2175.8168     -9214.42   -20414.763    13539.476    2800.1697    990.96642    82.045443 
   33600    1040.0473   -111.74142   0.94105668   -110.80036   -20345.003    4.3492596    4.3492596    4.3492596   -20345.003    -25787.88   -19393.714   -15853.416   -25462.406    5722.2197     7141.738    82.270851 
[...]
   91300    1114.4939   -111.82431    1.0084175   -110.81589   -5368.7582    4.3222228    4.3222228    4.3222228   -5368.7582    1445.9603   -1109.8434   -16442.391    22535.327   -3909.1795   -19222.852    80.746083 
   91400     954.9211   -111.67926   0.86403268   -110.81523   -14039.317    4.3277498    4.3277498    4.3277498   -14039.317   -22549.269   -7014.6349   -12554.048   -29022.215   -8286.7272    4480.9064    81.056235 
   91500    1101.5733   -111.80739   0.99672668   -110.81066    6990.4766    4.3152194    4.3152194    4.3152194    6990.4766    14026.532   -1604.5103     8549.408   -11582.513    2072.8442   -9261.9186    80.354212 
   91600    756.38708   -111.50184   0.68439493   -110.81744   -11219.163    4.3242843    4.3242843    4.3242843   -11219.163   -2740.7006   -7443.8395   -23472.948    6714.8061   -9049.8051    -22143.22    80.861674 
   91700    845.65733   -111.58082   0.76516853   -110.81566   -11727.303    4.3284107    4.3284107    4.3284107   -11727.303   -43048.226   -1798.7474     9665.064   -30280.324   -9228.9148    9524.6165    81.093376 
   91800    1196.5897   -111.89343    1.0826995   -110.81073    8797.1937      4.31688      4.31688      4.31688    8797.1937    1951.4785     10353.96    14086.143   -5226.6719    2765.0658   -18065.729    80.447013 
   91900      991.286   -111.71405    0.8969364   -110.81711   -3556.1624    4.3196836    4.3196836    4.3196836   -3556.1624    -3006.785    1325.4119    -8987.114    3221.6049   -5812.9622   -12058.587    80.603854 
   92000    1006.7428   -111.72752   0.91092206    -110.8166   -13005.735    4.3243921    4.3243921    4.3243921   -13005.735   -25335.228   -9757.3877   -3924.5897   -22452.926   -5853.8849    5124.7649     80.86772 
   92100    923.99558   -111.65051   0.83605062   -110.81446    2717.6752      4.32409      4.32409      4.32409    2717.6752    12019.317    8370.8041   -12237.095    5970.0799    10187.922   -18294.003    80.850772 
   92200    1106.5308   -111.81422    1.0012123   -110.81301   -5756.0801    4.3201741    4.3201741    4.3201741   -5756.0801   -12942.847   -2826.0268   -1499.3661   -14306.636   -5243.9537   -7258.2352    80.631313 
   92300    955.43862   -111.68108   0.86450094   -110.81658    994.37016     4.320487     4.320487     4.320487    994.37016   -40149.921    15616.442    27516.589   -20817.036    2139.6221    4964.4612    80.648834 
   92400    1025.3301   -111.74346   0.92774021   -110.81572    262.19372    4.3222817    4.3222817    4.3222817    262.19372   -4427.4736    3852.0317    1362.0231    3666.2989    9156.6837   -16508.738    80.749381 
   92500    1124.3577   -111.83002    1.0173425   -110.81268   -4377.4113    4.3240278    4.3240278    4.3240278   -4377.4113   -7410.7305   -2189.0666   -3532.4368    -19113.44   -5970.9621   -3023.9533    80.847286 
   92600    858.01458   -111.59088   0.77634962   -110.81453   -786.41377    4.3237607    4.3237607    4.3237607   -786.41377   -9957.4838    5102.4748    2495.7676   -18331.759    5311.7205    1344.4255      80.8323 
   92700    1056.3976   -111.76878   0.95585072   -110.81293    3191.6633    4.3172555    4.3172555    4.3172555    3191.6633    25348.052    1514.1266   -17287.189    15135.079    6515.8135   -29523.169    80.468011 
   92800    1037.5071   -111.75253   0.93875823   -110.81378     875.6292    4.3271366    4.3271366    4.3271366     875.6292   -13590.491    3980.9229    12236.456   -21078.647   -5564.4546    7503.2941    81.021785 
   92900    1057.2513    -111.7705   0.95662319   -110.81387   -7396.7708    4.3240098    4.3240098    4.3240098   -7396.7708   -24268.173   -15171.797    17249.658   -15798.136     5264.159   -10015.007    80.846276 
   93000    935.85063   -111.65941   0.84677732   -110.81264    14403.003    4.3125558    4.3125558    4.3125558    14403.003    22704.218    22675.046   -2170.2559    7421.5806    9219.4443   -21191.966    80.205508 
   93100    828.54618   -111.56607   0.74968599   -110.81638   -7137.0175    4.3278063    4.3278063    4.3278063   -7137.0175   -6836.0711   -12412.013   -2162.9688   -31233.989   -885.12921    17306.704    81.059411 
   93200    973.68026   -111.69482   0.88100636   -110.81381    218.16252    4.3225038    4.3225038    4.3225038    218.16252    11020.622    1194.8697   -11561.004   -12335.603    9430.9837   -9481.0353    80.761828 
   93300    947.65162   -111.67121    0.8574551   -110.81376    14814.716    4.3183115    4.3183115    4.3183115    14814.716    25903.758     34186.09     -15645.7   -1137.5692    8649.7236   -12125.301     80.52707 
   93400    1099.5249   -111.81138   0.99487326    -110.8165   -13731.169    4.3262206    4.3262206    4.3262206   -13731.169    -26114.76   -35407.537    20328.791   -28019.224    944.19776    13601.966    80.970346 
   93500    1184.7646   -111.88488    1.0719999   -110.81288    19271.584    4.3158224    4.3158224    4.3158224    19271.584    15192.166    31085.089    11537.498   -381.76263    8556.3912   -12700.961    80.387901 
   93600    1126.6181     -111.834    1.0193878   -110.81461   -8305.9569     4.327574     4.327574     4.327574   -8305.9569    2583.2258   -4861.0931   -22640.004   -3383.5717   -1085.9207   -12974.026    81.046357 
   93700    599.76255   -111.36132   0.54267776   -110.81865    -15729.52    4.3250482    4.3250482    4.3250482    -15729.52   -14041.524   -19359.276    -13787.76   -28320.574    -1318.057    10757.565    80.904534 
   93800    988.93099   -111.70594   0.89480554   -110.81114    23178.071    4.3108837    4.3108837    4.3108837    23178.071    36406.285    49322.565   -16194.637    9356.6219    4002.5656   -10803.671     80.11225 
   93900    1125.3838   -111.83422    1.0182709   -110.81595   -15927.539    4.3298999    4.3298999    4.3298999   -15927.539   -8213.0312   -22974.521   -16595.064   -23376.742   -5416.8106   -7147.7386    81.177107 
   94000    844.50281   -111.58382   0.76412389    -110.8197    3189.3802    4.3227152    4.3227152    4.3227152    3189.3802   -10281.766   -4871.8308    24721.738   -30762.322   -442.25563    8266.5809     80.77368 
   94100     1534.066   -112.19667    1.3880551   -110.80862    17248.712    4.3176128    4.3176128    4.3176128    17248.712    25515.934    7767.6224    18462.579    20429.317    1802.4634   -878.50327    80.487987 
   94200    932.64094   -111.65938   0.84387312    -110.8155   -15358.184    4.3289094    4.3289094    4.3289094   -15358.184   -11467.532   -27612.902   -6994.1194   -36114.849   -9038.9962    883.92729    81.121408 
   94300    570.16965   -111.33327   0.51590148   -110.81737    2263.8209    4.3164498    4.3164498    4.3164498    2263.8209    6200.1815    11918.913   -11327.632   -11074.362   -1656.9373    4954.5982    80.422964 
   94400    1138.6231   -111.84182    1.0302501   -110.81157   -4301.2432    4.3240651    4.3240651    4.3240651   -4301.2432    11168.492    1652.1402   -25724.361    20251.288    -488.5578   -660.86969    80.849376 
   94500    717.59479    -111.4673   0.64929485     -110.818   -7644.7632    4.3255336    4.3255336    4.3255336   -7644.7632   -19300.491   -3014.3547   -619.44378   -46240.795   -7721.2746    1864.5305    80.931775 
   94600    1118.3751   -111.82838    1.0119293   -110.81645    7608.5045    4.3166934    4.3166934    4.3166934    7608.5045    1907.8621   -3417.3783     24335.03    4427.9932   -1851.2395     648.0116    80.436582 
   94700    1372.6108   -112.05459    1.2419671   -110.81262   -176.53491    4.3267543    4.3267543    4.3267543   -176.53491    7282.2929   -20058.879    12246.981    12165.051    2926.0083   -1030.3118    81.000314 
   94800    836.09484   -111.57659   0.75651618   -110.82007    4623.0963    4.3183946    4.3183946    4.3183946    4623.0963   -4912.0678   -936.26715    19717.624   -43500.821   -1971.6393    1022.1913    80.531721 
   94900    985.31286   -111.70901   0.89153178   -110.81748    2310.7511    4.3201866    4.3201866    4.3201866    2310.7511    13393.613    2015.1755   -8476.5351    20132.511   -3240.1782   -1325.8798    80.632014 
   95000    926.22984   -111.65246   0.83807222   -110.81438   -4195.7532    4.3263057    4.3263057    4.3263057   -4195.7532   -4678.7148    11538.119   -19446.663    3103.3896    4376.0481    2682.7786    80.975122 
   95100    780.80554   -111.52427   0.70648926   -110.81778    1931.6371     4.318973     4.318973     4.318973    1931.6371   -8824.4549     7306.838    7312.5284   -45357.829   -4510.2582   -874.44069    80.564081 
   95200    1096.3002   -111.80681   0.99195549   -110.81485    3227.9832     4.324587     4.324587     4.324587    3227.9832    5619.3727   -3843.5718    7908.1489    23229.762   -5230.0393    5703.7551    80.878656 
   95300     1065.211   -111.77809   0.96382533   -110.81426    5056.3219    4.3199372    4.3199372    4.3199372    5056.3219     -4120.61   -7965.8786    27255.454   -9730.3603    3369.8376    622.40574    80.618053 
   95400    942.42728   -111.67096     0.852728   -110.81823    2534.5751    4.3209989    4.3209989    4.3209989    2534.5751   -9670.7881    1869.7967    15404.717   -34665.481   -7105.7139    4000.6171    80.677507 
   95500    1217.9745   -111.91571    1.1020489   -110.81366    1984.6745    4.3242796    4.3242796    4.3242796    1984.6745    1182.2269    15490.568   -10718.771    22746.019   -1667.0481    9122.4656    80.861408 
   95600    1044.8322   -111.76072   0.94538615   -110.81533    9022.3672    4.3132378    4.3132378    4.3132378    9022.3672    3719.7042     12948.17    10399.228   -15773.884    2551.1289   -5289.6311    80.243565 
   95700    786.17359   -111.53273   0.71134638   -110.82139   -8889.2263    4.3265912    4.3265912    4.3265912   -8889.2263   -19363.325    6594.5403   -13898.894   -21072.271   -7954.1526    1011.9859    80.991156 
   95800    993.88826   -111.71312   0.89929098   -110.81383    -2595.292    4.3243576    4.3243576    4.3243576    -2595.292    -1237.223   -7649.3637    1100.7108    10265.898    -3610.215    3667.7948    80.865782 
   95900    914.06124    -111.6402   0.82706182   -110.81313    10080.598    4.3116109    4.3116109    4.3116109    10080.598     7181.042   -17647.453    40708.206   -22558.867    2160.8548   -1932.6638    80.152796 
   96000    978.07022   -111.70131   0.88497849   -110.81634   -11725.023    4.3284961    4.3284961    4.3284961   -11725.023   -26202.599    3906.9077   -12879.378   -7833.9563   -16099.458    1187.7347    81.098175 
   96100    1190.0677   -111.89033    1.0767983   -110.81354    10711.012     4.318454     4.318454     4.318454    10711.012    16932.253    15665.986   -465.20429    1981.4558   -4402.8382    4759.3287    80.535043 
   96200    1172.1691   -111.87577    1.0606032   -110.81517    5781.3828    4.3155535    4.3155535    4.3155535    5781.3828    4871.6376   -5893.2156    18365.726   -28637.045    261.44923    516.40882    80.372878 
   96300    995.08519   -111.71471   0.90037399   -110.81433   -15241.148    4.3290889    4.3290889    4.3290889   -15241.148   -24762.529   -1739.2219   -19221.692   -2099.5181   -20805.761    5552.4317      81.1315 
   96400    727.36154   -111.47346   0.65813201   -110.81533     11981.39    4.3119578    4.3119578    4.3119578     11981.39    29679.419   -18480.105    24744.855    -364.9856   -68.269044    4773.2622    80.172148 
   96500     963.5386   -111.69136   0.87182997   -110.81953   -9098.3383    4.3225659    4.3225659    4.3225659   -9098.3383   -9521.9137   -41603.102        23830   -27303.067    2616.6315   -7651.3697    80.765313 
   96600    1188.7597   -111.88843    1.0756147   -110.81282   -6891.3318    4.3294266    4.3294266    4.3294266   -6891.3318   -20003.919   -3016.9222     2346.846    6792.7412   -14906.346    5192.9534    81.150492 
   96700    973.78974    -111.6952   0.88110542   -110.81409    18050.581    4.3084855    4.3084855    4.3084855    18050.581    31090.262    5071.9837    17989.496    -1933.123    1264.5064   -82.935216     79.97862 
   96800    1080.4426    -111.7959   0.97760714    -110.8183   -10376.205    4.3245526    4.3245526    4.3245526   -10376.205    -12879.61   -15588.041   -2660.9642   -22484.338    4924.8995   -10818.569    80.876727 
   96900    925.07567   -111.64967   0.83702791   -110.81265   -1651.9797    4.3259233    4.3259233    4.3259233   -1651.9797   -3595.3874   -8845.7515    7485.1998    19340.347   -8774.9674    1227.3427    80.953649 
   97000    764.87956     -111.506    0.6920791   -110.81392    3145.1953    4.3130829    4.3130829    4.3130829    3145.1953    18513.049   -34586.167    25508.704   -5929.2394   -4841.8646   -5356.3234     80.23492 
   97100    1194.3773   -111.89415    1.0806977   -110.81346   -14565.642    4.3259811    4.3259811    4.3259811   -14565.642   -19171.893   -35195.021    10669.987   -15648.267    4482.5987   -2433.8723    80.956896 
   97200    1078.0809   -111.79254   0.97547029   -110.81707    832.49408    4.3170556    4.3170556    4.3170556    832.49408    -12098.35   -3411.2386     18007.07    30291.482   -9969.0466    489.73765    80.456829 
   97300    1035.2299   -111.75565   0.93669774   -110.81895   -3445.1071     4.317463     4.317463     4.317463   -3445.1071    13791.194   -8684.4687   -15442.047   -6566.7462    -4289.406   -6938.9812    80.479609 
   97400    1119.5654   -111.82477    1.0130063   -110.81176   -19454.773    4.3301536    4.3301536    4.3301536   -19454.773   -18904.887   -16245.244   -23214.188   -6221.5894    9001.0405   -1453.8591    81.191375 
   97500    672.34596   -111.42579   0.60835275   -110.81743    2766.6973    4.3126944    4.3126944    4.3126944    2766.6973   -3810.2594   -11376.482    23486.834    31199.031   -7598.7378    2095.0235    80.213241 
   97600     1002.054   -111.72439   0.90667956   -110.81771    4383.7335    4.3207679    4.3207679    4.3207679    4383.7335    30343.817   -21305.518    4112.9016   -6191.8084   -3184.2337   -11260.706    80.664569 
   97700    1270.0446   -111.96019     1.149163   -110.81103   -10736.827    4.3296562    4.3296562    4.3296562   -10736.827   -18934.714   -20075.121    6799.3553    9032.5032     14410.23    -2184.643      81.1634 
   97800    824.81419   -111.56184   0.74630921   -110.81553    14823.407    4.3104199    4.3104199    4.3104199    14823.407    12699.361     8044.348    23726.513    23861.013   -3803.1481   -928.73288    80.086393 
   97900     1089.431   -111.80406   0.98574007   -110.81832    868.36348    4.3226908    4.3226908    4.3226908    868.36348    18810.213    3390.4548   -19595.578   -3591.5736   -10599.166   -11691.071     80.77231 
   98000    1017.7367   -111.73637   0.92086951    -110.8155   -1817.3588    4.3243102    4.3243102    4.3243102   -1817.3588   -604.60332   -4282.4571   -565.01597    15806.232    16771.868   -3758.9746    80.863125 
   98100    688.19713   -111.44013   0.62269523   -110.81744    8425.2688    4.3155355    4.3155355    4.3155355    8425.2688    10165.789    3956.7156    11153.302    15591.428   -587.63402   -6139.9571    80.371871 
   98200    1023.5282   -111.73744   0.92610987   -110.81133   -8646.7184    4.3263706    4.3263706    4.3263706   -8646.7184   -4433.2113   -13559.695   -7947.2483   -10913.771   -9720.2912    -12999.81    80.978768 
   98300     974.6618   -111.69609   0.88189448    -110.8142    6391.4104    4.3161773    4.3161773    4.3161773    6391.4104   -5452.0213    6746.7755    17879.477    11189.467    17858.001    1685.8311    80.407733 
   98400    1114.0048   -111.82557    1.0079749   -110.81759    5062.7851    4.3179399    4.3179399    4.3179399    5062.7851   -8829.6167    12489.263    11528.709    12013.766   -3086.3412   -6402.9453    80.506283 
   98500    1365.4547   -112.04908    1.2354921   -110.81359   -4781.2317     4.325847     4.325847     4.325847   -4781.2317   -8981.2845    7161.2512   -12523.662   -15546.214   -9660.8894   -7237.0205    80.949371 
   98600      903.904   -111.63468   0.81787133   -110.81681    9192.4736    4.3144526    4.3144526    4.3144526    9192.4736   -12919.539    28766.787    11730.173    7944.8595    19756.997    7697.5257    80.311382 
   98700    959.73767   -111.68523   0.86839082   -110.81683   -6511.6358    4.3232532    4.3232532    4.3232532   -6511.6358   -7917.2857   -12442.217    824.59549    11424.896    5938.2955   -8511.9924    80.803841 
   98800    946.22151   -111.67037   0.85616111    -110.8142    2803.1073    4.3205983    4.3205983    4.3205983    2803.1073   -1329.1402     5918.041     3820.421    -9315.533   -5313.2182   -11058.556    80.655072 
   98900      584.969   -111.35025   0.52929225   -110.82095    7495.5209    4.3127641    4.3127641    4.3127641    7495.5209   -17567.256    15227.752    24826.068    8985.0527    23633.412    4279.6894    80.217126 
   99000    1079.0057    -111.7968   0.97630705   -110.82049   -8365.3623    4.3258993    4.3258993    4.3258993   -8365.3623   -12226.719   -6386.8339    -6482.534    7716.3668    4971.3567    -11927.61    80.952306 
   99100    1386.8308   -112.06715    1.2548336   -110.81231    11474.745     4.320292     4.320292     4.320292    11474.745   -1948.4456    36864.762   -492.07989   -4062.7472   -526.20344   -13311.228    80.637916 
   99200    1066.4422   -111.78214   0.96493935    -110.8172    2489.9927    4.3148425    4.3148425    4.3148425    2489.9927   -6656.2967    2816.8757    11309.399    5588.5492    23287.125    8208.2596     80.33316 
   99300    852.59324    -111.5903   0.77144428   -110.81885   -10718.678    4.3203243    4.3203243    4.3203243   -10718.678    3382.1669   -24189.913   -11348.287    6644.4516   -6251.2796   -24138.181    80.639725 
   99400    937.15706   -111.66389    0.8479594   -110.81593    5779.1318     4.318994     4.318994     4.318994    5779.1318     2291.593    10186.088    4859.7145   -1045.3377   -9957.7909   -9642.6568    80.565256 
   99500    887.66939   -111.61927   0.80318192   -110.81609   -8025.1883    4.3241102    4.3241102    4.3241102   -8025.1883   -8669.9915   -25727.058    10321.485    3099.4798    15863.409    3442.1158    80.851903 
   99600    841.79863   -111.58128   0.76167709   -110.81961   -11064.647    4.3172875    4.3172875    4.3172875   -11064.647   -6056.1075   -1002.5153   -26135.317    4014.3099   -11646.988   -33499.897    80.469799 
   99700    1264.5522   -111.96244    1.1441934   -110.81825    8613.6654    4.3137738    4.3137738    4.3137738    8613.6654    1812.7139    24502.074   -473.79128    232.38273   -18569.023    978.08658    80.273482 
   99800    1225.8367   -111.92506    1.1091628   -110.81589   -7787.6748    4.3279701    4.3279701    4.3279701   -7787.6748    127.79283   -31860.545    8369.7282   -4443.9956    12007.908   -5310.9249    81.068614 
   99900    715.41164   -111.46962   0.64731948    -110.8223   -11971.219    4.3177736    4.3177736    4.3177736   -11971.219    881.25965   -21470.467   -15324.449     192.3184    -10949.16   -32494.334    80.496983 
  100000    1007.2116   -111.72834   0.91134619     -110.817    15177.244    4.3125684    4.3125684    4.3125684    15177.244    10239.528     17128.73    18163.473   -4117.6849   -15111.813    10854.711    80.206209 
Loop time of 22.2571 on 1 procs for 100000 steps with 8 atoms

Pair  time (%) = 7.19679 (32.3348)
Kspce time (%) = 5.31554 (23.8824)
Neigh time (%) = 0 (0)
Comm  time (%) = 1.05668 (4.74761)
Outpt time (%) = 0.0255313 (0.114711)
Other time (%) = 8.66255 (38.9204)

Nlocal:    8 ave 8 max 8 min
Histogram: 1 0 0 0 0 0 0 0 0 0
Nghost:    2189 ave 2189 max 2189 min
Histogram: 1 0 0 0 0 0 0 0 0 0
Neighs:    2344 ave 2344 max 2344 min
Histogram: 1 0 0 0 0 0 0 0 0 0

Total # of neighbors = 2344
Ave neighs/atom = 293
Neighbor list builds = 0
Dangerous builds = 0
unfix 20
unfix 21
print "seeds:4707365"
seeds:4707365
