   2   2   0   0
  0.9639684E+01  0.3009788E-09  0.3009788E-09  0.3009788E-09  0.5000000E-15
  1.000000000000000E-004
  CAR 
 automatically generated by pyflamestk   
     44.56117719    -16.45883484  301      3.52521910      1.00000000
    -16.459  0.0000E+00  0.0000E+00
    -16.255  0.0000E+00  0.0000E+00
    -16.052  0.0000E+00  0.0000E+00
    -15.849  0.0000E+00  0.0000E+00
    -15.645  0.0000E+00  0.0000E+00
    -15.442  0.0000E+00  0.0000E+00
    -15.238  0.0000E+00  0.0000E+00
    -15.035  0.0000E+00  0.0000E+00
    -14.832  0.0000E+00  0.0000E+00
    -14.628  0.0000E+00  0.0000E+00
    -14.425  0.0000E+00  0.0000E+00
    -14.221  0.0000E+00  0.0000E+00
    -14.018  0.0000E+00  0.0000E+00
    -13.815  0.1144E-04  0.2326E-05
    -13.611  0.8990E-01  0.1829E-01
    -13.408  0.2855E+00  0.7637E-01
    -13.204  0.4234E+00  0.1625E+00
    -13.001  0.7529E+00  0.3156E+00
    -12.798  0.8158E+00  0.4816E+00
    -12.594  0.1555E+01  0.7979E+00
    -12.391  0.3267E+01  0.1462E+01
    -12.187  0.2640E+01  0.1999E+01
    -11.984  0.2903E-02  0.2000E+01
    -11.781  0.0000E+00  0.2000E+01
    -11.577  0.0000E+00  0.2000E+01
    -11.374  0.0000E+00  0.2000E+01
    -11.170  0.0000E+00  0.2000E+01
    -10.967  0.0000E+00  0.2000E+01
    -10.764  0.0000E+00  0.2000E+01
    -10.560  0.0000E+00  0.2000E+01
    -10.357  0.0000E+00  0.2000E+01
    -10.153  0.0000E+00  0.2000E+01
     -9.950  0.0000E+00  0.2000E+01
     -9.747  0.0000E+00  0.2000E+01
     -9.543  0.0000E+00  0.2000E+01
     -9.340  0.0000E+00  0.2000E+01
     -9.136  0.0000E+00  0.2000E+01
     -8.933  0.0000E+00  0.2000E+01
     -8.730  0.0000E+00  0.2000E+01
     -8.526  0.0000E+00  0.2000E+01
     -8.323  0.0000E+00  0.2000E+01
     -8.119  0.0000E+00  0.2000E+01
     -7.916  0.0000E+00  0.2000E+01
     -7.713  0.0000E+00  0.2000E+01
     -7.509  0.0000E+00  0.2000E+01
     -7.306  0.0000E+00  0.2000E+01
     -7.102  0.0000E+00  0.2000E+01
     -6.899  0.0000E+00  0.2000E+01
     -6.696  0.0000E+00  0.2000E+01
     -6.492  0.0000E+00  0.2000E+01
     -6.289  0.0000E+00  0.2000E+01
     -6.085  0.0000E+00  0.2000E+01
     -5.882  0.0000E+00  0.2000E+01
     -5.679  0.0000E+00  0.2000E+01
     -5.475  0.0000E+00  0.2000E+01
     -5.272  0.0000E+00  0.2000E+01
     -5.068  0.0000E+00  0.2000E+01
     -4.865  0.0000E+00  0.2000E+01
     -4.662  0.0000E+00  0.2000E+01
     -4.458  0.0000E+00  0.2000E+01
     -4.255  0.0000E+00  0.2000E+01
     -4.051  0.0000E+00  0.2000E+01
     -3.848  0.0000E+00  0.2000E+01
     -3.645  0.0000E+00  0.2000E+01
     -3.441  0.0000E+00  0.2000E+01
     -3.238  0.0000E+00  0.2000E+01
     -3.034  0.0000E+00  0.2000E+01
     -2.831  0.0000E+00  0.2000E+01
     -2.628  0.0000E+00  0.2000E+01
     -2.424  0.0000E+00  0.2000E+01
     -2.221  0.0000E+00  0.2000E+01
     -2.017  0.0000E+00  0.2000E+01
     -1.814  0.0000E+00  0.2000E+01
     -1.611  0.0000E+00  0.2000E+01
     -1.407  0.0000E+00  0.2000E+01
     -1.204  0.3223E-08  0.2000E+01
     -1.000  0.1550E+00  0.2032E+01
     -0.797  0.2182E+00  0.2076E+01
     -0.594  0.7876E+00  0.2236E+01
     -0.390  0.1102E+01  0.2460E+01
     -0.187  0.2082E+01  0.2884E+01
      0.017  0.1932E+01  0.3277E+01
      0.220  0.1734E+01  0.3629E+01
      0.423  0.2747E+00  0.3685E+01
      0.627  0.1863E+00  0.3723E+01
      0.830  0.1492E+01  0.4027E+01
      1.034  0.3688E+00  0.4102E+01
      1.237  0.1046E+01  0.4314E+01
      1.440  0.8397E+00  0.4485E+01
      1.644  0.1484E+01  0.4787E+01
      1.847  0.9370E+00  0.4977E+01
      2.051  0.1461E+01  0.5275E+01
      2.254  0.3477E+01  0.5982E+01
      2.457  0.1941E+01  0.6377E+01
      2.661  0.3557E+01  0.7100E+01
      2.864  0.2012E+01  0.7509E+01
      3.068  0.1403E+01  0.7795E+01
      3.271  0.8499E+00  0.7968E+01
      3.474  0.1590E+00  0.8000E+01
      3.678  0.3390E-06  0.8000E+01
      3.881  0.0000E+00  0.8000E+01
      4.085  0.0000E+00  0.8000E+01
      4.288  0.0000E+00  0.8000E+01
      4.491  0.0000E+00  0.8000E+01
      4.695  0.0000E+00  0.8000E+01
      4.898  0.0000E+00  0.8000E+01
      5.102  0.0000E+00  0.8000E+01
      5.305  0.0000E+00  0.8000E+01
      5.508  0.0000E+00  0.8000E+01
      5.712  0.0000E+00  0.8000E+01
      5.915  0.0000E+00  0.8000E+01
      6.119  0.0000E+00  0.8000E+01
      6.322  0.0000E+00  0.8000E+01
      6.525  0.0000E+00  0.8000E+01
      6.729  0.0000E+00  0.8000E+01
      6.932  0.0000E+00  0.8000E+01
      7.136  0.0000E+00  0.8000E+01
      7.339  0.0000E+00  0.8000E+01
      7.542  0.0000E+00  0.8000E+01
      7.746  0.0000E+00  0.8000E+01
      7.949  0.1516E-16  0.8000E+01
      8.153  0.6887E-03  0.8000E+01
      8.356  0.9032E-01  0.8019E+01
      8.559  0.4043E-04  0.8019E+01
      8.763  0.0000E+00  0.8019E+01
      8.966  0.7784E-09  0.8019E+01
      9.170  0.1287E+00  0.8045E+01
      9.373  0.1444E+00  0.8074E+01
      9.576  0.3200E-11  0.8074E+01
      9.780  0.4813E-01  0.8084E+01
      9.983  0.2250E+00  0.8130E+01
     10.187  0.7246E-01  0.8144E+01
     10.390  0.1872E-01  0.8148E+01
     10.593  0.2711E+00  0.8203E+01
     10.797  0.5050E-02  0.8204E+01
     11.000  0.8509E+00  0.8377E+01
     11.204  0.2066E+00  0.8419E+01
     11.407  0.3477E+00  0.8490E+01
     11.610  0.2032E+00  0.8532E+01
     11.814  0.1761E+00  0.8567E+01
     12.017  0.1035E+01  0.8778E+01
     12.221  0.7661E+00  0.8934E+01
     12.424  0.5304E-01  0.8944E+01
     12.627  0.5661E+00  0.9060E+01
     12.831  0.1045E+01  0.9272E+01
     13.034  0.4289E+00  0.9359E+01
     13.238  0.1544E+01  0.9673E+01
     13.441  0.5137E+00  0.9778E+01
     13.644  0.1042E+01  0.9990E+01
     13.848  0.1156E+00  0.1001E+02
     14.051  0.1269E+01  0.1027E+02
     14.255  0.5758E+00  0.1039E+02
     14.458  0.5389E+00  0.1050E+02
     14.661  0.3348E+00  0.1057E+02
     14.865  0.1435E+01  0.1086E+02
     15.068  0.7933E+00  0.1102E+02
     15.272  0.2767E+01  0.1158E+02
     15.475  0.1542E+01  0.1190E+02
     15.678  0.9920E+00  0.1210E+02
     15.882  0.7922E+00  0.1226E+02
     16.085  0.9716E+00  0.1246E+02
     16.289  0.7942E+00  0.1262E+02
     16.492  0.1006E+01  0.1282E+02
     16.695  0.4650E+00  0.1292E+02
     16.899  0.4408E-01  0.1293E+02
     17.102  0.5442E+00  0.1304E+02
     17.306  0.2726E+00  0.1309E+02
     17.509  0.5672E+00  0.1321E+02
     17.712  0.7959E+00  0.1337E+02
     17.916  0.2771E+00  0.1343E+02
     18.119  0.3576E+00  0.1350E+02
     18.323  0.6453E-02  0.1350E+02
     18.526  0.3866E-01  0.1351E+02
     18.729  0.2831E+00  0.1357E+02
     18.933  0.7730E+00  0.1372E+02
     19.136  0.7157E+00  0.1387E+02
     19.340  0.6641E+00  0.1400E+02
     19.543  0.1060E+01  0.1422E+02
     19.746  0.8004E+00  0.1438E+02
     19.950  0.1898E+01  0.1477E+02
     20.153  0.1358E+01  0.1504E+02
     20.357  0.1232E+01  0.1529E+02
     20.560  0.2224E+01  0.1575E+02
     20.763  0.6140E+00  0.1587E+02
     20.967  0.2539E+00  0.1592E+02
     21.170  0.3774E+00  0.1600E+02
     21.374  0.1064E+01  0.1622E+02
     21.577  0.4228E+00  0.1630E+02
     21.780  0.1206E+01  0.1655E+02
     21.984  0.2754E+00  0.1660E+02
     22.187  0.1229E+01  0.1685E+02
     22.391  0.7191E+00  0.1700E+02
     22.594  0.2723E+00  0.1706E+02
     22.797  0.3281E+00  0.1712E+02
     23.001  0.1347E+01  0.1740E+02
     23.204  0.4109E+00  0.1748E+02
     23.408  0.4825E+00  0.1758E+02
     23.611  0.1061E+01  0.1779E+02
     23.814  0.8870E+00  0.1797E+02
     24.018  0.3224E+00  0.1804E+02
     24.221  0.7800E-01  0.1806E+02
     24.425  0.4693E+00  0.1815E+02
     24.628  0.7255E+00  0.1830E+02
     24.831  0.1574E+01  0.1862E+02
     25.035  0.2522E+00  0.1867E+02
     25.238  0.1263E+01  0.1893E+02
     25.442  0.7969E+00  0.1909E+02
     25.645  0.6142E+00  0.1921E+02
     25.848  0.1161E+01  0.1945E+02
     26.052  0.1064E+01  0.1967E+02
     26.255  0.7019E+00  0.1981E+02
     26.459  0.1185E+00  0.1983E+02
     26.662  0.2251E-02  0.1983E+02
     26.865  0.7218E+00  0.1998E+02
     27.069  0.4639E+00  0.2007E+02
     27.272  0.7279E+00  0.2022E+02
     27.476  0.1047E+01  0.2044E+02
     27.679  0.1325E+00  0.2046E+02
     27.882  0.8314E-01  0.2048E+02
     28.086  0.8869E+00  0.2066E+02
     28.289  0.4441E-01  0.2067E+02
     28.493  0.6252E+00  0.2080E+02
     28.696  0.1135E+01  0.2103E+02
     28.899  0.1446E+00  0.2106E+02
     29.103  0.1058E+01  0.2127E+02
     29.306  0.7733E+00  0.2143E+02
     29.510  0.4871E+00  0.2153E+02
     29.713  0.1543E+01  0.2184E+02
     29.916  0.2306E+00  0.2189E+02
     30.120  0.6313E+00  0.2202E+02
     30.323  0.1260E+01  0.2227E+02
     30.527  0.8368E+00  0.2244E+02
     30.730  0.8572E+00  0.2262E+02
     30.933  0.1463E+01  0.2292E+02
     31.137  0.1373E+01  0.2320E+02
     31.340  0.1764E+01  0.2355E+02
     31.544  0.1117E+01  0.2378E+02
     31.747  0.1610E+01  0.2411E+02
     31.950  0.1578E+01  0.2443E+02
     32.154  0.1417E+01  0.2472E+02
     32.357  0.2620E+01  0.2525E+02
     32.561  0.2301E+01  0.2572E+02
     32.764  0.3119E+00  0.2578E+02
     32.967  0.8917E+00  0.2596E+02
     33.171  0.3746E+00  0.2604E+02
     33.374  0.9900E+00  0.2624E+02
     33.578  0.1335E+01  0.2651E+02
     33.781  0.4837E+00  0.2661E+02
     33.984  0.3000E+00  0.2667E+02
     34.188  0.7942E+00  0.2683E+02
     34.391  0.4602E+00  0.2693E+02
     34.595  0.6324E+00  0.2706E+02
     34.798  0.1830E+00  0.2709E+02
     35.001  0.1289E+01  0.2736E+02
     35.205  0.4309E+00  0.2744E+02
     35.408  0.2137E+00  0.2749E+02
     35.612  0.2936E+00  0.2755E+02
     35.815  0.1145E+01  0.2778E+02
     36.018  0.1338E+01  0.2805E+02
     36.222  0.8154E+00  0.2822E+02
     36.425  0.8829E+00  0.2840E+02
     36.629  0.6927E+00  0.2854E+02
     36.832  0.1196E+01  0.2878E+02
     37.035  0.1094E+01  0.2900E+02
     37.239  0.1026E+01  0.2921E+02
     37.442  0.8516E+00  0.2938E+02
     37.646  0.5803E+00  0.2950E+02
     37.849  0.5321E+00  0.2961E+02
     38.052  0.5138E-01  0.2962E+02
     38.256  0.8880E+00  0.2980E+02
     38.459  0.3648E+00  0.2988E+02
     38.663  0.3110E+00  0.2994E+02
     38.866  0.9957E+00  0.3014E+02
     39.069  0.2268E+01  0.3060E+02
     39.273  0.4735E-01  0.3061E+02
     39.476  0.1297E+01  0.3088E+02
     39.680  0.4147E+00  0.3096E+02
     39.883  0.3300E+00  0.3103E+02
     40.086  0.5880E+00  0.3115E+02
     40.290  0.2728E+00  0.3120E+02
     40.493  0.8585E-03  0.3120E+02
     40.697  0.3433E+00  0.3127E+02
     40.900  0.5388E+00  0.3138E+02
     41.103  0.1120E+01  0.3161E+02
     41.307  0.7214E+00  0.3176E+02
     41.510  0.6298E+00  0.3189E+02
     41.714  0.2490E-01  0.3189E+02
     41.917  0.5362E+00  0.3200E+02
     42.120  0.6862E-04  0.3200E+02
     42.324  0.0000E+00  0.3200E+02
     42.527  0.0000E+00  0.3200E+02
     42.731  0.0000E+00  0.3200E+02
     42.934  0.0000E+00  0.3200E+02
     43.137  0.0000E+00  0.3200E+02
     43.341  0.0000E+00  0.3200E+02
     43.544  0.0000E+00  0.3200E+02
     43.748  0.0000E+00  0.3200E+02
     43.951  0.0000E+00  0.3200E+02
     44.154  0.0000E+00  0.3200E+02
     44.358  0.0000E+00  0.3200E+02
     44.561  0.0000E+00  0.3200E+02
