LAMMPS (11 Aug 2017)
# ---- initialize simulations
clear
units metal
dimension 3
boundary p p p
atom_style atomic
atom_modify map array
# ---- create atoms
read_data /home/sullberg/repos/pypospack/examples/Ni__eam__born_exp_rose/01_preconditioning_3.5NN/rank_11/Ni_fcc_111_s.lmps_min_pos/lammps.structure
  triclinic box = (0 0 0) to (2.4847 4.3037 36.5118) with tilt (0 0 -0.0004)
  1 by 1 by 1 MPI processor grid
  reading atoms ...
  18 atoms
# ---- define interatomic potential
include potential.mod
mass 1 58.6934

group Ni type 1
18 atoms in group Ni

pair_style eam/alloy
pair_coeff * * /home/sullberg/repos/pypospack/examples/Ni__eam__born_exp_rose/01_preconditioning_3.5NN/rank_11/Ni_fcc_111_s.lmps_min_pos/Ni.eam.alloy Ni

neighbor 1.0 bin
neigh_modify every 1 delay 0 check yes
# ---- define settings
compute eng all pe/atom
compute eatoms all reduce sum c_eng

# ---- run minimization
reset_timestep 0
thermo 1
thermo_style custom step pe lx ly lz xy xz yz press pxx pyy pzz pxy pxz pyz c_eatoms
min_style cg
minimize 1e-20 1e-20 1000 100000
Neighbor list info ...
  update every 1 steps, delay 0 steps, check yes
  max neighbors/atom: 2000, page size: 100000
  master list distance cutoff = 11
  ghost atom cutoff = 11
  binsize = 5.5, bins = 1 1 7
  1 neighbor lists, perpetual/occasional/extra = 1 0 0
  (1) pair eam/alloy, perpetual
      attributes: half, newton on
      pair build: half/bin/newton/tri
      stencil: half/bin/3d/newton/tri
      bin: standard
Per MPI rank memory allocation (min/avg/max) = 4.343 | 4.343 | 4.343 Mbytes
Step PotEng Lx Ly Lz Xy Xz Yz Press Pxx Pyy Pzz Pxy Pxz Pyz c_eatoms 
       0    -78.25866       2.4847       4.3037      36.5118            0            0      -0.0004   -15513.193   -18962.062   -18967.174   -8610.3417 -0.00017340779 -4.7178971e-05    1.1094642    -78.25866 
       1   -78.284418       2.4847       4.3037      36.5118            0            0      -0.0004   -12860.548   -16613.544    -16618.63   -5349.4682 -1.9466425e-05 1.5691302e-05    1.1075014   -78.284418 
       2   -78.288461       2.4847       4.3037      36.5118            0            0      -0.0004   -11383.757   -15330.881   -15335.916   -3484.4739 -1.8724186e-06 1.2963402e-06    1.0887534   -78.288461 
       3   -78.289105       2.4847       4.3037      36.5118            0            0      -0.0004   -10885.891   -14904.189   -14909.222   -2844.2607 -3.2427357e-07 4.4210343e-07    1.0904925   -78.289105 
       4   -78.289422       2.4847       4.3037      36.5118            0            0      -0.0004   -10411.201   -14509.777   -14514.778    -2209.049 -8.6411991e-07 -1.4585777e-07    1.0749934   -78.289422 
       5   -78.290098       2.4847       4.3037      36.5118            0            0      -0.0004   -8674.7244   -13029.763   -13034.662    40.251817 -3.2567589e-06 5.5453343e-07    1.0257901   -78.290098 
       6   -78.290204       2.4847       4.3037      36.5118            0            0      -0.0004   -8670.8482   -13038.028   -13042.902    68.385668 -3.0164964e-06 -2.6948588e-07    1.0100824   -78.290204 
       7   -78.290209       2.4847       4.3037      36.5118            0            0      -0.0004   -8662.5578   -13030.362   -13035.224    77.912479 -1.2185606e-06 -1.0568221e-07    1.0038035   -78.290209 
       8   -78.290209       2.4847       4.3037      36.5118            0            0      -0.0004   -8686.7967   -13051.433   -13056.263    47.305189 -1.1806381e-06 -6.6005749e-07   0.98418127   -78.290209 
       9    -78.29021       2.4847       4.3037      36.5118            0            0      -0.0004   -8703.1115   -13065.057   -13069.836     25.55774 -8.7961237e-08 2.1028043e-07   0.95353236    -78.29021 
      10    -78.29021       2.4847       4.3037      36.5118            0            0      -0.0004   -8719.0208   -13078.339   -13083.037    4.3136826 -8.3440616e-07 6.8809195e-07    0.9051882    -78.29021 
      11    -78.29021       2.4847       4.3037      36.5118            0            0      -0.0004   -8722.3126   -13081.179   -13085.853  0.094618709 -3.8607725e-07 5.8714407e-07   0.89082546    -78.29021 
      12    -78.29021       2.4847       4.3037      36.5118            0            0      -0.0004   -8722.3082   -13081.178    -13085.84  0.093055318 -2.9700538e-07 3.2309702e-07   0.88347193    -78.29021 
      13    -78.29021       2.4847       4.3037      36.5118            0            0      -0.0004   -8722.4048   -13081.282   -13085.903  -0.02902269 -8.568991e-08 -8.518299e-08   0.85838907    -78.29021 
      14    -78.29021       2.4847       4.3037      36.5118            0            0      -0.0004   -8722.3947   -13081.284   -13085.883 -0.017637361 -8.4927187e-08 -1.0774227e-07   0.84572095    -78.29021 
      15    -78.29021       2.4847       4.3037      36.5118            0            0      -0.0004   -8722.4011   -13081.343   -13085.836 -0.024586176 -2.4885904e-08 -1.6489366e-07   0.78221734    -78.29021 
      16    -78.29021       2.4847       4.3037      36.5118            0            0      -0.0004   -8722.3876   -13081.429   -13085.725 -0.0082710901 -3.1963271e-07 -2.5574501e-07   0.66367775    -78.29021 
      17    -78.29021       2.4847       4.3037      36.5118            0            0      -0.0004   -8722.4035   -13081.618   -13085.565 -0.026904636 -1.3594701e-07 1.1929614e-07    0.4550382    -78.29021 
      18    -78.29021       2.4847       4.3037      36.5118            0            0      -0.0004   -8722.3996   -13081.807    -13085.37 -0.021644738 6.1123635e-07 3.0139487e-07   0.22461781    -78.29021 
      19    -78.29021       2.4847       4.3037      36.5118            0            0      -0.0004   -8722.3517   -13081.915   -13085.179  0.039474595 4.8685358e-07 5.6930129e-07  0.046089325    -78.29021 
      20    -78.29021       2.4847       4.3037      36.5118            0            0      -0.0004   -8722.3473   -13081.925    -13085.16  0.042958268 3.5036034e-07 4.5978607e-07  0.028598128    -78.29021 
      21    -78.29021       2.4847       4.3037      36.5118            0            0      -0.0004   -8722.3842   -13081.971   -13085.179 -0.0022802072 2.5078201e-07 3.1262828e-07  0.011915179    -78.29021 
      22    -78.29021       2.4847       4.3037      36.5118            0            0      -0.0004   -8722.3929   -13081.986    -13085.18 -0.012535027 1.5527693e-07 1.8933341e-07 0.0035758169    -78.29021 
      23    -78.29021       2.4847       4.3037      36.5118            0            0      -0.0004   -8722.3756   -13081.976    -13085.16 0.0084373331 7.7809277e-08 9.1947156e-08 -0.0021321573    -78.29021 
      24    -78.29021       2.4847       4.3037      36.5118            0            0      -0.0004   -8722.3739   -13081.974   -13085.158  0.010281496 6.3504453e-08 7.5471878e-08 -0.0025946865    -78.29021 
      25    -78.29021       2.4847       4.3037      36.5118            0            0      -0.0004   -8722.3796   -13081.979   -13085.163 0.0031893471 3.8262196e-08 4.5718289e-08 -0.0026409462    -78.29021 
      26    -78.29021       2.4847       4.3037      36.5118            0            0      -0.0004   -8722.3802    -13081.98   -13085.163 0.0024245868 2.5026673e-08 2.9744739e-08 -0.0023711171    -78.29021 
      27    -78.29021       2.4847       4.3037      36.5118            0            0      -0.0004   -8722.3793   -13081.978   -13085.163 0.0033831366 1.2051824e-08 1.428641e-08 -0.0019080726    -78.29021 
      28    -78.29021       2.4847       4.3037      36.5118            0            0      -0.0004    -8722.381   -13081.979   -13085.165  0.001336828 9.6420312e-10 1.1329037e-09 -0.001339345    -78.29021 
      29    -78.29021       2.4847       4.3037      36.5118            0            0      -0.0004   -8722.3825    -13081.98   -13085.167 -0.00064526256 -1.3647581e-08 -1.6305352e-08 -0.00040171679    -78.29021 
      30    -78.29021       2.4847       4.3037      36.5118            0            0      -0.0004   -8722.3829    -13081.98   -13085.167 -0.0011595109 -1.507053e-08 -1.8053944e-08 -0.0002153811    -78.29021 
      31    -78.29021       2.4847       4.3037      36.5118            0            0      -0.0004   -8722.3828    -13081.98   -13085.167 -0.0011068135 -1.5041921e-08 -1.8004325e-08 -0.00017663921    -78.29021 
      32    -78.29021       2.4847       4.3037      36.5118            0            0      -0.0004   -8722.3826    -13081.98   -13085.167 -0.00077735868 -1.4565513e-08 -1.7468735e-08 -0.00014367486    -78.29021 
      33    -78.29021       2.4847       4.3037      36.5118            0            0      -0.0004   -8722.3824    -13081.98   -13085.167 -0.00053667016 -1.3817525e-08 -1.6555521e-08 -0.00012671442    -78.29021 
      34    -78.29021       2.4847       4.3037      36.5118            0            0      -0.0004   -8722.3823    -13081.98   -13085.167 -0.00042516911 -1.3507295e-08 -1.6186999e-08 -0.00012128452    -78.29021 
      35    -78.29021       2.4847       4.3037      36.5118            0            0      -0.0004   -8722.3822    -13081.98   -13085.167 -0.00032392885 -1.3171348e-08 -1.576234e-08 -0.00011710505    -78.29021 
      36    -78.29021       2.4847       4.3037      36.5118            0            0      -0.0004    -8722.382   -13081.979   -13085.167 1.1087206e-05 -1.2284952e-08 -1.4728637e-08 -0.0001077616    -78.29021 
      37    -78.29021       2.4847       4.3037      36.5118            0            0      -0.0004    -8722.382   -13081.979   -13085.167 1.8129168e-05 -1.2153049e-08 -1.4590158e-08 -0.0001064283    -78.29021 
      38    -78.29021       2.4847       4.3037      36.5118            0            0      -0.0004   -8722.3819   -13081.979   -13085.167 2.9576077e-05 -1.1925326e-08 -1.4284487e-08 -0.00010358887    -78.29021 
      39    -78.29021       2.4847       4.3037      36.5118            0            0      -0.0004   -8722.3819   -13081.979   -13085.167 3.5433455e-05 -1.1300101e-08 -1.3549119e-08 -9.659967e-05    -78.29021 
      40    -78.29021       2.4847       4.3037      36.5118            0            0      -0.0004    -8722.382   -13081.979   -13085.167 2.738885e-05 -8.7262871e-09 -1.046774e-08 -6.9384737e-05    -78.29021 
      41    -78.29021       2.4847       4.3037      36.5118            0            0      -0.0004    -8722.382   -13081.979   -13085.167 1.1954842e-05 -4.5680356e-09 -5.4726814e-09 -3.1839777e-05    -78.29021 
      42    -78.29021       2.4847       4.3037      36.5118            0            0      -0.0004    -8722.382   -13081.979   -13085.167 1.8803873e-06 -1.367323e-09 -1.6248277e-09 -4.1929732e-06    -78.29021 
      43    -78.29021       2.4847       4.3037      36.5118            0            0      -0.0004    -8722.382   -13081.979   -13085.167 2.5551434e-07 -7.5592881e-10 -9.0149569e-10 -4.6131799e-07    -78.29021 
      44    -78.29021       2.4847       4.3037      36.5118            0            0      -0.0004    -8722.382   -13081.979   -13085.167 -2.4040573e-07 -6.2874716e-10 -7.5553735e-10 -1.1798857e-07    -78.29021 
      45    -78.29021       2.4847       4.3037      36.5118            0            0      -0.0004    -8722.382   -13081.979   -13085.167 -4.3082018e-07 -3.8331356e-10 -4.2600107e-10 3.2222769e-09    -78.29021 
      46    -78.29021       2.4847       4.3037      36.5118            0            0      -0.0004    -8722.382   -13081.979   -13085.167 -3.4772747e-07 -3.3577568e-10 -3.5276291e-10 1.1656009e-08    -78.29021 
      47    -78.29021       2.4847       4.3037      36.5118            0            0      -0.0004    -8722.382   -13081.979   -13085.167 -1.2753096e-07 -1.6314573e-10 -1.9419244e-10 2.7229358e-09    -78.29021 
      48    -78.29021       2.4847       4.3037      36.5118            0            0      -0.0004    -8722.382   -13081.979   -13085.167 -8.9739854e-08 2.2864852e-10 2.7630222e-10 -3.1192719e-08    -78.29021 
      49    -78.29021       2.4847       4.3037      36.5118            0            0      -0.0004    -8722.382   -13081.979   -13085.167 2.875856e-07 6.1963801e-10 7.3330355e-10 -5.8977343e-08    -78.29021 
      50    -78.29021       2.4847       4.3037      36.5118            0            0      -0.0004    -8722.382   -13081.979   -13085.167 3.6999492e-07 5.9923339e-10 7.0307279e-10 -5.1114188e-08    -78.29021 
      51    -78.29021       2.4847       4.3037      36.5118            0            0      -0.0004    -8722.382   -13081.979   -13085.167 1.9724295e-07 4.279428e-10 4.9819152e-10 -2.6940031e-08    -78.29021 
      52    -78.29021       2.4847       4.3037      36.5118            0            0      -0.0004    -8722.382   -13081.979   -13085.167 2.0178323e-07 2.5899084e-10 3.0623426e-10 -9.1469104e-09    -78.29021 
      53    -78.29021       2.4847       4.3037      36.5118            0            0      -0.0004    -8722.382   -13081.979   -13085.167 2.2060106e-07 1.1629436e-10 1.3239007e-10 6.7553197e-09    -78.29021 
      54    -78.29021       2.4847       4.3037      36.5118            0            0      -0.0004    -8722.382   -13081.979   -13085.167 1.674027e-07 1.0585779e-10 1.0515242e-10 8.3161205e-09    -78.29021 
      55    -78.29021       2.4847       4.3037      36.5118            0            0      -0.0004    -8722.382   -13081.979   -13085.167 1.300147e-07 6.6481538e-11 6.897338e-11 1.1236971e-08    -78.29021 
      56    -78.29021       2.4847       4.3037      36.5118            0            0      -0.0004    -8722.382   -13081.979   -13085.167 9.1571119e-08 1.3564525e-11 5.3162767e-11 1.4763812e-08    -78.29021 
      57    -78.29021       2.4847       4.3037      36.5118            0            0      -0.0004    -8722.382   -13081.979   -13085.167 6.6481813e-08 -8.2927261e-12 -1.3580528e-11 1.6190749e-08    -78.29021 
Loop time of 0.047627 on 1 procs for 57 steps with 18 atoms

59.1% CPU use with 1 MPI tasks x no OpenMP threads

Minimization stats:
  Stopping criterion = energy tolerance
  Energy initial, next-to-last, final = 
        -78.2586596411     -78.2902097782     -78.2902097782
  Force two-norm initial, final = 0.629288 2.80509e-12
  Force max component initial, final = 0.23427 1.25244e-12
  Final line search alpha, max atom move = 1 1.25244e-12
  Iterations, force evaluations = 57 113

MPI task timing breakdown:
Section |  min time  |  avg time  |  max time  |%varavg| %total
---------------------------------------------------------------
Pair    | 0.045497   | 0.045497   | 0.045497   |   0.0 | 95.53
Neigh   | 0          | 0          | 0          |   0.0 |  0.00
Comm    | 0.00099564 | 0.00099564 | 0.00099564 |   0.0 |  2.09
Output  | 0.00082517 | 0.00082517 | 0.00082517 |   0.0 |  1.73
Modify  | 0          | 0          | 0          |   0.0 |  0.00
Other   |            | 0.000309   |            |       |  0.65

Nlocal:    18 ave 18 max 18 min
Histogram: 1 0 0 0 0 0 0 0 0 0
Nghost:    1737 ave 1737 max 1737 min
Histogram: 1 0 0 0 0 0 0 0 0 0
Neighs:    3690 ave 3690 max 3690 min
Histogram: 1 0 0 0 0 0 0 0 0 0

Total # of neighbors = 3690
Ave neighs/atom = 205
Neighbor list builds = 0
Dangerous builds = 0

# ---- define output variables ----
variable natoms equal "count(all)"
variable tot_energy equal "c_eatoms"
variable a11 equal "xhi-xlo"
variable a22 equal "yhi-ylo"
variable a33 equal "zhi-zlo"
variable tilt_xy equal "xy"
variable tilt_xz equal "xz"
variable tilt_yz equal "yz"
variable tot_press equal "press"
variable press_xx equal "pxx"
variable press_yy equal "pyy"
variable press_zz equal "pzz"
variable press_xy equal "pxy"
variable press_xz equal "pxz"
variable press_yz equal "pyz"

# ---- output ----
print "pypospack:output_section:begin"
pypospack:output_section:begin
print "tot_energy = ${tot_energy}"
tot_energy = -78.2902097782452
print "num_atoms = ${natoms}"
num_atoms = 18
print "a11 = ${a11}"
a11 = 2.4847
print "a22 = ${a22}"
a22 = 4.3037
print "a33 = ${a33}"
a33 = 36.5118
print "a12 = ${tilt_xy}"
a12 = 0
print "a13 = ${tilt_xz}"
a13 = 0
print "a23 = ${tilt_yz}"
a23 = -0.0004
print "tot_press = ${tot_press}"
tot_press = -8722.38197247692
print "pxx = ${press_xx}"
pxx = -13081.9791932552
print "pyy = ${press_yy}"
pyy = -13085.166724242
print "pzz = ${press_zz}"
pzz = 6.64818129019594e-08
print "pxy = ${press_xy}"
pxy = -8.29272610429532e-12
print "pxz = ${press_xz}"
pxz = -1.35805281721717e-11
print "pyz = ${press_yz}"
pyz = 1.61907487519931e-08
print "pypospack:output_section:done"
pypospack:output_section:done
print "pypospack:lammps_sim:done"
pypospack:lammps_sim:done
Total wall time: 0:00:00
