   2   2   0   0
  0.9639684E+01  0.3009788E-09  0.3009788E-09  0.3009788E-09  0.5000000E-15
  1.000000000000000E-004
  CAR 
 automatically generated by pyflamestk   
     44.52627575    -16.53028618  301      3.64381949      1.00000000
    -16.530  0.0000E+00  0.0000E+00
    -16.327  0.0000E+00  0.0000E+00
    -16.123  0.0000E+00  0.0000E+00
    -15.920  0.0000E+00  0.0000E+00
    -15.716  0.0000E+00  0.0000E+00
    -15.513  0.0000E+00  0.0000E+00
    -15.309  0.0000E+00  0.0000E+00
    -15.106  0.0000E+00  0.0000E+00
    -14.902  0.0000E+00  0.0000E+00
    -14.699  0.0000E+00  0.0000E+00
    -14.495  0.0000E+00  0.0000E+00
    -14.292  0.0000E+00  0.0000E+00
    -14.088  0.0000E+00  0.0000E+00
    -13.885  0.9195E-06  0.1871E-06
    -13.681  0.3791E-01  0.7715E-02
    -13.477  0.2320E+00  0.5493E-01
    -13.274  0.3634E+00  0.1289E+00
    -13.070  0.5925E+00  0.2495E+00
    -12.867  0.8644E+00  0.4254E+00
    -12.663  0.1287E+01  0.6874E+00
    -12.460  0.2552E+01  0.1207E+01
    -12.256  0.3662E+01  0.1952E+01
    -12.053  0.2363E+00  0.2000E+01
    -11.849  0.0000E+00  0.2000E+01
    -11.646  0.0000E+00  0.2000E+01
    -11.442  0.0000E+00  0.2000E+01
    -11.239  0.0000E+00  0.2000E+01
    -11.035  0.0000E+00  0.2000E+01
    -10.832  0.0000E+00  0.2000E+01
    -10.628  0.0000E+00  0.2000E+01
    -10.425  0.0000E+00  0.2000E+01
    -10.221  0.0000E+00  0.2000E+01
    -10.018  0.0000E+00  0.2000E+01
     -9.814  0.0000E+00  0.2000E+01
     -9.611  0.0000E+00  0.2000E+01
     -9.407  0.0000E+00  0.2000E+01
     -9.203  0.0000E+00  0.2000E+01
     -9.000  0.0000E+00  0.2000E+01
     -8.796  0.0000E+00  0.2000E+01
     -8.593  0.0000E+00  0.2000E+01
     -8.389  0.0000E+00  0.2000E+01
     -8.186  0.0000E+00  0.2000E+01
     -7.982  0.0000E+00  0.2000E+01
     -7.779  0.0000E+00  0.2000E+01
     -7.575  0.0000E+00  0.2000E+01
     -7.372  0.0000E+00  0.2000E+01
     -7.168  0.0000E+00  0.2000E+01
     -6.965  0.0000E+00  0.2000E+01
     -6.761  0.0000E+00  0.2000E+01
     -6.558  0.0000E+00  0.2000E+01
     -6.354  0.0000E+00  0.2000E+01
     -6.151  0.0000E+00  0.2000E+01
     -5.947  0.0000E+00  0.2000E+01
     -5.744  0.0000E+00  0.2000E+01
     -5.540  0.0000E+00  0.2000E+01
     -5.337  0.0000E+00  0.2000E+01
     -5.133  0.0000E+00  0.2000E+01
     -4.930  0.0000E+00  0.2000E+01
     -4.726  0.0000E+00  0.2000E+01
     -4.522  0.0000E+00  0.2000E+01
     -4.319  0.0000E+00  0.2000E+01
     -4.115  0.0000E+00  0.2000E+01
     -3.912  0.0000E+00  0.2000E+01
     -3.708  0.0000E+00  0.2000E+01
     -3.505  0.0000E+00  0.2000E+01
     -3.301  0.0000E+00  0.2000E+01
     -3.098  0.0000E+00  0.2000E+01
     -2.894  0.0000E+00  0.2000E+01
     -2.691  0.0000E+00  0.2000E+01
     -2.487  0.0000E+00  0.2000E+01
     -2.284  0.0000E+00  0.2000E+01
     -2.080  0.0000E+00  0.2000E+01
     -1.877  0.0000E+00  0.2000E+01
     -1.673  0.0000E+00  0.2000E+01
     -1.470  0.0000E+00  0.2000E+01
     -1.266  0.5552E-10  0.2000E+01
     -1.063  0.3311E-01  0.2007E+01
     -0.859  0.2418E+00  0.2056E+01
     -0.656  0.7274E+00  0.2204E+01
     -0.452  0.6185E+00  0.2330E+01
     -0.249  0.2033E+01  0.2744E+01
     -0.045  0.2206E+01  0.3193E+01
      0.159  0.1792E+01  0.3557E+01
      0.362  0.2830E+00  0.3615E+01
      0.566  0.7864E+00  0.3775E+01
      0.769  0.4803E+00  0.3873E+01
      0.973  0.1114E+01  0.4099E+01
      1.176  0.4851E+00  0.4198E+01
      1.380  0.1531E+01  0.4510E+01
      1.583  0.7505E+00  0.4663E+01
      1.787  0.1036E+01  0.4873E+01
      1.990  0.1929E+01  0.5266E+01
      2.194  0.2383E+01  0.5751E+01
      2.397  0.2640E+01  0.6288E+01
      2.601  0.2703E+01  0.6838E+01
      2.804  0.2815E+01  0.7411E+01
      3.008  0.1627E+01  0.7742E+01
      3.211  0.9650E+00  0.7939E+01
      3.415  0.2992E+00  0.8000E+01
      3.618  0.1090E-02  0.8000E+01
      3.822  0.0000E+00  0.8000E+01
      4.025  0.0000E+00  0.8000E+01
      4.229  0.0000E+00  0.8000E+01
      4.432  0.0000E+00  0.8000E+01
      4.636  0.0000E+00  0.8000E+01
      4.840  0.0000E+00  0.8000E+01
      5.043  0.0000E+00  0.8000E+01
      5.247  0.0000E+00  0.8000E+01
      5.450  0.0000E+00  0.8000E+01
      5.654  0.0000E+00  0.8000E+01
      5.857  0.0000E+00  0.8000E+01
      6.061  0.0000E+00  0.8000E+01
      6.264  0.0000E+00  0.8000E+01
      6.468  0.0000E+00  0.8000E+01
      6.671  0.0000E+00  0.8000E+01
      6.875  0.0000E+00  0.8000E+01
      7.078  0.0000E+00  0.8000E+01
      7.282  0.0000E+00  0.8000E+01
      7.485  0.4098E-18  0.8000E+01
      7.689  0.3951E-04  0.8000E+01
      7.892  0.7339E-02  0.8002E+01
      8.096  0.5000E-05  0.8002E+01
      8.299  0.1945E-01  0.8005E+01
      8.503  0.6958E-01  0.8020E+01
      8.706  0.1433E-01  0.8023E+01
      8.910  0.1740E-03  0.8023E+01
      9.113  0.8824E-01  0.8041E+01
      9.317  0.1232E-01  0.8043E+01
      9.521  0.2241E+00  0.8089E+01
      9.724  0.1084E-04  0.8089E+01
      9.928  0.1511E-01  0.8092E+01
     10.131  0.2013E+00  0.8133E+01
     10.335  0.1971E+00  0.8173E+01
     10.538  0.2215E+00  0.8218E+01
     10.742  0.5654E-03  0.8218E+01
     10.945  0.3295E+00  0.8285E+01
     11.149  0.3737E+00  0.8361E+01
     11.352  0.5029E+00  0.8463E+01
     11.556  0.4615E+00  0.8557E+01
     11.759  0.3362E+00  0.8626E+01
     11.963  0.4535E+00  0.8718E+01
     12.166  0.5301E+00  0.8826E+01
     12.370  0.7528E+00  0.8979E+01
     12.573  0.4027E+00  0.9061E+01
     12.777  0.2396E+00  0.9110E+01
     12.980  0.1318E+01  0.9378E+01
     13.184  0.1043E+01  0.9591E+01
     13.387  0.9326E+00  0.9780E+01
     13.591  0.6546E+00  0.9914E+01
     13.794  0.6015E+00  0.1004E+02
     13.998  0.4076E+00  0.1012E+02
     14.202  0.9976E+00  0.1032E+02
     14.405  0.8763E+00  0.1050E+02
     14.609  0.3653E+00  0.1057E+02
     14.812  0.4404E+00  0.1066E+02
     15.016  0.2248E+01  0.1112E+02
     15.219  0.1527E+01  0.1143E+02
     15.423  0.1544E+01  0.1175E+02
     15.626  0.1621E+01  0.1208E+02
     15.830  0.6369E+00  0.1221E+02
     16.033  0.1127E+01  0.1244E+02
     16.237  0.7249E+00  0.1258E+02
     16.440  0.8489E+00  0.1276E+02
     16.644  0.6912E+00  0.1290E+02
     16.847  0.6157E-02  0.1290E+02
     17.051  0.6460E+00  0.1303E+02
     17.254  0.4314E+00  0.1312E+02
     17.458  0.5720E+00  0.1323E+02
     17.661  0.1761E+00  0.1327E+02
     17.865  0.6450E+00  0.1340E+02
     18.068  0.2413E+00  0.1345E+02
     18.272  0.4056E-03  0.1345E+02
     18.475  0.4731E+00  0.1355E+02
     18.679  0.5037E+00  0.1365E+02
     18.883  0.3377E+00  0.1372E+02
     19.086  0.3919E+00  0.1380E+02
     19.290  0.7270E+00  0.1395E+02
     19.493  0.7964E+00  0.1411E+02
     19.697  0.1093E+01  0.1433E+02
     19.900  0.1577E+01  0.1465E+02
     20.104  0.1926E+01  0.1504E+02
     20.307  0.1468E+01  0.1534E+02
     20.511  0.1333E+01  0.1561E+02
     20.714  0.6797E+00  0.1575E+02
     20.918  0.6995E+00  0.1589E+02
     21.121  0.6588E+00  0.1603E+02
     21.325  0.5800E+00  0.1615E+02
     21.528  0.9916E+00  0.1635E+02
     21.732  0.7984E+00  0.1651E+02
     21.935  0.8789E+00  0.1669E+02
     22.139  0.1664E+00  0.1672E+02
     22.342  0.9399E+00  0.1691E+02
     22.546  0.3535E+00  0.1699E+02
     22.749  0.1303E+01  0.1725E+02
     22.953  0.4311E+00  0.1734E+02
     23.156  0.4204E+00  0.1742E+02
     23.360  0.7290E+00  0.1757E+02
     23.564  0.4448E+00  0.1766E+02
     23.767  0.2473E+00  0.1771E+02
     23.971  0.1342E+01  0.1799E+02
     24.174  0.4209E+00  0.1807E+02
     24.378  0.7183E+00  0.1822E+02
     24.581  0.9061E+00  0.1840E+02
     24.785  0.5066E+00  0.1851E+02
     24.988  0.5780E+00  0.1862E+02
     25.192  0.1210E+01  0.1887E+02
     25.395  0.1371E+01  0.1915E+02
     25.599  0.6226E+00  0.1928E+02
     25.802  0.8282E+00  0.1944E+02
     26.006  0.2095E+00  0.1949E+02
     26.209  0.1125E+01  0.1972E+02
     26.413  0.3497E+00  0.1979E+02
     26.616  0.2751E+00  0.1984E+02
     26.820  0.5828E+00  0.1996E+02
     27.023  0.5543E-01  0.1997E+02
     27.227  0.7224E+00  0.2012E+02
     27.430  0.1109E+01  0.2035E+02
     27.634  0.7158E+00  0.2049E+02
     27.837  0.7224E+00  0.2064E+02
     28.041  0.2480E+00  0.2069E+02
     28.245  0.3527E+00  0.2076E+02
     28.448  0.4696E+00  0.2086E+02
     28.652  0.3766E+00  0.2093E+02
     28.855  0.5288E+00  0.2104E+02
     29.059  0.6357E+00  0.2117E+02
     29.262  0.5200E+00  0.2128E+02
     29.466  0.9423E+00  0.2147E+02
     29.669  0.8170E+00  0.2163E+02
     29.873  0.1372E+01  0.2191E+02
     30.076  0.1023E+01  0.2212E+02
     30.280  0.9166E+00  0.2231E+02
     30.483  0.3419E+00  0.2238E+02
     30.687  0.6125E+00  0.2250E+02
     30.890  0.1678E+01  0.2284E+02
     31.094  0.1230E+01  0.2309E+02
     31.297  0.1653E+01  0.2343E+02
     31.501  0.1651E+01  0.2377E+02
     31.704  0.1562E+01  0.2408E+02
     31.908  0.9616E+00  0.2428E+02
     32.111  0.2126E+01  0.2471E+02
     32.315  0.2230E+01  0.2517E+02
     32.518  0.1572E+01  0.2549E+02
     32.722  0.1560E+01  0.2580E+02
     32.926  0.1139E+01  0.2604E+02
     33.129  0.3170E+00  0.2610E+02
     33.333  0.6555E+00  0.2623E+02
     33.536  0.5714E+00  0.2635E+02
     33.740  0.1058E+01  0.2656E+02
     33.943  0.6916E+00  0.2671E+02
     34.147  0.6461E+00  0.2684E+02
     34.350  0.2211E+00  0.2688E+02
     34.554  0.4362E+00  0.2697E+02
     34.757  0.4918E-01  0.2698E+02
     34.961  0.1011E+01  0.2719E+02
     35.164  0.9902E+00  0.2739E+02
     35.368  0.7169E+00  0.2753E+02
     35.571  0.4203E+00  0.2762E+02
     35.775  0.9236E+00  0.2781E+02
     35.978  0.7593E+00  0.2796E+02
     36.182  0.1017E+01  0.2817E+02
     36.385  0.1347E+01  0.2844E+02
     36.589  0.6862E+00  0.2858E+02
     36.792  0.9832E+00  0.2878E+02
     36.996  0.5810E+00  0.2890E+02
     37.199  0.5705E+00  0.2902E+02
     37.403  0.6520E+00  0.2915E+02
     37.607  0.9252E+00  0.2934E+02
     37.810  0.1085E+01  0.2956E+02
     38.014  0.3978E+00  0.2964E+02
     38.217  0.8364E+00  0.2981E+02
     38.421  0.1341E+01  0.3008E+02
     38.624  0.8182E+00  0.3025E+02
     38.828  0.5032E+00  0.3035E+02
     39.031  0.1446E+00  0.3038E+02
     39.235  0.4774E+00  0.3048E+02
     39.438  0.4199E+00  0.3056E+02
     39.642  0.9683E+00  0.3076E+02
     39.845  0.1056E+01  0.3098E+02
     40.049  0.5479E+00  0.3109E+02
     40.252  0.4153E+00  0.3117E+02
     40.456  0.8239E+00  0.3134E+02
     40.659  0.4201E+00  0.3143E+02
     40.863  0.7708E+00  0.3158E+02
     41.066  0.4559E+00  0.3168E+02
     41.270  0.1467E-03  0.3168E+02
     41.473  0.3507E+00  0.3175E+02
     41.677  0.6784E+00  0.3188E+02
     41.880  0.5656E+00  0.3200E+02
     42.084  0.2210E-04  0.3200E+02
     42.288  0.0000E+00  0.3200E+02
     42.491  0.0000E+00  0.3200E+02
     42.695  0.0000E+00  0.3200E+02
     42.898  0.0000E+00  0.3200E+02
     43.102  0.0000E+00  0.3200E+02
     43.305  0.0000E+00  0.3200E+02
     43.509  0.0000E+00  0.3200E+02
     43.712  0.0000E+00  0.3200E+02
     43.916  0.0000E+00  0.3200E+02
     44.119  0.0000E+00  0.3200E+02
     44.323  0.0000E+00  0.3200E+02
     44.526  0.0000E+00  0.3200E+02
