    2    2    1    1
  0.9639684E+01  0.3009788E-09  0.3009788E-09  0.3009788E-09  0.5000000E-15
  1.000000000000000E-004
  CAR 
 automatically generated by pyflamestk   
      8     56     16
 
  0.0000000E+00  0.0000000E+00  0.0000000E+00  0.7513148E-03
    1      -13.754988   1.000000
    2        3.355014   1.000000
    3        3.355015   1.000000
    4        3.355022   1.000000
    5        7.779053   0.000000
    6       18.978691   0.000000
    7       18.978695   0.000000
    8       18.978696   0.000000
    9       22.814757   0.000000
   10       24.549543   0.000000
   11       24.549544   0.000000
   12       26.999886   0.000000
   13       26.999888   0.000000
   14       26.999895   0.000000
   15       40.953161   0.000000
   16       40.953169   0.000000
 
  0.9090909E-01 -0.8043606E-17 -0.4574101E-18  0.6010518E-02
    1      -13.672202   1.000000
    2        2.807795   1.000000
    3        3.302344   1.000000
    4        3.302351   1.000000
    5        8.315000   0.000000
    6       17.896107   0.000000
    7       19.169684   0.000000
    8       19.169688   0.000000
    9       23.869718   0.000000
   10       23.869719   0.000000
   11       24.215050   0.000000
   12       27.014676   0.000000
   13       28.025764   0.000000
   14       28.025769   0.000000
   15       39.542584   0.000000
   16       40.886924   0.000000
 
  0.1818182E+00 -0.1608721E-16 -0.9148202E-18  0.6010518E-02
    1      -13.441159   1.000000
    2        1.663716   1.000000
    3        3.162796   1.000000
    4        3.162803   1.000000
    5        9.392571   0.000000
    6       16.445514   0.000000
    7       19.581215   0.000000
    8       19.581219   0.000000
    9       23.133151   0.000000
   10       23.133153   0.000000
   11       25.173319   0.000000
   12       28.553380   0.000000
   13       29.856711   0.000000
   14       29.856716   0.000000
   15       37.824834   0.000000
   16       40.499654   0.000000
 
  0.2727273E+00 -0.2578065E-16  0.2558974E-16  0.6010518E-02
    1      -13.115835   1.000000
    2        0.467228   1.000000
    3        2.988566   1.000000
    4        2.988573   1.000000
    5       10.366711   0.000000
    6       15.584784   0.000000
    7       19.745017   0.000000
    8       19.745022   0.000000
    9       23.285951   0.000000
   10       23.285953   0.000000
   11       24.680372   0.000000
   12       31.324511   0.000000
   13       31.688941   0.000000
   14       31.688947   0.000000
   15       36.867482   0.000000
   16       39.193402   0.000000
 
  0.3636364E+00 -0.3217443E-16 -0.1829640E-17  0.6010518E-02
    1      -12.789075   1.000000
    2       -0.505204   1.000000
    3        2.836158   1.000000
    4        2.836164   1.000000
    5       10.894809   0.000000
    6       15.417711   0.000000
    7       19.553896   0.000000
    8       19.553901   0.000000
    9       24.125136   0.000000
   10       24.295471   0.000000
   11       24.295474   0.000000
   12       31.960246   0.000000
   13       33.087312   0.000000
   14       33.087319   0.000000
   15       37.090927   0.000000
   16       37.090931   0.000000
 
  0.4545455E+00 -0.2455458E-16  0.9209923E-17  0.6010518E-02
    1      -12.579347   1.000000
    2       -1.053735   1.000000
    3        2.747575   1.000000
    4        2.747581   1.000000
    5       11.043136   0.000000
    6       15.571149   0.000000
    7       19.371037   0.000000
    8       19.371042   0.000000
    9       23.817906   0.000000
   10       25.296792   0.000000
   11       25.296795   0.000000
   12       31.426677   0.000000
   13       33.678645   0.000000
   14       33.678651   0.000000
   15       35.587326   0.000000
   16       35.587332   0.000000
 
  0.9090909E-01  0.9090909E-01  0.1137576E-16  0.4507889E-02
    1      -13.645242   1.000000
    2        2.748294   1.000000
    3        3.233164   1.000000
    4        3.233169   1.000000
    5        8.486715   0.000000
    6       17.592952   0.000000
    7       19.236300   0.000000
    8       19.236302   0.000000
    9       22.779676   0.000000
   10       24.746584   0.000000
   11       24.798729   0.000000
   12       27.406029   0.000000
   13       27.406032   0.000000
   14       28.511024   0.000000
   15       39.572036   0.000000
   16       40.594456   0.000000
 
  0.1818182E+00  0.9090909E-01  0.1171195E-16  0.1803156E-01
    1      -13.465348   1.000000
    2        1.901166   1.000000
    3        3.082033   1.000000
    4        3.110409   1.000000
    5        9.371070   0.000000
    6       16.422068   0.000000
    7       19.544659   0.000000
    8       19.574374   0.000000
    9       21.728892   0.000000
   10       24.537072   0.000000
   11       26.139413   0.000000
   12       28.275971   0.000000
   13       28.728237   0.000000
   14       29.904945   0.000000
   15       38.177253   0.000000
   16       40.023332   0.000000
 
  0.2727273E+00  0.9090909E-01  0.2275152E-16  0.1803156E-01
    1      -13.173265   1.000000
    2        0.809533   1.000000
    3        2.904686   1.000000
    4        2.920029   1.000000
    5       10.400753   0.000000
    6       15.509373   0.000000
    7       19.430306   0.000000
    8       19.832325   0.000000
    9       21.747510   0.000000
   10       24.443675   0.000000
   11       25.936091   0.000000
   12       30.790009   0.000000
   13       30.891871   0.000000
   14       31.459484   0.000000
   15       36.833719   0.000000
   16       38.589310   0.000000
 
  0.3636364E+00  0.9090909E-01 -0.7842284E-17  0.1803156E-01
    1      -12.847203   1.000000
    2       -0.174790   1.000000
    3        2.699936   1.000000
    4        2.756938   1.000000
    5       11.118379   0.000000
    6       15.231410   0.000000
    7       18.900332   0.000000
    8       19.778745   0.000000
    9       22.759670   0.000000
   10       25.035533   0.000000
   11       25.468430   0.000000
   12       32.184600   0.000000
   13       32.562956   0.000000
   14       32.882715   0.000000
   15       36.263775   0.000000
   16       37.964468   0.000000
 
  0.4545455E+00  0.9090909E-01 -0.1068051E-16  0.1803156E-01
    1      -12.596317   1.000000
    2       -0.831481   1.000000
    3        2.519785   1.000000
    4        2.680070   1.000000
    5       11.391635   0.000000
    6       15.418042   0.000000
    7       18.529580   0.000000
    8       19.603778   0.000000
    9       23.877569   0.000000
   10       25.224037   0.000000
   11       25.699850   0.000000
   12       32.055405   0.000000
   13       32.890221   0.000000
   14       34.069725   0.000000
   15       34.800173   0.000000
   16       37.690798   0.000000
 
 -0.4545455E+00  0.9090909E-01 -0.3227477E-16  0.1803156E-01
    1      -12.524244   1.000000
    2       -1.005568   1.000000
    3        2.431069   1.000000
    4        2.694207   1.000000
    5       11.438960   0.000000
    6       15.533569   0.000000
    7       18.435300   0.000000
    8       19.541936   0.000000
    9       24.561157   0.000000
   10       25.249525   0.000000
   11       25.401808   0.000000
   12       32.165627   0.000000
   13       33.125903   0.000000
   14       33.272512   0.000000
   15       35.726800   0.000000
   16       36.463837   0.000000
 
 -0.3636364E+00  0.9090909E-01 -0.1806079E-16  0.1803156E-01
    1      -12.664473   1.000000
    2       -0.654870   1.000000
    3        2.457567   1.000000
    4        2.796556   1.000000
    5       11.351849   0.000000
    6       15.372171   0.000000
    7       18.604838   0.000000
    8       19.692791   0.000000
    9       24.055704   0.000000
   10       24.749361   0.000000
   11       25.290790   0.000000
   12       32.302784   0.000000
   13       32.913522   0.000000
   14       33.810734   0.000000
   15       34.986996   0.000000
   16       38.400777   0.000000
 
 -0.2727273E+00  0.9090909E-01 -0.2307628E-16  0.1803156E-01
    1      -12.953415   1.000000
    2        0.131372   1.000000
    3        2.596881   1.000000
    4        2.957997   1.000000
    5       10.940245   0.000000
    6       15.317489   0.000000
    7       18.964696   0.000000
    8       20.024886   0.000000
    9       22.562572   0.000000
   10       24.293840   0.000000
   11       25.619266   0.000000
   12       31.590180   0.000000
   13       32.349909   0.000000
   14       32.740190   0.000000
   15       36.138715   0.000000
   16       38.397707   0.000000
 
 -0.1818182E+00  0.9090909E-01 -0.1124311E-16  0.1803156E-01
    1      -13.279058   1.000000
    2        1.164626   1.000000
    3        2.823537   1.000000
    4        3.133828   1.000000
    5       10.064214   0.000000
    6       15.842066   0.000000
    7       19.282281   0.000000
    8       20.081347   0.000000
    9       21.905667   0.000000
   10       23.831990   0.000000
   11       26.056078   0.000000
   12       29.423562   0.000000
   13       30.638469   0.000000
   14       31.146501   0.000000
   15       36.743367   0.000000
   16       39.644919   0.000000
 
 -0.9090909E-01  0.9090909E-01 -0.2950320E-17  0.9015778E-02
    1      -13.540529   1.000000
    2        2.180986   1.000000
    3        3.091337   1.000000
    4        3.264709   1.000000
    5        9.011909   0.000000
    6       16.906632   0.000000
    7       19.305130   0.000000
    8       19.520915   0.000000
    9       22.624315   0.000000
   10       23.918993   0.000000
   11       25.560155   0.000000
   12       27.931759   0.000000
   13       28.212585   0.000000
   14       29.558879   0.000000
   15       38.419080   0.000000
   16       40.351461   0.000000
 
  0.1818182E+00  0.1818182E+00  0.2275152E-16  0.4507889E-02
    1      -13.346059   1.000000
    2        1.598732   1.000000
    3        2.921601   1.000000
    4        2.921606   1.000000
    5        9.942049   0.000000
    6       15.653678   0.000000
    7       19.889694   0.000000
    8       19.889694   0.000000
    9       20.231349   0.000000
   10       25.535895   0.000000
   11       28.323524   0.000000
   12       28.637548   0.000000
   13       28.637550   0.000000
   14       30.151367   0.000000
   15       38.336781   0.000000
   16       39.558146   0.000000
 
  0.2727273E+00  0.1818182E+00  0.2861085E-17  0.1803156E-01
    1      -13.110837   1.000000
    2        0.881258   1.000000
    3        2.698299   1.000000
    4        2.739333   1.000000
    5       10.838274   0.000000
    6       14.873426   0.000000
    7       18.873455   0.000000
    8       20.224848   0.000000
    9       20.664463   0.000000
   10       25.751175   0.000000
   11       28.382657   0.000000
   12       30.179503   0.000000
   13       30.751072   0.000000
   14       31.456072   0.000000
   15       37.239714   0.000000
   16       38.440309   0.000000
 
  0.3636364E+00  0.1818182E+00  0.2342391E-16  0.1803156E-01
    1      -12.821154   1.000000
    2        0.120504   1.000000
    3        2.367204   1.000000
    4        2.592656   1.000000
    5       11.702572   0.000000
    6       14.591492   0.000000
    7       17.878105   0.000000
    8       20.304798   0.000000
    9       21.522463   0.000000
   10       26.124146   0.000000
   11       28.065721   0.000000
   12       31.169301   0.000000
   13       32.341397   0.000000
   14       33.607259   0.000000
   15       36.274168   0.000000
   16       37.624972   0.000000
 
  0.4545455E+00  0.1818182E+00  0.2058568E-16  0.1803156E-01
    1      -12.567787   1.000000
    2       -0.453994   1.000000
    3        2.014131   1.000000
    4        2.521134   1.000000
    5       12.173110   0.000000
    6       14.924020   0.000000
    7       17.244919   0.000000
    8       20.168980   0.000000
    9       22.303189   0.000000
   10       26.568835   0.000000
   11       27.779370   0.000000
   12       31.375145   0.000000
   13       33.383038   0.000000
   14       33.727882   0.000000
   15       35.240038   0.000000
   16       40.153544   0.000000
 
 -0.4545455E+00  0.1818182E+00 -0.3828742E-16  0.1803156E-01
    1      -12.446682   1.000000
    2       -0.691692   1.000000
    3        1.759415   1.000000
    4        2.543008   1.000000
    5       12.335744   0.000000
    6       15.321369   0.000000
    7       16.985114   0.000000
    8       20.040868   0.000000
    9       23.017123   0.000000
   10       26.082595   0.000000
   11       27.508760   0.000000
   12       32.040154   0.000000
   13       32.485061   0.000000
   14       33.694475   0.000000
   15       37.296210   0.000000
   16       37.726047   0.000000
 
 -0.3636364E+00  0.1818182E+00 -0.2248622E-16  0.1803156E-01
    1      -12.509918   1.000000
    2       -0.535026   1.000000
    3        1.689214   1.000000
    4        2.654350   1.000000
    5       12.331184   0.000000
    6       15.269664   0.000000
    7       17.106666   0.000000
    8       20.083178   0.000000
    9       23.800485   0.000000
   10       24.476655   0.000000
   11       27.418448   0.000000
   12       32.362540   0.000000
   13       32.513389   0.000000
   14       34.465370   0.000000
   15       35.415477   0.000000
   16       39.688414   0.000000
 
 -0.2727273E+00  0.1818182E+00 -0.4643616E-16  0.1803156E-01
    1      -12.729442   1.000000
    2       -0.057307   1.000000
    3        1.861027   1.000000
    4        2.825940   1.000000
    5       11.966010   0.000000
    6       15.042801   0.000000
    7       17.654042   0.000000
    8       20.380975   0.000000
    9       22.654402   0.000000
   10       24.333634   0.000000
   11       27.526187   0.000000
   12       31.562835   0.000000
   13       32.569626   0.000000
   14       33.827653   0.000000
   15       35.838610   0.000000
   16       39.936635   0.000000
 
 -0.1818182E+00  0.1818182E+00 -0.5900639E-17  0.9015778E-02
    1      -13.017832   1.000000
    2        0.562407   1.000000
    3        2.283499   1.000000
    4        3.005029   1.000000
    5       11.085562   0.000000
    6       15.240689   0.000000
    7       18.484292   0.000000
    8       20.962503   0.000000
    9       21.145279   0.000000
   10       24.257226   0.000000
   11       27.344146   0.000000
   12       29.913227   0.000000
   13       32.131288   0.000000
   14       33.443393   0.000000
   15       34.992370   0.000000
   16       39.587917   0.000000
 
  0.2727273E+00  0.2727273E+00  0.1072623E-16  0.4507889E-02
    1      -12.943738   1.000000
    2        0.544031   1.000000
    3        2.551692   1.000000
    4        2.551697   1.000000
    5       11.470882   0.000000
    6       14.096748   0.000000
    7       17.985004   0.000000
    8       20.682666   0.000000
    9       20.682667   0.000000
   10       26.718983   0.000000
   11       30.350603   0.000000
   12       30.623895   0.000000
   13       30.623896   0.000000
   14       32.607872   0.000000
   15       38.229268   0.000000
   16       38.229285   0.000000
 
  0.3636364E+00  0.2727273E+00  0.2058568E-16  0.1803156E-01
    1      -12.716785   1.000000
    2        0.084361   1.000000
    3        2.258640   1.000000
    4        2.401335   1.000000
    5       12.232206   0.000000
    6       13.685115   0.000000
    7       17.087201   0.000000
    8       20.927513   0.000000
    9       21.156420   0.000000
   10       27.297867   0.000000
   11       30.073252   0.000000
   12       30.934631   0.000000
   13       32.133997   0.000000
   14       35.113553   0.000000
   15       36.905157   0.000000
   16       37.661606   0.000000
 
  0.4545455E+00  0.2727273E+00  0.1139862E-16  0.1803156E-01
    1      -12.499306   1.000000
    2       -0.232071   1.000000
    3        1.742820   1.000000
    4        2.327928   1.000000
    5       12.797266   0.000000
    6       14.033565   0.000000
    7       16.415500   0.000000
    8       20.877270   0.000000
    9       21.485148   0.000000
   10       27.793750   0.000000
   11       30.037053   0.000000
   12       30.673463   0.000000
   13       32.667378   0.000000
   14       35.320141   0.000000
   15       36.221440   0.000000
   16       40.817723   0.000000
 
 -0.4545455E+00  0.2727273E+00 -0.5817785E-16  0.1803156E-01
    1      -12.367523   1.000000
    2       -0.290046   1.000000
    3        1.180682   1.000000
    4        2.350780   1.000000
    5       13.071104   0.000000
    6       14.856825   0.000000
    7       15.991162   0.000000
    8       20.688301   0.000000
    9       21.658308   0.000000
   10       27.409227   0.000000
   11       29.815169   0.000000
   12       30.945930   0.000000
   13       31.737995   0.000000
   14       35.415959   0.000000
   15       38.172430   0.000000
   16       40.148631   0.000000
 
 -0.3636364E+00  0.2727273E+00 -0.2126953E-17  0.1803156E-01
    1      -12.372276   1.000000
    2       -0.139676   1.000000
    3        0.850705   1.000000
    4        2.465010   1.000000
    5       13.252030   0.000000
    6       15.220423   0.000000
    7       15.896932   0.000000
    8       20.532542   0.000000
    9       22.261217   0.000000
   10       25.682890   0.000000
   11       29.527238   0.000000
   12       31.381939   0.000000
   13       31.921886   0.000000
   14       35.830297   0.000000
   15       37.491104   0.000000
   16       40.597499   0.000000
 
 -0.2727273E+00  0.2727273E+00 -0.4463597E-16  0.9015778E-02
    1      -12.510788   1.000000
    2       -0.084190   1.000000
    3        1.130757   1.000000
    4        2.640244   1.000000
    5       12.940821   0.000000
    6       14.991525   0.000000
    7       16.532242   0.000000
    8       20.472991   0.000000
    9       23.413191   0.000000
   10       23.842165   0.000000
   11       28.979984   0.000000
   12       31.538854   0.000000
   13       32.376106   0.000000
   14       34.496142   0.000000
   15       37.144491   0.000000
   16       40.956887   0.000000
 
  0.3636364E+00  0.3636364E+00  0.4550303E-16  0.4507889E-02
    1      -12.564077   1.000000
    2       -0.193239   1.000000
    3        2.242677   1.000000
    4        2.242681   1.000000
    5       12.612101   0.000000
    6       13.038685   0.000000
    7       16.525440   0.000000
    8       21.380164   0.000000
    9       21.380167   0.000000
   10       28.214969   0.000000
   11       29.232675   0.000000
   12       32.762140   0.000000
   13       32.762141   0.000000
   14       37.478163   0.000000
   15       37.643481   0.000000
   16       37.643482   0.000000
 
  0.4545455E+00  0.3636364E+00  0.4266481E-16  0.1803156E-01
    1      -12.411317   1.000000
    2       -0.378052   1.000000
    3        1.929207   1.000000
    4        2.162243   1.000000
    5       12.840181   0.000000
    6       13.173814   0.000000
    7       16.150921   0.000000
    8       21.489119   0.000000
    9       21.525578   0.000000
   10       28.918442   0.000000
   11       28.944391   0.000000
   12       32.770302   0.000000
   13       32.801435   0.000000
   14       37.403819   0.000000
   15       37.429847   0.000000
   16       40.439681   0.000000
 
 -0.4545455E+00  0.3636364E+00 -0.8153773E-16  0.1803156E-01
    1      -12.310513   1.000000
    2       -0.295262   1.000000
    3        1.290629   1.000000
    4        2.179004   1.000000
    5       13.024893   0.000000
    6       14.057667   0.000000
    7       15.851022   0.000000
    8       21.292636   0.000000
    9       21.295534   0.000000
   10       29.298969   0.000000
   11       29.353672   0.000000
   12       31.046168   0.000000
   13       32.067334   0.000000
   14       37.686292   0.000000
   15       39.001444   0.000000
   16       41.655002   0.000000
 
 -0.3636364E+00  0.3636364E+00 -0.1180128E-16  0.9015778E-02
    1      -12.296554   1.000000
    2        0.078738   1.000000
    3        0.578833   1.000000
    4        2.289679   1.000000
    5       13.364305   0.000000
    6       14.981260   0.000000
    7       15.521103   0.000000
    8       20.946356   0.000000
    9       21.295867   0.000000
   10       27.577172   0.000000
   11       30.271651   0.000000
   12       31.068199   0.000000
   13       31.199669   0.000000
   14       38.052493   0.000000
   15       38.477330   0.000000
   16       40.534421   0.000000
 
  0.4545455E+00  0.4545455E+00  0.3982658E-16  0.4507889E-02
    1      -12.334388   1.000000
    2       -0.556341   1.000000
    3        2.071398   1.000000
    4        2.071402   1.000000
    5       12.505886   0.000000
    6       12.974175   0.000000
    7       16.130138   0.000000
    8       21.796373   0.000000
    9       21.796376   0.000000
   10       28.208264   0.000000
   11       29.549753   0.000000
   12       33.583396   0.000000
   13       33.583398   0.000000
   14       37.493558   0.000000
   15       39.215347   0.000000
   16       39.215348   0.000000
 
 -0.4545455E+00  0.4545455E+00  0.6002121E-17  0.9015778E-02
    1      -12.296747   1.000000
    2       -0.522774   1.000000
    3        1.805246   1.000000
    4        2.077400   1.000000
    5       12.644511   0.000000
    6       13.259980   0.000000
    7       16.044479   0.000000
    8       21.629765   0.000000
    9       21.710016   0.000000
   10       28.408963   0.000000
   11       29.986222   0.000000
   12       32.110007   0.000000
   13       33.186028   0.000000
   14       38.548816   0.000000
   15       39.494544   0.000000
   16       40.360845   0.000000
 
  0.2727273E+00  0.1818182E+00  0.9090909E-01  0.1803156E-01
    1      -13.256513   1.000000
    2        1.224656   1.000000
    3        2.737461   1.000000
    4        3.024906   1.000000
    5       10.249522   0.000000
    6       15.568168   0.000000
    7       19.231804   0.000000
    8       20.226397   0.000000
    9       20.930993   0.000000
   10       24.715201   0.000000
   11       27.304898   0.000000
   12       28.996559   0.000000
   13       30.627879   0.000000
   14       30.973031   0.000000
   15       36.878583   0.000000
   16       39.580765   0.000000
 
  0.3636364E+00  0.1818182E+00  0.9090909E-01  0.3606311E-01
    1      -12.965186   1.000000
    2        0.406580   1.000000
    3        2.380455   1.000000
    4        2.865346   1.000000
    5       11.231297   0.000000
    6       15.015633   0.000000
    7       18.449696   0.000000
    8       20.349387   0.000000
    9       21.484561   0.000000
   10       24.957800   0.000000
   11       27.368249   0.000000
   12       30.727331   0.000000
   13       31.841138   0.000000
   14       33.345121   0.000000
   15       35.670386   0.000000
   16       38.648063   0.000000
 
  0.4545455E+00  0.1818182E+00  0.9090909E-01  0.3606311E-01
    1      -12.676213   1.000000
    2       -0.316544   1.000000
    3        2.117542   1.000000
    4        2.693336   1.000000
    5       11.872326   0.000000
    6       15.040918   0.000000
    7       17.765028   0.000000
    8       20.033813   0.000000
    9       22.737611   0.000000
   10       25.240437   0.000000
   11       27.139637   0.000000
   12       32.045233   0.000000
   13       32.553963   0.000000
   14       34.156607   0.000000
   15       35.069116   0.000000
   16       39.801334   0.000000
 
 -0.4545455E+00  0.1818182E+00  0.9090909E-01  0.3606311E-01
    1      -12.492969   1.000000
    2       -0.740482   1.000000
    3        1.981347   1.000000
    4        2.585054   1.000000
    5       12.078388   0.000000
    6       15.348480   0.000000
    7       17.408495   0.000000
    8       19.826193   0.000000
    9       23.761408   0.000000
   10       25.128814   0.000000
   11       27.170503   0.000000
   12       32.294935   0.000000
   13       32.698061   0.000000
   14       33.569714   0.000000
   15       35.946859   0.000000
   16       38.277542   0.000000
 
  0.3636364E+00  0.2727273E+00  0.9090909E-01  0.1803156E-01
    1      -12.878601   1.000000
    2        0.375556   1.000000
    3        2.319189   1.000000
    4        2.617385   1.000000
    5       11.701865   0.000000
    6       14.320312   0.000000
    7       17.834344   0.000000
    8       20.562982   0.000000
    9       21.046329   0.000000
   10       26.211469   0.000000
   11       29.668770   0.000000
   12       30.448575   0.000000
   13       31.148524   0.000000
   14       34.057354   0.000000
   15       36.093876   0.000000
   16       38.592360   0.000000
 
  0.4545455E+00  0.2727273E+00  0.9090909E-01  0.3606311E-01
    1      -12.625884   1.000000
    2       -0.078297   1.000000
    3        1.885253   1.000000
    4        2.448799   1.000000
    5       12.538288   0.000000
    6       14.285610   0.000000
    7       16.950816   0.000000
    8       20.375634   0.000000
    9       21.889775   0.000000
   10       26.394833   0.000000
   11       29.768481   0.000000
   12       30.896562   0.000000
   13       32.160554   0.000000
   14       35.221235   0.000000
   15       35.613176   0.000000
   16       39.633485   0.000000
 
 -0.4545455E+00  0.2727273E+00  0.9090909E-01  0.3606311E-01
    1      -12.437063   1.000000
    2       -0.352892   1.000000
    3        1.486740   1.000000
    4        2.351540   1.000000
    5       12.937346   0.000000
    6       14.844934   0.000000
    7       16.389913   0.000000
    8       20.075720   0.000000
    9       22.588260   0.000000
   10       26.131406   0.000000
   11       29.702034   0.000000
   12       31.136104   0.000000
   13       32.260077   0.000000
   14       34.812631   0.000000
   15       36.621031   0.000000
   16       40.734334   0.000000
 
 -0.3636364E+00  0.2727273E+00  0.9090909E-01  0.3606311E-01
    1      -12.384827   1.000000
    2       -0.385923   1.000000
    3        1.257817   1.000000
    4        2.378701   1.000000
    5       13.069300   0.000000
    6       15.198964   0.000000
    7       16.218568   0.000000
    8       19.942656   0.000000
    9       23.189122   0.000000
   10       25.242640   0.000000
   11       29.513083   0.000000
   12       31.362853   0.000000
   13       32.201383   0.000000
   14       34.842917   0.000000
   15       37.811362   0.000000
   16       39.197449   0.000000
 
 -0.2727273E+00  0.2727273E+00  0.9090909E-01  0.3606311E-01
    1      -12.490687   1.000000
    2       -0.214483   1.000000
    3        1.332696   1.000000
    4        2.515021   1.000000
    5       12.947089   0.000000
    6       14.921216   0.000000
    7       16.549168   0.000000
    8       20.100714   0.000000
    9       23.446246   0.000000
   10       24.393631   0.000000
   11       29.232053   0.000000
   12       31.695665   0.000000
   13       32.099858   0.000000
   14       34.977826   0.000000
   15       36.297451   0.000000
   16       41.696332   0.000000
 
 -0.1818182E+00  0.2727273E+00  0.9090909E-01  0.1803156E-01
    1      -12.711101   1.000000
    2        0.061131   1.000000
    3        1.759134   1.000000
    4        2.704826   1.000000
    5       12.261221   0.000000
    6       14.737138   0.000000
    7       17.356802   0.000000
    8       20.392105   0.000000
    9       22.184512   0.000000
   10       24.915460   0.000000
   11       28.810937   0.000000
   12       31.092626   0.000000
   13       32.015033   0.000000
   14       34.441131   0.000000
   15       36.050614   0.000000
   16       39.992262   0.000000
 
  0.4545455E+00  0.3636364E+00  0.9090909E-01  0.1803156E-01
    1      -12.527194   1.000000
    2       -0.176692   1.000000
    3        1.969970   1.000000
    4        2.214667   1.000000
    5       12.932402   0.000000
    6       13.423173   0.000000
    7       16.419511   0.000000
    8       20.803115   0.000000
    9       21.739195   0.000000
   10       27.781609   0.000000
   11       29.788323   0.000000
   12       31.944299   0.000000
   13       32.369830   0.000000
   14       36.365661   0.000000
   15       36.457644   0.000000
   16       39.811464   0.000000
 
 -0.4545455E+00  0.3636364E+00  0.9090909E-01  0.3606311E-01
    1      -12.371367   1.000000
    2       -0.228909   1.000000
    3        1.436054   1.000000
    4        2.101532   1.000000
    5       13.335618   0.000000
    6       14.051631   0.000000
    7       15.912235   0.000000
    8       20.287219   0.000000
    9       22.262184   0.000000
   10       27.645787   0.000000
   11       29.997069   0.000000
   12       31.188518   0.000000
   13       32.696784   0.000000
   14       36.327426   0.000000
   15       37.503049   0.000000
   16       41.559611   0.000000
 
 -0.3636364E+00  0.3636364E+00  0.9090909E-01  0.3606311E-01
    1      -12.304320   1.000000
    2       -0.005748   1.000000
    3        0.790595   1.000000
    4        2.145020   1.000000
    5       13.603221   0.000000
    6       14.953594   0.000000
    7       15.532096   0.000000
    8       19.829205   0.000000
    9       22.583846   0.000000
   10       26.692837   0.000000
   11       30.108797   0.000000
   12       31.333861   0.000000
   13       32.022475   0.000000
   14       36.637764   0.000000
   15       39.287019   0.000000
   16       40.319242   0.000000
 
 -0.2727273E+00  0.3636364E+00  0.9090909E-01  0.1803156E-01
    1      -12.350123   1.000000
    2        0.111693   1.000000
    3        0.628612   1.000000
    4        2.303510   1.000000
    5       13.689423   0.000000
    6       15.049146   0.000000
    7       15.673318   0.000000
    8       19.881652   0.000000
    9       23.169577   0.000000
   10       25.047477   0.000000
   11       30.789699   0.000000
   12       30.863863   0.000000
   13       31.879426   0.000000
   14       36.680610   0.000000
   15       37.242022   0.000000
   16       41.750977   0.000000
 
 -0.4545455E+00  0.4545455E+00  0.9090909E-01  0.1803156E-01
    1      -12.317611   1.000000
    2       -0.417875   1.000000
    3        1.776888   1.000000
    4        1.960668   1.000000
    5       12.961293   0.000000