# ['Ni']

107 atoms
1 atom types

    0.0000    10.5456 xlo xhi
    0.0000    10.5456 ylo yhi
    0.0000    10.5456 zlo zhi

    0.0000    -0.0000    -0.0000 xy xz yz

Atoms

1 1     1.7576     1.7576     0.0000
2 1     1.7576     0.0000     1.7576
3 1     0.0000     1.7576     1.7576
4 1     0.0000     0.0000     3.5152
5 1     1.7576     1.7576     3.5152
6 1     1.7576     0.0000     5.2728
7 1     0.0000     1.7576     5.2728
8 1     0.0000     0.0000     7.0304
9 1     1.7576     1.7576     7.0304
10 1     1.7576     0.0000     8.7880
11 1     0.0000     1.7576     8.7880
12 1     0.0000     3.5152     0.0000
13 1     1.7576     5.2728     0.0000
14 1     1.7576     3.5152     1.7576
15 1     0.0000     5.2728     1.7576
16 1     0.0000     3.5152     3.5152
17 1     1.7576     5.2728     3.5152
18 1     1.7576     3.5152     5.2728
19 1     0.0000     5.2728     5.2728
20 1     0.0000     3.5152     7.0304
21 1     1.7576     5.2728     7.0304
22 1     1.7576     3.5152     8.7880
23 1     0.0000     5.2728     8.7880
24 1     0.0000     7.0304     0.0000
25 1     1.7576     8.7880     0.0000
26 1     1.7576     7.0304     1.7576
27 1     0.0000     8.7880     1.7576
28 1     0.0000     7.0304     3.5152
29 1     1.7576     8.7880     3.5152
30 1     1.7576     7.0304     5.2728
31 1     0.0000     8.7880     5.2728
32 1     0.0000     7.0304     7.0304
33 1     1.7576     8.7880     7.0304
34 1     1.7576     7.0304     8.7880
35 1     0.0000     8.7880     8.7880
36 1     3.5152     0.0000     0.0000
37 1     5.2728     1.7576     0.0000
38 1     5.2728     0.0000     1.7576
39 1     3.5152     1.7576     1.7576
40 1     3.5152     0.0000     3.5152
41 1     5.2728     1.7576     3.5152
42 1     5.2728     0.0000     5.2728
43 1     3.5152     1.7576     5.2728
44 1     3.5152     0.0000     7.0304
45 1     5.2728     1.7576     7.0304
46 1     5.2728     0.0000     8.7880
47 1     3.5152     1.7576     8.7880
48 1     3.5152     3.5152     0.0000
49 1     5.2728     5.2728     0.0000
50 1     5.2728     3.5152     1.7576
51 1     3.5152     5.2728     1.7576
52 1     3.5152     3.5152     3.5152
53 1     5.2728     5.2728     3.5152
54 1     5.2728     3.5152     5.2728
55 1     3.5152     5.2728     5.2728
56 1     3.5152     3.5152     7.0304
57 1     5.2728     5.2728     7.0304
58 1     5.2728     3.5152     8.7880
59 1     3.5152     5.2728     8.7880
60 1     3.5152     7.0304     0.0000
61 1     5.2728     8.7880     0.0000
62 1     5.2728     7.0304     1.7576
63 1     3.5152     8.7880     1.7576
64 1     3.5152     7.0304     3.5152
65 1     5.2728     8.7880     3.5152
66 1     5.2728     7.0304     5.2728
67 1     3.5152     8.7880     5.2728
68 1     3.5152     7.0304     7.0304
69 1     5.2728     8.7880     7.0304
70 1     5.2728     7.0304     8.7880
71 1     3.5152     8.7880     8.7880
72 1     7.0304     0.0000     0.0000
73 1     8.7880     1.7576     0.0000
74 1     8.7880     0.0000     1.7576
75 1     7.0304     1.7576     1.7576
76 1     7.0304     0.0000     3.5152
77 1     8.7880     1.7576     3.5152
78 1     8.7880     0.0000     5.2728
79 1     7.0304     1.7576     5.2728
80 1     7.0304     0.0000     7.0304
81 1     8.7880     1.7576     7.0304
82 1     8.7880     0.0000     8.7880
83 1     7.0304     1.7576     8.7880
84 1     7.0304     3.5152     0.0000
85 1     8.7880     5.2728     0.0000
86 1     8.7880     3.5152     1.7576
87 1     7.0304     5.2728     1.7576
88 1     7.0304     3.5152     3.5152
89 1     8.7880     5.2728     3.5152
90 1     8.7880     3.5152     5.2728
91 1     7.0304     5.2728     5.2728
92 1     7.0304     3.5152     7.0304
93 1     8.7880     5.2728     7.0304
94 1     8.7880     3.5152     8.7880
95 1     7.0304     5.2728     8.7880
96 1     7.0304     7.0304     0.0000
97 1     8.7880     8.7880     0.0000
98 1     8.7880     7.0304     1.7576
99 1     7.0304     8.7880     1.7576
100 1     7.0304     7.0304     3.5152
101 1     8.7880     8.7880     3.5152
102 1     8.7880     7.0304     5.2728
103 1     7.0304     8.7880     5.2728
104 1     7.0304     7.0304     7.0304
105 1     8.7880     8.7880     7.0304
106 1     8.7880     7.0304     8.7880
107 1     7.0304     8.7880     8.7880
