# ['Ni']

107 atoms
1 atom types

    0.0000    10.5204 xlo xhi
    0.0000    10.5204 ylo yhi
    0.0000    10.5204 zlo zhi

    0.0000    -0.0000    -0.0000 xy xz yz

Atoms

1 1     1.7534     1.7534     0.0000
2 1     1.7534     0.0000     1.7534
3 1     0.0000     1.7534     1.7534
4 1     0.0000     0.0000     3.5068
5 1     1.7534     1.7534     3.5068
6 1     1.7534     0.0000     5.2602
7 1     0.0000     1.7534     5.2602
8 1     0.0000     0.0000     7.0136
9 1     1.7534     1.7534     7.0136
10 1     1.7534     0.0000     8.7670
11 1     0.0000     1.7534     8.7670
12 1     0.0000     3.5068     0.0000
13 1     1.7534     5.2602     0.0000
14 1     1.7534     3.5068     1.7534
15 1     0.0000     5.2602     1.7534
16 1     0.0000     3.5068     3.5068
17 1     1.7534     5.2602     3.5068
18 1     1.7534     3.5068     5.2602
19 1     0.0000     5.2602     5.2602
20 1     0.0000     3.5068     7.0136
21 1     1.7534     5.2602     7.0136
22 1     1.7534     3.5068     8.7670
23 1     0.0000     5.2602     8.7670
24 1     0.0000     7.0136     0.0000
25 1     1.7534     8.7670     0.0000
26 1     1.7534     7.0136     1.7534
27 1     0.0000     8.7670     1.7534
28 1     0.0000     7.0136     3.5068
29 1     1.7534     8.7670     3.5068
30 1     1.7534     7.0136     5.2602
31 1     0.0000     8.7670     5.2602
32 1     0.0000     7.0136     7.0136
33 1     1.7534     8.7670     7.0136
34 1     1.7534     7.0136     8.7670
35 1     0.0000     8.7670     8.7670
36 1     3.5068     0.0000     0.0000
37 1     5.2602     1.7534     0.0000
38 1     5.2602     0.0000     1.7534
39 1     3.5068     1.7534     1.7534
40 1     3.5068     0.0000     3.5068
41 1     5.2602     1.7534     3.5068
42 1     5.2602     0.0000     5.2602
43 1     3.5068     1.7534     5.2602
44 1     3.5068     0.0000     7.0136
45 1     5.2602     1.7534     7.0136
46 1     5.2602     0.0000     8.7670
47 1     3.5068     1.7534     8.7670
48 1     3.5068     3.5068     0.0000
49 1     5.2602     5.2602     0.0000
50 1     5.2602     3.5068     1.7534
51 1     3.5068     5.2602     1.7534
52 1     3.5068     3.5068     3.5068
53 1     5.2602     5.2602     3.5068
54 1     5.2602     3.5068     5.2602
55 1     3.5068     5.2602     5.2602
56 1     3.5068     3.5068     7.0136
57 1     5.2602     5.2602     7.0136
58 1     5.2602     3.5068     8.7670
59 1     3.5068     5.2602     8.7670
60 1     3.5068     7.0136     0.0000
61 1     5.2602     8.7670     0.0000
62 1     5.2602     7.0136     1.7534
63 1     3.5068     8.7670     1.7534
64 1     3.5068     7.0136     3.5068
65 1     5.2602     8.7670     3.5068
66 1     5.2602     7.0136     5.2602
67 1     3.5068     8.7670     5.2602
68 1     3.5068     7.0136     7.0136
69 1     5.2602     8.7670     7.0136
70 1     5.2602     7.0136     8.7670
71 1     3.5068     8.7670     8.7670
72 1     7.0136     0.0000     0.0000
73 1     8.7670     1.7534     0.0000
74 1     8.7670     0.0000     1.7534
75 1     7.0136     1.7534     1.7534
76 1     7.0136     0.0000     3.5068
77 1     8.7670     1.7534     3.5068
78 1     8.7670     0.0000     5.2602
79 1     7.0136     1.7534     5.2602
80 1     7.0136     0.0000     7.0136
81 1     8.7670     1.7534     7.0136
82 1     8.7670     0.0000     8.7670
83 1     7.0136     1.7534     8.7670
84 1     7.0136     3.5068     0.0000
85 1     8.7670     5.2602     0.0000
86 1     8.7670     3.5068     1.7534
87 1     7.0136     5.2602     1.7534
88 1     7.0136     3.5068     3.5068
89 1     8.7670     5.2602     3.5068
90 1     8.7670     3.5068     5.2602
91 1     7.0136     5.2602     5.2602
92 1     7.0136     3.5068     7.0136
93 1     8.7670     5.2602     7.0136
94 1     8.7670     3.5068     8.7670
95 1     7.0136     5.2602     8.7670
96 1     7.0136     7.0136     0.0000
97 1     8.7670     8.7670     0.0000
98 1     8.7670     7.0136     1.7534
99 1     7.0136     8.7670     1.7534
100 1     7.0136     7.0136     3.5068
101 1     8.7670     8.7670     3.5068
102 1     8.7670     7.0136     5.2602
103 1     7.0136     8.7670     5.2602
104 1     7.0136     7.0136     7.0136
105 1     8.7670     8.7670     7.0136
106 1     8.7670     7.0136     8.7670
107 1     7.0136     8.7670     8.7670
