LAMMPS (10 Feb 2015)
Reading data file ...
  triclinic box = (0 0 0) to (4.2565 4.2565 4.2565) with tilt (0 0 0)
  1 by 1 by 1 MPI processor grid
  reading atoms ...
  8 atoms
4 atoms in group Mg
4 atoms in group O
Setting atom values ...
  4 settings made for charge
Setting atom values ...
  4 settings made for charge
PPPM initialization ...
  G vector (1/distance) = 0.352708
  grid = 8 8 8
  stencil order = 5
  estimated absolute RMS force accuracy = 3.89813e-05
  estimated relative force accuracy = 2.7071e-06
  using double precision FFTs
  3d grid and FFT values/proc = 3375 512
Neighbor list info ...
  1 neighbor list requests
  update every 1 steps, delay 0 steps, check yes
  master list distance cutoff = 11
Setting up minimization ...
Memory usage per processor = 4.06549 Mbytes
Step PotEng Lx Ly Lz Xy Xz Yz Press Pxx Pyy Pzz Pxy Pxz Pyz eatoms 
       0   -111.38871       4.2565       4.2565       4.2565            0            0            0   -14022.103   -14022.103   -14022.103   -14022.103 -1.0617953e-11 -7.0203049e-11 5.2505523e-12   -111.38871 
       6    -111.3915    4.2448057    4.2448057    4.2448057            0            0            0    11.870105    11.870105    11.870105    11.870105 -3.2023954e-10 4.899455e-11 2.2757866e-10    -111.3915 
Loop time of 0.018486 on 1 procs for 6 steps with 8 atoms

Minimization stats:
  Stopping criterion = linesearch alpha is zero
  Energy initial, next-to-last, final = 
        -111.388714234     -111.391500014     -111.391500014
  Force two-norm initial, final = 2.0248 0.00171153
  Force max component initial, final = 2.0248 0.00170464
  Final line search alpha, max atom move = 0.00229153 3.90625e-06
  Iterations, force evaluations = 6 44

Pair  time (%) = 0.00517178 (27.9767)
Kspce time (%) = 0.00300264 (16.2428)
Neigh time (%) = 0 (0)
Comm  time (%) = 0.000584364 (3.16111)
Outpt time (%) = 0 (0)
Other time (%) = 0.00972724 (52.6194)

Nlocal:    8 ave 8 max 8 min
Histogram: 1 0 0 0 0 0 0 0 0 0
Nghost:    2189 ave 2189 max 2189 min
Histogram: 1 0 0 0 0 0 0 0 0 0
Neighs:    2344 ave 2344 max 2344 min
Histogram: 1 0 0 0 0 0 0 0 0 0

Total # of neighbors = 2344
Ave neighs/atom = 293
Neighbor list builds = 0
Dangerous builds = 0
pypospack:output_section:begin
tot_energy = -111.391500014071
num_atoms = 8
xx = 4.24480566540602
yy = 4.24480566540602
zz = 4.24480566540602
xy = 0
xz = 0
yz = 0
tot_press = 11.8701047091937
pxx = 11.8701047092997
pyy = 11.8701047087814
pzz = 11.8701047094999
pxy = -3.20239539923879e-10
pxz = 4.8994550277695e-11
pyz = 2.27578662531736e-10
pypospack:output_section:done
pypospack:lammps_sim:done
PPPM initialization ...
  G vector (1/distance) = 0.352825
  grid = 8 8 8
  stencil order = 5
  estimated absolute RMS force accuracy = 3.87738e-05
  estimated relative force accuracy = 2.69269e-06
  using double precision FFTs
  3d grid and FFT values/proc = 3375 512
Setting up run ...
Memory usage per processor = 3.06549 Mbytes
Step Temp PotEng KinEng TotEng Press Lx Ly Lz Press Pxx Pyy Pzz Pxy Pxz Pyz Volume 
       0         1800    -111.3915    1.6286778   -109.76282    22756.723    4.2448057    4.2448057    4.2448057    22756.723    36132.497    16351.136    15786.536   -7472.2566   -6908.5182    9263.3478    76.484501 
     100    987.84383   -110.47477   0.89382186   -109.58095    26186.861    4.2790612    4.2790612    4.2790612    26186.861    56832.857    32515.519   -10787.793    10509.871    9849.0987   -1706.9543    78.351171 
     200    804.11029   -109.86144   0.72757588   -109.13387   -27920.332    4.3340141    4.3340141    4.3340141   -27920.332    22825.686   -57951.729   -48634.954    14368.777    -7305.238   -13078.758    81.408728 
     300    1718.9445   -110.26475    1.5553371   -108.70941    -6199.243    4.3423566    4.3423566    4.3423566    -6199.243      72868.3   -26123.273   -65342.755    2550.1163   -2877.6967   -7229.0368    81.879741 
     400     2287.595    -110.4797     2.069864   -108.40983   -16875.739    4.3237113    4.3237113    4.3237113   -16875.739    6781.6734    2451.5138   -59860.405   -11670.285   -7462.2498   -6362.4872    80.829534 
     500    1502.8708   -109.58984    1.3598291   -108.23001    5900.8378    4.3163941    4.3163941    4.3163941    5900.8378   -24406.875    93753.718    -51644.33    3964.3493    9712.2631   -10706.564    80.419853 
     600    2263.8138   -110.20805    2.0483463    -108.1597   -26638.755    4.3363037    4.3363037    4.3363037   -26638.755    25144.692   -38755.997   -66304.959    22108.285    21533.099    9.9154766    81.537816 
     700    1832.5051   -109.77591    1.6580892   -108.11782    3878.5794    4.3472927    4.3472927    4.3472927    3878.5794    7243.5779    317.39293    4074.7672   -16610.857   -17814.739    8344.4673    82.159283 
     800    1288.2913    -109.2677    1.1656731   -108.10202     8697.669    4.3502005    4.3502005    4.3502005     8697.669    86164.901   -45192.858   -14879.035    21802.409    15168.447   -13932.152    82.324258 
     900    1967.7922    -109.8809    1.7804997    -108.1004   -50744.709    4.3553392    4.3553392    4.3553392   -50744.709   -36021.535   -45186.103   -71026.489    6511.7778    1161.9312    4745.3292    82.616342 
    1000    2528.1045   -110.35846    2.2874821   -108.07098   -12503.142    4.3320428    4.3320428    4.3320428   -12503.142   -8380.3607   -48197.679    19068.614   -12934.917    6922.1205    21085.083    81.297691 
    1100    2012.2959   -109.92358    1.8207677   -108.10281    13973.909    4.3243374    4.3243374    4.3243374    13973.909    60796.415    2459.0049   -21333.693    40275.618   -8817.4668   -8351.5179    80.864652 
    1200     1580.293   -109.58154    1.4298823   -108.15166   -17741.949    4.3483391    4.3483391    4.3483391   -17741.949     49899.75   -38740.784   -64384.813   -1860.2984    10422.736    2871.0971    82.218625 
    1300    1509.5451   -109.47564    1.3658682   -108.10977    -5313.202    4.3566269    4.3566269    4.3566269    -5313.202    51008.167   -36097.947   -30849.827    4594.5153   -12464.804    15988.093    82.689641 
    1400    1741.5591   -109.65619    1.5757993   -108.08039    28511.573    4.3458835    4.3458835    4.3458835    28511.573    67881.245   -6253.4588    23906.933   -14284.545    17786.359   -8084.5392     82.07941 
    1500    1779.8099   -109.71716    1.6104094   -108.10675   -37232.031    4.3538695    4.3538695    4.3538695   -37232.031   -18111.561   -43513.361    -50071.17    6613.4067    7933.3825    32006.504    82.532735 
    1600    2165.5539   -110.05616    1.9594387   -108.09672   -33116.415    4.3493327    4.3493327    4.3493327   -33116.415   -37847.228   -31796.377   -29705.639   -1267.4436    1261.0026    14171.601    82.274997 
    1700    2583.9873   -110.42273     2.338046   -108.08468    3478.7033    4.3309792    4.3309792    4.3309792    3478.7033    18317.169    9858.4555   -17739.515     18557.98    -15474.49   -15509.897    81.237826 
    1800    1451.4956   -109.44515    1.3133437   -108.13181    5229.3089    4.3475192    4.3475192    4.3475192    5229.3089    64465.713   -29403.433   -19374.354    -27871.58    25600.967   -1677.0739    82.172129 
    1900    1960.1424   -109.87363     1.773578   -108.10005   -10095.957    4.3645652    4.3645652    4.3645652   -10095.957    24885.984   -14804.109   -40369.747   -8108.7963    31551.747    558.50033    83.142478 
    2000    1812.8895   -109.69314    1.6403405    -108.0528    6782.2039    4.3593659    4.3593659    4.3593659    6782.2039   -10914.658     65374.58    -34113.31   -5346.2547   -11413.922   -4604.0861    82.845696 
    2100    1143.2916   -109.08208    1.0344743   -108.04761   -760.66579    4.3367088    4.3367088    4.3367088   -760.66579    6244.9087    17097.572   -25624.478   -17040.359   -9652.9603    10356.759    81.560671 
    2200    1990.1694   -109.86663    1.8007471   -108.06588   -2192.6929    4.3128772    4.3128772    4.3128772   -2192.6929    8625.6914    217.07961    -15420.85    37214.113     19707.66   -5302.8077    80.223439 
    2300    1687.4468   -109.65537    1.5268374   -108.12853    11797.179    4.3325273    4.3325273    4.3325273    11797.179   -16485.259    44423.915    7452.8808   -14818.619    4677.8027   -9489.6061    81.324972 
    2400    1288.8092   -109.29912    1.1661417   -108.13298    7360.2645    4.3622118    4.3622118    4.3622118    7360.2645    5413.3602    13288.419    3379.0142   -3201.6293   -7211.9449   -6116.8472    83.008055 
    2500    2104.9361   -109.95479    1.9045904    -108.0502   -32210.866    4.3754524    4.3754524    4.3754524   -32210.866   -39135.924   -15486.908   -42009.767   -15465.184    1250.1898    -7056.205    83.766213 
    2600    2609.2148   -110.34856    2.3608724   -107.98769    -20282.66    4.3509033    4.3509033    4.3509033    -20282.66   -20657.823    13632.853   -53823.009   -2133.2263    15583.312   -6599.5185    82.364166 
    2700    2054.4046   -109.85959    1.8588685   -108.00072    24659.293    4.3217197    4.3217197    4.3217197    24659.293   -35327.877    79576.191    29729.564   -15592.651    219.10476    5081.3493    80.717886 
    2800    1460.9309   -109.41258     1.321881    -108.0907    21953.821    4.3363003    4.3363003    4.3363003    21953.821    71066.503    -7725.223    2520.1826    10040.908   -25251.531   -19406.568    81.537622 
    2900    2159.8805   -110.03321    1.9543053    -108.0789   -50650.187    4.3481931    4.3481931    4.3481931   -50650.187   -70271.125   -34300.837   -47378.601    7623.1496   -16879.156   -3073.8294    82.210345 
    3000    1756.5515   -109.64519    1.5893647   -108.05582    46273.635    4.3173318    4.3173318    4.3173318    46273.635    54897.598     41825.77    42097.538    4374.8946    3812.1298    43304.553    80.472276 
    3100    1920.1563   -109.82695    1.7373977   -108.08955    570.38479    4.3221636    4.3221636    4.3221636    570.38479    39914.815     13785.45   -51989.111    13548.064      12152.1   -17089.453    80.742762 
    3200    1145.5334   -109.13779    1.0365027   -108.10128   -30795.005    4.3430099    4.3430099    4.3430099   -30795.005    25566.914   -77484.095   -40467.833   -21570.866    9219.4459   -3895.2798    81.916702 
    3300    1870.5112   -109.78361    1.6924778   -108.09114   -19538.708    4.3304672    4.3304672    4.3304672   -19538.708     7134.838   -45249.832   -20501.131   -21460.097   -10704.367   -568.30274     81.20902 
    3400    2254.8041   -110.12906    2.0401941   -108.08887    698.08321    4.3179905    4.3179905    4.3179905    698.08321    13232.599   -25874.415    14736.066    25628.773    79.385486    5266.7313    80.509111 
    3500    1527.5211   -109.49543    1.3821332   -108.11329    16256.394    4.3310881    4.3310881    4.3310881    16256.394    35244.132    46645.544   -33120.493   -10266.697    1315.5107   -37.557326    81.243956 
    3600    1501.9225   -109.46694     1.358971   -108.10797   -50086.137    4.3548941    4.3548941    4.3548941   -50086.137   -26686.049   -57883.344   -65689.018    -2336.813   -1855.1776   -20254.931    82.591014 
    3700    1835.8987   -109.73469    1.6611597   -108.07353   -27901.207    4.3459264    4.3459264    4.3459264   -27901.207    23855.486    -80501.67   -27057.437    4775.9384   -3829.4995    10507.222    82.081843 
    3800     1932.457   -109.81574    1.7485277   -108.06721    21474.876    4.3330846    4.3330846    4.3330846    21474.876    98124.317   -15635.806   -18063.885   -1158.9996    10479.242   -11311.708    81.356358 
    3900    1735.8041   -109.67221     1.570592   -108.10161    -13425.95    4.3512838    4.3512838    4.3512838    -13425.95   -11323.891   -4386.8585   -24567.099   -12938.183   -11906.846   -27059.189    82.385774 
    4000    2245.9232   -110.10118    2.0321585   -108.06902   -31296.659    4.3582386    4.3582386    4.3582386   -31296.659   -15919.146   -65562.942   -12407.889     5926.322    -239.3114    14245.676    82.781448 
    4100    2110.5294   -109.94577    1.9096513   -108.03612   -2981.5921    4.3492588    4.3492588    4.3492588   -2981.5921   -56343.717    37661.678    9737.2625    15034.882    6417.7076    19799.006    82.270805 
    4200    781.64518   -108.74707   0.70724899   -108.03982     31901.88    4.3488777    4.3488777    4.3488777     31901.88    81522.935   -26414.753    40597.459    -29649.37   -3032.4744    3643.5733    82.249178 
    4300    1946.4535    -109.8086     1.761192   -108.04741   -34221.869    4.3483391    4.3483391    4.3483391   -34221.869     18262.68   -52368.492   -68559.795    13160.842    2965.3284    6953.6973    82.218627 
    4400    2618.2221   -110.43206    2.3690223   -108.06304   -20884.972    4.3270992    4.3270992    4.3270992   -20884.972    -21283.02   -19217.237   -22154.659   -4975.5991   -7711.0134   -18797.671    81.019687 
    4500    2014.5344   -109.91455     1.822793   -108.09176    24278.438    4.3100135    4.3100135    4.3100135    24278.438    38538.904    53500.991    -19204.58   -8091.2931   -971.81043   -1894.5854    80.063744 
    4600    1574.9253   -109.57593    1.4250255   -108.15091   -36089.643    4.3373252    4.3373252    4.3373252   -36089.643    13179.133   -44262.386   -77185.675   -9878.9265    24870.631   -3062.9338    81.595453 
    4700    2238.7895   -110.11893    2.0257038   -108.09323   -50109.783    4.3623277    4.3623277    4.3623277   -50109.783   -49082.183   -55857.955    -45389.21    17395.263   -10102.582   -10697.617     83.01467 
    4800    1003.1825   -108.94885   0.90770059   -108.04115    10834.078    4.3776705    4.3776705    4.3776705    10834.078    36488.888    -34209.49    30222.835   -3279.2944   -15310.321    15815.171    83.893674 
    4900    1723.9485   -109.56526    1.5598648   -108.00539    10840.099    4.3722273    4.3722273    4.3722273    10840.099    32338.383    11616.014   -11434.098    12861.159    1442.1315    889.79753    83.581123 
    5000    1647.7989   -109.52043    1.4909631   -108.02946   -9848.6939    4.3276147    4.3276147    4.3276147   -9848.6939   -13905.183   -11452.289   -4188.6098   -22221.529    6609.2187    27522.111    81.048645 
    5100    2261.9756   -110.08659    2.0466831   -108.03991    5943.2021     4.285806     4.285806     4.285806    5943.2021     31068.73   -8715.5216   -4523.6019   -2068.7495    2826.3462    33517.618    78.722257 
    5200    1907.3279   -109.90512    1.7257904   -108.17933    11447.836    4.3233409    4.3233409    4.3233409    11447.836    19717.702    6616.5431    8009.2641    17655.374    18054.462   -8483.5135    80.808763 
    5300    1530.4309   -109.51906     1.384766   -108.13429   -63960.763    4.3801574    4.3801574    4.3801574   -63960.763   -20910.868   -94768.899   -76202.521   -14903.847    2825.1078    33339.481    84.036729 
    5400    2193.2367   -110.01531    1.9844867   -108.03082   -64606.368    4.3705836    4.3705836    4.3705836   -64606.368   -55806.397   -65381.109   -72631.599   -6833.2899    6227.4049    16254.027    83.486893 
    5500    1296.8633   -109.15275    1.1734292   -107.97932    57135.884    4.3297918    4.3297918    4.3297918    57135.884     102443.5    43234.819    25729.327   -30915.992   -5264.5383   -14180.883    81.171029 
    5600    1851.0177   -109.71071    1.6748397   -108.03587   -6068.4424    4.3283915    4.3283915    4.3283915   -6068.4424    43162.303   -27876.576   -33491.054    5315.7545    13301.765    34727.873      81.0923 
    5700    2001.5128   -109.89674    1.8110108   -108.08573   -14654.414    4.3423287    4.3423287    4.3423287   -14654.414    -4357.872    -29077.08   -10528.292    7141.4858    10885.301    7176.8007    81.878164 
    5800    1955.2482   -109.86159    1.7691497   -108.09244     832.6867    4.3552124    4.3552124    4.3552124     832.6867   -11406.102    -15962.84    29867.002    5921.7407    10610.462   -8734.5275    82.609127 
    5900    1541.0154   -109.47158    1.3943431   -108.07724    15957.551    4.3594396    4.3594396    4.3594396    15957.551    152400.04   -29487.457   -75039.924   -11939.205   -12450.099    23774.182      82.8499 
    6000    2302.6324   -110.14429    2.0834702   -108.06082   -47051.058    4.3558558    4.3558558    4.3558558   -47051.058   -45773.944   -77233.375   -18145.855    25230.726    10019.759    6053.5984    82.645745 
    6100    2488.5241   -110.29488    2.2516689   -108.04321   -30556.658    4.3430276    4.3430276    4.3430276   -30556.658   -5939.1966   -52057.235   -33673.542   -6406.7176    14198.263    5774.4886    81.917703 
    6200    1432.4466   -109.37558    1.2961078   -108.07948    12652.047    4.3433211    4.3433211    4.3433211    12652.047     96646.77   -44395.327   -14295.301    7549.9428   -25149.778    31502.987    81.934314 
    6300    1662.6417   -109.60119    1.5043931    -108.0968   -41965.307    4.3397106    4.3397106    4.3397106   -41965.307   -24082.254   -81658.266   -20155.401     35507.93    15305.129   -3742.3981     81.73015 
    6400    2118.8231   -110.02419    1.9171556   -108.10704   -13097.772    4.3334392    4.3334392    4.3334392   -13097.772    14366.721   -46051.027   -7609.0086   -3298.9711    -10476.59    140.47895    81.376336 
    6500    1844.7299   -109.80646    1.6691504   -108.13731   -42866.777    4.3518659    4.3518659    4.3518659   -42866.777   -56384.851   -52739.486   -19475.994    1782.4308   -16590.929    21611.074    82.418842 
    6600    1587.8898   -109.55436    1.4367561    -108.1176       -63901    4.3635577    4.3635577    4.3635577       -63901   -61257.437   -86301.789   -44143.774    35918.036   -2599.3956   -5220.6928    83.084912 
    6700    1556.5087   -109.48522    1.4083618   -108.07686    59278.214    4.3313297    4.3313297    4.3313297    59278.214     144484.2    16510.485    16839.957   -27124.372    2394.7182     6011.097    81.257549 
    6800    1589.2213   -109.53276    1.4379608    -108.0948     29191.12    4.3176871    4.3176871    4.3176871     29191.12    117483.69   -32976.105    3065.7729    10055.659    6397.2709   -4204.1772    80.492146 
    6900     1617.526   -109.62864    1.4635715   -108.16507    -5288.301     4.356168     4.356168     4.356168    -5288.301    31063.402   -18977.781   -27950.524    8046.3479   -7211.8473   -7441.6567    82.663514 
    7000    2144.0217   -110.02131    1.9399558   -108.08135   -67997.817    4.3935746    4.3935746    4.3935746   -67997.817   -66911.874   -75906.069   -61175.507   -3659.6991    3289.1303   -7962.2546    84.811356 
    7100    1663.9656   -109.51293    1.5055911   -108.00734    11040.768    4.3683841    4.3683841    4.3683841    11040.768    30174.143    30036.875   -27088.712   -9382.4045    17825.327   -4978.3874    83.360914 
    7200    2179.8455   -109.97077      1.97237    -107.9984   -13520.729    4.3331418    4.3331418    4.3331418   -13520.729    55396.336   -13133.294   -82825.229    32220.161    11617.085    3334.8943    81.359582 
    7300    1717.5325   -109.61331    1.5540595   -108.05925    -17934.67    4.3140829    4.3140829    4.3140829    -17934.67   -31288.018    39547.454   -62063.445   -24882.487    37853.501    3112.2066    80.290739 
    7400    1563.7332   -109.52199    1.4148987    -108.1071     43348.47    4.3252595    4.3252595    4.3252595     43348.47    44479.983    110294.04   -24728.611    16706.776    811.54085    3908.4709     80.91639 
    7500    2086.1331   -109.98465    1.8875771   -108.09707   -24907.594    4.3592548    4.3592548    4.3592548   -24907.594    2404.6479   -46167.046   -30960.384   -4062.2842    7322.4584   -1263.8236    82.839364 
    7600    1464.6856   -109.38503    1.3252783   -108.05975   -35342.744    4.3645769    4.3645769    4.3645769   -35342.744   -22558.992   -437.30614   -83031.933    14045.467   -16847.059    3475.4082    83.143143 
    7700    1058.9231   -108.99914   0.95813585   -108.04101    61171.085     4.325354     4.325354     4.325354    61171.085    119106.61     66267.35    -1860.704     10664.71   -9743.5934   -2969.8984    80.921696 
    7800    2389.8934   -110.20132    2.1624257    -108.0389    1519.2895    4.3065488    4.3065488    4.3065488    1519.2895    17541.733   -925.98958   -12057.875    23735.514     7696.053    4466.7711    79.870813 
    7900    1103.3252   -109.10655   0.99831183   -108.10824    11680.326    4.3266898    4.3266898    4.3266898    11680.326   -27455.393    75615.868   -13119.498   -6459.5078   -24628.276     -2638.52     80.99669 
    8000     2394.351   -110.25256    2.1664591    -108.0861   -69652.074    4.3614554    4.3614554    4.3614554   -69652.074   -48272.298   -62765.698   -97918.224    -1796.841   -22732.652    4041.0395    82.964884 
    8100    1971.6139   -109.81911    1.7839577   -108.03515   -50486.937     4.360463     4.360463     4.360463   -50486.937   -68620.963   -24487.538   -58352.309     17819.93    8069.9931    7090.5744    82.908265 
    8200    1092.7787   -108.99897   0.98876915    -108.0102     32919.11    4.3162471    4.3162471    4.3162471     32919.11    -16128.46    121851.24   -6965.4515    29085.697   -33354.691   -5524.3642    80.411635 
    8300    2403.0833   -110.19506    2.1743603    -108.0207    40076.827    4.3022584    4.3022584    4.3022584    40076.827     48378.59    10436.434    61415.455    7374.0804   -4138.6914   -23574.969    79.632339 
    8400    2174.3135   -110.05177    1.9673645   -108.08441    -54365.38    4.3441465    4.3441465    4.3441465    -54365.38   -76396.875   -32886.755   -53812.511   -17620.475    25352.003   -10620.364    81.981035 
    8500    1565.1711   -109.46974    1.4161997   -108.05354   -21746.247    4.3388911    4.3388911    4.3388911   -21746.247   -55551.791   -17969.155    8282.2063   -19678.608    7994.0193   -11931.273     81.68386 
    8600      1794.55   -109.64459    1.6237466   -108.02085    73071.607    4.2986859    4.2986859    4.2986859    73071.607    143679.49    53349.514    22185.818     42956.63   -10042.438    14978.907    79.434128 
    8700    1954.5019   -109.85067    1.7684744   -108.08219    25917.433    4.3157489    4.3157489    4.3157489    25917.433   -9843.2674    68260.663    19334.904    6809.9877   -12940.986    11210.242    80.383796 
    8800    2401.7103    -110.2284    2.1731179   -108.05528   -40601.062     4.345032     4.345032     4.345032   -40601.062   -16962.781   -49255.236   -55585.169   -22170.675   -31025.162    18496.216    82.031176 
    8900    1520.7531   -109.40304    1.3760094   -108.02703    39349.229    4.3317251    4.3317251    4.3317251    39349.229    32446.016     77816.52    7785.1497    25252.958    11202.123    2586.3201    81.279804 
    9000    1551.8324   -109.43825    1.4041306   -108.03412    32350.545    4.3289958    4.3289958    4.3289958    32350.545    94341.953    38290.064   -35580.382    19592.211   -23255.544    2729.5453    81.126266 
    9100    2192.5123   -110.02544    1.9838312   -108.04161   -41100.063    4.3334105    4.3334105    4.3334105   -41100.063   -21852.808   -18708.414   -82738.966   -10401.654   -49909.857    8545.7215    81.374717 
    9200    1953.4457   -109.80511    1.7675188   -108.03759    26399.103    4.3049628    4.3049628    4.3049628    26399.103    62329.573   -27082.317    43950.054    22130.934    9755.5351   -8200.3203    79.782605 
    9300    2125.5883   -110.01173    1.9232769   -108.08846   -585.37832    4.3179216    4.3179216    4.3179216   -585.37832   -4096.2991    41804.187   -39464.023    9466.6026   -11454.775    17076.169    80.505259 
    9400     2210.633   -110.08804    2.0002272   -108.08782   -37393.148    4.3505569    4.3505569    4.3505569   -37393.148    1924.2038   -28479.492   -85624.158   -17033.577    -14612.84    4360.0301    82.344493 
    9500    1986.6431    -109.8383    1.7975564   -108.04074   -17444.782    4.3478893    4.3478893    4.3478893   -17444.782    12197.948   -18796.085    -45736.21    37701.648    13528.605   -8452.9801    82.193116 
    9600    1805.7475   -109.66102    1.6338783   -108.02714    19661.448    4.3292049    4.3292049    4.3292049    19661.448    118453.38   -7076.8452   -52392.192    15883.689    17890.512   -802.52772    81.138024 
    9700    1834.0499   -109.72686    1.6594869   -108.06737    -20510.76    4.3307375    4.3307375    4.3307375    -20510.76    12934.657   -47527.235   -26939.703   -13570.495   -23559.501   -19910.522    81.224227 
    9800    1321.2837   -109.27708    1.1955252   -108.08155   -15523.955    4.3289094    4.3289094    4.3289094   -15523.955   -23321.699   -33939.435    10689.269    50693.457   -14596.404    9659.3309    81.121408 
    9900    2289.3123   -110.13151    2.0714179   -108.06009   -18426.581    4.3212596    4.3212596    4.3212596   -18426.581   -20337.592   -43168.414    8226.2644     14416.32    10845.333    881.61894    80.692112 
   10000    1196.3632   -109.15797    1.0824945   -108.07548    -19805.41    4.3349447    4.3349447    4.3349447    -19805.41   -40897.947    32407.563   -50925.847   -28874.878   -72015.448   -10240.442    81.461175 
   10100    1308.5937   -109.23074    1.1840431   -108.04669    -1639.932    4.3221285    4.3221285    4.3221285    -1639.932   -19835.062     49617.45   -34702.184    16718.434     -50741.7   -5126.6726    80.740794 
   10200      1676.26   -109.57449    1.5167153   -108.05778    41553.852    4.3148187    4.3148187    4.3148187    41553.852     142560.3    2593.7669   -20492.507    22870.254    23805.522   -7891.1333    80.331827 
   10300     1735.784   -109.66927    1.5705738    -108.0987   -12282.949    4.3342367    4.3342367    4.3342367   -12282.949     16579.86    627.53878   -54056.245   -26529.798   -11720.485   -2934.0412    81.421272 
   10400    1081.6681   -109.07917   0.97871599   -108.10045     18864.46     4.341529     4.341529     4.341529     18864.46    56597.934    47010.776    -47015.33    21111.838   -6523.1661    14289.893    81.832932 
   10500    2267.4749   -110.11448    2.0516589   -108.06282    -61460.31    4.3471419    4.3471419    4.3471419    -61460.31   -61724.091   -74600.504   -48056.336    19697.852    2596.6422    276.56056    82.150734 
   10600    2128.0201   -109.96058    1.9254773   -108.03511    6969.3487    4.3131185    4.3131185    4.3131185    6969.3487      37767.3    9609.7986   -26469.052   -27565.772   -18596.304   -4138.0484    80.236904 
   10700    1834.2807   -109.71404    1.6596957   -108.05435    18114.885    4.3006614    4.3006614    4.3006614    18114.885   -37248.381    42742.645    48850.389    9107.4782    3500.4034   -8008.2812    79.543695 
   10800    1703.5112   -109.65005    1.5413728   -108.10868   -47036.758    4.3404935    4.3404935    4.3404935   -47036.758    -32151.72   -81372.322    -27586.23    49913.205    20739.736    7123.3632    81.774392 
   10900    1946.4157   -109.80697    1.7611578   -108.04582   -16565.766     4.345836     4.345836     4.345836   -16565.766   -42310.718    13301.216   -20687.795     5208.565    3259.0367   -3131.3016    82.076723 
   11000    2499.4231   -110.28596    2.2615305   -108.02443   -29435.511    4.3199258    4.3199258    4.3199258   -29435.511   -43708.574   -15869.468    -28728.49   -16097.757   -33225.932    16687.054    80.617414 
   11100    1777.8293   -109.67305    1.6086173   -108.06443   -2598.8222    4.3056118    4.3056118    4.3056118   -2598.8222    16867.593   -32379.085    7715.0256    32169.378    -16353.11   -4697.5608     79.81869 
   11200    1714.0531   -109.65494    1.5509112   -108.10403    19265.351    4.3096088    4.3096088    4.3096088    19265.351    5516.4458    71261.847   -18982.238    -4990.897   -5304.1751   -6730.3909    80.041194 
   11300     2307.072   -110.19443    2.0874872   -108.10694   -27973.357    4.3336412    4.3336412    4.3336412   -27973.357   -30640.141   -12136.094   -41143.837   -20551.581   -18613.435    5102.9876    81.387717 
   11400     1846.557   -109.75126    1.6708036   -108.08046    21579.252    4.3322404    4.3322404    4.3322404    21579.252      36274.8    45118.411   -16655.456   -29056.251   -4936.8802    3319.2963    81.308818 
   11500    1924.0859    -109.7941    1.7409534   -108.05315    24960.924    4.3168489    4.3168489    4.3168489    24960.924    45889.624    75573.986   -46580.838    2261.7251   -20952.648    5368.6804    80.445278 
   11600    1358.5215   -109.28918    1.2292188   -108.05996    50301.667    4.3154089    4.3154089    4.3154089    50301.667    152604.45    39928.811    -41628.26    816.15685   -22436.505   -6843.1621    80.364796 
   11700    1563.7465   -109.49087    1.4149107   -108.07596   -9539.1003    4.3327791    4.3327791    4.3327791   -9539.1003    17335.286     19939.52   -65892.107   -12124.721    15172.803   -9133.3791    81.339153 
   11800    1298.4413   -109.23669     1.174857   -108.06183   -11180.828    4.3397465    4.3397465    4.3397465   -11180.828    23592.254    4868.8286   -62003.566   -8969.7494    1925.6252   -5572.0797    81.732179 
   11900    2066.6967   -109.91375    1.8699906   -108.04376    9105.7309    4.3190897    4.3190897    4.3190897    9105.7309   -3404.4864    9542.1919    21179.487     33923.58   -5169.9704   -20174.995    80.570614 
   12000     1881.725   -109.75995    1.7026243   -108.05733    18235.487     4.297315     4.297315     4.297315    18235.487   -26615.708    43711.972    37610.196    943.19871     2548.065    8555.9905    79.358158 
   12100    1110.4913   -109.12923    1.0047958   -108.12444    13998.364    4.3162338    4.3162338    4.3162338    13998.364   -16310.799    64434.377    -6128.487   -3135.2185    8124.3301    23341.009    80.410891 
   12200    2191.5044   -110.07616    1.9829193   -108.09325    -46446.39     4.338258     4.338258     4.338258    -46446.39   -78955.943   -38887.295   -21495.933    13330.188   -1645.8275   -1929.3695    81.648107 
   12300     2245.236   -110.10036    2.0315367   -108.06882   -4954.7968    4.3211654    4.3211654    4.3211654   -4954.7968   -43366.668    13815.628    14686.649    25617.686    9904.5867   -4314.7943    80.686831 
   12400    1374.5686   -109.30769    1.2437385   -108.06395    43729.937    4.3023794    4.3023794    4.3023794    43729.937    23044.019     104071.4    4074.3902    1834.0992    48083.873    16090.384    79.639059 
   12500    1981.6499   -109.86854    1.7930385   -108.07551    26710.276    4.3121446    4.3121446    4.3121446    26710.276    4224.1602    38096.817    37809.849    13637.402     11542.66   -3627.6173    80.182566 
   12600    2315.3422   -110.15893    2.0949703   -108.06396   -13405.052    4.3347245    4.3347245    4.3347245   -13405.052   -35009.392   -21089.441    15883.676    12906.048   -16143.438   -102.28882    81.448762 
   12700    1714.0832   -109.59536    1.5509385   -108.04442   -10753.639    4.3402142    4.3402142    4.3402142   -10753.639    10434.226   -17239.367   -25455.776    8073.2984    22994.004    7299.7201    81.758611 
   12800    2025.0276   -109.84926    1.8322875   -108.01697    12550.503    4.3274961    4.3274961    4.3274961    12550.503    -14795.16    53213.052   -766.38383    853.77586    611.23105   -5637.4472    81.041983 
   12900    1887.4759   -109.73845    1.7078278   -108.03063   -5975.6425    4.3190647    4.3190647    4.3190647   -5975.6425   -4255.3199   -8641.0283   -5030.5793    14346.075   -3099.0962   -5124.9318    80.569217 
   13000    1664.5973   -109.56928    1.5061626   -108.06312    24034.802    4.3164563    4.3164563    4.3164563    24034.802    56047.312     27042.62   -10985.526    4096.2935   -4018.6523    33327.027    80.423327 
   13100    2177.3268   -110.04426     1.970091   -108.07417   -3205.2524    4.3270433    4.3270433    4.3270433   -3205.2524   -21422.109    27716.067   -15909.715    12973.421   -6356.8044    3627.2932    81.016547 
   13200    1919.7262   -109.80353    1.7370086   -108.06653   -28400.208    4.3318692    4.3318692    4.3318692   -28400.208   -62333.848   -35976.416    13109.639   -2735.6643    9960.1056    -3240.743     81.28792 
   13300    1347.5791   -109.27495    1.2193179   -108.05563   -2069.4528    4.3273292    4.3273292    4.3273292   -2069.4528   -52409.066    48248.934   -2048.2259    -16370.18   -77.334705    34290.193    81.032605 
   13400    2258.9109   -110.08632    2.0439101   -108.04241   -39738.689    4.3324231    4.3324231    4.3324231   -39738.689    -63437.08    -29755.94   -26023.047    32477.794    4238.6581   -11898.222    81.319107 
   13500    681.76445   -108.66835    0.6168748   -108.05148    25539.827    4.3309892    4.3309892    4.3309892    25539.827    15349.802    46842.059     14427.62    3049.5456    3634.8458    17178.891     81.23839 
   13600    2001.6939   -109.85696    1.8111747   -108.04578    11412.502    4.3332491    4.3332491    4.3332491    11412.502   -7507.4559   -1218.8217    42963.783    5318.0135    468.39434    22966.073    81.365627 
   13700    1733.6398   -109.62331    1.5686338   -108.05467   -32172.723     4.353257     4.353257     4.353257   -32172.723    -81042.68   -10841.653   -4633.8366   -17286.266   -2695.2795   -24029.097    82.497904 
   13800    1346.7728   -109.26019    1.2185884    -108.0416    -7342.947      4.33636      4.33636      4.33636    -7342.947   -67205.472   -5735.0717    50911.703   -27149.116   -8159.7391    25183.554    81.540994 
   13900    2765.2349   -110.51252    2.5020426   -108.01048    10036.329     4.301999     4.301999     4.301999    10036.329    30350.158   -17152.094    16910.921    19599.251    5374.4282   -17014.083    79.617937 
   14000    1228.8069   -109.18128    1.1118503   -108.06943    3198.5359    4.3084518    4.3084518    4.3084518    3198.5359   -38869.331    32386.305    16078.633    8323.8006   -4545.7566   -5409.9677    79.976744 
   14100    2141.2341   -110.02841    1.9374336   -108.09098   -40688.014    4.3229528    4.3229528    4.3229528   -40688.014   -46227.368   -59574.671   -16262.004   -33116.584    21898.397   -10464.946    80.787001 
   14200    2146.6229   -110.02442    1.9423095   -108.08211   -6890.5658    4.3361415    4.3361415    4.3361415   -6890.5658    17519.954   -8536.3076   -29655.344    3706.8141   -15210.383    5392.7927    81.528667 
   14300    1501.7076   -109.42487    1.3587766   -108.06609   -56664.088    4.3435965    4.3435965    4.3435965   -56664.088   -59309.436   -37836.085   -72846.743    3522.4917   -10287.721   -14303.354    81.949899 
   14400    1848.5832   -109.70538    1.6726369   -108.03274    2082.2905    4.3284244    4.3284244    4.3284244    2082.2905    1160.9666    33549.278   -28463.373   -14871.486    17933.068    21293.791    81.094148 
   14500     1393.115   -109.30292    1.2605197    -108.0424    17117.244    4.3122891    4.3122891    4.3122891    17117.244    21383.564    79252.758   -49284.591    15407.353   -23266.261    11027.106    80.190628 
   14600    2182.6422   -110.03819    1.9749005   -108.06329    6584.8172    4.3089463    4.3089463    4.3089463    6584.8172    61113.709    3722.4219   -45081.679    13773.619    4590.9891    9799.7503    80.004282 
   14700    1860.8314   -109.78235    1.6837194   -108.09863    14119.857    4.3291794    4.3291794    4.3291794    14119.857    25200.679    55275.719   -38116.826   -29884.294   -11924.753   -15749.864    81.136588 
   14800    1934.4029   -109.82547    1.7502884   -108.07519   -41002.278    4.3442234    4.3442234    4.3442234   -41002.278   -81113.551   -9376.1067   -32517.177    20696.655   -33739.384    14954.869     81.98539 
   14900    2007.5303    -109.8581    1.8164556   -108.04165     13459.28    4.3233815    4.3233815    4.3233815     13459.28    19077.029   -4158.4625    25459.274    12917.661    15774.646    11728.162    80.811037 
   15000      1582.88   -109.48329    1.4322231   -108.05106    28117.672     4.311872     4.311872     4.311872    28117.672   -48683.209    116316.59    16719.634    -21159.05   -35337.295    2283.7857    80.167358 
   15100    1463.2189   -109.41972    1.3239512   -108.09577    10715.896    4.3274278    4.3274278    4.3274278    10715.896   -11535.371    55561.447   -11878.386    11264.816    -30383.56   -2470.2996    81.038143 
   15200    2153.9644   -110.04699    1.9489523   -108.09804   -8916.9073    4.3272242    4.3272242    4.3272242   -8916.9073    5105.2393   -57451.327    25595.366     18811.69    13612.137    20552.606     81.02671 
   15300    1219.8989   -109.21792    1.1037902   -108.11413    23791.292    4.3230355    4.3230355    4.3230355    23791.292    1013.6524    20856.798    49503.427   -4976.1038   -25932.675   -16007.356    80.791635 
   15400    1713.5107   -109.64491    1.5504205   -108.09449     5743.283    4.3272785    4.3272785    4.3272785     5743.283   -30112.658    46869.963    472.54483   -8350.5438   -9496.6681     19979.62     81.02976 
   15500    2020.1608   -109.89318    1.8278839    -108.0653   -15319.958    4.3240048    4.3240048    4.3240048   -15319.958   -40173.861    11099.673   -16885.686   -18236.437    9205.8986    13769.133    80.845996 
   15600    1161.9135     -109.125    1.0513237   -108.07368   -6054.8577    4.3304802    4.3304802    4.3304802   -6054.8577     -69963.3    75806.159   -24007.432    11496.828   -37885.744    3041.6267    81.209748 
   15700    2101.2529   -109.94177    1.9012577   -108.04051   -40388.651    4.3427318    4.3427318    4.3427318   -40388.651    -48330.28    -49761.23   -23074.442   -32544.068   -4848.8036   -16733.368    81.900965 
   15800    1709.2289   -109.57236    1.5465462   -108.02581    19494.405    4.3134453    4.3134453    4.3134453    19494.405    20307.643    10371.555    27804.016   -14844.254    -19843.55    4126.1105    80.255146 
   15900    1517.0203   -109.42157    1.3726318   -108.04894    34981.549    4.3092361    4.3092361    4.3092361    34981.549    24488.699    97820.433   -17364.485    12212.097   -30501.202    3458.7221    80.020428 
   16000    2666.6263      -110.47    2.4128195   -108.05718   -34985.745    4.3401958    4.3401958    4.3401958   -34985.745   -30772.225   -39528.611   -34656.399    -6291.086    5273.6127   -5994.1601    81.757566 
   16100    1953.9764   -109.81631    1.7679989   -108.04831    393.35306    4.3358891    4.3358891    4.3358891    393.35306   -19569.658    38165.617     -17415.9    -552.7147   -15220.843     22909.06     81.51443 
   16200    1750.6894   -109.65091    1.5840605   -108.06685   -15977.578    4.3283053    4.3283053    4.3283053   -15977.578   -8163.1794   -16960.076   -22809.479   -13818.881   -27891.854    6133.3192    81.087452 
   16300    2239.3246   -110.08804     2.026188   -108.06186   -4471.4845    4.3299771    4.3299771    4.3299771   -4471.4845   -36391.296   -25590.323    48567.165    16006.175   -9748.8667   -16669.245    81.181451 
   16400    1457.8984   -109.39898    1.3191371   -108.07984   -1995.5243    4.3477876    4.3477876    4.3477876   -1995.5243   -29647.835   -3729.2903    27390.553    15326.888   -14701.709    8224.9842    82.187344 
   16500    1918.7226   -109.77782    1.7361005   -108.04172   -47833.681     4.351354     4.351354     4.351354   -47833.681   -39572.169   -103365.22   -563.64859    6897.5202    7186.3833    33636.657     82.38976 
   16600    1726.8644   -109.56994    1.5625032   -108.00744    28620.905    4.3104484    4.3104484    4.3104484    28620.905   -490.01273    6951.8342    79400.892    -11878.66    2057.9115   -39149.949     80.08798 
   16700     1714.051   -109.60863    1.5509093   -108.05772    -3884.935    4.3072766    4.3072766    4.3072766    -3884.935    2894.6717    7857.4447   -22406.921   -2813.2676   -13741.202    3345.8024    79.911314 
   16800     2324.535   -110.17329    2.1032881      -108.07   -13177.435    4.3229516    4.3229516    4.3229516   -13177.435   -45068.539   -9857.1695    15393.404     23392.59    17609.892    27093.601    80.786932 
   16900    1738.4125   -109.66399    1.5729521   -108.09104   -19967.213    4.3324834    4.3324834    4.3324834   -19967.213   -14181.634    14378.642   -60098.649   -18166.397   -10605.268   -23673.178    81.322499 
   17000    1515.2969   -109.45349    1.3710725   -108.08242   -35264.831    4.3475803    4.3475803    4.3475803   -35264.831   -19212.821   -73200.286   -13381.387    4998.1291   -10138.424    -21974.85    82.175592 
   17100    2267.0941   -110.08897    2.0513144   -108.03765   -8583.4995    4.3305421    4.3305421    4.3305421   -8583.4995    -64644.27    25536.429    13357.343      20828.5   -7743.1137    2178.6994    81.213234 
   17200    1356.2193   -109.27256    1.2271358   -108.04542    7409.6493    4.3078434    4.3078434    4.3078434    7409.6493   -588.67845   -12115.397    34933.023     373.4763   -31975.398   -10404.495    79.942868 
   17300    1441.3579   -109.38056    1.3041709   -108.07639    -20697.25    4.3126595    4.3126595    4.3126595    -20697.25   -13673.329   -29843.524   -18574.899   -16651.398    -995.2196   -36856.868    80.211293 
   17400     2123.981   -110.00052    1.9218226    -108.0787    3051.3133    4.3266153    4.3266153    4.3266153    3051.3133   -35878.778    46489.561   -1456.8428   -4038.7181    -5446.749    12813.666     80.99251 
   17500    1254.9484   -109.20782    1.1355037   -108.07231   -39083.296    4.3583507    4.3583507    4.3583507   -39083.296    1148.3798   -25958.565   -92439.703    3134.9113   -24598.873   -9407.7375    82.787833 
   17600    1711.3672   -109.56923     1.548481   -108.02075   -35968.372    4.3390458    4.3390458    4.3390458   -35968.372   -42768.346   -72303.633    7166.8618    3397.7815    18132.844   -17736.299      81.6926 
   17700    1642.0746   -109.45518    1.4857836   -107.96939     44793.09    4.2840107    4.2840107    4.2840107     44793.09    68335.356    17119.908    48924.007   -3058.5662   -10006.534    17515.381     78.62337 
   17800    1641.0581   -109.56357    1.4848638   -108.07871   -13662.848    4.3053578    4.3053578    4.3053578   -13662.848    4518.4039    20500.828   -66007.777   -23303.093   -498.64323    13937.892    79.804569 
   17900    2232.5516   -110.07195    2.0200596   -108.05189   -10898.694    4.3334535    4.3334535    4.3334535   -10898.694    8677.6375   -51550.382    10176.662   -16683.938     14226.82   -16665.817    81.377143 
   18000    1603.0135   -109.47556    1.4504403   -108.02511    36683.802    4.3218599    4.3218599    4.3218599    36683.802    104434.79   -39994.535    45611.155    7568.9794    2256.5105     10218.38    80.725746 
   18100    1791.5002   -109.68165    1.6209871   -108.06067   -23268.048    4.3397787    4.3397787    4.3397787   -23268.048    18713.531   -12944.979   -75572.696    -9182.745    12633.497   -1950.6281    81.734002 
   18200    2191.2133   -110.01355    1.9826558   -108.03089   -30187.535    4.3446071    4.3446071    4.3446071   -30187.535   -55253.786   -59494.188    24185.367    18949.553    -447.4652   -5873.5202    82.007113 
   18300    1471.7766   -109.34133    1.3316944   -108.00964    74017.231    4.3141666    4.3141666    4.3141666    74017.231     81989.24    127056.48    13005.971    17746.691   -12045.938    14715.549    80.295413 
   18400    1586.5781   -109.50385    1.4355692   -108.06828    8077.5385    4.3317036    4.3317036    4.3317036    8077.5385   -14511.615    49880.812   -11136.582   -5469.5073    16190.047    22104.087    81.278599 
   18500    1012.8294   -108.96285   0.91642936   -108.04642    -1174.374    4.3594056    4.3594056    4.3594056    -1174.374   -28463.933    50893.947   -25953.137     4571.757    557.32307    5189.1458    82.847965 
   18600    2177.1453   -109.95585    1.9699268   -107.98592   -19398.609    4.3504563    4.3504563    4.3504563   -19398.609   -18176.797   -50962.926    10943.894   -18259.532    8132.9325   -8938.9463    82.338783 
   18700    1579.9045   -109.41605    1.4295308   -107.98652    2121.6754    4.3409048    4.3409048    4.3409048    2121.6754   -20110.134    48901.673   -22426.513    30826.259     34518.81   -5386.7972     81.79764 
   18800    1941.0104     -109.758     1.756267   -108.00173   -1229.5066       4.3233       4.3233       4.3233   -1229.5066    19314.969    24656.095   -47659.584     1559.839   -688.46443   -26034.286    80.806464 
   18900    2059.2122   -109.90486    1.8632185   -108.04164    13439.743    4.3295921    4.3295921    4.3295921    13439.743    9866.0344    53225.014   -22771.821    1596.0635    -1663.515   -10929.078    81.159797 
   19000    1404.8238   -109.32502    1.2711141    -108.0539   -4215.1717    4.3573149    4.3573149    4.3573149   -4215.1717    14004.591   -7466.9793   -19183.127    36329.442    24542.026   -4626.2437     82.72882 
   19100    1434.7804   -109.31885    1.2982195   -108.02064   -21012.022      4.34178      4.34178      4.34178   -21012.022    22117.961   -32405.516    -52748.51    46430.826    1963.1732   -48451.387     81.84713 
   19200    2084.9177   -109.87439    1.8864774   -107.98791    23228.238    4.2986286    4.2986286    4.2986286    23228.238    39352.121    11747.822    18584.771   -8985.0541    8711.4706     960.0377     79.43095 
   19300    1932.0777   -109.79403    1.7481845   -108.04585   -5955.5738     4.305721     4.305721     4.305721   -5955.5738    83.910004   -2824.1958   -15126.436    1989.2029    20099.335   -23183.139    79.824769 
   19400    1711.3256   -109.62615    1.5484434    -108.0777   -36935.512    4.3334013    4.3334013    4.3334013   -36935.512   -36468.444   -38307.535   -36030.559    8640.1006   -23321.434   -42859.789    81.374199 
   19500      2138.29    -109.9908    1.9347697   -108.05603   -6809.4548    4.3342472    4.3342472    4.3342472   -6809.4548    -54262.25   -20234.618    54068.503   -23564.316    3290.7954    7751.8069    81.421861 
   19600    1777.9661   -109.66358    1.6087411   -108.05484   -41486.111    4.3332975    4.3332975    4.3332975   -41486.111   -29237.576   -8488.4496   -86732.308   -19494.127    12126.497   -32830.838    81.368349 
   19700    1090.3175   -109.03583   0.98654218   -108.04929     1209.524    4.3149767    4.3149767    4.3149767     1209.524    64067.084    9389.7389   -69828.251   -168.00061    1329.1628   -62208.844    80.340652 
   19800    2357.8527   -110.17464    2.1334347   -108.04121    13408.998    4.3095396    4.3095396    4.3095396    13408.998    60822.614   -6786.7608   -13808.859    2722.8124    6200.1844    30738.471    80.037335 
   19900    961.78875   -108.94831   0.87024667   -108.07806      6136.17     4.333718     4.333718     4.333718      6136.17    123141.92   -30853.951   -73879.456    -3861.145    11344.809   -55999.509     81.39204 
   20000    1395.2444   -109.31782    1.2624464   -108.05537   -9993.1541     4.344465     4.344465     4.344465   -9993.1541    13420.625   -23908.827    -19491.26   -5493.2823    17365.773   -34398.834    81.999067 
   20100    2214.3673   -110.02938    2.0036061   -108.02577    11112.879    4.3338902    4.3338902    4.3338902    11112.879   -27984.526    22926.175    38396.987   -16047.843    -1101.463    34233.793    81.401745 
   20200    1737.1036    -109.6196    1.5717679   -108.04783   -2189.6345    4.3046939    4.3046939    4.3046939   -2189.6345    38907.069   -17881.435   -27594.537   -14167.939   -428.73626   -44270.434    79.767655 
   20300    1158.3012   -109.12749    1.0480553   -108.07944    83570.682    4.2931731    4.2931731    4.2931731    83570.682    17728.573    90245.922    142737.55   -11029.398    38379.863   -25008.657    79.128912 
   20400    2062.9181   -109.99647    1.8665716    -108.1299   -16270.099    4.3449287    4.3449287    4.3449287   -16270.099   -24524.981    -14675.62   -9609.6952    11318.456    -2941.485    17587.864    82.025324 
   20500    2183.2649    -110.0197     1.975464   -108.04423   -41262.115    4.3574753    4.3574753    4.3574753   -41262.115   -29174.438   -38675.676   -55936.231    9878.5523    1907.5223   -34511.748    82.737957 
   20600    1702.4004   -109.53114    1.5403677   -107.99077    58666.405    4.3193234    4.3193234    4.3193234    58666.405    40435.294    67543.752     68020.17   -24050.131    11717.904   -6205.7752    80.583696 
   20700    1660.8223   -109.54001    1.5027469   -108.03726     13958.07    4.3238495    4.3238495    4.3238495     13958.07   -50795.961     105234.6   -12564.433   -9868.7381   -30114.651   -4105.9468    80.837285 
   20800    2050.6973   -109.89039     1.855514   -108.03487   -17472.964    4.3430315    4.3430315    4.3430315   -17472.964   -34268.358   -4080.8542   -14069.681    8631.1026   -8690.6677   -6450.9036    81.917924 
   20900    1126.5211   -109.04338       1.0193   -108.02408    72444.944    4.3275439    4.3275439    4.3275439    72444.944     5876.775    117708.09    93749.966   -7142.7274   -6666.6966   -7631.8132    81.044668 
   21000    1932.1705   -109.78952    1.7482685   -108.04125    9835.4682    4.3347189    4.3347189    4.3347189    9835.4682   -50823.784    62399.674    17930.515   -12951.132   -25687.494     9672.677    81.448451 
   21100    1574.8208   -109.46158    1.4249309   -108.03665   -8508.1043    4.3427966    4.3427966    4.3427966   -8508.1043   -61861.079    50010.856    -13674.09    25304.716     21043.59    7282.7815    81.904633 
   21200    1216.9859   -109.13694    1.1011544   -108.03579    36943.069    4.3083958    4.3083958    4.3083958    36943.069   -47757.001    119965.24    38620.966   -14495.068   -6023.5071    3317.4289    79.973623 
   21300    1593.7074   -109.51061      1.44202   -108.06859    44783.976    4.3134864    4.3134864    4.3134864    44783.976    40046.703    71006.051    23299.173   -14719.776   -4793.2574   -4341.8476    80.257439 
   21400    1914.7426   -109.78976    1.7324994   -108.05727    13802.593    4.3417516    4.3417516    4.3417516    13802.593    9571.4149    3884.2709    27952.094   -11935.355    8462.3753    12063.567    81.845522 
   21500    1392.0217   -109.29942    1.2595305   -108.03989   -12455.896    4.3474743    4.3474743    4.3474743   -12455.896    -42588.69    16951.885   -11730.882   -7361.3751   -20176.725    13629.663    82.169582 
   21600    2173.5412   -109.98825    1.9666658   -108.02158    8082.6203    4.3261222    4.3261222    4.3261222    8082.6203   -6023.4539    5055.2063    25216.108   -12329.885    6285.1348    864.15522    80.964816 
   21700    2368.7692      -110.15    2.1433121   -108.00668     50633.14    4.2823874    4.2823874    4.2823874     50633.14    63763.193    13461.284    74674.943   -5461.7366    -1049.899    2063.3522    78.534023 
   21800    1114.0768   -109.09188    1.0080401   -108.08384    32847.785    4.2951686    4.2951686    4.2951686    32847.785    18368.494    74297.542    5877.3177    17262.484    -52756.72    18882.361    79.239301 
   21900    2385.1751   -110.22442    2.1581566   -108.06626   -44602.326    4.3404509    4.3404509    4.3404509   -44602.326   -78304.604   -28644.867   -26857.506   -18503.422    14288.092    -2580.935    81.771984 
   22000     1991.776   -109.83966    1.8022008   -108.03746    7001.9773     4.326251     4.326251     4.326251    7001.9773    6668.9451     -21574.1    35911.087   -7747.2626   -6889.3159    27.928027    80.972052 
   22100    1317.9585   -109.21952    1.1925165     -108.027    61505.074    4.3024261    4.3024261    4.3024261    61505.074    17536.777    44194.776    122783.67    9480.8785   -67852.961    5632.3426    79.641651 
   22200    2071.1582    -109.9387    1.8740275   -108.06467    1616.2406    4.3147546    4.3147546    4.3147546    1616.2406   -32418.661   -44794.229    82061.611   -29327.323     13182.61     1023.687    80.328248 
   22300     1925.329   -109.82595    1.7420782   -108.08387    21482.192    4.3064654    4.3064654    4.3064654    21482.192    40764.627    8544.4119    15137.538    -9126.394    4351.2238    10075.858    79.866177 
   22400    1552.7696   -109.51853    1.4049786   -108.11355   -219.42812    4.3071065    4.3071065    4.3071065   -219.42812    13755.053    6726.7294   -21140.067    5263.7361   -60004.412   -3187.4026    79.901847 
   22500    2276.5926   -110.16446    2.0599089   -108.10456   -8370.1368     4.318815     4.318815     4.318815   -8370.1368   -13141.906   -23787.766    11819.261   -15193.804    11110.093    5932.0273     80.55524 
   22600    1939.9306    -109.8317      1.75529   -108.07641    32164.067    4.3132679    4.3132679    4.3132679    32164.067    25258.461    7868.6238    63365.115   -451.80518    -198.9689    8812.0106    80.245245 
   22700    936.06053    -108.9253   0.84696724   -108.07833   -3931.2734    4.3202786    4.3202786    4.3202786   -3931.2734   -57092.104    77134.019   -31835.735    1813.0977   -49124.472    33013.537    80.637169 
   22800    2239.4246   -110.06685    2.0262784   -108.04058   -31488.291    4.3261865    4.3261865    4.3261865   -31488.291    3428.5166   -49574.598   -48318.791    11714.549    31083.654    12462.992    80.968427 
   22900    1523.4853   -109.41128    1.3784815    -108.0328   -27917.934    4.3228588    4.3228588    4.3228588   -27917.934   -60144.511    -7274.465   -16334.826   -19055.624   -52692.318   -18344.277    80.781732 
   23000    1308.4997   -109.22419    1.1839581   -108.04023   -5688.4161    4.3038525    4.3038525    4.3038525   -5688.4161   -71649.294    31454.758    23129.288   -12067.661   -57042.692    11900.058    79.720888 
   23100    2447.9797   -110.25656    2.2149835   -108.04158    2094.9448    4.2916222    4.2916222    4.2916222    2094.9448    13677.473   -26839.379    19446.741    2830.9512    30855.986    2769.4323    79.043187 
   23200    763.66074   -108.78474   0.69097628   -108.09377   -16140.505    4.3191277    4.3191277    4.3191277   -16140.505   -15398.574   -8911.2918    -24111.65   -10351.482   -76833.306    1147.9691     80.57274 
   23300    1929.8921   -109.79111    1.7462069    -108.0449   -6616.9564    4.3386013    4.3386013    4.3386013   -6616.9564   -24595.373    17175.513   -12431.009    3050.0343   -12117.019    22597.751    81.667491 
   23400    1817.3753   -109.64391    1.6443994   -107.99951   -25442.258    4.3401202    4.3401202    4.3401202   -25442.258    -49083.57   -34798.974    7555.7684   -623.63512   -13708.462   -18334.174    81.753297 
   23500    987.69976   -108.90764    0.8936915   -108.01395   -26397.311    4.3165708    4.3165708    4.3165708   -26397.311   -19513.216   -27512.176   -32166.543   -12141.952    -52319.96   -34147.624    80.429727 
   23600    2391.5426   -110.16168     2.163918   -107.99776    13754.207    4.2809113    4.2809113    4.2809113    13754.207    7221.2236   -18266.746    52308.142    8781.0345     16804.24    7447.6389    78.452843 
   23700    1708.0888   -109.61167    1.5455147   -108.06616    12532.027    4.2907983    4.2907983    4.2907983    12532.027    42607.654    20877.757   -25889.331    2050.1457   -31688.236   -9483.9817    78.997675 
   23800     1321.578   -109.28355    1.1957916   -108.08776   -42153.852    4.3205104    4.3205104    4.3205104   -42153.852   -38701.027   -28782.624   -58977.905   -15110.215   -33360.327   -17018.674    80.650149 
   23900    1857.8896   -109.74069    1.6810576   -108.05963   -13235.594    4.3197541    4.3197541    4.3197541   -13235.594   -21079.597   -33218.976     14591.79   -23913.205    8084.1471   -5679.3129    80.607801 
   24000    1872.4652   -109.74504    1.6942459   -108.05079   -29292.856    4.3051072    4.3051072    4.3051072   -29292.856   -47286.418     15176.07   -55768.219    14275.328   -40889.831   -1979.5769     79.79063 
   24100    1287.9562   -109.22376    1.1653699   -108.05839    9327.8148    4.2969698    4.2969698    4.2969698    9327.8148    48193.558   -27701.661    7491.5477   -18699.804    -28631.94    -26394.01    79.339031 
   24200    2055.6519   -109.92624    1.8599971   -108.06625   -4287.2045    4.3026456    4.3026456    4.3026456   -4287.2045    9200.1708   -25841.823    3780.0389   -19660.155    23170.748   -11581.355    79.653843 
   24300    1531.1947   -109.45658    1.3854571   -108.07112   -10470.599    4.3107267    4.3107267    4.3107267   -10470.599   -29957.799    68438.009   -69892.006    13505.518   -42668.976    9031.0282    80.103496 
   24400    1424.6508   -109.35123     1.289054   -108.06218    12288.258    4.3095592    4.3095592    4.3095592    12288.258    74828.904    -23561.61    -14402.52   -191.51181   -3385.4493   -21805.429    80.038431 
   24500    1475.7594   -109.40228    1.3352981   -108.06698    21012.485    4.3114226    4.3114226    4.3114226    21012.485    59256.179   -62731.286    66512.561    -27743.05     36702.61    -12079.29    80.142296 
   24600    2350.6545   -110.18169    2.1269216   -108.05477   -30381.275     4.324151     4.324151     4.324151   -30381.275   -24590.206   -29506.013   -37047.605    2380.5261    -19774.81    6160.3089    80.854197 
   24700     1601.648   -109.50382    1.4492048   -108.05462    -52617.79     4.333645     4.333645     4.333645    -52617.79   -80934.124   -67506.573   -9412.6726   -4686.0954   -6868.6713   -13211.695    81.387927 
   24800    1575.7153   -109.48911    1.4257403   -108.06337   -28308.254     4.299688     4.299688     4.299688   -28308.254   -16977.696   -74116.219    6169.1539   -23052.664    34426.964   -4922.8219    79.489697 
   24900    2209.6641   -110.05361    1.9993505   -108.05426     43477.82     4.262803     4.262803     4.262803     43477.82    55820.179     44256.54     30356.74    3691.5398    12988.197    7610.8993    77.461479 
   25000    2347.7189   -110.22268    2.1242654   -108.09841    30762.099    4.2770013    4.2770013    4.2770013    30762.099     115064.2   -29444.129    6666.2265    9548.6554    -22585.57   -24137.806    78.238073 
   25100    1120.8551   -109.14176    1.0141733   -108.12759   -58190.451    4.3189404    4.3189404    4.3189404   -58190.451   -51888.153   -81264.865   -41418.335   -10985.265    24315.342   -10727.886    80.562261 
   25200    1551.7006   -109.49903    1.4040113   -108.09501   -37802.342    4.3118995    4.3118995    4.3118995   -37802.342   -53061.414   -19592.025   -40753.587    3539.0187    31749.653    7116.2719    80.168895 
   25300    1871.8748   -109.76814    1.6937116   -108.07443    14557.397    4.2855466    4.2855466    4.2855466    14557.397    71825.459      21354.8   -49508.067    11544.203   -45039.417   -5373.8964     78.70796 
   25400    2380.5758    -110.2515     2.153995    -108.0975    1813.7781    4.2962054    4.2962054    4.2962054    1813.7781     40325.58    6534.0736   -41418.319   -8310.9982   -3468.8931   -14361.478    79.296697 
   25500    2367.1887   -110.23174    2.1418821   -108.08986    2358.4983    4.3040596    4.3040596    4.3040596    2358.4983    40855.424    1418.3996   -35198.329   -1051.8329    4294.7542    2313.6863    79.732398 
   25600    1045.6991   -109.05126   0.94617056   -108.10509    23827.581    4.2980665    4.2980665    4.2980665    23827.581    17407.894    68846.439   -14771.589    13330.056   -42895.857    804.99815    79.399797 
   25700     1702.639   -109.64048    1.5405836    -108.0999   -11561.739    4.3021657    4.3021657    4.3021657   -11561.739   -12001.791    30038.958   -52722.382    1080.2087    38435.051   -3670.0807    79.627194 
   25800    2146.3704    -110.0315    1.9420811   -108.08942    11092.273     4.292572     4.292572     4.292572    11092.273   -1295.9074    82904.276   -48331.549   -1282.1867    6778.4504    337.31283    79.095683 
   25900    1801.2422   -109.73435    1.6298018   -108.10455    11665.631    4.2941842    4.2941842    4.2941842    11665.631   -2460.5813     57797.66   -20340.185   -6370.9216   -30243.328    2755.4493    79.184833 
   26000    845.94538   -108.88529   0.76542916   -108.11986   -52464.907    4.3143973    4.3143973    4.3143973   -52464.907   -69862.289   -19699.178   -67833.253    24398.175    50710.567   -4312.6894    80.308296 
   26100    1419.3014   -109.39076    1.2842138   -108.10655   -11253.372    4.2989261    4.2989261    4.2989261   -11253.372    44305.446   -43427.965   -34637.598    33573.886    16752.765    907.15645    79.447443 
   26200     2729.403   -110.56072    2.4696212    -108.0911    4508.2657    4.2809598    4.2809598    4.2809598    4508.2657    23042.786    -5173.556   -4344.4325   -19340.779   -12605.961    10529.641    78.455511 
   26300    1897.4251   -109.82882    1.7168301   -108.11199   -24113.562    4.2973326    4.2973326    4.2973326   -24113.562   -29744.498   -12945.498   -29650.688    21406.001    39425.246   -7867.9235    79.359128 
   26400    1119.7134   -109.13107    1.0131403   -108.11793   -12168.605    4.2975056    4.2975056    4.2975056   -12168.605    11202.733   -43907.639   -3800.9101    41610.292    26129.395   -13948.796    79.368717 
   26500    1424.5199   -109.41161    1.2889356   -108.12267    16983.723    4.2941818    4.2941818    4.2941818    16983.723   -20255.316    79379.628   -8173.1434   -9398.9624   -24547.697    1915.8214    79.184699 
   26600    2841.8459   -110.67466    2.5713619   -108.10329    4515.2695       4.3061       4.3061       4.3061    4515.2695    30448.265     19271.69   -36174.146   -7796.3738     7747.813   -1478.4889    79.845849 
   26700    2310.8016   -110.19128    2.0908619   -108.10041    3551.7859    4.3048367    4.3048367    4.3048367    3551.7859    9109.7793    22242.226   -20696.647    19711.925    4056.8561   -2975.2346    79.775591 
   26800    1327.5115   -109.29627    1.2011603   -108.09511    24583.896    4.2935125    4.2935125    4.2935125    24583.896    20644.368    61232.227   -8124.9071    13234.842   -36400.118    3415.2372    79.147683 
   26900    1661.0567    -109.6026     1.502959   -108.09965   -4431.5027     4.294916     4.294916     4.294916   -4431.5027     32000.66    22901.146   -68196.314   -19180.576    37182.881   -11891.524    79.225322 
   27000    2400.5399    -110.2604    2.1720589   -108.08834    13295.485    4.2890043    4.2890043    4.2890043    13295.485    5540.9711    56261.123   -21915.638    856.99914    24982.212   -16330.649    78.898625 
   27100    2168.3114   -110.06696    1.9619337   -108.10502   -1569.0138     4.304659     4.304659     4.304659   -1569.0138    90.825929    26225.432     -31023.3    5056.0313   -24552.547    3271.3147    79.765717 
   27200    697.82041   -108.73222   0.63140257   -108.10082   -59582.097    4.3246402    4.3246402    4.3246402   -59582.097   -92630.508    24500.635   -110616.42    -1039.296    51751.189   -533.72051    80.881641 
   27300    1247.9972   -109.21465    1.1292141   -108.08544    11780.726    4.2900949    4.2900949    4.2900949    11780.726    92070.467   -23275.121   -33453.168    -23458.68    10626.111    -17001.92    78.958829 
   27400    2434.7346   -110.27483     2.202999   -108.07183    24216.473    4.2673366    4.2673366    4.2673366    24216.473    52160.863    8888.4086    11600.147   -19935.277   -17497.041   -8489.0922    77.708892 
   27500     1982.029   -109.92001    1.7933815   -108.12663    9352.1169     4.293098     4.293098     4.293098    9352.1169    18605.103    65937.399   -56486.151    22429.564    39135.611    5326.6951    79.124759 
   27600    1184.9443   -109.17862    1.0721625   -108.10646   -18441.531     4.327689     4.327689     4.327689   -18441.531    11782.846   -2926.3886   -64181.051   -29124.848   -12519.253    -783.1781    81.052822 
   27700    1640.9915   -109.54284    1.4848036   -108.05804   -15191.723    4.3247395    4.3247395    4.3247395   -15191.723    9209.5641   -39603.449   -15181.283   -21798.845   -3912.5261   -309.66197    80.887212 
   27800    2392.1893   -110.18305    2.1645032   -108.01854    18255.221    4.3110654    4.3110654    4.3110654    18255.221    37778.479     12175.91    4811.2737    17234.358     3000.646    9446.6071     80.12238 
   27900      1513.57   -109.41999    1.3695099   -108.05048     9129.214     4.299318     4.299318     4.299318     9129.214    48264.618   -46339.538    25462.562   -30853.995   -37851.686   -12799.744    79.469175 
   28000    1204.3833    -109.1643    1.0897513   -108.07455    20761.263    4.2993007    4.2993007    4.2993007    20761.263    11246.323   -16365.841    67403.309   -6646.8626   -5166.5156   -14739.999    79.468219 
   28100    2531.0605   -110.34455    2.2901567    -108.0544   -15136.201    4.3126557    4.3126557    4.3126557   -15136.201    -22235.54   -14849.498   -8323.5643    9193.6503    18189.474    3413.0134     80.21108 
   28200    1520.7345    -109.4391    1.3759926    -108.0631   -19720.824    4.3139027    4.3139027    4.3139027   -19720.824     3333.687   -81271.591    18775.432   -19764.931    -2651.431   -20701.752    80.280677 
   28300     1610.683   -109.51601    1.4573798   -108.05863   -34323.337    4.3017139    4.3017139    4.3017139   -34323.337   -23217.375   -77387.899   -2364.7357   -9403.0278   -13377.181   -15519.037     79.60211 
   28400    2024.2596   -109.88933    1.8315926   -108.05774    12130.311    4.2770623    4.2770623    4.2770623    12130.311   -400.09469    34124.324    2666.7032    4625.5937    52196.881    7394.3316    78.241421 
   28500    1463.8119   -109.41449    1.3244877      -108.09    27455.284    4.2852028    4.2852028    4.2852028    27455.284    29422.038    14341.621    38602.193   -19985.011    18060.118   -25573.725    78.689023 
   28600    1693.1714   -109.61895    1.5320171   -108.08693   -13801.771    4.3204707    4.3204707    4.3204707   -13801.771    20199.483   -36575.344    -25029.45   -24272.558   -20825.295   -26835.567    80.647925 
   28700    1529.7685   -109.42947    1.3841667   -108.04531   -23727.756    4.3317178    4.3317178    4.3317178   -23727.756    17239.537   -14341.178   -74081.625   -12342.159    43664.507     4948.745    81.279397 
   28800    1432.8797   -109.32697    1.2964997   -108.03047   -1186.5388    4.3124921    4.3124921    4.3124921   -1186.5388    61634.801   -46488.599   -18705.818    9947.4235    29105.939   -27406.875    80.201951 
   28900    2048.4082   -109.87426    1.8534428   -108.02082    23505.643    4.2917883    4.2917883    4.2917883    23505.643    22002.949     1946.901     46567.08   -28434.727   -29075.691    770.78169    79.052366 
   29000    1622.4057   -109.52142    1.4679868   -108.05343    18047.777    4.2908078    4.2908078    4.2908078    18047.777    6076.3744    32986.992    15079.964   -16296.045     44654.68    13650.193    78.998198 
   29100    1705.4924   -109.61647    1.5431653    -108.0733   -4492.0403    4.3049946    4.3049946    4.3049946   -4492.0403   -6409.7568   -4862.8253   -2203.5388    7424.6764    41720.463   -36882.861    79.784371 
   29200      2003.67   -109.87359    1.8129627   -108.06063     9113.673    4.3094669    4.3094669    4.3094669     9113.673   -12566.359   -6999.4738    46906.852   -36268.634   -20392.564   -2473.4602    80.033286 
   29300    1886.9081   -109.76002    1.7073141   -108.05271    17535.831    4.3005912    4.3005912    4.3005912    17535.831   -9274.9467    17829.096    44053.343   -4781.0671    37484.801    19674.489    79.539798 
   29400    1594.2716   -109.50886    1.4425304   -108.06633    -1287.321    4.3019295    4.3019295    4.3019295    -1287.321    -23772.32    32036.571   -12126.215    3449.6901    27002.343   -37568.207    79.614079 
   29500    1800.8079   -109.69628    1.6294088   -108.06687    2870.4851     4.295853     4.295853     4.295853    2870.4851    -34755.58    17058.037    26308.999    -43236.37   -14095.904   -1298.7015     79.27719 
   29600     2226.608    -110.0849    2.0146817   -108.07022     43032.17    4.2829805    4.2829805    4.2829805     43032.17     24903.92    71390.622     32801.97    -3607.562    13261.171     24608.62    78.566659 
   29700    2055.6706   -109.95394     1.860014   -108.09393   -7532.6294     4.308168     4.308168     4.308168   -7532.6294    1174.3982    17461.504   -41233.791    10493.475    12463.584   -27473.691     79.96094 
   29800    1182.5169   -109.16169    1.0699661   -108.09172    -25635.91    4.3084991    4.3084991    4.3084991    -25635.91   -42455.452   -1285.2966   -33166.981     -29871.2   -21280.829   -18178.814    79.979377 
   29900    2628.3924   -110.43239    2.3782246   -108.05416    4101.5453    4.2916678    4.2916678    4.2916678    4101.5453   -25176.543    17597.091    19884.089     402.2126   -9241.0143    18344.106    79.045706 
   30000    1820.0357   -109.70946    1.6468065   -108.06265   -3272.8633    4.3189347    4.3189347    4.3189347   -3272.8633    20796.689   -15404.064   -15211.215   -16871.043    1968.7688   -47361.609    80.561939 
   30100    1675.3813   -109.51641    1.5159202   -108.00049   -34175.349    4.3431302    4.3431302    4.3431302   -34175.349   -43923.205   -12082.047   -46520.796   -30262.268   -25581.974    13074.457     81.92351 
   30200     2016.029   -109.78067    1.8241454   -107.95652   -55684.016    4.3308202    4.3308202    4.3308202   -55684.016   -18380.086    -80670.95   -68001.013    9056.8229    6138.1909   -34503.403    81.228881 
   30300    1475.1666   -109.31268    1.3347618   -107.97792   -38475.196    4.2978226    4.2978226    4.2978226   -38475.196    17024.254    -73108.03   -59341.813   -5387.2579    12983.902     -84424.2    79.386282 
   30400    2271.2125   -110.04802    2.0550408   -107.99298    16968.233    4.2791616    4.2791616    4.2791616    16968.233    23004.724    28295.013   -395.03965   -24417.429   -20845.275    25602.563    78.356689 
   30500    915.13603   -108.89246   0.82803431   -108.06442   -21550.009    4.3003312    4.3003312    4.3003312   -21550.009    49015.962   -53030.524   -60635.465    5144.7212   -6673.7523   -96093.811    79.525371 
   30600    2198.7662   -110.03558    1.9894899   -108.04609   -19039.363    4.3304476    4.3304476    4.3304476   -19039.363   -27993.918   -7593.7835   -21530.389   -8482.9106    6698.7361     22520.01    81.207917 
   30700     909.4292   -108.85986   0.82287065   -108.03698    1902.2704    4.3227065    4.3227065    4.3227065    1902.2704    74445.995   -12103.766   -56635.417   -21743.517   -14486.067   -40469.856     80.77319 
   30800    1609.3457   -109.45186    1.4561698   -107.99569    42645.103    4.2971401    4.2971401    4.2971401    42645.103    90703.144    52240.936   -15008.772   -22502.537   -15327.073   -29152.469    79.348466 
   30900    2591.0176   -110.34826    2.3444072   -108.00385   -1897.3174    4.2989231    4.2989231    4.2989231   -1897.3174   -3008.6051   -9913.9949    7230.6478    -5348.386    16936.687    13197.126    79.447279 
   31000    932.13917   -108.90515   0.84341911   -108.06173    1524.6699    4.2941605    4.2941605    4.2941605    1524.6699    41277.409   -49737.459     13034.06    -12946.91    -11824.14   -93375.075    79.183523 
   31100     2109.054   -109.98825    1.9083164   -108.07993    3864.1875    4.3079199    4.3079199    4.3079199    3864.1875   -13230.831   -12904.413    37727.807   -14592.595   -5286.3274    4424.0507    79.947127 
   31200    2215.0771   -110.06229    2.0042483   -108.05804   -38168.152    4.3223143    4.3223143    4.3223143   -38168.152   -16420.806   -47821.052   -50262.599    1540.0869    12578.301   -16965.928    80.751208 
   31300    778.23922    -108.7477    0.7041672   -108.04353    31841.376    4.3064555    4.3064555    4.3064555    31841.376    57858.331    21081.627     16584.17   -22334.728    -19207.67   -81845.703    79.865626 
   31400    2743.7118   -110.50352    2.4825681   -108.02095    15649.719    4.3085355    4.3085355    4.3085355    15649.719     24218.67     25469.02   -2738.5346   -7776.2252    9751.1667    29246.534    79.981403 
   31500    1577.1424   -109.45506    1.4270316   -108.02803    12846.149    4.3121617    4.3121617    4.3121617    12846.149    98291.061   -14478.406   -45274.208   -1529.8125    12452.843   -65836.146    80.183522 
   31600      1765.09   -109.61678    1.5970906   -108.01969    12622.985    4.3176466    4.3176466    4.3176466    12622.985   -1149.4127    55270.397   -16252.031   -27948.564   -8830.4365    7749.8749    80.489877 
   31700    1150.3872   -109.06893    1.0408945   -108.02803   -10189.135    4.3236131    4.3236131    4.3236131   -10189.135    44168.014    -18180.36   -56555.059   -20458.631    6226.8715   -33165.065    80.824027 
   31800    1832.8641   -109.66975     1.658414   -108.01134   -1748.6157    4.3025445    4.3025445    4.3025445   -1748.6157    76375.004   -31954.094   -49666.758    2112.0828    4941.0724   -56350.734    79.648228 
   31900    2077.6719   -109.90156    1.8799212   -108.02164    19249.602    4.2917137    4.2917137    4.2917137    19249.602   -10087.741    31954.204    35882.344   -8718.1792   -17644.062    27839.609    79.048244 
   32000    778.82989   -108.77406   0.70470166   -108.06936   -1556.3078     4.313388     4.313388     4.313388   -1556.3078    38405.695   -11927.865   -31146.753    -15192.17   -7567.1356   -58159.421    80.251949 
   32100    2632.4681   -110.39276    2.3819125   -108.01085   -13583.053    4.3235483    4.3235483    4.3235483   -13583.053     19937.39   -44527.141   -16159.409    14302.223    8003.0578    10415.067    80.820392 
   32200    1354.7795   -109.24164    1.2258329    -108.0158   -22312.785    4.3280321    4.3280321    4.3280321   -22312.785   -32945.395   -2286.9649   -31705.997   -20968.168    1788.9426   -13320.237      81.0721 
   32300    2081.6299   -109.88657    1.8835025   -108.00307   -14988.798    4.3201503    4.3201503    4.3201503   -14988.798    13906.551    21299.018   -80171.963    9505.6023   -9896.6277   -37851.874    80.629981 
   32400    1801.4884   -109.64207    1.6300246   -108.01205    23849.422    4.2837957    4.2837957    4.2837957    23849.422   -4275.4959      50347.2    25476.561    -10564.85    30896.615    20240.268    78.611533 
   32500    1559.4889   -109.46482    1.4110584   -108.05376    5744.7425    4.2831499    4.2831499    4.2831499    5744.7425   -13133.247    33547.459   -3179.9841   -33591.995    198.50278   -16001.156    78.575982 
   32600    2286.8488   -110.13136    2.0691888   -108.06217   -1804.5294    4.3185606    4.3185606    4.3185606   -1804.5294    20264.153    -801.9296   -24875.811    21370.596   -2653.0646   -27018.745    80.541006 
   32700    1174.4837   -109.10494    1.0626975   -108.04225   -4443.7439    4.3349603    4.3349603    4.3349603   -4443.7439   -18493.469    40056.718    -34894.48   -5224.1473    49559.953     25352.77    81.462057 
   32800    1906.5737   -109.72669    1.7251079   -108.00158    8720.6109    4.3176021    4.3176021    4.3176021    8720.6109    2520.7861    31143.647    -7502.601   -16285.652    -7940.361   -12705.906    80.487391 
   32900    1941.0854    -109.7653    1.7563349   -108.00896     15812.36    4.2827862    4.2827862    4.2827862     15812.36    6857.2548    61291.388   -20711.562     10935.84    15006.766   -4091.4591    78.555967 
   33000    901.16625   -108.87292   0.81539416   -108.05753     25179.61    4.2709878    4.2709878    4.2709878     25179.61   -4197.4476    44265.987     35470.29    6661.5165    14756.752   -2332.4433    77.908526 
   33100     2458.415   -110.30025    2.2244256   -108.07583    14124.467    4.3026664    4.3026664    4.3026664    14124.467    6045.0545    2425.2118    33903.133    3510.6058   -10622.274    14429.753    79.654998 
   33200    1115.5762   -109.07775    1.0093968   -108.06835   -11988.826    4.3316214    4.3316214    4.3316214   -11988.826   -28598.531    61642.949   -69010.896   -11504.271    19129.344   -4198.7178     81.27397 
   33300    1486.4826   -109.37916    1.3450007   -108.03416    -6932.274    4.3246688    4.3246688    4.3246688    -6932.274   -12364.641    37690.174   -46122.355    17016.574    26305.195   -16807.885    80.883243 
   33400    2855.5184   -110.59989    2.5837331   -108.01616    1842.9365    4.2911582    4.2911582    4.2911582    1842.9365    2111.4014   -19992.657    23410.065   -30217.669    -13859.13    20149.298    79.017556 
   33500    1488.4721   -109.39385    1.3468009   -108.04705    42215.286    4.2664768    4.2664768    4.2664768    42215.286     -15901.8    105249.96    37297.701   -13734.851    373.25559    6691.5279    77.661926 
   33600    1985.2523   -109.88921     1.796298   -108.09291   -1915.5116    4.2919886    4.2919886    4.2919886   -1915.5116   -17684.911    22208.524   -10270.148    23471.388    29862.156     5442.314    79.063436 
   33700    2086.3161   -109.95613    1.8877426   -108.06838   -30033.312    4.3242892    4.3242892    4.3242892   -30033.312   -41958.671   -42603.398   -5537.8681   -49032.267   -12689.721    7611.5377    80.861944 
   33800    1293.8148   -109.21208    1.1706708   -108.04141   -11339.384    4.3231728    4.3231728    4.3231728   -11339.384   -72396.101    41491.384   -3113.4356   -16978.965    18043.513   -7271.9868    80.799335 
   33900    2707.3199   -110.44733      2.44964   -107.99769   -11493.951    4.3069207    4.3069207    4.3069207   -11493.951   -19220.102   -5392.8457   -9868.9046    18888.804    21571.822    12022.343     79.89151 
   34000    1589.4821   -109.45875    1.4381968   -108.02056   -6886.3527    4.2956227    4.2956227    4.2956227   -6886.3527   -32221.868   -41098.471    52661.281    -72473.12   -7074.7968    8284.1609    79.264436 
   34100    1609.7487   -109.50546    1.4565345   -108.04893   -2325.3595    4.2993637    4.2993637    4.2993637   -2325.3595   -19284.693   -3489.3185    15797.932    9372.1121   -2055.6614    9708.2356    79.471707 
   34200    2087.7193   -109.94519    1.8890123   -108.05618    501.12499    4.3105031    4.3105031    4.3105031    501.12499    24825.692   -20264.726   -3057.5912   -4466.2872     -18617.9   -2660.2204    80.091032 
   34300    1660.0801    -109.5667    1.5020754   -108.06462     -1816.76    4.3082011    4.3082011    4.3082011     -1816.76         6399   -32252.032    20402.752    -80578.85    1624.6188   -6806.4428    79.962784 
   34400    2080.6343   -109.92832    1.8826016   -108.04571     27766.21    4.2941267    4.2941267    4.2941267     27766.21     47709.68    19812.625    15776.326    31925.115    6389.6338    8902.4673    79.181651 
   34500     1122.404   -109.08283    1.0155747   -108.06726   -18992.813    4.3017693    4.3017693    4.3017693   -18992.813   -11639.207   -35289.109   -10050.122   -39147.191   -12903.764   -3372.3137    79.605186 
   34600    1404.8826   -109.33576    1.2711673    -108.0646   -2163.9343    4.3045474    4.3045474    4.3045474   -2163.9343   -41414.721   -2515.0239    37437.942    -44746.19   -16927.658    1733.1512    79.759509 
   34700    2244.9531   -110.06817    2.0312808   -108.03689   -8219.8849    4.3045016    4.3045016    4.3045016   -8219.8849   -1648.5978     9954.042   -32965.099    18564.842   -11411.089    4579.8022    79.756964 
   34800    1054.4012   -109.01056   0.95404438   -108.05651   -41580.197    4.3106086    4.3106086    4.3106086   -41580.197   -54536.573   -54578.442   -15625.575   -83823.891    5268.5366   -1189.8832    80.096913 
   34900    1931.4298    -109.7947    1.7475983    -108.0471    26531.379     4.296882     4.296882     4.296882    26531.379    37926.254    22786.299    18881.586    4645.7382   -12559.991   -10378.505    79.334169 
   35000    1746.9617   -109.63492    1.5806876   -108.05423    11161.726    4.2968348    4.2968348    4.2968348    11161.726    6027.5714    14301.538    13156.067   -24490.905   -18483.563   -1857.6322    79.331558 
   35100    1596.5403   -109.50598    1.4445832    -108.0614   -20231.292    4.3151461    4.3151461    4.3151461   -20231.292    3936.8484   -69367.972    4737.2481   -51248.385    5723.1911    7752.5378    80.350115 
   35200    2600.8563   -110.36432    2.3533094   -108.01101   -8306.7992    4.3310759    4.3310759    4.3310759   -8306.7992    16354.861   -29993.685   -11281.573    18210.098    10220.153    8975.6647    81.243269 
[...]
   91200    2593.7167   -110.37084    2.3468494   -108.02399     -10074.4    4.2990548    4.2990548    4.2990548     -10074.4   -15758.637     7586.075   -22050.639    23364.627    11066.693   -13686.433     79.45458 
   91300    768.02776   -108.75114   0.69492766   -108.05621   -38572.312    4.3017576    4.3017576    4.3017576   -38572.312    41901.964   -54377.648   -103241.25     22114.15   -4924.8891    90557.329    79.604535 
   91400    2808.0501    -110.5535    2.5407827   -108.01272    29160.027    4.2755368    4.2755368    4.2755368    29160.027    42614.916     63056.18   -18191.016   -22637.966    -7290.515   -5497.9506    78.157734 
   91500    1598.5496    -109.4891    1.4464013    -108.0427   -15343.568    4.2824028    4.2824028    4.2824028   -15343.568    21653.247    -1321.619   -66362.333    15067.054   -8200.3015     36086.77    78.534873 
   91600    995.87049   -108.96629   0.90108454   -108.06521    487.59426    4.2910424    4.2910424    4.2910424    487.59426    65260.893   -7383.3338   -56414.776    34961.649     7542.344    59486.425    79.011156 
   91700    3077.7621   -110.81448    2.7848238   -108.02966   -10207.438    4.2985772    4.2985772    4.2985772   -10207.438   -13986.774    10212.041    -26847.58   -10219.367    5764.0199   -25491.245    79.428104 
   91800    820.10373   -108.79483   0.74204709   -108.05278    -5216.842    4.2952221    4.2952221    4.2952221    -5216.842    40363.282    26940.357   -82954.166   -9064.4825    -3274.794    99401.716    79.242266 
   91900    2727.2541     -110.478    2.4676768   -108.01032     7559.631    4.2990008    4.2990008    4.2990008     7559.631    20345.723    4798.0163   -2464.8464    13645.526   -4443.4495   -2291.5481    79.451589 
   92000    1131.8834   -109.04353    1.0241519   -108.01937    2567.5781    4.3116343    4.3116343    4.3116343    2567.5781    84235.625   -1746.2601   -74786.631   -8382.0029     6372.241    68310.296      80.1541 
   92100    1976.2183   -109.75528    1.7881239   -107.96716    22226.628    4.3179029    4.3179029    4.3179029    22226.628    72355.887    3199.3248   -8875.3288   -21390.606   -12414.683    1153.3978    80.504214 
   92200    1467.1507   -109.29319    1.3275088   -107.96569    5444.0577    4.3212561    4.3212561    4.3212561    5444.0577    110109.76   -40115.401   -53662.188    497.23844   -1073.4846    50012.863    80.691915 
   92300    1703.2441    -109.4987    1.5411311   -107.95757    8298.0585    4.3087033    4.3087033    4.3087033    8298.0585    97206.541   -26978.139   -45334.226   -1109.5652    17858.232    21927.832     79.99075 
   92400    2014.3574   -109.77424    1.8226329    -107.9516    18366.793    4.2960263    4.2960263    4.2960263    18366.793    60820.223    -11150.28    5430.4358    -23713.65    1358.3527    27598.881    79.286781 
   92500    1396.9423   -109.26166    1.2639827   -107.99768   -3090.9926    4.2997836    4.2997836    4.2997836   -3090.9926    52126.139   -39234.871   -22164.246   -2622.1131   -4390.8049    76865.324    79.494997 
   92600    2825.6548   -110.54344    2.5567118   -107.98673     5309.863     4.295004     4.295004     4.295004     5309.863    1033.8344    14743.881    151.87365    15233.554     10688.15   -27592.835    79.230196 
   92700    944.89309    -108.8841   0.85495913   -108.02914    14165.152    4.2899432    4.2899432    4.2899432    14165.152    77629.341    -45758.61    10624.726   -8974.9104    18842.444    104449.92    78.950455 
   92800    2656.9618   -110.41802    2.4040749   -108.01395   -5094.1357    4.2969296    4.2969296    4.2969296   -5094.1357   -17402.871   -6853.3675    8973.8311    3209.8557   -16125.701   -24008.829    79.336805 
   92900    1279.4938   -109.19499    1.1577129   -108.03728    19951.126    4.2959301    4.2959301    4.2959301    19951.126    44543.619    22559.101   -7249.3431    293.35136     4825.658    34537.824    79.281455 
   93000     2019.932   -109.85365    1.8276769   -108.02598   -8000.4102    4.3017157    4.3017157    4.3017157   -8000.4102    8539.1895   -3119.0471   -29421.373    3217.6672    14764.959    43925.757    79.602211 
   93100    1577.4417   -109.45571    1.4273024   -108.02841   -2331.7008    4.2960377    4.2960377    4.2960377   -2331.7008   -14157.457   -13041.862    20204.217    -16744.79   -3625.5538   -54050.524    79.287416 
   93200    1975.9346   -109.82395    1.7878672   -108.03608    13805.486    4.2838702    4.2838702    4.2838702    13805.486    76301.379    2122.2204    -37007.14     2140.023   -13803.703    17570.861    78.615631 
   93300    2561.0869   -110.36366    2.3173253   -108.04634    12978.803    4.2805427    4.2805427    4.2805427    12978.803    39445.916   -14885.358     14375.85     3222.523    12074.372    18458.997    78.432579 
   93400     460.3552   -108.52135   0.41653906   -108.10481   -14178.336    4.2815791    4.2815791    4.2815791   -14178.336    19701.987    -81678.76    19441.766    -15373.61    9647.7186   -66630.125    78.489565 
   93500    2351.0406   -110.21481    2.1272709   -108.08753   -9355.9789    4.2884745    4.2884745    4.2884745   -9355.9789    32692.066   -58734.783   -2025.2203   -4834.9434   -1560.8268   -3605.4272    78.869395 
   93600    1835.6452   -109.73323    1.6609303    -108.0723   -22759.171    4.2986734    4.2986734    4.2986734   -22759.171   -5298.4696    -19974.04   -43005.005    5227.3286    10750.477    47171.176    79.433438 
   93700    2057.6152   -109.89826    1.8617735   -108.03649    129.63677    4.2987713    4.2987713    4.2987713    129.63677   -22047.352   -7144.2775    29580.539   -31852.501     22406.72   -48317.399    79.438866 
   93800    1667.6372   -109.53005    1.5089132   -108.02114   -5776.0441    4.3067378    4.3067378    4.3067378   -5776.0441    62389.019    -74618.72    -5098.432   -4802.2571   -13540.603    62318.515    79.881331 
   93900    1879.0346   -109.70954      1.70019   -108.00935   -4107.7343     4.301937     4.301937     4.301937   -4107.7343   -4107.7157    2411.1679   -10626.655    8389.4703    1963.9862     10387.24    79.614496 
   94000    1511.9119     -109.383    1.3680096   -108.01499    11128.175    4.2846516    4.2846516    4.2846516    11128.175   -39441.363    40462.485    32363.402   -16739.179    21926.652    14935.321    78.658659 
   94100     1496.926   -109.40001    1.3544501   -108.04556   -6768.5874    4.2850475    4.2850475    4.2850475   -6768.5874    22716.398   -66685.808    23663.648   -3601.9615    -15801.76    85519.497    78.680466 
   94200    2727.0544    -110.5137    2.4674961   -108.04621   -8788.5623    4.2872219    4.2872219    4.2872219   -8788.5623   -29990.057    5879.3125   -2254.9428    8531.0619    26062.213    -15794.23    78.800301 
   94300    1575.9057   -109.50604    1.4259126   -108.08013    2439.5259    4.2831893    4.2831893    4.2831893    2439.5259   -35239.705    -1697.257     44255.54   -20333.355    19272.468     28622.87    78.578152 
   94400    810.81049   -108.83117   0.73363837   -108.09753   -23569.572    4.2931614    4.2931614    4.2931614   -23569.572   -32129.336   -22887.383   -15691.997   -16433.215   -19584.257    50284.757    79.128264 
   94500     2648.956   -110.45209    2.3968311   -108.05525   -19756.208    4.2974145    4.2974145    4.2974145   -19756.208   -46943.009    5339.4473   -17665.063    18851.419   -30632.989   -28057.883    79.363668 
   94600    1257.1802   -109.19738    1.1375231   -108.05986    13004.798    4.2922733    4.2922733    4.2922733    13004.798    62373.424   -7171.9811   -16187.048   -32456.281    1152.1857     79498.68    79.079171 
   94700    2030.3213   -109.86783    1.8370774   -108.03075    15116.058    4.2957754    4.2957754    4.2957754    15116.058    43179.027   -13775.205    15944.352   -36860.767    2899.7698   -3505.3532     79.27289 
   94800     1818.807   -109.66593    1.6456948   -108.02024   -16598.807    4.3134147    4.3134147    4.3134147   -16598.807   -2207.6652   -9249.1936   -38339.561    26900.946   -46364.358    18742.429    80.253439 
   94900    1278.8553   -109.17314    1.1571351     -108.016   -23398.394    4.3171672    4.3171672    4.3171672   -23398.394   -3360.5204   -31800.906   -35033.757   -26241.808    10561.441    71963.314    80.463071 
   95000     2434.296   -110.18822    2.2026021   -107.98562     -18693.5    4.3079527    4.3079527    4.3079527     -18693.5    -50398.98    7566.3963   -13247.915   -21926.576    26074.141   -27188.089    79.948955 
   95100    911.14477   -108.84062   0.82442294   -108.01619    18905.796    4.2892166    4.2892166    4.2892166    18905.796    65644.184    37681.355    -46608.15    33314.528    -29378.54     73476.75    78.910344 
   95200    2696.3708    -110.4498    2.4397329   -108.01007    22783.127    4.2846825    4.2846825    4.2846825    22783.127    12512.874    42284.398    13552.109    4155.1238    840.25008   -3097.9217     78.66036 
   95300    2027.3892    -109.8813    1.8344243   -108.04688   -8953.8893    4.2962935    4.2962935    4.2962935   -8953.8893   -20876.074    32366.149   -38351.743   -1133.1866     9818.267    12580.649    79.301575 
   95400    668.71219    -108.6877   0.60506484   -108.08264    11989.057    4.2937669    4.2937669    4.2937669    11989.057   -8920.9561    16505.901    28382.226     18684.08   -21683.686    51060.141    79.161749 
   95500    2384.6118   -110.20908    2.1576468   -108.05143   -12400.581    4.2940791    4.2940791    4.2940791   -12400.581   -69486.029    13369.842    18914.443   -31029.508    9199.8853   -25842.714    79.179022 
   95600    1203.6181   -109.14827     1.089059   -108.05921    15247.687    4.2862255    4.2862255    4.2862255    15247.687    66770.406   -14757.027   -6270.3185   -18600.279    1175.6445    78221.893    78.745374 
   95700    2136.0529   -109.97522    1.9327455   -108.04247    11123.865    4.2942883    4.2942883    4.2942883    11123.865    37459.868    43639.258   -47727.532    25928.286   -27271.313    9858.3949    79.190591 
   95800    1819.4454    -109.6808    1.6462724   -108.03453   -3156.3045    4.3086611    4.3086611    4.3086611   -3156.3045    16444.581    6703.8321   -32617.326   -13728.826   -6130.4664     17967.49      79.9884 
   95900    1136.0716    -109.0607    1.0279415   -108.03276   -9813.5512    4.3088207    4.3088207    4.3088207   -9813.5512    38719.693   -52475.887    -15684.46   -34355.805    4802.1847    74202.774    79.997289 
   96000    2762.9182   -110.48764    2.4999464    -107.9877   -11818.055    4.3051759    4.3051759    4.3051759   -11818.055   -28914.993     3905.984   -10445.155    3329.8009   -20807.565   -28061.761    79.794455 
   96100     940.5467   -108.85752   0.85102642   -108.00649   -27071.948        4.305        4.305        4.305   -27071.948      25861.7   -30635.726   -76441.819   -11042.336    3308.3071    88732.835    79.784674 
   96200    2346.2365   -110.12303    2.1229241   -108.00011   -2419.4862    4.2934946    4.2934946    4.2934946   -2419.4862   -24995.492   -45433.381    63170.414   -36343.685    23007.671    -29138.86     79.14669 
   96300    2083.4923   -109.90951    1.8851876   -108.02433   -11258.296    4.2839588    4.2839588    4.2839588   -11258.296    19794.114   -27635.496   -25933.506    9599.8053   -2565.3057    46194.693    78.620513 
   96400    1413.9838   -109.34393    1.2794022   -108.06453    -6168.173    4.2788904    4.2788904    4.2788904    -6168.173    31989.404    4868.8111   -55362.734    5383.6805   -9083.9157    96998.734    78.341789 
   96500    2860.6879   -110.64273    2.5884105   -108.05432    10494.509    4.2820413    4.2820413    4.2820413    10494.509   -29925.054    77416.059   -16007.477   -7567.3284    6182.4645   -33998.849    78.514983 
   96600    1215.1097   -109.18931    1.0994568   -108.08985   -39559.198    4.2967189    4.2967189    4.2967189   -39559.198    31598.373   -37282.499   -112993.47    1121.8432   -1100.7754    69497.541    79.325138 
   96700    1154.1847   -109.13251    1.0443306   -108.08818   -35693.445    4.2916944    4.2916944    4.2916944   -35693.445     2353.927   -25403.457   -84030.805    9314.2178   -15948.946    19487.425    79.047177 
   96800     2337.828   -110.17532    2.1153159      -108.06    7646.6516    4.2752087    4.2752087    4.2752087    7646.6516   -5868.5961    45100.497   -16291.946   -8178.0907   -14697.179   -20402.563    78.139741 
   96900    1785.3527   -109.68218    1.6154246   -108.06676   -7811.9193    4.2777908    4.2777908    4.2777908   -7811.9193     48226.32   -21437.469    -50224.61   -24986.661    4868.0262    84328.375    78.281405 
   97000    1621.2245    -109.5298     1.466918   -108.06288    18406.511    4.2880369    4.2880369    4.2880369    18406.511    55432.846    56030.673   -56243.987     15924.73    313.57714   -42958.059    78.845251 
   97100    1582.8534   -109.48834     1.432199   -108.05614   -9099.2096    4.3096536    4.3096536    4.3096536   -9099.2096   -3155.5445    18130.999   -42273.084   -17160.952   -5152.4129   -7011.0552    80.043687 
   97200    2287.1471   -110.08066    2.0694588    -108.0112   -14201.821    4.3121502    4.3121502    4.3121502   -14201.821   -15807.456    24395.483    -51193.49   -18791.784    7390.8028    -3381.492    80.182877 
   97300     1326.145   -109.22093    1.1999238   -108.02101   -15454.741    4.2998052    4.2998052    4.2998052   -15454.741    7818.6883     5294.549    -59477.46    11560.079   -4209.7201   -84831.829    79.496194 
   97400    1820.7775    -109.6813    1.6474778   -108.03382   -3923.8416    4.2790602    4.2790602    4.2790602   -3923.8416   -43138.117    3831.6354    27534.957   -14187.205   -22229.226     35704.29    78.351114 
   97500    1821.8542   -109.69702    1.6484519   -108.04857    33017.505    4.2626641    4.2626641    4.2626641    33017.505    24520.276    35136.891    39395.347   -23985.696   -1265.1585   -31185.718    77.453909 
   97600     2508.355   -110.33696    2.2696123   -108.06735   -4309.4967    4.2854617    4.2854617    4.2854617   -4309.4967   -12317.298    40007.707   -40618.898      5761.56    674.86588   -42123.274    78.703286 
   97700    722.33616   -108.75051   0.65358494   -108.09693    1756.6626    4.2932001    4.2932001    4.2932001    1756.6626   -54710.052    70549.074   -10569.034    5533.1858    2560.4331    20382.181    79.130406 
   97800    2111.6927   -109.97922     1.910704   -108.06852    13372.259    4.2951404    4.2951404    4.2951404    13372.259    19857.006    11937.332      8322.44   -13311.303   -291.74724    15862.988    79.237745 
   97900    1698.4117   -109.59343    1.5367586   -108.05667   -15130.092    4.2932709    4.2932709    4.2932709   -15130.092   -14954.479    48480.815   -78916.613    2793.5664   -5393.0521   -42427.172    79.134322 
   98000    1586.2662   -109.47124     1.435287   -108.03596     26229.49    4.2807919    4.2807919    4.2807919     26229.49    55717.967    66816.152   -43845.649    645.74345   -13703.072    26487.603     78.44628 
   98100    2624.5943   -110.39521    2.3747881   -108.02042   -16046.873    4.2942989    4.2942989    4.2942989   -16046.873    49009.463   -32789.242    -64360.84   -6441.2833   -10430.199   -46114.465    79.191181 
   98200    1188.1995   -109.12161    1.0751079    -108.0465    7197.2372    4.2868844    4.2868844    4.2868844    7197.2372    60998.927    13295.762   -52702.977    4442.6851    9223.1862   -46551.973    78.781695 
   98300    1964.4506   -109.82199    1.7774762   -108.04452    15619.966    4.2827488    4.2827488    4.2827488    15619.966    17819.561    61144.591   -32104.254   -5827.0443   -18621.168    28566.397    78.553909 
   98400     1915.414   -109.77899    1.7331068   -108.04588   -7105.6031    4.2885548    4.2885548    4.2885548   -7105.6031     55570.35   -43035.338   -33851.821    2185.9793   -5783.0342   -9781.9076    78.873821 
   98500    1471.6029   -109.38496    1.3315372   -108.05343    25362.639    4.2847256    4.2847256    4.2847256    25362.639     4737.213    34294.726    37055.977   -8808.6656     34719.17   -27104.815    78.662733 
   98600    2247.4288   -110.07483    2.0335208   -108.04131     4561.165    4.2929569    4.2929569    4.2929569     4561.165   -6147.8046    10073.134    9758.1654   -2119.2751      24313.2    25138.534    79.116958 
   98700    1340.8195   -109.26482    1.2132016   -108.05161    16308.437    4.2904076    4.2904076    4.2904076    16308.437    10072.008   -38556.065    77409.369    11419.048   -16522.379    21183.865    78.976098 
   98800    2012.9986   -109.86541    1.8214034   -108.04401   -7437.8717    4.2893346    4.2893346    4.2893346   -7437.8717   -31876.028    8746.6555    815.75718   -6439.3695     40045.81    -34865.44    78.916857 
   98900    1889.6793   -109.74584    1.7098215   -108.03601    13400.094    4.2860334    4.2860334    4.2860334    13400.094   -8721.1052     37131.79    11789.598    5979.9315    14195.292    50189.397    78.734785 
   99000    1144.8517   -109.08634    1.0358859   -108.05045    6600.6615    4.2902931    4.2902931    4.2902931    6600.6615   -10358.828   -1392.1075     31552.92    6499.2029   -12812.331    33628.091    78.969775 
   99100    2897.9513   -110.64913    2.6221272   -108.02701   -12839.777    4.3003654    4.3003654    4.3003654   -12839.777   -39552.771    15513.265   -14479.825   -8845.8235    9233.8196   -35720.509    79.527268 
   99200    1001.0335   -108.95573   0.90575611   -108.04997    7114.9491    4.2994099    4.2994099    4.2994099    7114.9491     19275.75   -20797.147    22866.244    19056.978   -17189.446    58273.192    79.474273 
   99300    1903.7915   -109.74407    1.7225906   -108.02147    2199.8986    4.2976455    4.2976455    4.2976455    2199.8986   -28096.665    9443.5777    25252.783   -15069.792   -8153.8216   -10046.158    79.376466 
   99400     1835.098   -109.66949    1.6604352   -108.00906   -8525.3546    4.3067853    4.3067853    4.3067853   -8525.3546    27098.088   -19178.413   -33495.739    207.94557    15849.447    46208.329    79.883975 
   99500    1339.6981   -109.19595     1.212187   -107.98376   -5.0166397    4.3156238    4.3156238    4.3156238   -5.0166397    32458.362   -24793.408    -7680.004     30933.92   -18310.443    44747.855    80.376805 
   99600    2582.6915   -110.29586    2.3368736   -107.95898    6397.0936    4.3037176    4.3037176    4.3037176    6397.0936    1402.3967    14352.907    3435.9772   -15004.452     5611.609   -1437.0147    79.713395 
   99700    1172.3599   -109.06354    1.0607759   -108.00277   -8102.6315    4.2907133    4.2907133    4.2907133   -8102.6315    37854.722   -37729.907   -24432.709    2804.9471   -4292.6571    109868.56    78.992978 
   99800    2506.7282   -110.26803    2.2681404   -107.99989    6109.0334    4.2854362    4.2854362    4.2854362    6109.0334   -40145.652    19588.929    38883.823    31172.801   -11873.301   -31567.008    78.701879 
   99900    1080.5566     -109.011   0.97771033   -108.03329   -648.93295    4.2878839    4.2878839    4.2878839   -648.93295    64323.102   -48056.776   -18213.125   -4888.9744    5984.1125    100528.24    78.836812 
  100000    2395.7123   -110.18762    2.1676908   -108.01993   -8791.6951    4.2959456    4.2959456    4.2959456   -8791.6951    33141.618   -38053.752   -21462.952   -8008.8439      2298.67    12505.672    79.282313 
Loop time of 23.1097 on 1 procs for 100000 steps with 8 atoms

Pair  time (%) = 7.32629 (31.7023)
Kspce time (%) = 5.44283 (23.5522)
Neigh time (%) = 0.262987 (1.138)
Comm  time (%) = 1.18474 (5.1266)
Outpt time (%) = 0.0283501 (0.122676)
Other time (%) = 8.86447 (38.3583)

Nlocal:    8 ave 8 max 8 min
Histogram: 1 0 0 0 0 0 0 0 0 0
Nghost:    2189 ave 2189 max 2189 min
Histogram: 1 0 0 0 0 0 0 0 0 0
Neighs:    2250 ave 2250 max 2250 min
Histogram: 1 0 0 0 0 0 0 0 0 0

Total # of neighbors = 2250
Ave neighs/atom = 281.25
Neighbor list builds = 3007
Dangerous builds = 0
seeds:2915024
