    4    4    1    2
  0.1064635E+02  0.3492102E-09  0.3492102E-09  0.3492102E-09  0.5000000E-15
  1.000000000000000E-004
  CAR 
 automatically generated by pyflamestk   
     40      4     32
 
  0.1250000E+00  0.1250000E+00  0.1250000E+00  0.1250000E+00
    1        1.121463      1.121465   1.000000   1.000000
    2        5.333178      5.333205   1.000000   1.000000
    3        5.333178      5.333205   1.000000   1.000000
    4        5.333178      5.333205   1.000000   1.000000
    5        5.903087      5.903084   1.000000   1.000000
    6        5.903087      5.903084   1.000000   1.000000
    7        5.903087      5.903084   1.000000   1.000000
    8        7.441840      7.441835   1.000000   1.000000
    9        7.725820      7.725816   1.000000   1.000000
   10        7.725820      7.725816   1.000000   1.000000
   11        8.704403      8.704443   1.000000   1.000000
   12        8.704403      8.704443   1.000000   1.000000
   13        8.725820      8.725817   1.000000   1.000000
   14        8.725820      8.725817   1.000000   1.000000
   15        8.725820      8.725817   1.000000   1.000000
   16        9.205939      9.205970   1.021561   1.021568
   17        9.205939      9.205970   1.021561   1.021568
   18        9.205939      9.205970   1.021561   1.021568
   19        9.609182      9.609188   0.200386   0.200367
   20        9.609182      9.609188   0.200386   0.200367
   21        9.609182      9.609188   0.200386   0.200367
   22       12.353455     12.353459  -0.000000  -0.000000
   23       12.353455     12.353459  -0.000000  -0.000000
   24       12.353455     12.353459  -0.000000  -0.000000
   25       20.690124     20.690138   0.000000   0.000000
   26       20.690124     20.690138   0.000000   0.000000
   27       20.690124     20.690138   0.000000   0.000000
   28       22.009819     22.009822   0.000000   0.000000
   29       22.009819     22.009822   0.000000   0.000000
   30       22.009819     22.009822   0.000000   0.000000
   31       25.661516     25.661519   0.000000   0.000000
   32       25.661516     25.661519   0.000000   0.000000
 
  0.3750000E+00  0.1250000E+00  0.1250000E+00  0.3750000E+00
    1        2.639433      2.639436   1.000000   1.000000
    2        4.785509      4.785521   1.000000   1.000000
    3        5.997574      5.997601   1.000000   1.000000
    4        5.997574      5.997601   1.000000   1.000000
    5        6.349886      6.349882   1.000000   1.000000
    6        6.360096      6.360095   1.000000   1.000000
    7        6.360096      6.360095   1.000000   1.000000
    8        7.000562      7.000557   1.000000   1.000000
    9        7.400539      7.400536   1.000000   1.000000
   10        7.400539      7.400536   1.000000   1.000000
   11        7.811885      7.811901   1.000000   1.000000
   12        7.881228      7.881242   1.000000   1.000000
   13        8.033771      8.033773   1.000000   1.000000
   14        8.552221      8.552241   1.000000   1.000000
   15        8.619715      8.619726   1.000000   1.000000
   16        8.753464      8.753501   1.000000   1.000000
   17        8.753464      8.753501   1.000000   1.000000
   18        9.012333      9.012367   1.000730   1.000730
   19        9.403080      9.403105   0.939987   0.939936
   20        9.522879      9.522877   0.540564   0.540573
   21        9.522879      9.522877   0.540564   0.540573
   22        9.622788      9.622794   0.157661   0.157641
   23       14.675495     14.675501  -0.000000  -0.000000
   24       14.675495     14.675501  -0.000000  -0.000000
   25       17.980405     17.980408   0.000000   0.000000
   26       17.980405     17.980408   0.000000   0.000000
   27       21.701229     21.701239   0.000000   0.000000
   28       21.701229     21.701239   0.000000   0.000000
   29       23.798482     23.798486   0.000000   0.000000
   30       23.981227     23.981231   0.000000   0.000000
   31       23.981227     23.981231   0.000000   0.000000
   32       26.908470     26.908477   0.000000   0.000000
 
  0.3750000E+00  0.3750000E+00  0.1250000E+00  0.3750000E+00
    1        3.909488      3.909491   1.000000   1.000000
    2        5.536489      5.536494   1.000000   1.000000
    3        5.536489      5.536494   1.000000   1.000000
    4        6.046164      6.046161   1.000000   1.000000
    5        6.639460      6.639490   1.000000   1.000000
    6        6.747004      6.747011   1.000000   1.000000
    7        6.747004      6.747011   1.000000   1.000000
    8        7.024693      7.024690   1.000000   1.000000
    9        7.210009      7.210020   1.000000   1.000000
   10        7.210009      7.210020   1.000000   1.000000
   11        7.328727      7.328724   1.000000   1.000000
   12        7.647798      7.647815   1.000000   1.000000
   13        7.983718      7.983736   1.000000   1.000000
   14        8.335238      8.335269   1.000000   1.000000
   15        8.336284      8.336309   1.000000   1.000000
   16        8.336284      8.336309   1.000000   1.000000
   17        8.641916      8.641933   1.000000   1.000000
   18        9.171455      9.171465   1.014236   1.014238
   19        9.171455      9.171465   1.014236   1.014238
   20        9.239049      9.239053   1.029089   1.029090
   21        9.584414      9.584432   0.288240   0.288170
   22       11.109860     11.109870  -0.000000  -0.000000
   23       11.109860     11.109870  -0.000000  -0.000000
   24       13.421479     13.421487  -0.000000  -0.000000
   25       16.960984     16.960987   0.000000   0.000000
   26       19.784334     19.784337   0.000000   0.000000
   27       19.784334     19.784337   0.000000   0.000000
   28       22.788341     22.788345   0.000000   0.000000
   29       22.915414     22.915421   0.000000   0.000000
   30       25.391187     25.391193   0.000000   0.000000
   31       25.391187     25.391193   0.000000   0.000000
   32       28.266384     28.266389   0.000000   0.000000
 
  0.3750000E+00  0.3750000E+00  0.3750000E+00  0.1250000E+00
    1        4.526073      4.526073   1.000000   1.000000
    2        5.281224      5.281222   1.000000   1.000000
    3        5.281224      5.281222   1.000000   1.000000
    4        5.281224      5.281222   1.000000   1.000000
    5        7.246966      7.246993   1.000000   1.000000
    6        7.246966      7.246993   1.000000   1.000000
    7        7.246966      7.246993   1.000000   1.000000
    8        7.652527      7.652546   1.000000   1.000000
    9        7.652527      7.652546   1.000000   1.000000
   10        7.809857      7.809878   1.000000   1.000000
   11        7.809857      7.809878   1.000000   1.000000
   12        7.809857      7.809878   1.000000   1.000000
   13        7.869372      7.869372   1.000000   1.000000
   14        7.899850      7.899849   1.000000   1.000000
   15        7.899850      7.899849   1.000000   1.000000
   16        7.899850      7.899849   1.000000   1.000000
   17        9.278969      9.278985   1.035192   1.035193
   18        9.278969      9.278985   1.035192   1.035193
   19        9.517612      9.517626   0.562712   0.562653
   20        9.517612      9.517626   0.562712   0.562653
   21        9.517612      9.517626   0.562712   0.562653
   22       11.124836     11.124847  -0.000000  -0.000000
   23       11.124836     11.124847  -0.000000  -0.000000
   24       11.124836     11.124847  -0.000000  -0.000000
   25       16.312257     16.312258   0.000000   0.000000
   26       16.312257     16.312258   0.000000   0.000000
   27       16.312257     16.312258   0.000000   0.000000
   28       18.747768     18.747771   0.000000   0.000000
   29       29.297669     29.297674   0.000000   0.000000
   30       29.297669     29.297674   0.000000   0.000000
   31       29.297669     29.297674   0.000000   0.000000
   32       31.675195     31.675199   0.000000   0.000000
