 vasp.5.4.4.18Apr17-6-g9f103f2a35 (build Dec 03 2018 15:37:19) complex          
  
 executed on             LinuxIFC date 2019.01.08  19:13:46
 running on   16 total cores
 distrk:  each k-point on   16 cores,    1 groups
 distr:  one band on NCORES_PER_BAND=   1 cores,   16 groups


--------------------------------------------------------------------------------------------------------


 INCAR:
 POTCAR:    PAW_PBE Ni 02Aug2007                  

 ----------------------------------------------------------------------------- 
|                                                                             |
|           W    W    AA    RRRRR   N    N  II  N    N   GGGG   !!!           |
|           W    W   A  A   R    R  NN   N  II  NN   N  G    G  !!!           |
|           W    W  A    A  R    R  N N  N  II  N N  N  G       !!!           |
|           W WW W  AAAAAA  RRRRR   N  N N  II  N  N N  G  GGG   !            |
|           WW  WW  A    A  R   R   N   NN  II  N   NN  G    G                |
|           W    W  A    A  R    R  N    N  II  N    N   GGGG   !!!           |
|                                                                             |
|      For optimal performance we recommend to set                            |
|        NCORE= 4 - approx SQRT( number of cores)                             |
|      NCORE specifies how many cores store one orbital (NPAR=cpu/NCORE).     |
|      This setting can  greatly improve the performance of VASP for DFT.     |
|      The default,   NCORE=1            might be grossly inefficient         |
|      on modern multi-core architectures or massively parallel machines.     |
|      Do your own testing !!!!                                               |
|      Unfortunately you need to use the default for GW and RPA calculations. |
|      (for HF NCORE is supported but not extensively tested yet)             |
|                                                                             |
 ----------------------------------------------------------------------------- 

 POTCAR:    PAW_PBE Ni 02Aug2007                  
   VRHFIN =Ni:                                                                  
   LEXCH  = PE                                                                  
   EATOM  =  1077.6734 eV,   79.2068 Ry                                         
                                                                                
   TITEL  = PAW_PBE Ni 02Aug2007                                                
   LULTRA =        F    use ultrasoft PP ?                                      
   IUNSCR =        1    unscreen: 0-lin 1-nonlin 2-no                           
   RPACOR =    2.000    partial core radius                                     
   POMASS =   58.690; ZVAL   =   10.000    mass and valenz                      
   RCORE  =    2.300    outmost cutoff radius                                   
   RWIGS  =    2.430; RWIGS  =    1.286    wigner-seitz radius (au A)           
   ENMAX  =  269.532; ENMIN  =  202.149 eV                                      
   RCLOC  =    1.201    cutoff for local pot                                    
   LCOR   =        T    correct aug charges                                     
   LPAW   =        T    paw PP                                                  
   EAUG   =  544.565                                                            
   DEXC   =    0.000                                                            
   RMAX   =    2.808    core radius for proj-oper                               
   RAUG   =    1.300    factor for augmentation sphere                          
   RDEP   =    2.390    radius for radial grids                                 
   QCUT   =   -4.451; QGAM   =    8.902    optimization parameters              
                                                                                
   Description                                                                  
     l     E      TYP  RCUT    TYP  RCUT                                        
     2    -4.65     23  2.300                                                   
     2    -6.01     23  2.300                                                   
     0    -4.49     23  2.300                                                   
     0     5.01     23  2.300                                                   
     1    -2.72     23  2.300                                                   
     1    16.52     23  2.300                                                   
  local pseudopotential read in
  partial core-charges read in
  atomic valenz-charges read in
  non local Contribution for L=           2  read in
    real space projection operators read in
  non local Contribution for L=           2  read in
    real space projection operators read in
  non local Contribution for L=           0  read in
    real space projection operators read in
  non local Contribution for L=           0  read in
    real space projection operators read in
  non local Contribution for L=           1  read in
    real space projection operators read in
  non local Contribution for L=           1  read in
    real space projection operators read in
    PAW grid and wavefunctions read in
 
   number of l-projection  operators is LMAX  =           6
   number of lm-projection operators is LMMAX =          18
 
  PAW_PBE Ni 02Aug2007                  :
 energy of atom  1       EATOM=-1077.6734
 kinetic energy error for atom=    0.0030 (will be added to EATOM!!)
 
 
 POSCAR: Automatically generated by pypospack    
  positions in direct lattice
  No initial velocities read in
 exchange correlation table for  LEXCH =        8
   RHO(1)=    0.500       N(1)  =     2000
   RHO(2)=  100.500       N(2)  =     4000
 


--------------------------------------------------------------------------------------------------------


 ion  position               nearest neighbor table
   1  0.000  0.000  0.000-   2 2.47   3 2.47   4 2.47   2 2.47   3 2.47   2 2.47   4 2.47   2 2.47
                             3 2.47   4 2.47   3 2.47   4 2.47
   2  0.000  0.500  0.500-   1 2.47   3 2.47   4 2.47   1 2.47   4 2.47   1 2.47   3 2.47   1 2.47
                             3 2.47   4 2.47   4 2.47   3 2.47
   3  0.500  0.000  0.500-   1 2.47   2 2.47   4 2.47   1 2.47   4 2.47   2 2.47   4 2.47   4 2.47
                             1 2.47   2 2.47   1 2.47   2 2.47
   4  0.500  0.500  0.000-   1 2.47   2 2.47   3 2.47   2 2.47   3 2.47   1 2.47   3 2.47   3 2.47
                             1 2.47   2 2.47   2 2.47   1 2.47
 
  LATTYP: Found a simple cubic cell.
 ALAT       =     3.4921020000
  
  Lattice vectors:
  
 A1 = (   3.4921020000,   0.0000000000,   0.0000000000)
 A2 = (   0.0000000000,   3.4921020000,   0.0000000000)
 A3 = (   0.0000000000,   0.0000000000,   3.4921020000)


Analysis of symmetry for initial positions (statically):
=====================================================================
 Subroutine PRICEL returns following result:
 
  LATTYP: Found a face centered cubic cell.
 ALAT       =     3.4921020000
  
  Lattice vectors:
  
 A1 = (   1.7460510000,   1.7460510000,  -0.0000000000)
 A2 = (   1.7460510000,   0.0000000000,  -1.7460510000)
 A3 = (   0.0000000000,   1.7460510000,  -1.7460510000)
 
   4 primitive cells build up your supercell.
 

 Routine SETGRP: Setting up the symmetry group for a 
 simple cubic supercell.


 Subroutine GETGRP returns: Found 48 space group operations
 (whereof 48 operations were pure point group operations)
 out of a pool of 48 trial point group operations.


The static configuration has the point symmetry O_h .


Analysis of symmetry for dynamics (positions and initial velocities):
=====================================================================
 Subroutine PRICEL returns following result:
 
  LATTYP: Found a face centered cubic cell.
 ALAT       =     3.4921020000
  
  Lattice vectors:
  
 A1 = (   1.7460510000,   1.7460510000,  -0.0000000000)
 A2 = (   1.7460510000,   0.0000000000,  -1.7460510000)
 A3 = (   0.0000000000,   1.7460510000,  -1.7460510000)
 
   4 primitive cells build up your supercell.
 

 Routine SETGRP: Setting up the symmetry group for a 
 simple cubic supercell.


 Subroutine GETGRP returns: Found 48 space group operations
 (whereof 48 operations were pure point group operations)
 out of a pool of 48 trial point group operations.


The dynamic configuration has the point symmetry O_h .


Analysis of structural, dynamic, and magnetic symmetry:
=====================================================================
 Subroutine PRICEL returns following result:
 
  LATTYP: Found a face centered cubic cell.
 ALAT       =     3.4921020000
  
  Lattice vectors:
  
 A1 = (   1.7460510000,   1.7460510000,  -0.0000000000)
 A2 = (   1.7460510000,   0.0000000000,  -1.7460510000)
 A3 = (   0.0000000000,   1.7460510000,  -1.7460510000)
 
   4 primitive cells build up your supercell.
 

 Routine SETGRP: Setting up the symmetry group for a 
 simple cubic supercell.


 Subroutine GETGRP returns: Found 48 space group operations
 (whereof 48 operations were pure point group operations)
 out of a pool of 48 trial point group operations.


The magnetic configuration has the point symmetry O_h .


 Subroutine INISYM returns: Found 48 space group operations
 (whereof 48 operations are pure point group operations),
 and found     4 'primitive' translations

 
 
 KPOINTS: Automatic Mesh                          

Automatic generation of k-mesh.
Space group operators:
 irot       det(A)        alpha          n_x          n_y          n_z        tau_x        tau_y        tau_z
    1     1.000000     0.000000     1.000000     0.000000     0.000000     0.000000     0.000000     0.000000
    2    -1.000000     0.000000     1.000000     0.000000     0.000000     0.000000     0.000000     0.000000
    3     1.000000   120.000000    -0.577350    -0.577350    -0.577350     0.000000     0.000000     0.000000
    4    -1.000000   120.000000    -0.577350    -0.577350    -0.577350     0.000000     0.000000     0.000000
    5     1.000000   120.000000     0.577350     0.577350     0.577350     0.000000     0.000000     0.000000
    6    -1.000000   120.000000     0.577350     0.577350     0.577350     0.000000     0.000000     0.000000
    7     1.000000    90.000000     0.000000     0.000000    -1.000000     0.000000     0.000000     0.000000
    8    -1.000000    90.000000     0.000000     0.000000    -1.000000     0.000000     0.000000     0.000000
    9     1.000000   180.000000     0.000000     0.707107     0.707107     0.000000     0.000000     0.000000
   10    -1.000000   180.000000     0.000000     0.707107     0.707107     0.000000     0.000000     0.000000
   11     1.000000    90.000000     0.000000     1.000000     0.000000     0.000000     0.000000     0.000000
   12    -1.000000    90.000000     0.000000     1.000000     0.000000     0.000000     0.000000     0.000000
   13     1.000000   180.000000     0.000000     0.000000     1.000000     0.000000     0.000000     0.000000
   14    -1.000000   180.000000     0.000000     0.000000     1.000000     0.000000     0.000000     0.000000
   15     1.000000   120.000000    -0.577350     0.577350     0.577350     0.000000     0.000000     0.000000
   16    -1.000000   120.000000    -0.577350     0.577350     0.577350     0.000000     0.000000     0.000000
   17     1.000000   120.000000    -0.577350     0.577350    -0.577350     0.000000     0.000000     0.000000
   18    -1.000000   120.000000    -0.577350     0.577350    -0.577350     0.000000     0.000000     0.000000
   19     1.000000    90.000000     0.000000     0.000000     1.000000     0.000000     0.000000     0.000000
   20    -1.000000    90.000000     0.000000     0.000000     1.000000     0.000000     0.000000     0.000000
   21     1.000000    90.000000    -1.000000     0.000000     0.000000     0.000000     0.000000     0.000000
   22    -1.000000    90.000000    -1.000000     0.000000     0.000000     0.000000     0.000000     0.000000
   23     1.000000   180.000000     0.707107     0.000000     0.707107     0.000000     0.000000     0.000000
   24    -1.000000   180.000000     0.707107     0.000000     0.707107     0.000000     0.000000     0.000000
   25     1.000000   120.000000     0.577350    -0.577350     0.577350     0.000000     0.000000     0.000000
   26    -1.000000   120.000000     0.577350    -0.577350     0.577350     0.000000     0.000000     0.000000
   27     1.000000   120.000000    -0.577350    -0.577350     0.577350     0.000000     0.000000     0.000000
   28    -1.000000   120.000000    -0.577350    -0.577350     0.577350     0.000000     0.000000     0.000000
   29     1.000000   180.000000     1.000000     0.000000     0.000000     0.000000     0.000000     0.000000
   30    -1.000000   180.000000     1.000000     0.000000     0.000000     0.000000     0.000000     0.000000
   31     1.000000    90.000000     0.000000    -1.000000     0.000000     0.000000     0.000000     0.000000
   32    -1.000000    90.000000     0.000000    -1.000000     0.000000     0.000000     0.000000     0.000000
   33     1.000000   180.000000     0.707107     0.707107     0.000000     0.000000     0.000000     0.000000
   34    -1.000000   180.000000     0.707107     0.707107     0.000000     0.000000     0.000000     0.000000
   35     1.000000    90.000000     1.000000     0.000000     0.000000     0.000000     0.000000     0.000000
   36    -1.000000    90.000000     1.000000     0.000000     0.000000     0.000000     0.000000     0.000000
   37     1.000000   120.000000     0.577350    -0.577350    -0.577350     0.000000     0.000000     0.000000
   38    -1.000000   120.000000     0.577350    -0.577350    -0.577350     0.000000     0.000000     0.000000
   39     1.000000   180.000000     0.000000     1.000000     0.000000     0.000000     0.000000     0.000000
   40    -1.000000   180.000000     0.000000     1.000000     0.000000     0.000000     0.000000     0.000000
   41     1.000000   120.000000     0.577350     0.577350    -0.577350     0.000000     0.000000     0.000000
   42    -1.000000   120.000000     0.577350     0.577350    -0.577350     0.000000     0.000000     0.000000
   43     1.000000   180.000000     0.000000    -0.707107     0.707107     0.000000     0.000000     0.000000
   44    -1.000000   180.000000     0.000000    -0.707107     0.707107     0.000000     0.000000     0.000000
   45     1.000000   180.000000     0.707107    -0.707107     0.000000     0.000000     0.000000     0.000000
   46    -1.000000   180.000000     0.707107    -0.707107     0.000000     0.000000     0.000000     0.000000
   47     1.000000   180.000000     0.707107     0.000000    -0.707107     0.000000     0.000000     0.000000
   48    -1.000000   180.000000     0.707107     0.000000    -0.707107     0.000000     0.000000     0.000000
 
 Subroutine IBZKPT returns following result:
 ===========================================
 
 Found      4 irreducible k-points:
 
 Following reciprocal coordinates:
            Coordinates               Weight
  0.125000  0.125000  0.125000      8.000000
  0.375000  0.125000  0.125000     24.000000
  0.375000  0.375000  0.125000     24.000000
  0.375000  0.375000  0.375000      8.000000
 
 Following cartesian coordinates:
            Coordinates               Weight
  0.035795  0.035795  0.035795      8.000000
  0.107385  0.035795  0.035795     24.000000
  0.107385  0.107385  0.035795     24.000000
  0.107385  0.107385  0.107385      8.000000
 


--------------------------------------------------------------------------------------------------------




 Dimension of arrays:
   k-points           NKPTS =      4   k-points in BZ     NKDIM =      4   number of bands    NBANDS=     32
   number of dos      NEDOS =    301   number of ions     NIONS =      4
   non local maximal  LDIM  =      6   non local SUM 2l+1 LMDIM =     18
   total plane-waves  NPLWV =  21952
   max r-space proj   IRMAX =      1   max aug-charges    IRDMAX=   4638
   dimension x,y,z NGX =    28 NGY =   28 NGZ =   28
   dimension x,y,z NGXF=    36 NGYF=   36 NGZF=   36
   support grid    NGXF=    36 NGYF=   36 NGZF=   36
   ions per type =               4
   NGX,Y,Z   is equivalent  to a cutoff of  13.33, 13.33, 13.33 a.u.
   NGXF,Y,Z  is equivalent  to a cutoff of  17.14, 17.14, 17.14 a.u.

 SYSTEM =  automatically generated by pyflamestk   
 POSCAR =  Automatically generated by pypospack    

 Startparameter for this run:
   NWRITE =      2    write-flag & timer
   PREC   = high      normal or accurate (medium, high low for compatibility)
   ISTART =      0    job   : 0-new  1-cont  2-samecut
   ICHARG =      0    charge: 1-file 2-atom 10-const
   ISPIN  =      2    spin polarized calculation?
   LNONCOLLINEAR =      F non collinear calculations
   LSORBIT =      F    spin-orbit coupling
   INIWAV =      1    electr: 0-lowe 1-rand  2-diag
   LASPH  =      F    aspherical Exc in radial PAW
   METAGGA=      F    non-selfconsistent MetaGGA calc.

 Electronic Relaxation 1
   ENCUT  =  525.0 eV  38.59 Ry    6.21 a.u.   6.52  6.52  6.52*2*pi/ulx,y,z
   ENINI  =  525.0     initial cutoff
   ENAUG  =  544.6 eV  augmentation charge cutoff
   NELM   =     40;   NELMIN=  2; NELMDL= -5     # of ELM steps 
   EDIFF  = 0.1E-05   stopping-criterion for ELM
   LREAL  =      F    real-space projection
   NLSPLINE    = F    spline interpolate recip. space projectors
   LCOMPAT=      F    compatible to vasp.4.4
   GGA_COMPAT  = T    GGA compatible to vasp.4.4-vasp.4.6
   LMAXPAW     = -100 max onsite density
   LMAXMIX     =    2 max onsite mixed and CHGCAR
   VOSKOWN=      0    Vosko Wilk Nusair interpolation
   ROPT   =    0.00000
 Ionic relaxation
   EDIFFG = 0.1E-04   stopping-criterion for IOM
   NSW    =      0    number of steps for IOM
   NBLOCK =      1;   KBLOCK =      1    inner block; outer block 
   IBRION =     -1    ionic relax: 0-MD 1-quasi-New 2-CG
   NFREE  =      0    steps in history (QN), initial steepest desc. (CG)
   ISIF   =      2    stress and relaxation
   IWAVPR =     10    prediction:  0-non 1-charg 2-wave 3-comb
   ISYM   =      2    0-nonsym 1-usesym 2-fastsym
   LCORR  =      T    Harris-Foulkes like correction to forces

   POTIM  = 0.5000    time-step for ionic-motion
   TEIN   =    0.0    initial temperature
   TEBEG  =    0.0;   TEEND  =   0.0 temperature during run
   SMASS  =  -3.00    Nose mass-parameter (am)
   estimated Nose-frequenzy (Omega)   =  0.10E-29 period in steps =****** mass=  -0.279E-27a.u.
   SCALEE = 1.0000    scale energy and forces
   NPACO  =    256;   APACO  = 16.0  distance and # of slots for P.C.
   PSTRESS=    0.0 pullay stress

  Mass of Ions in am
   POMASS =  58.69
  Ionic Valenz
   ZVAL   =  10.00
  Atomic Wigner-Seitz radii
   RWIGS  =  -1.00
  virtual crystal weights 
   VCA    =   1.00
   NELECT =      40.0000    total number of electrons
   NUPDOWN=      -1.0000    fix difference up-down

 DOS related values:
   EMIN   =  10.00;   EMAX   =-10.00  energy-range for DOS
   EFERMI =   0.00
   ISMEAR =     1;   SIGMA  =   0.20  broadening in eV -4-tet -1-fermi 0-gaus

 Electronic relaxation 2 (details)
   IALGO  =     38    algorithm
   LDIAG  =      T    sub-space diagonalisation (order eigenvalues)
   LSUBROT=      F    optimize rotation matrix (better conditioning)
   TURBO    =      0    0=normal 1=particle mesh
   IRESTART =      0    0=no restart 2=restart with 2 vectors
   NREBOOT  =      0    no. of reboots
   NMIN     =      0    reboot dimension
   EREF     =   0.00    reference energy to select bands
   IMIX   =      4    mixing-type and parameters
     AMIX     =   0.40;   BMIX     =  1.00
     AMIX_MAG =   1.60;   BMIX_MAG =  1.00
     AMIN     =   0.10
     WC   =   100.;   INIMIX=   1;  MIXPRE=   1;  MAXMIX= -45

 Intra band minimization:
   WEIMIN = 0.0000     energy-eigenvalue tresh-hold
   EBREAK =  0.78E-08  absolut break condition
   DEPER  =   0.30     relativ break condition  

   TIME   =   0.40     timestep for ELM

  volume/ion in A,a.u.               =      10.65        71.85
  Fermi-wavevector in a.u.,A,eV,Ry     =   1.603275  3.029750 34.973631  2.570489
  Thomas-Fermi vector in A             =   2.699963
 
 Write flags
   LWAVE        =      F    write WAVECAR
   LDOWNSAMPLE  =      F    k-point downsampling of WAVECAR
   LCHARG       =      F    write CHGCAR
   LVTOT        =      F    write LOCPOT, total local potential
   LVHAR        =      F    write LOCPOT, Hartree potential only
   LELF         =      F    write electronic localiz. function (ELF)
   LORBIT       =      0    0 simple, 1 ext, 2 COOP (PROOUT), +10 PAW based schemes


 Dipole corrections
   LMONO  =      F    monopole corrections only (constant potential shift)
   LDIPOL =      F    correct potential (dipole corrections)
   IDIPOL =      0    1-x, 2-y, 3-z, 4-all directions 
   EPSILON=  1.0000000 bulk dielectric constant

 Exchange correlation treatment:
   GGA     =    --    GGA type
   LEXCH   =     8    internal setting for exchange type
   VOSKOWN=      0    Vosko Wilk Nusair interpolation
   LHFCALC =     F    Hartree Fock is set to
   LHFONE  =     F    Hartree Fock one center treatment
   AEXX    =    0.0000 exact exchange contribution

 Linear response parameters
   LEPSILON=     F    determine dielectric tensor
   LRPA    =     F    only Hartree local field effects (RPA)
   LNABLA  =     F    use nabla operator in PAW spheres
   LVEL    =     F    velocity operator in full k-point grid
   LINTERFAST=   F  fast interpolation
   KINTER  =     0    interpolate to denser k-point grid
   CSHIFT  =0.1000    complex shift for real part using Kramers Kronig
   OMEGAMAX=  -1.0    maximum frequency
   DEG_THRESHOLD= 0.2000000E-02 threshold for treating states as degnerate
   RTIME   =   -0.100 relaxation time in fs
  (WPLASMAI=    0.000 imaginary part of plasma frequency in eV, 0.658/RTIME)
   DFIELD  = 0.0000000 0.0000000 0.0000000 field for delta impulse in time
 
 Orbital magnetization related:
   ORBITALMAG=     F  switch on orbital magnetization
   LCHIMAG   =     F  perturbation theory with respect to B field
   DQ        =  0.001000  dq finite difference perturbation B field
   LLRAUG    =     F  two centre corrections for induced B field



--------------------------------------------------------------------------------------------------------


 Static calculation
 charge density and potential will be updated during run
 spin polarized calculation
 Variant of blocked Davidson
 Davidson routine will perform the subspace rotation
 perform sub-space diagonalisation
    after iterative eigenvector-optimisation
 modified Broyden-mixing scheme, WC =      100.0
 initial mixing is a Kerker type mixing with AMIX =  0.4000 and BMIX =      1.0000
 Hartree-type preconditioning will be used
 using additional bands           12
 reciprocal scheme for non local part
 use partial core corrections
 calculate Harris-corrections to forces 
   (improved forces if not selfconsistent)
 use gradient corrections 
 use of overlap-Matrix (Vanderbilt PP)
 Methfessel and Paxton  Order N= 1 SIGMA  =   0.20


--------------------------------------------------------------------------------------------------------


  energy-cutoff  :      525.00
  volume of cell :       42.59
      direct lattice vectors                 reciprocal lattice vectors
     3.492102000  0.000000000  0.000000000     0.286360479  0.000000000  0.000000000
     0.000000000  3.492102000  0.000000000     0.000000000  0.286360479  0.000000000
     0.000000000  0.000000000  3.492102000     0.000000000  0.000000000  0.286360479

  length of vectors
     3.492102000  3.492102000  3.492102000     0.286360479  0.286360479  0.286360479


 
 k-points in units of 2pi/SCALE and weight: Automatic Mesh                          
   0.03579506  0.03579506  0.03579506       0.125
   0.10738518  0.03579506  0.03579506       0.375
   0.10738518  0.10738518  0.03579506       0.375
   0.10738518  0.10738518  0.10738518       0.125
 
 k-points in reciprocal lattice and weights: Automatic Mesh                          
   0.12500000  0.12500000  0.12500000       0.125
   0.37500000  0.12500000  0.12500000       0.375
   0.37500000  0.37500000  0.12500000       0.375
   0.37500000  0.37500000  0.37500000       0.125
 
 position of ions in fractional coordinates (direct lattice) 
   0.00000000  0.00000000  0.00000000
   0.00000000  0.50000000  0.50000000
   0.50000000  0.00000000  0.50000000
   0.50000000  0.50000000  0.00000000
 
 position of ions in cartesian coordinates  (Angst):
   0.00000000  0.00000000  0.00000000
   0.00000000  1.74605100  1.74605100
   1.74605100  0.00000000  1.74605100
   1.74605100  1.74605100  0.00000000
 


--------------------------------------------------------------------------------------------------------


 k-point  1 :   0.1250 0.1250 0.1250  plane waves:    1180
 k-point  2 :   0.3750 0.1250 0.1250  plane waves:    1163
 k-point  3 :   0.3750 0.3750 0.1250  plane waves:    1164
 k-point  4 :   0.3750 0.3750 0.3750  plane waves:    1148

 maximum and minimum number of plane-waves per node :      1180     1148

 maximum number of plane-waves:      1180
 maximum index in each direction: 
   IXMAX=    6   IYMAX=    6   IZMAX=    6
   IXMIN=   -6   IYMIN=   -6   IZMIN=   -6


 serial   3D FFT for wavefunctions
 parallel 3D FFT for charge:
    minimum data exchange during FFTs selected (reduces bandwidth)


 total amount of memory used by VASP MPI-rank0    33511. kBytes
=======================================================================

   base      :      30000. kBytes
   nonl-proj :        757. kBytes
   fftplans  :        234. kBytes
   grid      :       2073. kBytes
   one-center:        124. kBytes
   wavefun   :        323. kBytes
 
     INWAV:  cpu time    0.0000: real time    0.0000
 Broyden mixing: mesh for mixing (old mesh)
   NGX = 13   NGY = 13   NGZ = 13
  (NGX  = 36   NGY  = 36   NGZ  = 36)
  gives a total of   2197 points

 charge density for first step will be calculated from the start-wavefunctions


--------------------------------------------------------------------------------------------------------


 Maximum index for augmentation-charges          602 (set IRDMAX)


--------------------------------------------------------------------------------------------------------


 initial charge from wavefunction
 First call to EWALD:  gamma=   0.508
 Maximum number of real-space cells 3x 3x 3
 Maximum number of reciprocal cells 3x 3x 3

    FEWALD:  cpu time    0.0019: real time    0.0019


--------------------------------------- Iteration      1(   1)  ---------------------------------------


    POTLOK:  cpu time    0.0120: real time    0.0151
    SETDIJ:  cpu time    0.0060: real time    0.0060
     EDDAV:  cpu time    0.1349: real time    0.1353
       DOS:  cpu time    0.0005: real time    0.0005
    --------------------------------------------
      LOOP:  cpu time    0.1535: real time    0.1570

 eigenvalue-minimisations  :   512
 total energy-change (2. order) :-0.8531858E+03  (-0.3197787E+04)
 number of electron      40.0000056 magnetization      -0.0000014
 augmentation part        3.0489820 magnetization      -0.1140461

 Free energy of the ion-electron system (eV)
  ---------------------------------------------------
  alpha Z        PSCENC =       191.61485929
  Ewald energy   TEWEN  =     -3781.16325108
  -Hartree energ DENC   =       -81.57418266
  -exchange      EXHF   =         0.00000000
  -V(xc)+E(xc)   XCENC  =        85.83003714
  PAW double counting   =     81884.61890369   -81931.32996640
  entropy T*S    EENTRO =        -0.00913299
  eigenvalues    EBANDS =     -1531.85482923
  atomic energy  EATOM  =      4310.68174763
  Solvation  Ediel_sol  =         0.00000000
  ---------------------------------------------------
  free energy    TOTEN  =      -853.18581462 eV

  energy without entropy =     -853.17668163  energy(sigma->0) =     -853.18277029


--------------------------------------------------------------------------------------------------------




--------------------------------------- Iteration      1(   2)  ---------------------------------------


     EDDAV:  cpu time    0.1918: real time    0.2320
       DOS:  cpu time    0.0004: real time    0.0004
    --------------------------------------------
      LOOP:  cpu time    0.1922: real time    0.2324

 eigenvalue-minimisations  :   768
 total energy-change (2. order) :-0.1827295E+03  (-0.1808510E+03)
 number of electron      40.0000056 magnetization      -0.0000014
 augmentation part        3.0489820 magnetization      -0.1140461

 Free energy of the ion-electron system (eV)
  ---------------------------------------------------
  alpha Z        PSCENC =       191.61485929
  Ewald energy   TEWEN  =     -3781.16325108
  -Hartree energ DENC   =       -81.57418266
  -exchange      EXHF   =         0.00000000
  -V(xc)+E(xc)   XCENC  =        85.83003714
  PAW double counting   =     81884.61890369   -81931.32996640
  entropy T*S    EENTRO =         0.27431151
  eigenvalues    EBANDS =     -1714.86776228
  atomic energy  EATOM  =      4310.68174763
  Solvation  Ediel_sol  =         0.00000000
  ---------------------------------------------------
  free energy    TOTEN  =     -1035.91530317 eV

  energy without entropy =    -1036.18961468  energy(sigma->0) =    -1036.00674034


--------------------------------------------------------------------------------------------------------




--------------------------------------- Iteration      1(   3)  ---------------------------------------


     EDDAV:  cpu time    0.1293: real time    0.1296
       DOS:  cpu time    0.0005: real time    0.0005
    --------------------------------------------
      LOOP:  cpu time    0.1298: real time    0.1300

 eigenvalue-minimisations  :   512
 total energy-change (2. order) :-0.2188322E+01  (-0.2138158E+01)
 number of electron      40.0000056 magnetization      -0.0000014
 augmentation part        3.0489820 magnetization      -0.1140461

 Free energy of the ion-electron system (eV)
  ---------------------------------------------------
  alpha Z        PSCENC =       191.61485929
  Ewald energy   TEWEN  =     -3781.16325108
  -Hartree energ DENC   =       -81.57418266
  -exchange      EXHF   =         0.00000000
  -V(xc)+E(xc)   XCENC  =        85.83003714
  PAW double counting   =     81884.61890369   -81931.32996640
  entropy T*S    EENTRO =         0.28384695
  eigenvalues    EBANDS =     -1717.06561992
  atomic energy  EATOM  =      4310.68174763
  Solvation  Ediel_sol  =         0.00000000
  ---------------------------------------------------
  free energy    TOTEN  =     -1038.10362537 eV

  energy without entropy =    -1038.38747232  energy(sigma->0) =    -1038.19824102


--------------------------------------------------------------------------------------------------------




--------------------------------------- Iteration      1(   4)  ---------------------------------------


     EDDAV:  cpu time    0.1850: real time    0.1852
       DOS:  cpu time    0.0005: real time    0.0005
    --------------------------------------------
      LOOP:  cpu time    0.1854: real time    0.1857

 eigenvalue-minimisations  :   768
 total energy-change (2. order) :-0.5936319E-01  (-0.5929287E-01)
 number of electron      40.0000056 magnetization      -0.0000014
 augmentation part        3.0489820 magnetization      -0.1140461

 Free energy of the ion-electron system (eV)
  ---------------------------------------------------
  alpha Z        PSCENC =       191.61485929
  Ewald energy   TEWEN  =     -3781.16325108
  -Hartree energ DENC   =       -81.57418266
  -exchange      EXHF   =         0.00000000
  -V(xc)+E(xc)   XCENC  =        85.83003714
  PAW double counting   =     81884.61890369   -81931.32996640
  entropy T*S    EENTRO =         0.28364974
  eigenvalues    EBANDS =     -1717.12478591
  atomic energy  EATOM  =      4310.68174763
  Solvation  Ediel_sol  =         0.00000000
  ---------------------------------------------------
  free energy    TOTEN  =     -1038.16298856 eV

  energy without entropy =    -1038.44663830  energy(sigma->0) =    -1038.25753847


--------------------------------------------------------------------------------------------------------




--------------------------------------- Iteration      1(   5)  ---------------------------------------


     EDDAV:  cpu time    0.1686: real time    0.1689
       DOS:  cpu time    0.0005: real time    0.0005
    CHARGE:  cpu time    0.0216: real time    0.0216
    MIXING:  cpu time    0.0003: real time    0.0004
    --------------------------------------------
      LOOP:  cpu time    0.1911: real time    0.1913

 eigenvalue-minimisations  :   704
 total energy-change (2. order) :-0.1960455E-02  (-0.1960387E-02)
 number of electron      40.0000725 magnetization      -1.3631679
 augmentation part       37.3445928 magnetization      -1.2913056

 Broyden mixing:
  rms(total) = 0.14137E+02    rms(broyden)= 0.14133E+02
  rms(prec ) = 0.33442E+02
  weight for this iteration     100.00

 Free energy of the ion-electron system (eV)
  ---------------------------------------------------
  alpha Z        PSCENC =       191.61485929
  Ewald energy   TEWEN  =     -3781.16325108
  -Hartree energ DENC   =       -81.57418266
  -exchange      EXHF   =         0.00000000
  -V(xc)+E(xc)   XCENC  =        85.83003714
  PAW double counting   =     81884.61890369   -81931.32996640
  entropy T*S    EENTRO =         0.28364300
  eigenvalues    EBANDS =     -1717.12673962
  atomic energy  EATOM  =      4310.68174763
  Solvation  Ediel_sol  =         0.00000000
  ---------------------------------------------------
  free energy    TOTEN  =     -1038.16494901 eV

  energy without entropy =    -1038.44859202  energy(sigma->0) =    -1038.25949668


--------------------------------------------------------------------------------------------------------




--------------------------------------- Iteration      1(   6)  ---------------------------------------


    POTLOK:  cpu time    0.0066: real time    0.0069
    SETDIJ:  cpu time    0.0057: real time    0.0057
     EDDAV:  cpu time    0.1901: real time    0.1902
       DOS:  cpu time    0.0004: real time    0.0004
    CHARGE:  cpu time    0.0218: real time    0.0218
    MIXING:  cpu time    0.0004: real time    0.0005
    --------------------------------------------
      LOOP:  cpu time    0.2252: real time    0.2255

 eigenvalue-minimisations  :   768
 total energy-change (2. order) : 0.9027337E+03  (-0.6024154E+02)
 number of electron      40.0000686 magnetization       2.0670911
 augmentation part       33.9133076 magnetization       2.0103952

 Broyden mixing:
  rms(total) = 0.72749E+01    rms(broyden)= 0.72745E+01
  rms(prec ) = 0.17481E+02
  weight for this iteration     100.00

 eigenvalues of (default mixing * dielectric matrix)
  average eigenvalue GAMMA=   1.8299
  1.8299

 Free energy of the ion-electron system (eV)
  ---------------------------------------------------
  alpha Z        PSCENC =       191.61485929
  Ewald energy   TEWEN  =     -3781.16325108
  -Hartree energ DENC   =      -498.22771391
  -exchange      EXHF   =         0.00000000
  -V(xc)+E(xc)   XCENC  =       104.57694422
  PAW double counting   =     43749.17120525   -44038.89386324
  entropy T*S    EENTRO =         0.04651662
  eigenvalues    EBANDS =      -173.23769869
  atomic energy  EATOM  =      4310.68174763
  Solvation  Ediel_sol  =         0.00000000
  ---------------------------------------------------
  free energy    TOTEN  =      -135.43125393 eV

  energy without entropy =     -135.47777054  energy(sigma->0) =     -135.44675947


--------------------------------------------------------------------------------------------------------




--------------------------------------- Iteration      1(   7)  ---------------------------------------


    POTLOK:  cpu time    0.0081: real time    0.0083
    SETDIJ:  cpu time    0.0057: real time    0.0057
     EDDAV:  cpu time    0.1555: real time    0.1555
       DOS:  cpu time    0.0005: real time    0.0004
    CHARGE:  cpu time    0.0246: real time    0.0246
    MIXING:  cpu time    0.0004: real time    0.0004
    --------------------------------------------
      LOOP:  cpu time    0.1948: real time    0.1951

 eigenvalue-minimisations  :   640
 total energy-change (2. order) :-0.1659625E+03  (-0.3646145E+03)
 number of electron      40.0000189 magnetization       0.1846270
 augmentation part        8.6701546 magnetization       0.1418896

 Broyden mixing:
  rms(total) = 0.11352E+02    rms(broyden)= 0.11352E+02
  rms(prec ) = 0.26509E+02
  weight for this iteration     100.00

 eigenvalues of (default mixing * dielectric matrix)
  average eigenvalue GAMMA=   0.9048
  0.9048  0.9048

 Free energy of the ion-electron system (eV)
  ---------------------------------------------------
  alpha Z        PSCENC =       191.61485929
  Ewald energy   TEWEN  =     -3781.16325108
  -Hartree energ DENC   =     -1355.43905610
  -exchange      EXHF   =         0.00000000
  -V(xc)+E(xc)   XCENC  =       149.64894344
  PAW double counting   =      9261.11332637    -9784.57839446
  entropy T*S    EENTRO =        -0.00825700
  eigenvalues    EBANDS =       706.73630148
  atomic energy  EATOM  =      4310.68174763
  Solvation  Ediel_sol  =         0.00000000
  ---------------------------------------------------
  free energy    TOTEN  =      -301.39378043 eV

  energy without entropy =     -301.38552344  energy(sigma->0) =     -301.39102810


--------------------------------------------------------------------------------------------------------




--------------------------------------- Iteration      1(   8)  ---------------------------------------


    POTLOK:  cpu time    0.0070: real time    0.0073
    SETDIJ:  cpu time    0.0056: real time    0.0056
     EDDAV:  cpu time    0.1319: real time    0.1319
       DOS:  cpu time    0.0005: real time    0.0005
    CHARGE:  cpu time    0.0278: real time    0.0278
    MIXING:  cpu time    0.0004: real time    0.0004
    --------------------------------------------
      LOOP:  cpu time    0.1733: real time    0.1735

 eigenvalue-minimisations  :   528
 total energy-change (2. order) : 0.2743392E+03  (-0.1598592E+03)
 number of electron      40.0000590 magnetization       0.2726738
 augmentation part       28.5750454 magnetization       0.1952046

 Broyden mixing:
  rms(total) = 0.29166E+01    rms(broyden)= 0.29164E+01
  rms(prec ) = 0.70789E+01
  weight for this iteration     100.00

 eigenvalues of (default mixing * dielectric matrix)
  average eigenvalue GAMMA=   1.2197
  2.0374  0.9445  0.6772

 Free energy of the ion-electron system (eV)
  ---------------------------------------------------
  alpha Z        PSCENC =       191.61485929
  Ewald energy   TEWEN  =     -3781.16325108
  -Hartree energ DENC   =      -730.46206034
  -exchange      EXHF   =         0.00000000
  -V(xc)+E(xc)   XCENC  =       115.71509224
  PAW double counting   =     17921.73257624   -18241.27552433
  entropy T*S    EENTRO =        -0.02591480
  eigenvalues    EBANDS =       186.12786773
  atomic energy  EATOM  =      4310.68174763
  Solvation  Ediel_sol  =         0.00000000
  ---------------------------------------------------
  free energy    TOTEN  =       -27.05460742 eV

  energy without entropy =      -27.02869262  energy(sigma->0) =      -27.04596915


--------------------------------------------------------------------------------------------------------




--------------------------------------- Iteration      1(   9)  ---------------------------------------


    POTLOK:  cpu time    0.0071: real time    0.0073
    SETDIJ:  cpu time    0.0057: real time    0.0057
     EDDAV:  cpu time    0.1524: real time    0.1524
       DOS:  cpu time    0.0005: real time    0.0005
    CHARGE:  cpu time    0.0217: real time    0.0217
    MIXING:  cpu time    0.0004: real time    0.0004
    --------------------------------------------
      LOOP:  cpu time    0.1878: real time    0.1880

 eigenvalue-minimisations  :   624
 total energy-change (2. order) : 0.4706924E+01  (-0.7299364E+01)
 number of electron      40.0000539 magnetization       0.1131609
 augmentation part       25.6476013 magnetization       0.0395735

 Broyden mixing:
  rms(total) = 0.82935E+00    rms(broyden)= 0.82932E+00
  rms(prec ) = 0.20279E+01
  weight for this iteration     100.00

 eigenvalues of (default mixing * dielectric matrix)
  average eigenvalue GAMMA=   1.4012
  2.5394  1.6555  0.7379  0.6721

 Free energy of the ion-electron system (eV)
  ---------------------------------------------------
  alpha Z        PSCENC =       191.61485929
  Ewald energy   TEWEN  =     -3781.16325108
  -Hartree energ DENC   =      -831.81430690
  -exchange      EXHF   =         0.00000000
  -V(xc)+E(xc)   XCENC  =       120.54105621
  PAW double counting   =      7340.78604959    -7635.70969513
  entropy T*S    EENTRO =        -0.04041699
  eigenvalues    EBANDS =       262.75627374
  atomic energy  EATOM  =      4310.68174763
  Solvation  Ediel_sol  =         0.00000000
  ---------------------------------------------------
  free energy    TOTEN  =       -22.34768364 eV

  energy without entropy =      -22.30726665  energy(sigma->0) =      -22.33421131


--------------------------------------------------------------------------------------------------------




--------------------------------------- Iteration      1(  10)  ---------------------------------------


    POTLOK:  cpu time    0.0070: real time    0.0072
    SETDIJ:  cpu time    0.0057: real time    0.0057
     EDDAV:  cpu time    0.1458: real time    0.1458
       DOS:  cpu time    0.0005: real time    0.0005
    CHARGE:  cpu time    0.0216: real time    0.0216
    MIXING:  cpu time    0.0004: real time    0.0004
    --------------------------------------------
      LOOP:  cpu time    0.1809: real time    0.1812

 eigenvalue-minimisations  :   592
 total energy-change (2. order) :-0.6569048E+01  (-0.9538768E+00)
 number of electron      40.0000574 magnetization       0.3601231
 augmentation part       27.7756309 magnetization       0.3313098

 Broyden mixing:
  rms(total) = 0.20428E+01    rms(broyden)= 0.20428E+01
  rms(prec ) = 0.48427E+01
  weight for this iteration     100.00

 eigenvalues of (default mixing * dielectric matrix)
  average eigenvalue GAMMA=   1.2934
  2.6586  1.2428  1.2428  0.7568  0.5660

 Free energy of the ion-electron system (eV)
  ---------------------------------------------------
  alpha Z        PSCENC =       191.61485929
  Ewald energy   TEWEN  =     -3781.16325108
  -Hartree energ DENC   =      -812.17756624
  -exchange      EXHF   =         0.00000000
  -V(xc)+E(xc)   XCENC  =       119.11230380
  PAW double counting   =      4580.19949034    -4832.44876539
  entropy T*S    EENTRO =        -0.01987151
  eigenvalues    EBANDS =       195.28432159
  atomic energy  EATOM  =      4310.68174763
  Solvation  Ediel_sol  =         0.00000000
  ---------------------------------------------------
  free energy    TOTEN  =       -28.91673157 eV

  energy without entropy =      -28.89686007  energy(sigma->0) =      -28.91010774


--------------------------------------------------------------------------------------------------------




--------------------------------------- Iteration      1(  11)  ---------------------------------------


    POTLOK:  cpu time    0.0072: real time    0.0074
    SETDIJ:  cpu time    0.0058: real time    0.0058
     EDDAV:  cpu time    0.1364: real time    0.1364
       DOS:  cpu time    0.0005: real time    0.0005
    CHARGE:  cpu time    0.0219: real time    0.0219
    MIXING:  cpu time    0.0005: real time    0.0005
    --------------------------------------------
      LOOP:  cpu time    0.1723: real time    0.1725

 eigenvalue-minimisations  :   528
 total energy-change (2. order) : 0.6439108E+01  (-0.4663755E+01)
 number of electron      40.0000510 magnetization       0.6164809
 augmentation part       23.6118373 magnetization       0.4801302

 Broyden mixing:
  rms(total) = 0.74598E+00    rms(broyden)= 0.74592E+00
  rms(prec ) = 0.16246E+01
  weight for this iteration     100.00

 eigenvalues of (default mixing * dielectric matrix)
  average eigenvalue GAMMA=   1.1702
  2.6309  1.6140  0.8757  0.8757  0.5124  0.5124

 Free energy of the ion-electron system (eV)
  ---------------------------------------------------
  alpha Z        PSCENC =       191.61485929
  Ewald energy   TEWEN  =     -3781.16325108
  -Hartree energ DENC   =      -906.64629298
  -exchange      EXHF   =         0.00000000
  -V(xc)+E(xc)   XCENC  =       124.08940382
  PAW double counting   =      4622.52485181    -4908.33199207
  entropy T*S    EENTRO =        -0.06297940
  eigenvalues    EBANDS =       324.81602933
  atomic energy  EATOM  =      4310.68174763
  Solvation  Ediel_sol  =         0.00000000
  ---------------------------------------------------
  free energy    TOTEN  =       -22.47762364 eV

  energy without entropy =      -22.41464425  energy(sigma->0) =      -22.45663051


--------------------------------------------------------------------------------------------------------




--------------------------------------- Iteration      1(  12)  ---------------------------------------


    POTLOK:  cpu time    0.0072: real time    0.0075
    SETDIJ:  cpu time    0.0057: real time    0.0057
     EDDAV:  cpu time    0.1513: real time    0.1513
       DOS:  cpu time    0.0005: real time    0.0005
    CHARGE:  cpu time    0.0220: real time    0.0220
    MIXING:  cpu time    0.0005: real time    0.0005
    --------------------------------------------
      LOOP:  cpu time    0.1872: real time    0.1874

 eigenvalue-minimisations  :   624
 total energy-change (2. order) : 0.8101541E+00  (-0.3219648E+00)
 number of electron      40.0000526 magnetization       0.6149158
 augmentation part       24.8623857 magnetization       0.4241452

 Broyden mixing:
  rms(total) = 0.36975E+00    rms(broyden)= 0.36974E+00
  rms(prec ) = 0.50324E+00
  weight for this iteration     100.00

 eigenvalues of (default mixing * dielectric matrix)
  average eigenvalue GAMMA=   1.0893
  2.6145  1.6636  0.9270  0.9270  0.5430  0.5430  0.4072

 Free energy of the ion-electron system (eV)
  ---------------------------------------------------
  alpha Z        PSCENC =       191.61485929
  Ewald energy   TEWEN  =     -3781.16325108
  -Hartree energ DENC   =      -876.93813375
  -exchange      EXHF   =         0.00000000
  -V(xc)+E(xc)   XCENC  =       122.50770554
  PAW double counting   =      4689.04538000    -4964.99807044
  entropy T*S    EENTRO =        -0.03044079
  eigenvalues    EBANDS =       287.61273410
  atomic energy  EATOM  =      4310.68174763
  Solvation  Ediel_sol  =         0.00000000
  ---------------------------------------------------
  free energy    TOTEN  =       -21.66746950 eV

  energy without entropy =      -21.63702871  energy(sigma->0) =      -21.65732257


--------------------------------------------------------------------------------------------------------




--------------------------------------- Iteration      1(  13)  ---------------------------------------


    POTLOK:  cpu time    0.0073: real time    0.0075
    SETDIJ:  cpu time    0.0057: real time    0.0057
     EDDAV:  cpu time    0.1389: real time    0.1389
       DOS:  cpu time    0.0005: real time    0.0005
    CHARGE:  cpu time    0.0217: real time    0.0217
    MIXING:  cpu time    0.0005: real time    0.0005
    --------------------------------------------
      LOOP:  cpu time    0.1746: real time    0.1749

 eigenvalue-minimisations  :   560
 total energy-change (2. order) :-0.3047021E-02  (-0.3728899E-02)
 number of electron      40.0000527 magnetization       0.4645715
 augmentation part       24.8594001 magnetization       0.2730953

 Broyden mixing:
  rms(total) = 0.37438E+00    rms(broyden)= 0.37438E+00
  rms(prec ) = 0.50931E+00
  weight for this iteration     100.00

 eigenvalues of (default mixing * dielectric matrix)
  average eigenvalue GAMMA=   0.9503
  2.5603  1.6993  0.9808  0.9808  0.5532  0.5299  0.2262  0.0719

 Free energy of the ion-electron system (eV)
  ---------------------------------------------------
  alpha Z        PSCENC =       191.61485929
  Ewald energy   TEWEN  =     -3781.16325108
  -Hartree energ DENC   =      -876.95198506
  -exchange      EXHF   =         0.00000000
  -V(xc)+E(xc)   XCENC  =       122.50801170
  PAW double counting   =      4688.84836512    -4964.78902045
  entropy T*S    EENTRO =        -0.02909852
  eigenvalues    EBANDS =       287.60985485
  atomic energy  EATOM  =      4310.68174763
  Solvation  Ediel_sol  =         0.00000000
  ---------------------------------------------------
  free energy    TOTEN  =       -21.67051652 eV

  energy without entropy =      -21.64141800  energy(sigma->0) =      -21.66081701


--------------------------------------------------------------------------------------------------------




--------------------------------------- Iteration      1(  14)  ---------------------------------------


    POTLOK:  cpu time    0.0072: real time    0.0075
    SETDIJ:  cpu time    0.0057: real time    0.0057
     EDDAV:  cpu time    0.1640: real time    0.1640
       DOS:  cpu time    0.0005: real time    0.0005
    CHARGE:  cpu time    0.0219: real time    0.0219
    MIXING:  cpu time    0.0006: real time    0.0006
    --------------------------------------------
      LOOP:  cpu time    0.1998: real time    0.2000

 eigenvalue-minimisations  :   688
 total energy-change (2. order) : 0.1005582E-01  (-0.4946177E-03)
 number of electron      40.0000527 magnetization       0.3123675
 augmentation part       24.8957102 magnetization       0.1686333

 Broyden mixing:
  rms(total) = 0.30610E+00    rms(broyden)= 0.30610E+00
  rms(prec ) = 0.50153E+00
  weight for this iteration     100.00

 eigenvalues of (default mixing * dielectric matrix)
  average eigenvalue GAMMA=   0.9750
  2.4485  2.2230  0.5957  1.0685  0.7170  0.7170  0.5690  0.3487  0.0879

 Free energy of the ion-electron system (eV)
  ---------------------------------------------------
  alpha Z        PSCENC =       191.61485929
  Ewald energy   TEWEN  =     -3781.16325108
  -Hartree energ DENC   =      -876.06532805
  -exchange      EXHF   =         0.00000000
  -V(xc)+E(xc)   XCENC  =       122.46396835
  PAW double counting   =      4701.95964487    -4977.75572180
  entropy T*S    EENTRO =        -0.04517425
  eigenvalues    EBANDS =       286.64879434
  atomic energy  EATOM  =      4310.68174763
  Solvation  Ediel_sol  =         0.00000000
  ---------------------------------------------------
  free energy    TOTEN  =       -21.66046070 eV

  energy without entropy =      -21.61528645  energy(sigma->0) =      -21.64540261


--------------------------------------------------------------------------------------------------------




--------------------------------------- Iteration      1(  15)  ---------------------------------------


    POTLOK:  cpu time    0.0067: real time    0.0070
    SETDIJ:  cpu time    0.0056: real time    0.0056
     EDDAV:  cpu time    0.1539: real time    0.1539
       DOS:  cpu time    0.0004: real time    0.0004
    CHARGE:  cpu time    0.0267: real time    0.0267
    MIXING:  cpu time    0.0008: real time    0.0008
    --------------------------------------------
      LOOP:  cpu time    0.1942: real time    0.1944

 eigenvalue-minimisations  :   544
 total energy-change (2. order) :-0.3425971E-01  (-0.2246516E-02)
 number of electron      40.0000529 magnetization       0.2612586
 augmentation part       25.0030657 magnetization       0.1676523

 Broyden mixing:
  rms(total) = 0.28672E+00    rms(broyden)= 0.28671E+00
  rms(prec ) = 0.59844E+00
  weight for this iteration     100.00

 eigenvalues of (default mixing * dielectric matrix)
  average eigenvalue GAMMA=   1.0669
  2.6745  2.6745  1.1519  0.9018  0.9018  0.7832  0.5962  0.5218  0.3544  0.1087

 Free energy of the ion-electron system (eV)
  ---------------------------------------------------
  alpha Z        PSCENC =       191.61485929
  Ewald energy   TEWEN  =     -3781.16325108
  -Hartree energ DENC   =      -874.85099035
  -exchange      EXHF   =         0.00000000
  -V(xc)+E(xc)   XCENC  =       122.38082210
  PAW double counting   =      4612.76228626    -4886.69487718
  entropy T*S    EENTRO =        -0.05244571
  eigenvalues    EBANDS =       283.62712863
  atomic energy  EATOM  =      4310.68174763
  Solvation  Ediel_sol  =         0.00000000
  ---------------------------------------------------
  free energy    TOTEN  =       -21.69472041 eV

  energy without entropy =      -21.64227470  energy(sigma->0) =      -21.67723851


--------------------------------------------------------------------------------------------------------




--------------------------------------- Iteration      1(  16)  ---------------------------------------


    POTLOK:  cpu time    0.0076: real time    0.0078
    SETDIJ:  cpu time    0.0057: real time    0.0057
     EDDAV:  cpu time    0.1353: real time    0.1353
       DOS:  cpu time    0.0005: real time    0.0005
    CHARGE:  cpu time    0.0205: real time    0.0205
    MIXING:  cpu time    0.0008: real time    0.0008
    --------------------------------------------
      LOOP:  cpu time    0.1703: real time    0.1706

 eigenvalue-minimisations  :   528
 total energy-change (2. order) : 0.9050504E-01  (-0.1753963E-01)
 number of electron      40.0000524 magnetization       0.1666029
 augmentation part       24.6877941 magnetization       0.0781579

 Broyden mixing:
  rms(total) = 0.16063E+00    rms(broyden)= 0.16062E+00
  rms(prec ) = 0.18254E+00
  weight for this iteration     100.00

 eigenvalues of (default mixing * dielectric matrix)
  average eigenvalue GAMMA=   1.1088
  3.2194  2.5464  1.2653  1.1085  1.1085  0.6647  0.6647  0.6310  0.5311  0.3480
  0.1092

 Free energy of the ion-electron system (eV)
  ---------------------------------------------------
  alpha Z        PSCENC =       191.61485929
  Ewald energy   TEWEN  =     -3781.16325108
  -Hartree energ DENC   =      -883.93085131
  -exchange      EXHF   =         0.00000000
  -V(xc)+E(xc)   XCENC  =       122.82355007
  PAW double counting   =      4456.44549710    -4731.27752319
  entropy T*S    EENTRO =        -0.06771614
  eigenvalues    EBANDS =       293.26947226
  atomic energy  EATOM  =      4310.68174763
  Solvation  Ediel_sol  =         0.00000000
  ---------------------------------------------------
  free energy    TOTEN  =       -21.60421537 eV

  energy without entropy =      -21.53649924  energy(sigma->0) =      -21.58164333


--------------------------------------------------------------------------------------------------------




--------------------------------------- Iteration      1(  17)  ---------------------------------------


    POTLOK:  cpu time    0.0069: real time    0.0072
    SETDIJ:  cpu time    0.0056: real time    0.0056
     EDDAV:  cpu time    0.1529: real time    0.1529
       DOS:  cpu time    0.0004: real time    0.0004
    CHARGE:  cpu time    0.0211: real time    0.0211
    MIXING:  cpu time    0.0007: real time    0.0007
    --------------------------------------------
      LOOP:  cpu time    0.1876: real time    0.1879

 eigenvalue-minimisations  :   656
 total energy-change (2. order) : 0.8481454E-02  (-0.4416610E-03)
 number of electron      40.0000523 magnetization       0.1905352
 augmentation part       24.6770939 magnetization       0.1380918

 Broyden mixing:
  rms(total) = 0.10594E+00    rms(broyden)= 0.10592E+00
  rms(prec ) = 0.12914E+00
  weight for this iteration     100.00

 eigenvalues of (default mixing * dielectric matrix)
  average eigenvalue GAMMA=   1.1560
  3.0830  2.4421  2.4421  1.1569  0.8861  0.8861  0.7010  0.7010  0.5250  0.5921
  0.3471  0.1092

 Free energy of the ion-electron system (eV)
  ---------------------------------------------------
  alpha Z        PSCENC =       191.61485929
  Ewald energy   TEWEN  =     -3781.16325108
  -Hartree energ DENC   =      -884.94507660
  -exchange      EXHF   =         0.00000000
  -V(xc)+E(xc)   XCENC  =       122.86946481
  PAW double counting   =      4369.80213391    -4644.07028489
  entropy T*S    EENTRO =        -0.07307032
  eigenvalues    EBANDS =       293.68774333
  atomic energy  EATOM  =      4310.68174763
  Solvation  Ediel_sol  =         0.00000000
  ---------------------------------------------------
  free energy    TOTEN  =       -21.59573392 eV

  energy without entropy =      -21.52266360  energy(sigma->0) =      -21.57137715


--------------------------------------------------------------------------------------------------------




--------------------------------------- Iteration      1(  18)  ---------------------------------------


    POTLOK:  cpu time    0.0068: real time    0.0070
    SETDIJ:  cpu time    0.0056: real time    0.0056
     EDDAV:  cpu time    0.1463: real time    0.1463
       DOS:  cpu time    0.0004: real time    0.0004
    CHARGE:  cpu time    0.0211: real time    0.0211
    MIXING:  cpu time    0.0007: real time    0.0007
    --------------------------------------------
      LOOP:  cpu time    0.1810: real time    0.1812

 eigenvalue-minimisations  :   624
 total energy-change (2. order) :-0.2556744E-03  (-0.9374578E-04)
 number of electron      40.0000523 magnetization       0.1878406
 augmentation part       24.6573783 magnetization       0.1287947

 Broyden mixing:
  rms(total) = 0.11501E+00    rms(broyden)= 0.11501E+00
  rms(prec ) = 0.13720E+00
  weight for this iteration     100.00

 eigenvalues of (default mixing * dielectric matrix)
  average eigenvalue GAMMA=   1.1292
  3.0621  2.5466  2.5466  0.3471  1.1256  0.9080  0.9080  0.7425  0.7425  0.5334
  0.5334  0.5745  0.1092

 Free energy of the ion-electron system (eV)
  ---------------------------------------------------
  alpha Z        PSCENC =       191.61485929
  Ewald energy   TEWEN  =     -3781.16325108
  -Hartree energ DENC   =      -885.16638701
  -exchange      EXHF   =         0.00000000
  -V(xc)+E(xc)   XCENC  =       122.88824378
  PAW double counting   =      4363.00008852    -4637.62163112
  entropy T*S    EENTRO =        -0.07337936
  eigenvalues    EBANDS =       294.24371975
  atomic energy  EATOM  =      4310.68174763
  Solvation  Ediel_sol  =         0.00000000
  ---------------------------------------------------
  free energy    TOTEN  =       -21.59598959 eV

  energy without entropy =      -21.52261024  energy(sigma->0) =      -21.57152981


--------------------------------------------------------------------------------------------------------




--------------------------------------- Iteration      1(  19)  ---------------------------------------


    POTLOK:  cpu time    0.0069: real time    0.0072
    SETDIJ:  cpu time    0.0056: real time    0.0056
     EDDAV:  cpu time    0.1487: real time    0.1487
       DOS:  cpu time    0.0004: real time    0.0004
    CHARGE:  cpu time    0.0205: real time    0.0205
    MIXING:  cpu time    0.0008: real time    0.0008
    --------------------------------------------
      LOOP:  cpu time    0.1829: real time    0.1832

 eigenvalue-minimisations  :   640
 total energy-change (2. order) : 0.2482846E-02  (-0.5682101E-04)
 number of electron      40.0000523 magnetization       0.1891187
 augmentation part       24.6735036 magnetization       0.1335272

 Broyden mixing:
  rms(total) = 0.11220E+00    rms(broyden)= 0.11220E+00
  rms(prec ) = 0.13892E+00
  weight for this iteration     100.00

 eigenvalues of (default mixing * dielectric matrix)
  average eigenvalue GAMMA=   1.1537
  3.2222  2.4900  2.2630  1.2580  1.2580  0.3471  1.0738  0.8901  0.7881  0.5305
  0.6319  0.6319  0.6577  0.1092

 Free energy of the ion-electron system (eV)
  ---------------------------------------------------
  alpha Z        PSCENC =       191.61485929
  Ewald energy   TEWEN  =     -3781.16325108
  -Hartree energ DENC   =      -884.72028278
  -exchange      EXHF   =         0.00000000
  -V(xc)+E(xc)   XCENC  =       122.87077456
  PAW double counting   =      4352.37595194    -4626.92937375
  entropy T*S    EENTRO =        -0.07317858
  eigenvalues    EBANDS =       293.74924601
  atomic energy  EATOM  =      4310.68174763
  Solvation  Ediel_sol  =         0.00000000
  ---------------------------------------------------
  free energy    TOTEN  =       -21.59350675 eV

  energy without entropy =      -21.52032817  energy(sigma->0) =      -21.56911389


--------------------------------------------------------------------------------------------------------




--------------------------------------- Iteration      1(  20)  ---------------------------------------


    POTLOK:  cpu time    0.0066: real time    0.0068
    SETDIJ:  cpu time    0.0056: real time    0.0056
     EDDAV:  cpu time    0.1233: real time    0.1234
       DOS:  cpu time    0.0004: real time    0.0004
    CHARGE:  cpu time    0.0208: real time    0.0208
    MIXING:  cpu time    0.0008: real time    0.0008
    --------------------------------------------
      LOOP:  cpu time    0.1576: real time    0.1578

 eigenvalue-minimisations  :   512
 total energy-change (2. order) : 0.4968941E-05  (-0.2318153E-04)
 number of electron      40.0000523 magnetization       0.1978652
 augmentation part       24.6840264 magnetization       0.1425746

 Broyden mixing:
  rms(total) = 0.11191E+00    rms(broyden)= 0.11191E+00
  rms(prec ) = 0.14243E+00
  weight for this iteration     100.00

 eigenvalues of (default mixing * dielectric matrix)
  average eigenvalue GAMMA=   1.1579
  3.1602  2.3952  2.2326  1.5694  1.5694  0.3471  1.1581  0.8374  0.7733  0.7733
  0.7070  0.5323  0.6094  0.5953  0.1092

 Free energy of the ion-electron system (eV)
  ---------------------------------------------------
  alpha Z        PSCENC =       191.61485929
  Ewald energy   TEWEN  =     -3781.16325108
  -Hartree energ DENC   =      -884.46939374
  -exchange      EXHF   =         0.00000000
  -V(xc)+E(xc)   XCENC  =       122.85913945
  PAW double counting   =      4353.96886646    -4628.44244380
  entropy T*S    EENTRO =        -0.07284257
  eigenvalues    EBANDS =       293.42981658
  atomic energy  EATOM  =      4310.68174763
  Solvation  Ediel_sol  =         0.00000000
  ---------------------------------------------------
  free energy    TOTEN  =       -21.59350178 eV

  energy without entropy =      -21.52065921  energy(sigma->0) =      -21.56922092


--------------------------------------------------------------------------------------------------------




--------------------------------------- Iteration      1(  21)  ---------------------------------------


    POTLOK:  cpu time    0.0066: real time    0.0068
    SETDIJ:  cpu time    0.0056: real time    0.0056
     EDDAV:  cpu time    0.1662: real time    0.1663
       DOS:  cpu time    0.0005: real time    0.0005
    CHARGE:  cpu time    0.0205: real time    0.0205
    MIXING:  cpu time    0.0008: real time    0.0008
    --------------------------------------------
      LOOP:  cpu time    0.2003: real time    0.2006

 eigenvalue-minimisations  :   688
 total energy-change (2. order) : 0.1479054E-03  (-0.2716434E-05)
 number of electron      40.0000523 magnetization       0.1961144
 augmentation part       24.6870261 magnetization       0.1381083

 Broyden mixing:
  rms(total) = 0.11578E+00    rms(broyden)= 0.11578E+00
  rms(prec ) = 0.14744E+00
  weight for this iteration     100.00

 eigenvalues of (default mixing * dielectric matrix)
  average eigenvalue GAMMA=   1.1177
  3.1374  2.5153  2.5153  1.3141  1.3141  1.1486  0.6930  0.3471  0.8111  0.8111
  0.7278  0.5317  0.6845  0.6116  0.6116  0.1092

 Free energy of the ion-electron system (eV)
  ---------------------------------------------------
  alpha Z        PSCENC =       191.61485929
  Ewald energy   TEWEN  =     -3781.16325108
  -Hartree energ DENC   =      -884.38032906
  -exchange      EXHF   =         0.00000000
  -V(xc)+E(xc)   XCENC  =       122.85633020
  PAW double counting   =      4355.81327454    -4630.27273784
  entropy T*S    EENTRO =        -0.07254051
  eigenvalues    EBANDS =       293.32929296
  atomic energy  EATOM  =      4310.68174763
  Solvation  Ediel_sol  =         0.00000000
  ---------------------------------------------------
  free energy    TOTEN  =       -21.59335387 eV

  energy without entropy =      -21.52081336  energy(sigma->0) =      -21.56917370


--------------------------------------------------------------------------------------------------------




--------------------------------------- Iteration      1(  22)  ---------------------------------------


    POTLOK:  cpu time    0.0066: real time    0.0068
    SETDIJ:  cpu time    0.0056: real time    0.0056
     EDDAV:  cpu time    0.1564: real time    0.1564
       DOS:  cpu time    0.0004: real time    0.0004
    CHARGE:  cpu time    0.0205: real time    0.0205
    MIXING:  cpu time    0.0009: real time    0.0009
    --------------------------------------------
      LOOP:  cpu time    0.1904: real time    0.1907

 eigenvalue-minimisations  :   656
 total energy-change (2. order) :-0.2809306E-03  (-0.4269702E-06)
 number of electron      40.0000523 magnetization       0.1827192
 augmentation part       24.6859772 magnetization       0.1251234

 Broyden mixing:
  rms(total) = 0.11482E+00    rms(broyden)= 0.11482E+00
  rms(prec ) = 0.14583E+00
  weight for this iteration     100.00

 eigenvalues of (default mixing * dielectric matrix)
  average eigenvalue GAMMA=   1.1312
  3.1365  2.4603  2.4603  1.1107  1.1107  1.2804  1.2804  0.3471  1.1381  0.8251
  0.8251  0.5313  0.7182  0.6426  0.6426  0.6121  0.1092

 Free energy of the ion-electron system (eV)
  ---------------------------------------------------
  alpha Z        PSCENC =       191.61485929
  Ewald energy   TEWEN  =     -3781.16325108
  -Hartree energ DENC   =      -884.40541019
  -exchange      EXHF   =         0.00000000
  -V(xc)+E(xc)   XCENC  =       122.85671008
  PAW double counting   =      4355.09900037    -4629.56964648
  entropy T*S    EENTRO =        -0.07260080
  eigenvalues    EBANDS =       293.36495638
  atomic energy  EATOM  =      4310.68174763
  Solvation  Ediel_sol  =         0.00000000
  ---------------------------------------------------
  free energy    TOTEN  =       -21.59363481 eV

  energy without entropy =      -21.52103400  energy(sigma->0) =      -21.56943454


--------------------------------------------------------------------------------------------------------




--------------------------------------- Iteration      1(  23)  ---------------------------------------


    POTLOK:  cpu time    0.0071: real time    0.0074
    SETDIJ:  cpu time    0.0057: real time    0.0057
     EDDAV:  cpu time    0.1715: real time    0.1715
       DOS:  cpu time    0.0005: real time    0.0005
    CHARGE:  cpu time    0.0214: real time    0.0214
    MIXING:  cpu time    0.0010: real time    0.0010
    --------------------------------------------
      LOOP:  cpu time    0.2072: real time    0.2075

 eigenvalue-minimisations  :   704
 total energy-change (2. order) :-0.1499014E-02  (-0.3679051E-05)
 number of electron      40.0000523 magnetization       0.1253914
 augmentation part       24.6841340 magnetization       0.0719356

 Broyden mixing:
  rms(total) = 0.10658E+00    rms(broyden)= 0.10658E+00
  rms(prec ) = 0.13561E+00
  weight for this iteration     100.00

 eigenvalues of (default mixing * dielectric matrix)
  average eigenvalue GAMMA=   1.1428
  3.1413  2.4679  2.4679  1.6724  1.6724  1.2375  1.2375  0.3471  1.1356  0.8246
  0.8246  0.7346  0.5314  0.6385  0.6385  0.6134  0.1092  0.2768

 Free energy of the ion-electron system (eV)
  ---------------------------------------------------
  alpha Z        PSCENC =       191.61485929
  Ewald energy   TEWEN  =     -3781.16325108
  -Hartree energ DENC   =      -884.47592513
  -exchange      EXHF   =         0.00000000
  -V(xc)+E(xc)   XCENC  =       122.85446212
  PAW double counting   =      4351.98766482    -4626.47437413
  entropy T*S    EENTRO =        -0.07292428
  eigenvalues    EBANDS =       293.45260694
  atomic energy  EATOM  =      4310.68174763
  Solvation  Ediel_sol  =         0.00000000
  ---------------------------------------------------
  free energy    TOTEN  =       -21.59513382 eV

  energy without entropy =      -21.52220954  energy(sigma->0) =      -21.57082573


--------------------------------------------------------------------------------------------------------




--------------------------------------- Iteration      1(  24)  ---------------------------------------


    POTLOK:  cpu time    0.0070: real time    0.0072
    SETDIJ:  cpu time    0.0056: real time    0.0056
     EDDAV:  cpu time    0.1670: real time    0.1670
       DOS:  cpu time    0.0004: real time    0.0004
    CHARGE:  cpu time    0.0217: real time    0.0217
    MIXING:  cpu time    0.0011: real time    0.0011
    --------------------------------------------
      LOOP:  cpu time    0.2027: real time    0.2030

 eigenvalue-minimisations  :   688
 total energy-change (2. order) :-0.5466239E-02  (-0.8129880E-04)
 number of electron      40.0000524 magnetization       0.0599932
 augmentation part       24.6725345 magnetization       0.0232255

 Broyden mixing:
  rms(total) = 0.72031E-01    rms(broyden)= 0.72030E-01
  rms(prec ) = 0.89812E-01
  weight for this iteration     100.00

 eigenvalues of (default mixing * dielectric matrix)
  average eigenvalue GAMMA=   1.6334
 10.6959  3.1405  2.4301  2.4301  1.6137  1.6137  0.3471  1.1097  1.1097  0.1092
  0.9586  0.9586  0.7918  0.7918  0.6247  0.6105  0.6105  0.5282  0.5601

 Free energy of the ion-electron system (eV)
  ---------------------------------------------------
  alpha Z        PSCENC =       191.61485929
  Ewald energy   TEWEN  =     -3781.16325108
  -Hartree energ DENC   =      -884.92337115
  -exchange      EXHF   =         0.00000000
  -V(xc)+E(xc)   XCENC  =       122.85033667
  PAW double counting   =      4337.21845717    -4611.75538938
  entropy T*S    EENTRO =        -0.07415842
  eigenvalues    EBANDS =       293.95016921
  atomic energy  EATOM  =      4310.68174763
  Solvation  Ediel_sol  =         0.00000000
  ---------------------------------------------------
  free energy    TOTEN  =       -21.60060006 eV

  energy without entropy =      -21.52644164  energy(sigma->0) =      -21.57588059


--------------------------------------------------------------------------------------------------------




--------------------------------------- Iteration      1(  25)  ---------------------------------------


    POTLOK:  cpu time    0.0072: real time    0.0074
    SETDIJ:  cpu time    0.0056: real time    0.0056
     EDDAV:  cpu time    0.1749: real time    0.1749
       DOS:  cpu time    0.0005: real time    0.0005
    CHARGE:  cpu time    0.0213: real time    0.0213
    MIXING:  cpu time    0.0012: real time    0.0012
    --------------------------------------------
      LOOP:  cpu time    0.2107: real time    0.2109

 eigenvalue-minimisations  :   720
 total energy-change (2. order) :-0.3283024E-02  (-0.9309805E-04)
 number of electron      40.0000524 magnetization       0.0242775
 augmentation part       24.6605346 magnetization       0.0067147

 Broyden mixing:
  rms(total) = 0.34131E-01    rms(broyden)= 0.34129E-01
  rms(prec ) = 0.41289E-01
  weight for this iteration     100.00

 eigenvalues of (default mixing * dielectric matrix)
  average eigenvalue GAMMA=   1.4105
  7.2575  3.1267  2.4263  2.4263  1.6129  1.6129  0.3471  1.0785  1.0785  0.9555
  0.9555  0.8022  0.8022  0.6364  0.6034  0.6034  0.5731  0.5292  0.1092  0.6734

 Free energy of the ion-electron system (eV)
  ---------------------------------------------------
  alpha Z        PSCENC =       191.61485929
  Ewald energy   TEWEN  =     -3781.16325108
  -Hartree energ DENC   =      -885.42064510
  -exchange      EXHF   =         0.00000000
  -V(xc)+E(xc)   XCENC  =       122.84789368
  PAW double counting   =      4318.97491088    -4593.53698729
  entropy T*S    EENTRO =        -0.07515824
  eigenvalues    EBANDS =       294.47274716
  atomic energy  EATOM  =      4310.68174763
  Solvation  Ediel_sol  =         0.00000000
  ---------------------------------------------------
  free energy    TOTEN  =       -21.60388308 eV

  energy without entropy =      -21.52872484  energy(sigma->0) =      -21.57883034


--------------------------------------------------------------------------------------------------------




--------------------------------------- Iteration      1(  26)  ---------------------------------------


    POTLOK:  cpu time    0.0075: real time    0.0078
    SETDIJ:  cpu time    0.0057: real time    0.0057
     EDDAV:  cpu time    0.1587: real time    0.1587
       DOS:  cpu time    0.0005: real time    0.0005
    CHARGE:  cpu time    0.0210: real time    0.0210
    MIXING:  cpu time    0.0012: real time    0.0012
    --------------------------------------------
      LOOP:  cpu time    0.1946: real time    0.1948

 eigenvalue-minimisations  :   656
 total energy-change (2. order) :-0.7858783E-03  (-0.2422456E-04)
 number of electron      40.0000524 magnetization       0.0103739
 augmentation part       24.6558892 magnetization       0.0033225

 Broyden mixing:
  rms(total) = 0.14666E-01    rms(broyden)= 0.14664E-01
  rms(prec ) = 0.19256E-01
  weight for this iteration     100.00

 eigenvalues of (default mixing * dielectric matrix)
  average eigenvalue GAMMA=   1.7275
 12.7183  3.1391  2.5130  2.1503  2.1503  1.9552  0.3471  1.4140  1.4140  0.1092
  1.0268  1.0268  0.8897  0.8897  0.7859  0.7859  0.5300  0.6416  0.5998  0.5998
  0.5922

 Free energy of the ion-electron system (eV)
  ---------------------------------------------------
  alpha Z        PSCENC =       191.61485929
  Ewald energy   TEWEN  =     -3781.16325108
  -Hartree energ DENC   =      -885.63586546
  -exchange      EXHF   =         0.00000000
  -V(xc)+E(xc)   XCENC  =       122.84514772
  PAW double counting   =      4309.83450218    -4584.40306082
  entropy T*S    EENTRO =        -0.07546057
  eigenvalues    EBANDS =       294.69671215
  atomic energy  EATOM  =      4310.68174763
  Solvation  Ediel_sol  =         0.00000000
  ---------------------------------------------------
  free energy    TOTEN  =       -21.60466896 eV

  energy without entropy =      -21.52920839  energy(sigma->0) =      -21.57951544


--------------------------------------------------------------------------------------------------------




--------------------------------------- Iteration      1(  27)  ---------------------------------------


    POTLOK:  cpu time    0.0070: real time    0.0072
    SETDIJ:  cpu time    0.0056: real time    0.0056
     EDDAV:  cpu time    0.1469: real time    0.1469
       DOS:  cpu time    0.0005: real time    0.0005
    CHARGE:  cpu time    0.0216: real time    0.0216
    MIXING:  cpu time    0.0012: real time    0.0012
    --------------------------------------------
      LOOP:  cpu time    0.1828: real time    0.1830

 eigenvalue-minimisations  :   592
 total energy-change (2. order) :-0.1280868E-03  (-0.3563441E-05)
 number of electron      40.0000524 magnetization       0.0014841
 augmentation part       24.6553613 magnetization      -0.0013952

 Broyden mixing:
  rms(total) = 0.79017E-02    rms(broyden)= 0.79012E-02
  rms(prec ) = 0.12872E-01
  weight for this iteration     100.00

 eigenvalues of (default mixing * dielectric matrix)
  average eigenvalue GAMMA=   2.2370
 24.3926  3.1521  2.5318  2.3959  2.3959  1.9591  0.3471  1.4626  1.4626  0.1092
  1.0132  1.0132  0.9439  0.9439  0.7894  0.7894  0.6374  0.5753  0.5753  0.5963
  0.5963  0.5307

 Free energy of the ion-electron system (eV)
  ---------------------------------------------------
  alpha Z        PSCENC =       191.61485929
  Ewald energy   TEWEN  =     -3781.16325108
  -Hartree energ DENC   =      -885.67727215
  -exchange      EXHF   =         0.00000000
  -V(xc)+E(xc)   XCENC  =       122.84226445
  PAW double counting   =      4306.71377412    -4581.28383478
  entropy T*S    EENTRO =        -0.07549510
  eigenvalues    EBANDS =       294.74241057
  atomic energy  EATOM  =      4310.68174763
  Solvation  Ediel_sol  =         0.00000000
  ---------------------------------------------------
  free energy    TOTEN  =       -21.60479705 eV

  energy without entropy =      -21.52930195  energy(sigma->0) =      -21.57963201


--------------------------------------------------------------------------------------------------------




--------------------------------------- Iteration      1(  28)  ---------------------------------------


    POTLOK:  cpu time    0.0072: real time    0.0074
    SETDIJ:  cpu time    0.0057: real time    0.0057
     EDDAV:  cpu time    0.1623: real time    0.1623
       DOS:  cpu time    0.0005: real time    0.0005
    CHARGE:  cpu time    0.0225: real time    0.0225
    MIXING:  cpu time    0.0014: real time    0.0014
    --------------------------------------------
      LOOP:  cpu time    0.1995: real time    0.1998

 eigenvalue-minimisations  :   640
 total energy-change (2. order) :-0.1681545E-04  (-0.4140181E-05)
 number of electron      40.0000524 magnetization       0.0006986
 augmentation part       24.6593851 magnetization       0.0004196

 Broyden mixing:
  rms(total) = 0.21672E-02    rms(broyden)= 0.21667E-02
  rms(prec ) = 0.40815E-02
  weight for this iteration     100.00

 eigenvalues of (default mixing * dielectric matrix)
  average eigenvalue GAMMA=   3.2786
 49.0710  3.1860  2.8854  2.8854  2.5272  0.3471  1.6783  1.4354  1.4354  1.2285
  0.1092  0.8767  0.8767  0.9040  0.8100  0.8100  0.6892  0.6892  0.5301  0.6088
  0.6088  0.6297  0.5862

 Free energy of the ion-electron system (eV)
  ---------------------------------------------------
  alpha Z        PSCENC =       191.61485929
  Ewald energy   TEWEN  =     -3781.16325108
  -Hartree energ DENC   =      -885.58046610
  -exchange      EXHF   =         0.00000000
  -V(xc)+E(xc)   XCENC  =       122.83394168
  PAW double counting   =      4305.46563508    -4580.02705821
  entropy T*S    EENTRO =        -0.07534930
  eigenvalues    EBANDS =       294.64512714
  atomic energy  EATOM  =      4310.68174763
  Solvation  Ediel_sol  =         0.00000000
  ---------------------------------------------------
  free energy    TOTEN  =       -21.60481386 eV

  energy without entropy =      -21.52946456  energy(sigma->0) =      -21.57969743


--------------------------------------------------------------------------------------------------------




--------------------------------------- Iteration      1(  29)  ---------------------------------------


    POTLOK:  cpu time    0.0073: real time    0.0076
    SETDIJ:  cpu time    0.0057: real time    0.0057
     EDDAV:  cpu time    0.1700: real time    0.1700
       DOS:  cpu time    0.0004: real time    0.0004
    CHARGE:  cpu time    0.0214: real time    0.0214
    MIXING:  cpu time    0.0013: real time    0.0013
    --------------------------------------------
      LOOP:  cpu time    0.2062: real time    0.2065

 eigenvalue-minimisations  :   688
 total energy-change (2. order) :-0.1877448E-05  (-0.8085232E-06)
 number of electron      40.0000524 magnetization      -0.0001298
 augmentation part       24.6611262 magnetization      -0.0002916

 Broyden mixing:
  rms(total) = 0.56620E-03    rms(broyden)= 0.56581E-03
  rms(prec ) = 0.89730E-03
  weight for this iteration     100.00

 eigenvalues of (default mixing * dielectric matrix)
  average eigenvalue GAMMA=   3.6773
[...]
     16       8.3363      1.00000
     17       8.6419      1.00000
     18       9.1715      1.01424
     19       9.1715      1.01424
     20       9.2390      1.02909
     21       9.5844      0.28824
     22      11.1099     -0.00000
     23      11.1099     -0.00000
     24      13.4215     -0.00000
     25      16.9610      0.00000
     26      19.7843      0.00000
     27      19.7843      0.00000
     28      22.7883      0.00000
     29      22.9154      0.00000
     30      25.3912      0.00000
     31      25.3912      0.00000
     32      28.2664      0.00000

 k-point     4 :       0.3750    0.3750    0.3750
  band No.  band energies     occupation 
      1       4.5261      1.00000
      2       5.2812      1.00000
      3       5.2812      1.00000
      4       5.2812      1.00000
      5       7.2470      1.00000
      6       7.2470      1.00000
      7       7.2470      1.00000
      8       7.6525      1.00000
      9       7.6525      1.00000
     10       7.8099      1.00000
     11       7.8099      1.00000
     12       7.8099      1.00000
     13       7.8694      1.00000
     14       7.8999      1.00000
     15       7.8999      1.00000
     16       7.8999      1.00000
     17       9.2790      1.03519
     18       9.2790      1.03519
     19       9.5176      0.56271
     20       9.5176      0.56271
     21       9.5176      0.56271
     22      11.1248     -0.00000
     23      11.1248     -0.00000
     24      11.1248     -0.00000
     25      16.3123      0.00000
     26      16.3123      0.00000
     27      16.3123      0.00000
     28      18.7478      0.00000
     29      29.2977      0.00000
     30      29.2977      0.00000
     31      29.2977      0.00000
     32      31.6752      0.00000

 spin component 2

 k-point     1 :       0.1250    0.1250    0.1250
  band No.  band energies     occupation 
      1       1.1215      1.00000
      2       5.3332      1.00000
      3       5.3332      1.00000
      4       5.3332      1.00000
      5       5.9031      1.00000
      6       5.9031      1.00000
      7       5.9031      1.00000
      8       7.4418      1.00000
      9       7.7258      1.00000
     10       7.7258      1.00000
     11       8.7044      1.00000
     12       8.7044      1.00000
     13       8.7258      1.00000
     14       8.7258      1.00000
     15       8.7258      1.00000
     16       9.2060      1.02157
     17       9.2060      1.02157
     18       9.2060      1.02157
     19       9.6092      0.20037
     20       9.6092      0.20037
     21       9.6092      0.20037
     22      12.3535     -0.00000
     23      12.3535     -0.00000
     24      12.3535     -0.00000
     25      20.6901      0.00000
     26      20.6901      0.00000
     27      20.6901      0.00000
     28      22.0098      0.00000
     29      22.0098      0.00000
     30      22.0098      0.00000
     31      25.6615      0.00000
     32      25.6615      0.00000

 k-point     2 :       0.3750    0.1250    0.1250
  band No.  band energies     occupation 
      1       2.6394      1.00000
      2       4.7855      1.00000
      3       5.9976      1.00000
      4       5.9976      1.00000
      5       6.3499      1.00000
      6       6.3601      1.00000
      7       6.3601      1.00000
      8       7.0006      1.00000
      9       7.4005      1.00000
     10       7.4005      1.00000
     11       7.8119      1.00000
     12       7.8812      1.00000
     13       8.0338      1.00000
     14       8.5522      1.00000
     15       8.6197      1.00000
     16       8.7535      1.00000
     17       8.7535      1.00000
     18       9.0124      1.00073
     19       9.4031      0.93994
     20       9.5229      0.54057
     21       9.5229      0.54057
     22       9.6228      0.15764
     23      14.6755     -0.00000
     24      14.6755     -0.00000
     25      17.9804      0.00000
     26      17.9804      0.00000
     27      21.7012      0.00000
     28      21.7012      0.00000
     29      23.7985      0.00000
     30      23.9812      0.00000
     31      23.9812      0.00000
     32      26.9085      0.00000

 k-point     3 :       0.3750    0.3750    0.1250
  band No.  band energies     occupation 
      1       3.9095      1.00000
      2       5.5365      1.00000
      3       5.5365      1.00000
      4       6.0462      1.00000
      5       6.6395      1.00000
      6       6.7470      1.00000
      7       6.7470      1.00000
      8       7.0247      1.00000
      9       7.2100      1.00000
     10       7.2100      1.00000
     11       7.3287      1.00000
     12       7.6478      1.00000
     13       7.9837      1.00000
     14       8.3353      1.00000
     15       8.3363      1.00000
     16       8.3363      1.00000
     17       8.6419      1.00000
     18       9.1715      1.01424
     19       9.1715      1.01424
     20       9.2391      1.02909
     21       9.5844      0.28817
     22      11.1099     -0.00000
     23      11.1099     -0.00000
     24      13.4215     -0.00000
     25      16.9610      0.00000
     26      19.7843      0.00000
     27      19.7843      0.00000
     28      22.7883      0.00000
     29      22.9154      0.00000
     30      25.3912      0.00000
     31      25.3912      0.00000
     32      28.2664      0.00000

 k-point     4 :       0.3750    0.3750    0.3750
  band No.  band energies     occupation 
      1       4.5261      1.00000
      2       5.2812      1.00000
      3       5.2812      1.00000
      4       5.2812      1.00000
      5       7.2470      1.00000
      6       7.2470      1.00000
      7       7.2470      1.00000
      8       7.6525      1.00000
      9       7.6525      1.00000
     10       7.8099      1.00000
     11       7.8099      1.00000
     12       7.8099      1.00000
     13       7.8694      1.00000
     14       7.8998      1.00000
     15       7.8998      1.00000
     16       7.8998      1.00000
     17       9.2790      1.03519
     18       9.2790      1.03519
     19       9.5176      0.56265
     20       9.5176      0.56265
     21       9.5176      0.56265
     22      11.1248     -0.00000
     23      11.1248     -0.00000
     24      11.1248     -0.00000
     25      16.3123      0.00000
     26      16.3123      0.00000
     27      16.3123      0.00000
     28      18.7478      0.00000
     29      29.2977      0.00000
     30      29.2977      0.00000
     31      29.2977      0.00000
     32      31.6752      0.00000


--------------------------------------------------------------------------------------------------------


 soft charge-density along one line, spin component           1
         0         1         2         3         4         5         6         7         8         9
 total charge-density along one line
 
 soft charge-density along one line, spin component           2
         0         1         2         3         4         5         6         7         8         9
 total charge-density along one line
 
 pseudopotential strength for first ion, spin component:           1
 -0.051   0.000   0.000   0.000  -0.000  -2.543  -0.000  -0.000
  0.000  -0.051   0.000   0.000  -0.000  -0.000  -2.543  -0.000
  0.000   0.000  -0.010   0.000  -0.000  -0.000  -0.000  -2.561
  0.000   0.000   0.000  -0.051   0.000  -0.000  -0.000  -0.000
 -0.000  -0.000  -0.000   0.000  -0.010   0.000   0.000   0.000
 -2.543  -0.000  -0.000  -0.000   0.000   2.505   0.000  -0.000
 -0.000  -2.543  -0.000  -0.000   0.000   0.000   2.505   0.000
 -0.000  -0.000  -2.561  -0.000   0.000  -0.000   0.000   2.514
 -0.000  -0.000  -0.000  -2.543  -0.000   0.000   0.000   0.000
  0.000   0.000   0.000  -0.000  -2.561  -0.000  -0.000  -0.000
 -0.000  -0.000   0.000  -0.000  -0.000  -0.000  -0.000  -0.000
  0.000   0.000   0.000   0.000   0.000  -0.000  -0.000   0.000
  0.000  -0.000   0.000   0.000   0.000   0.000   0.000  -0.000
  0.000  -0.000  -0.000   0.000  -0.000   0.000   0.000   0.000
  0.000   0.000  -0.000  -0.000  -0.000   0.000   0.000   0.000
 -0.000   0.000  -0.000  -0.000  -0.000   0.000  -0.000   0.000
 -0.000   0.000   0.000  -0.000   0.000   0.000  -0.000  -0.000
 -0.000  -0.000   0.000   0.000   0.000   0.000   0.000   0.000
 pseudopotential strength for first ion, spin component:           2
 -0.051   0.000   0.000  -0.000   0.000  -2.543  -0.000  -0.000
  0.000  -0.051   0.000  -0.000   0.000  -0.000  -2.543  -0.000
  0.000   0.000  -0.010   0.000  -0.000  -0.000  -0.000  -2.561
 -0.000  -0.000   0.000  -0.051  -0.000   0.000   0.000  -0.000
  0.000   0.000  -0.000  -0.000  -0.010  -0.000  -0.000   0.000
 -2.543  -0.000  -0.000   0.000  -0.000   2.505   0.000   0.000
 -0.000  -2.543  -0.000   0.000  -0.000   0.000   2.505   0.000
 -0.000  -0.000  -2.561  -0.000   0.000   0.000   0.000   2.514
  0.000   0.000  -0.000  -2.543   0.000  -0.000  -0.000   0.000
 -0.000  -0.000   0.000   0.000  -2.561   0.000   0.000  -0.000
  0.000  -0.000   0.000  -0.000  -0.000   0.000  -0.000  -0.000
 -0.000   0.000   0.000   0.000   0.000   0.000  -0.000   0.000
  0.000  -0.000   0.000   0.000   0.000  -0.000   0.000   0.000
  0.000   0.000  -0.000   0.000  -0.000   0.000   0.000   0.000
  0.000   0.000  -0.000  -0.000   0.000   0.000   0.000   0.000
 -0.000   0.000  -0.000  -0.000  -0.000   0.000  -0.000   0.000
 -0.000  -0.000   0.000  -0.000   0.000   0.000   0.000  -0.000
 -0.000  -0.000   0.000   0.000  -0.000   0.000   0.000   0.000
 total augmentation occupancy for first ion, spin component:           1
  1.769   0.000  -0.000  -0.000  -0.000   0.107   0.000   0.000   0.000   0.000   0.000  -0.000  -0.000   0.000   0.000  -0.000
 -0.000   1.769  -0.000   0.000   0.000  -0.000   0.107  -0.000  -0.000  -0.000   0.000   0.000  -0.000  -0.000  -0.000  -0.000
 -0.000  -0.000   1.830  -0.000  -0.000   0.000   0.000   0.021  -0.000  -0.000   0.000  -0.000  -0.000  -0.000   0.000   0.000
 -0.000   0.000  -0.000   1.769  -0.000  -0.000  -0.000  -0.000   0.107   0.000  -0.000  -0.000   0.000   0.000  -0.000   0.000
 -0.000  -0.000  -0.000  -0.000   1.830   0.000  -0.000   0.000   0.000   0.021  -0.000  -0.000   0.000   0.000  -0.000  -0.000
  0.107  -0.000   0.000  -0.000  -0.000   0.115  -0.000   0.000  -0.000   0.000  -0.000   0.000   0.000   0.000   0.000   0.000
  0.000   0.107   0.000  -0.000  -0.000   0.000   0.115  -0.000  -0.000  -0.000  -0.000  -0.000   0.000  -0.000  -0.000   0.000
  0.000  -0.000   0.021  -0.000   0.000  -0.000  -0.000   0.118  -0.000   0.000  -0.000   0.000  -0.000  -0.000  -0.000   0.000
  0.000   0.000  -0.000   0.107   0.000  -0.000  -0.000  -0.000   0.115   0.000   0.000   0.000   0.000  -0.000   0.000   0.000
 -0.000  -0.000   0.000   0.000   0.021  -0.000  -0.000  -0.000   0.000   0.118  -0.000  -0.000  -0.000   0.000  -0.000   0.000
 -0.000   0.000   0.000   0.000  -0.000  -0.000  -0.000  -0.000   0.000  -0.000   1.292  -0.337  -0.000  -0.000   0.000  -0.000
  0.000   0.000  -0.000  -0.000  -0.000   0.000  -0.000   0.000   0.000  -0.000  -0.337   0.113   0.000  -0.000  -0.000   0.000
 -0.000  -0.000   0.000   0.000  -0.000   0.000   0.000  -0.000   0.000   0.000  -0.000  -0.000   0.222   0.000   0.000  -0.017
  0.000  -0.000   0.000   0.000  -0.000   0.000  -0.000  -0.000  -0.000   0.000  -0.000   0.000   0.000   0.222   0.000  -0.000
  0.000  -0.000  -0.000  -0.000   0.000   0.000  -0.000  -0.000   0.000  -0.000   0.000  -0.000   0.000   0.000   0.222   0.000
 -0.000  -0.000   0.000   0.000  -0.000   0.000   0.000   0.000  -0.000   0.000  -0.000  -0.000  -0.017  -0.000   0.000   0.002
 -0.000   0.000  -0.000  -0.000   0.000   0.000  -0.000   0.000   0.000  -0.000   0.000   0.000   0.000  -0.017   0.000  -0.000
 -0.000   0.000   0.000   0.000  -0.000  -0.000  -0.000   0.000   0.000  -0.000   0.000  -0.000  -0.000  -0.000  -0.017  -0.000
 total augmentation occupancy for first ion, spin component:           2
 -0.000   0.000  -0.000  -0.000  -0.000   0.000   0.000  -0.000   0.000  -0.000   0.000   0.000   0.000  -0.000  -0.000   0.000
  0.000  -0.000   0.000  -0.000   0.000   0.000   0.000   0.000   0.000  -0.000  -0.000  -0.000   0.000   0.000   0.000   0.000
  0.000   0.000   0.000  -0.000  -0.000  -0.000   0.000   0.000   0.000  -0.000   0.000  -0.000   0.000  -0.000  -0.000  -0.000
 -0.000  -0.000  -0.000  -0.000  -0.000   0.000   0.000   0.000   0.000   0.000  -0.000   0.000   0.000  -0.000   0.000  -0.000
 -0.000   0.000  -0.000  -0.000   0.000   0.000  -0.000   0.000  -0.000   0.000   0.000   0.000  -0.000   0.000   0.000  -0.000
  0.000   0.000  -0.000   0.000  -0.000  -0.000   0.000   0.000  -0.000  -0.000   0.000  -0.000  -0.000  -0.000   0.000  -0.000
  0.000   0.000   0.000   0.000  -0.000   0.000  -0.000  -0.000   0.000  -0.000  -0.000  -0.000  -0.000   0.000   0.000   0.000
 -0.000   0.000   0.000   0.000   0.000   0.000  -0.000  -0.000  -0.000   0.000   0.000  -0.000  -0.000   0.000  -0.000  -0.000
  0.000   0.000   0.000   0.000  -0.000  -0.000   0.000  -0.000  -0.000  -0.000  -0.000   0.000  -0.000   0.000   0.000   0.000
 -0.000  -0.000   0.000   0.000   0.000  -0.000   0.000  -0.000   0.000  -0.000  -0.000  -0.000   0.000   0.000  -0.000   0.000
  0.000  -0.000   0.000  -0.000   0.000   0.000  -0.000   0.000  -0.000  -0.000   0.000   0.000   0.000  -0.000   0.000  -0.000
  0.000  -0.000  -0.000   0.000  -0.000  -0.000  -0.000  -0.000   0.000   0.000   0.000  -0.000  -0.000   0.000   0.000   0.000
  0.000   0.000  -0.000   0.000  -0.000  -0.000  -0.000   0.000  -0.000   0.000   0.000  -0.000   0.000   0.000   0.000  -0.000
 -0.000   0.000  -0.000  -0.000  -0.000  -0.000   0.000  -0.000   0.000   0.000  -0.000   0.000   0.000   0.000   0.000  -0.000
 -0.000   0.000  -0.000   0.000  -0.000   0.000   0.000   0.000   0.000   0.000   0.000   0.000   0.000   0.000   0.000  -0.000
  0.000   0.000   0.000   0.000  -0.000  -0.000   0.000   0.000  -0.000  -0.000  -0.000   0.000  -0.000  -0.000  -0.000   0.000
  0.000  -0.000   0.000   0.000  -0.000  -0.000  -0.000  -0.000   0.000   0.000   0.000   0.000   0.000  -0.000   0.000   0.000
  0.000  -0.000   0.000  -0.000   0.000  -0.000   0.000   0.000   0.000  -0.000   0.000  -0.000   0.000   0.000  -0.000   0.000


------------------------ aborting loop because EDIFF is reached ----------------------------------------


    CHARGE:  cpu time    0.0218: real time    0.0218
    FORLOC:  cpu time    0.0002: real time    0.0002
    FORNL :  cpu time    0.0166: real time    0.0166
    STRESS:  cpu time    0.0455: real time    0.0455
    FORCOR:  cpu time    0.0056: real time    0.0056
    FORHAR:  cpu time    0.0007: real time    0.0007
    MIXING:  cpu time    0.0014: real time    0.0014
    OFIELD:  cpu time    0.0000: real time    0.0000

  FORCE on cell =-STRESS in cart. coord.  units (eV):
  Direction    XX          YY          ZZ          XY          YZ          ZX
  --------------------------------------------------------------------------------------
  Alpha Z   191.61486   191.61486   191.61486
  Ewald   -1260.38830 -1260.38830 -1260.38830    -0.00000    -0.00000    -0.00000
  Hartree   295.17037   295.17037   295.17037    -0.00000    -0.00000    -0.00000
  E(xc)    -220.24321  -220.24321  -220.24321     0.00000    -0.00000     0.00000
  Local       8.23346     8.23346     8.23346     0.00000     0.00000    -0.00000
  n-local   -29.19844   -33.65826   -29.49706     6.41944     4.15967     5.11171
  augment   703.82656   703.82656   703.82656    -0.00000     0.00000     0.00000
  Kinetic   318.85378   312.65896   309.32629     1.10305     0.07085     0.38321
  Fock        0.00000     0.00000     0.00000     0.00000     0.00000     0.00000
  -------------------------------------------------------------------------------------
  Total       1.04216     1.04216     1.04216    -0.00000     0.00000     0.00000
  in kB      39.20882    39.20882    39.20882    -0.00000     0.00000     0.00000
  external pressure =       39.21 kB  Pullay stress =        0.00 kB


 VOLUME and BASIS-vectors are now :
 -----------------------------------------------------------------------------
  energy-cutoff  :      525.00
  volume of cell :       42.59
      direct lattice vectors                 reciprocal lattice vectors
     3.492102000  0.000000000  0.000000000     0.286360479  0.000000000  0.000000000
     0.000000000  3.492102000  0.000000000     0.000000000  0.286360479  0.000000000
     0.000000000  0.000000000  3.492102000     0.000000000  0.000000000  0.286360479

  length of vectors
     3.492102000  3.492102000  3.492102000     0.286360479  0.286360479  0.286360479


 FORCES acting on ions
    electron-ion (+dipol)            ewald-force                    non-local-force                 convergence-correction
 -----------------------------------------------------------------------------------------------
   -.193E-13 -.231E-13 -.790E-13   0.445E-14 -.162E-13 -.473E-14   0.103E-24 -.155E-24 -.724E-24   -.477E-13 0.193E-13 -.446E-14
   -.192E-13 0.754E-12 0.682E-12   0.423E-14 0.112E-13 0.554E-14   0.000E+00 0.165E-23 0.103E-24   -.486E-13 -.807E-14 0.225E-13
   0.764E-12 -.288E-13 -.795E-12   -.336E-14 -.107E-13 0.556E-14   0.620E-24 0.000E+00 0.517E-24   -.325E-13 0.377E-13 -.146E-13
   0.770E-12 0.735E-12 0.666E-12   -.357E-14 0.167E-13 -.411E-14   0.109E-23 -.207E-24 0.103E-24   -.267E-13 0.940E-16 -.234E-13
 -----------------------------------------------------------------------------------------------
   0.150E-11 0.144E-11 0.474E-12   0.176E-14 0.994E-15 0.227E-14   0.181E-23 0.129E-23 0.000E+00   -.156E-12 0.491E-13 -.200E-13
 
 
 POSITION                                       TOTAL-FORCE (eV/Angst)
 -----------------------------------------------------------------------------------
      0.00000      0.00000      0.00000        -0.000000     -0.000000      0.000000
      0.00000      1.74605      1.74605        -0.000000     -0.000000     -0.000000
      1.74605      0.00000      1.74605         0.000000      0.000000     -0.000000
      1.74605      1.74605      0.00000         0.000000     -0.000000      0.000000
 -----------------------------------------------------------------------------------
    total drift:                                0.000000      0.000000      0.000000


--------------------------------------------------------------------------------------------------------



  FREE ENERGIE OF THE ION-ELECTRON SYSTEM (eV)
  ---------------------------------------------------
  free  energy   TOTEN  =       -21.60481696 eV

  energy  without entropy=      -21.52954415  energy(sigma->0) =      -21.57972603
 


--------------------------------------------------------------------------------------------------------


    POTLOK:  cpu time    0.0126: real time    0.0126


--------------------------------------------------------------------------------------------------------


     LOOP+:  cpu time    5.7683: real time    5.8252
    4ORBIT:  cpu time    0.0000: real time    0.0000

 total amount of memory used by VASP MPI-rank0    33511. kBytes
=======================================================================

   base      :      30000. kBytes
   nonl-proj :        757. kBytes
   fftplans  :        234. kBytes
   grid      :       2073. kBytes
   one-center:        124. kBytes
   wavefun   :        323. kBytes
 
  
  
 General timing and accounting informations for this job:
 ========================================================
  
                  Total CPU time used (sec):        6.915
                            User time (sec):        6.810
                          System time (sec):        0.105
                         Elapsed time (sec):        7.162
  
                   Maximum memory used (kb):       41948.
                   Average memory used (kb):           0.
  
                          Minor page faults:        23044
                          Major page faults:            0
                 Voluntary context switches:          410
