# ['Ni']

28 atoms
1 atom types

    0.0000     2.4871 xlo xhi
    0.0000     4.3078 ylo yhi
    0.0000    28.4300 zlo zhi

    0.0000     0.0000     0.0000 xy xz yz

Atoms

1 1     0.0000     0.0000     0.0000
2 1     1.2436     2.1539     0.0000
3 1     1.2436     0.7180     2.0307
4 1     0.0000     2.8719     2.0307
5 1     0.0000     1.4359     4.0614
6 1     1.2436     3.5898     4.0614
7 1     0.0000     0.0000     6.0922
8 1     1.2436     2.1539     6.0922
9 1     1.2436     0.7180     8.1228
10 1     0.0000     2.8719     8.1228
11 1     0.0000     1.4359    10.1536
12 1     1.2436     3.5898    10.1536
13 1     0.0000     0.0000    12.1843
14 1     1.2436     2.1539    12.1843
15 1     0.0000     1.4359    14.2150
16 1     1.2436     3.5898    14.2150
17 1     0.0000     0.0000    16.2457
18 1     1.2436     2.1539    16.2457
19 1     1.2436     0.7180    18.2764
20 1     0.0000     2.8719    18.2764
21 1     0.0000     1.4359    20.3071
22 1     1.2436     3.5898    20.3071
23 1     0.0000     0.0000    22.3378
24 1     1.2436     2.1539    22.3378
25 1     1.2436     0.7180    24.3686
26 1     0.0000     2.8719    24.3686
27 1     0.0000     1.4359    26.3993
28 1     1.2436     3.5898    26.3993
