# ['Ni']

10 atoms
1 atom types

    0.0000     3.1963 xlo xhi
    0.0000     2.2881 ylo yhi
    0.0000    22.8805 zlo zhi

    0.0000     0.0000     0.0000 xy xz yz

Atoms

1 1     0.0000     0.0000     0.0000
2 1     1.5982     1.1440     1.1440
3 1     0.0000     0.0000     2.2881
4 1     1.5982     1.1440     3.4321
5 1     0.0000     0.0000     4.5761
6 1     1.5982     1.1440     5.7201
7 1     0.0000     0.0000     6.8642
8 1     1.5982     1.1440     8.0082
9 1     0.0000     0.0000     9.1522
10 1     1.5982     1.1440    10.2962
