# ['Ni']

18 atoms
1 atom types

    0.0000     2.4838 xlo xhi
    0.0000     4.3022 ylo yhi
    0.0000    36.4991 zlo zhi

    0.0000     0.0000    -0.0004 xy xz yz

Atoms

1 1     0.0000     0.0000     0.0000
2 1     1.2419     0.7170     2.0277
3 1     0.0000     1.4341     4.0555
4 1     1.2419     2.1511     0.0000
5 1     0.0000     2.8681     2.0277
6 1     1.2419     3.5852     4.0555
7 1     0.0000     0.0000     6.0832
8 1     1.2419     0.7170     8.1109
9 1     0.0000     1.4341    10.1387
10 1     1.2419     2.1511     6.0832
11 1     0.0000     2.8681     8.1109
12 1     1.2419     3.5852    10.1387
13 1     0.0000     0.0000    12.1664
14 1     1.2419     0.7170    14.1941
15 1     0.0000     1.4341    16.2218
16 1     1.2419     2.1511    12.1664
17 1     0.0000     2.8681    14.1941
18 1     1.2419     3.5852    16.2218
