    2    2    1    1
  0.9563318E+01  0.3001819E-09  0.3001820E-09  0.3001819E-09  0.5000000E-15
  1.000000000000000E-004
  CAR 
 automatically generated by pyflamestk   
      8     10     16
 
  0.1250000E+00  0.1250000E+00  0.1250000E+00  0.3125000E-01
    1      -13.572836   1.000000
    2        2.468728   1.000000
    3        3.315353   1.000000
    4        3.315355   1.000000
    5        8.833794   0.000000
    6       17.412305   0.000000
    7       19.428829   0.000000
    8       19.428831   0.000000
    9       23.679189   0.000000
   10       23.679192   0.000000
   11       25.017720   0.000000
   12       27.455093   0.000000
   13       28.886168   0.000000
   14       28.886172   0.000000
   15       39.150652   0.000000
   16       41.052937   0.000000
 
  0.3750000E+00  0.1250000E+00  0.1250000E+00  0.9375000E-01
    1      -12.913790   1.000000
    2        0.296255   1.000000
    3        2.453637   1.000000
    4        3.017024   1.000000
    5       11.250058   0.000000
    6       15.350620   0.000000
    7       18.762703   0.000000
    8       20.430441   0.000000
    9       22.251031   0.000000
   10       24.481834   0.000000
   11       26.600311   0.000000
   12       31.261388   0.000000
   13       32.535251   0.000000
   14       33.410391   0.000000
   15       35.780902   0.000000
   16       39.074301   0.000000
 
 -0.3750000E+00  0.1250000E+00  0.1250000E+00  0.9375000E-01
    1      -12.472719   1.000000
    2       -0.837637   1.000000
    3        2.302500   1.000000
    4        2.677341   1.000000
    5       11.837253   0.000000
    6       15.561552   0.000000
    7       18.052083   0.000000
    8       19.868295   0.000000
    9       23.858348   0.000000
   10       26.108047   0.000000
   11       26.204094   0.000000
   12       32.487852   0.000000
   13       33.083982   0.000000
   14       33.429377   0.000000
   15       36.010809   0.000000
   16       37.721677   0.000000
 
 -0.1250000E+00  0.1250000E+00  0.1250000E+00  0.9375000E-01
    1      -13.205907   1.000000
    2        1.185300   1.000000
    3        2.944632   1.000000
    4        2.948501   1.000000
    5       10.422491   0.000000
    6       15.591434   0.000000
    7       19.556786   0.000000
    8       20.037429   0.000000
    9       21.212819   0.000000
   10       25.058675   0.000000
   11       27.057947   0.000000
   12       30.155941   0.000000
   13       30.440736   0.000000
   14       31.194010   0.000000
   15       37.416053   0.000000
   16       39.178131   0.000000
 
  0.3750000E+00  0.3750000E+00  0.1250000E+00  0.9375000E-01
    1      -12.675785   1.000000
    2        0.109826   1.000000
    3        2.253165   1.000000
    4        2.486332   1.000000
    5       12.353070   0.000000
    6       13.995009   0.000000
    7       17.306446   0.000000
    8       20.936314   0.000000
    9       21.393333   0.000000
   10       27.239320   0.000000
   11       30.345148   0.000000
   12       30.613980   0.000000
   13       32.527389   0.000000
   14       35.019209   0.000000
   15       36.672290   0.000000
   16       38.088455   0.000000
 
 -0.3750000E+00  0.3750000E+00  0.1250000E+00  0.1875000E+00
    1      -12.259570   1.000000
    2       -0.008493   1.000000
    3        0.992014   1.000000
    4        2.074613   1.000000
    5       13.867192   0.000000
    6       14.905851   0.000000
    7       15.697751   0.000000
    8       19.711172   0.000000
    9       23.156734   0.000000
   10       26.609925   0.000000
   11       30.173294   0.000000
   12       31.595674   0.000000
   13       32.863723   0.000000
   14       36.537975   0.000000
   15       39.109361   0.000000
   16       41.328762   0.000000
 
 -0.1250000E+00  0.3750000E+00  0.1250000E+00  0.1875000E+00
    1      -12.518526   1.000000
    2       -0.211812   1.000000
    3        1.734949   1.000000
    4        2.575677   1.000000
    5       12.711066   0.000000
    6       14.904912   0.000000
    7       17.078820   0.000000
    8       20.274221   0.000000
    9       22.843638   0.000000
   10       25.518120   0.000000
   11       29.053005   0.000000
   12       31.844787   0.000000
   13       32.426509   0.000000
   14       35.091206   0.000000
   15       35.734155   0.000000
   16       41.235698   0.000000
 
 -0.3750000E+00 -0.3750000E+00  0.1250000E+00  0.9375000E-01
    1      -12.296298   1.000000
    2       -0.373109   1.000000
    3        1.734721   1.000000
    4        2.191690   1.000000
    5       12.941513   0.000000
    6       13.624096   0.000000
    7       16.148459   0.000000
    8       21.647293   0.000000
    9       21.658255   0.000000
   10       29.127000   0.000000
   11       29.558672   0.000000
   12       32.141481   0.000000
   13       32.856057   0.000000
   14       38.004947   0.000000
   15       38.386586   0.000000
   16       41.317576   0.000000
 
  0.3750000E+00  0.3750000E+00  0.3750000E+00  0.3125000E-01
    1      -12.712050   1.000000
    2       -0.567094   1.000000
    3        2.872676   1.000000
    4        2.872677   1.000000
    5       11.047437   0.000000
    6       15.566903   0.000000
    7       19.663892   0.000000
    8       19.663895   0.000000
    9       24.253278   0.000000
   10       24.593204   0.000000
   11       24.593208   0.000000
   12       32.107907   0.000000
   13       33.427802   0.000000
   14       33.427805   0.000000
   15       37.041688   0.000000
   16       37.041694   0.000000
 
 -0.3750000E+00  0.3750000E+00  0.3750000E+00  0.9375000E-01
    1      -12.343939   1.000000
    2       -0.250677   1.000000
    3        1.098025   1.000000
    4        2.545255   1.000000
    5       13.190032   0.000000
    6       15.364057   0.000000
    7       16.270073   0.000000
    8       20.586028   0.000000
    9       22.669814   0.000000
   10       25.694308   0.000000
   11       29.273215   0.000000
   12       31.815072   0.000000
   13       32.237838   0.000000
   14       35.576602   0.000000
   15       37.461268   0.000000
   16       40.335054   0.000000
