<?xml version="1.0" encoding="ISO-8859-1"?>
<modeling>
 <generator>
  <i name="program" type="string">vasp </i>
  <i name="version" type="string">5.4.1  </i>
  <i name="subversion" type="string">24Jun15 (build Jun 05 2017 10:38:15) complex                          parallel </i>
  <i name="platform" type="string">IFC91_ompi </i>
  <i name="date" type="string">2017 08 29 </i>
  <i name="time" type="string">20:25:38 </i>
 </generator>
 <incar>
  <i type="string" name="SYSTEM"> automatically generated by pyflamestk</i>
  <i type="int" name="ISTART">     0</i>
  <i type="string" name="PREC">high                   ! avoid wrap aro</i>
  <i type="string" name="ALGO"> Normal                 ! blocked Davids</i>
  <i type="int" name="ISPIN">     1</i>
  <i type="int" name="ICHARG">     0</i>
  <i type="int" name="NELM">    40</i>
  <i name="EDIFF">      0.00000100</i>
  <i name="ENCUT">   1025.00000000</i>
  <i type="logical" name="LREAL"> F  </i>
  <i type="int" name="ISMEAR">     0</i>
  <i name="SIGMA">      0.05000000</i>
  <i type="logical" name="LWAVE"> F  </i>
  <i type="logical" name="LCHARG"> F  </i>
  <i type="logical" name="LVTOT"> F  </i>
  <v type="int" name="KPOINT_BSE">    -1     0     0     0</v>
  <i type="int" name="NELM">    40</i>
 </incar>
 <kpoints>
  <generation param="Monkhorst-Pack">
   <v type="int" name="divisions">       4        4        4 </v>
   <v name="usershift">      0.00000000       0.00000000       0.00000000 </v>
   <v name="genvec1">      0.25000000      -0.00000000       0.00000000 </v>
   <v name="genvec2">      0.00000000       0.25000000      -0.00000000 </v>
   <v name="genvec3">      0.00000000       0.00000000       0.25000000 </v>
   <v name="shift">      0.50000000       0.50000000       0.50000000 </v>
  </generation>
  <varray name="kpointlist" >
   <v>       0.12500000       0.12500000       0.12500000 </v>
   <v>       0.37500000       0.12500000       0.12500000 </v>
   <v>      -0.37500000       0.12500000       0.12500000 </v>
   <v>      -0.12500000       0.12500000       0.12500000 </v>
   <v>       0.37500000       0.37500000       0.12500000 </v>
   <v>      -0.37500000       0.37500000       0.12500000 </v>
   <v>      -0.12500000       0.37500000       0.12500000 </v>
   <v>      -0.37500000      -0.37500000       0.12500000 </v>
   <v>       0.37500000       0.37500000       0.37500000 </v>
   <v>      -0.37500000       0.37500000       0.37500000 </v>
  </varray>
  <varray name="weights" >
   <v>       0.03125000 </v>
   <v>       0.09375000 </v>
   <v>       0.09375000 </v>
   <v>       0.09375000 </v>
   <v>       0.09375000 </v>
   <v>       0.18750000 </v>
   <v>       0.18750000 </v>
   <v>       0.09375000 </v>
   <v>       0.03125000 </v>
   <v>       0.09375000 </v>
  </varray>
 </kpoints>
 <parameters>
  <separator name="general" >
   <i type="string" name="SYSTEM">automatically generated by pyflamestk</i>
   <i type="logical" name="LCOMPAT"> F  </i>
  </separator>
  <separator name="electronic" >
   <i type="string" name="PREC">high</i>
   <i name="ENMAX">   1025.00000000</i>
   <i name="ENAUG">    888.80400000</i>
   <i name="EDIFF">      0.00000100</i>
   <i type="int" name="IALGO">    38</i>
   <i type="int" name="IWAVPR">    10</i>
   <i type="int" name="NBANDS">    16</i>
   <i name="NELECT">      8.00000000</i>
   <i type="int" name="TURBO">     0</i>
   <i type="int" name="IRESTART">     0</i>
   <i type="int" name="NREBOOT">     0</i>
   <i type="int" name="NMIN">     0</i>
   <i name="EREF">      0.00000000</i>
   <separator name="electronic smearing" >
    <i type="int" name="ISMEAR">     0</i>
    <i name="SIGMA">      0.05000000</i>
    <i name="KSPACING">      0.50000000</i>
    <i type="logical" name="KGAMMA"> T  </i>
   </separator>
   <separator name="electronic projectors" >
    <i type="logical" name="LREAL"> F  </i>
    <v name="ROPT">      0.00000000      0.00000000</v>
    <i type="int" name="LMAXPAW">  -100</i>
    <i type="int" name="LMAXMIX">     2</i>
    <i type="logical" name="NLSPLINE"> F  </i>
   </separator>
   <separator name="electronic startup" >
    <i type="int" name="ISTART">     0</i>
    <i type="int" name="ICHARG">     0</i>
    <i type="int" name="INIWAV">     1</i>
   </separator>
   <separator name="electronic spin" >
    <i type="int" name="ISPIN">     1</i>
    <i type="logical" name="LNONCOLLINEAR"> F  </i>
    <v name="MAGMOM">      1.00000000      1.00000000</v>
    <i name="NUPDOWN">     -1.00000000</i>
    <i type="logical" name="LSORBIT"> F  </i>
    <v name="SAXIS">      0.00000000      0.00000000      1.00000000</v>
    <i type="logical" name="LSPIRAL"> F  </i>
    <v name="QSPIRAL">      0.00000000      0.00000000      0.00000000</v>
    <i type="logical" name="LZEROZ"> F  </i>
   </separator>
   <separator name="electronic exchange-correlation" >
    <i type="logical" name="LASPH"> F  </i>
    <i type="logical" name="LMETAGGA"> F  </i>
   </separator>
   <separator name="electronic convergence" >
    <i type="int" name="NELM">    40</i>
    <i type="int" name="NELMDL">    -5</i>
    <i type="int" name="NELMIN">     2</i>
    <i name="ENINI">   1025.00000000</i>
    <separator name="electronic convergence detail" >
     <i type="logical" name="LDIAG"> T  </i>
     <i type="logical" name="LSUBROT"> F  </i>
     <i name="WEIMIN">      0.00000000</i>
     <i name="EBREAK">      0.00000002</i>
     <i name="DEPER">      0.30000000</i>
     <i type="int" name="NRMM">     4</i>
     <i name="TIME">      0.40000000</i>
    </separator>
   </separator>
   <separator name="electronic mixer" >
    <i name="AMIX">      0.40000000</i>
    <i name="BMIX">      1.00000000</i>
    <i name="AMIN">      0.10000000</i>
    <i name="AMIX_MAG">      1.60000000</i>
    <i name="BMIX_MAG">      1.00000000</i>
    <separator name="electronic mixer details" >
     <i type="int" name="IMIX">     4</i>
     <i type="logical" name="MIXFIRST"> F  </i>
     <i type="int" name="MAXMIX">   -45</i>
     <i name="WC">    100.00000000</i>
     <i type="int" name="INIMIX">     1</i>
     <i type="int" name="MIXPRE">     1</i>
     <i type="int" name="MREMOVE">     5</i>
    </separator>
   </separator>
   <separator name="electronic dipolcorrection" >
    <i type="logical" name="LDIPOL"> F  </i>
    <i type="logical" name="LMONO"> F  </i>
    <i type="int" name="IDIPOL">     0</i>
    <i name="EPSILON">      1.00000000</i>
    <v name="DIPOL">   -100.00000000   -100.00000000   -100.00000000</v>
    <i name="EFIELD">      0.00000000</i>
   </separator>
  </separator>
  <separator name="grids" >
   <i type="int" name="NGX">    32</i>
   <i type="int" name="NGY">    32</i>
   <i type="int" name="NGZ">    32</i>
   <i type="int" name="NGXF">    40</i>
   <i type="int" name="NGYF">    40</i>
   <i type="int" name="NGZF">    40</i>
   <i type="logical" name="ADDGRID"> F  </i>
  </separator>
  <separator name="ionic" >
   <i type="int" name="NSW">     0</i>
   <i type="int" name="IBRION">    -1</i>
   <i type="int" name="ISIF">     2</i>
   <i name="PSTRESS">      0.00000000</i>
   <i name="EDIFFG">      0.00001000</i>
   <i type="int" name="NFREE">     0</i>
   <i name="POTIM">      0.50000000</i>
   <i name="SMASS">     -3.00000000</i>
   <i name="SCALEE">      1.00000000</i>
  </separator>
  <separator name="ionic md" >
   <i name="TEBEG">      0.00010000</i>
   <i name="TEEND">      0.00010000</i>
   <i type="int" name="NBLOCK">     1</i>
   <i type="int" name="KBLOCK">     1</i>
   <i type="int" name="NPACO">   256</i>
   <i name="APACO">     16.00000000</i>
  </separator>
  <separator name="symmetry" >
   <i type="int" name="ISYM">     2</i>
   <i name="SYMPREC">      0.00001000</i>
  </separator>
  <separator name="dos" >
   <i type="logical" name="LORBIT"> F  </i>
   <v name="RWIGS">     -1.00000000     -1.00000000</v>
   <i type="int" name="NEDOS">   301</i>
   <i name="EMIN">     10.00000000</i>
   <i name="EMAX">    -10.00000000</i>
   <i name="EFERMI">      0.00000000</i>
  </separator>
  <separator name="writing" >
   <i type="int" name="NWRITE">     2</i>
   <i type="logical" name="LWAVE"> F  </i>
   <i type="logical" name="LCHARG"> F  </i>
   <i type="logical" name="LPARD"> F  </i>
   <i type="logical" name="LVTOT"> F  </i>
   <i type="logical" name="LVHAR"> F  </i>
   <i type="logical" name="LELF"> F  </i>
   <i type="logical" name="LOPTICS"> F  </i>
   <v name="STM">      0.00000000      0.00000000      0.00000000      0.00000000      0.00000000      0.00000000      0.00000000</v>
  </separator>
  <separator name="performance" >
   <i type="int" name="NPAR">    16</i>
   <i type="int" name="NSIM">     4</i>
   <i type="int" name="NBLK">    -1</i>
   <i type="logical" name="LPLANE"> T  </i>
   <i type="logical" name="LSCALAPACK"> T  </i>
   <i type="logical" name="LSCAAWARE"> F  </i>
   <i type="logical" name="LSCALU"> F  </i>
   <i type="logical" name="LASYNC"> F  </i>
   <i type="logical" name="LORBITALREAL"> F  </i>
  </separator>
  <separator name="miscellaneous" >
   <i type="int" name="IDIOT">     3</i>
   <i type="logical" name="LMUSIC"> F  </i>
   <v name="POMASS">     16.00000000     24.30500000</v>
   <v name="DARWINR">      0.00000000      0.00000000</v>
   <v name="DARWINV">      1.00000000      1.00000000</v>
   <i type="logical" name="LCORR"> T  </i>
  </separator>
  <i type="logical" name="GGA_COMPAT"> T  </i>
  <i type="logical" name="LBERRY"> F  </i>
  <i type="int" name="ICORELEVEL">     0</i>
  <i type="logical" name="LDAU"> F  </i>
  <i type="int" name="I_CONSTRAINED_M">     0</i>
  <separator name="electronic exchange-correlation" >
   <i type="string" name="GGA">--</i>
   <i type="int" name="VOSKOWN">     0</i>
   <i type="logical" name="LHFCALC"> F  </i>
   <i type="string" name="PRECFOCK"></i>
   <i type="logical" name="LSYMGRAD"> F  </i>
   <i type="logical" name="LHFONE"> F  </i>
   <i type="logical" name="LRHFCALC"> F  </i>
   <i type="logical" name="LTHOMAS"> F  </i>
   <i type="logical" name="LMODELHF"> F  </i>
   <i name="ENCUT4O">     -1.00000000</i>
   <i type="int" name="EXXOEP">     0</i>
   <i type="int" name="FOURORBIT">     0</i>
   <i name="AEXX">      0.00000000</i>
   <i name="HFALPHA">      0.00000000</i>
   <i name="MCALPHA">      0.00000000</i>
   <i name="ALDAX">      1.00000000</i>
   <i name="AGGAX">      1.00000000</i>
   <i name="ALDAC">      1.00000000</i>
   <i name="AGGAC">      1.00000000</i>
   <i type="int" name="NKREDX">     1</i>
   <i type="int" name="NKREDY">     1</i>
   <i type="int" name="NKREDZ">     1</i>
   <i type="logical" name="SHIFTRED"> F  </i>
   <i type="logical" name="ODDONLY"> F  </i>
   <i type="logical" name="EVENONLY"> F  </i>
   <i type="int" name="LMAXFOCK">     0</i>
   <i type="int" name="NMAXFOCKAE">     0</i>
   <i type="logical" name="LFOCKAEDFT"> F  </i>
   <i name="HFSCREEN">      0.00000000</i>
   <i name="HFSCREENC">      0.00000000</i>
   <i type="int" name="NBANDSGWLOW">     0</i>
  </separator>
  <separator name="vdW DFT" >
   <i type="logical" name="LUSE_VDW"> F  </i>
   <i name="Zab_VDW">     -0.84910000</i>
   <i name="PARAM1">      0.12340000</i>
   <i name="PARAM2">      1.00000000</i>
   <i name="PARAM3">      0.00000000</i>
  </separator>
  <separator name="model GW" >
   <i type="int" name="MODEL_GW">     0</i>
   <i name="MODEL_EPS0">      5.73799088</i>
   <i name="MODEL_ALPHA">      1.00000000</i>
  </separator>
  <separator name="linear response parameters" >
   <i type="logical" name="LEPSILON"> F  </i>
   <i type="logical" name="LRPA"> F  </i>
   <i type="logical" name="LNABLA"> F  </i>
   <i type="logical" name="LVEL"> F  </i>
   <i type="int" name="KINTER">     0</i>
   <i name="CSHIFT">      0.10000000</i>
   <i name="OMEGAMAX">     -1.00000000</i>
   <i name="DEG_THRESHOLD">      0.00200000</i>
  </separator>
  <separator name="orbital magnetization" >
   <i type="logical" name="NUCIND"> F  </i>
   <v name="MAGPOS">      0.00000000      0.00000000      0.00000000</v>
   <i type="logical" name="LNICSALL"> T  </i>
   <i type="logical" name="ORBITALMAG"> F  </i>
   <i type="logical" name="LMAGBLOCH"> F  </i>
   <i type="logical" name="LCHIMAG"> F  </i>
   <i type="logical" name="LGAUGE"> T  </i>
   <i type="int" name="MAGATOM">     0</i>
   <v name="MAGDIPOL">      0.00000000      0.00000000      0.00000000</v>
   <v name="AVECCONST">      0.00000000      0.00000000      0.00000000</v>
  </separator>
  <separator name="response functions" >
   <i type="logical" name="LADDER"> F  </i>
   <i type="logical" name="LFXC"> F  </i>
   <i type="logical" name="LHARTREE"> T  </i>
   <i type="int" name="IBSE">     0</i>
   <v type="int" name="KPOINT">    -1     0     0     0</v>
   <i type="logical" name="LTCTE"> F  </i>
   <i type="logical" name="LTETE"> F  </i>
   <i type="logical" name="LTRIPLET"> F  </i>
   <i type="logical" name="LFXCEPS"> F  </i>
   <i type="logical" name="LFXHEG"> F  </i>
   <i type="int" name="NATURALO">     0</i>
   <i type="logical" name="L2ORDER"> F  </i>
   <i type="logical" name="LUSEW"> F  </i>
   <i name="ENCUTGW">     -2.00000000</i>
   <i name="ENCUTGWSOFT">     -2.00000000</i>
   <i name="ENCUTLF">     -1.00000000</i>
   <i type="int" name="LMAXMP2">    -1</i>
   <i name="SCISSOR">      0.00000000</i>
   <i type="int" name="NOMEGA">     0</i>
   <i type="int" name="NOMEGAR">     0</i>
   <i type="int" name="NBANDSGW">    -1</i>
   <i type="int" name="NBANDSO">    -1</i>
   <i type="int" name="NBANDSV">    -1</i>
   <i type="int" name="NELM">    40</i>
   <i type="int" name="NELMHF">     1</i>
   <i type="int" name="DIM">     3</i>
   <i type="int" name="ANTIRES">     0</i>
   <i name="OMEGAMAX">    -30.00000000</i>
   <i name="OMEGAMIN">    -30.00000000</i>
   <i name="OMEGATL">   -200.00000000</i>
   <i type="int" name="OMEGAGRID">     0</i>
   <i name="CSHIFT">     -0.10000000</i>
   <i type="logical" name="SELFENERGY"> F  </i>
   <i type="logical" name="LSPECTRAL"> F  </i>
   <i type="logical" name="LSPECTRALGW"> F  </i>
   <i type="logical" name="LSINGLES"> F  </i>
   <i type="logical" name="LFERMIGW"> F  </i>
   <i type="logical" name="ODDONLYGW"> F  </i>
   <i type="logical" name="EVENONLYGW"> F  </i>
   <i type="int" name="NKREDLFX">     1</i>
   <i type="int" name="NKREDLFY">     1</i>
   <i type="int" name="NKREDLFZ">     1</i>
   <i type="int" name="MAXMEM">  1800</i>
   <i type="int" name="TELESCOPE">     0</i>
   <i type="int" name="TAUPAR">     1</i>
   <i type="int" name="OMEGAPAR">    -1</i>
   <i name="LAMBDA">      1.00000000</i>
  </separator>
  <separator name="External order field" >
   <i name="OFIELD_KAPPA">      0.00000000</i>
   <v name="OFIELD_K">      0.00000000      0.00000000      0.00000000</v>
   <i name="OFIELD_Q6_NEAR">      0.00000000</i>
   <i name="OFIELD_Q6_FAR">      0.00000000</i>
   <i name="OFIELD_A">      0.00000000</i>
  </separator>
 </parameters>
 <atominfo>
  <atoms>       2 </atoms>
  <types>       2 </types>
  <array name="atoms" >
   <dimension dim="1">ion</dimension>
   <field type="string">element</field>
   <field type="int">atomtype</field>
   <set>
    <rc><c>O </c><c>   1</c></rc>
    <rc><c>Mg</c><c>   2</c></rc>
   </set>
  </array>
  <array name="atomtypes" >
   <dimension dim="1">type</dimension>
   <field type="int">atomspertype</field>
   <field type="string">element</field>
   <field>mass</field>
   <field>valence</field>
   <field type="string">pseudopotential</field>
   <set>
    <rc><c>   1</c><c>O </c><c>     16.00000000</c><c>      6.00000000</c><c>  PAW_PBE O_h 06Feb2004                 </c></rc>
    <rc><c>   1</c><c>Mg</c><c>     24.30500000</c><c>      2.00000000</c><c>  PAW_PBE Mg 13Apr2007                  </c></rc>
   </set>
  </array>
 </atominfo>
 <structure name="initialpos" >
  <crystal>
   <varray name="basis" >
    <v>       3.00181900       0.00000000       0.00000000 </v>
    <v>       1.50091000       2.59965200       0.00000000 </v>
    <v>       1.50091000       0.86655100       2.45097500 </v>
   </varray>
   <i name="volume">     19.12663627 </i>
   <varray name="rec_basis" >
    <v>       0.33313134      -0.19233350      -0.13600032 </v>
    <v>       0.00000000       0.38466687      -0.13600035 </v>
    <v>       0.00000000       0.00000000       0.40800090 </v>
   </varray>
  </crystal>
  <varray name="positions" >
   <v>       0.50000000       0.50000000       0.50000000 </v>
   <v>       0.00000000       0.00000000       0.00000000 </v>
  </varray>
 </structure>
 <calculation>
  <scstep>
   <time name="dav">    0.05    0.05</time>
   <time name="total">    0.06    0.07</time>
   <energy>
    <i name="alphaZ">     15.91937336 </i>
    <i name="ewald">   -355.39410472 </i>
    <i name="hartreedc">    -41.97019225 </i>
    <i name="XCdc">    -28.64397093 </i>
    <i name="pawpsdc"> 164844.94248919 </i>
    <i name="pawaedc">-164790.84021869 </i>
    <i name="eentropy">     -0.00000000 </i>
    <i name="bandstr">   -343.59396761 </i>
    <i name="atom">    455.39866312 </i>
    <i name="e_fr_energy">   -244.18192852 </i>
    <i name="e_wo_entrp">   -244.18192852 </i>
    <i name="e_0_energy">   -244.18192852 </i>
   </energy>
  </scstep>
  <scstep>
   <time name="dav">    0.06    0.06</time>
   <time name="total">    0.06    0.06</time>
   <energy>
    <i name="e_fr_energy">   -321.93461839 </i>
    <i name="e_wo_entrp">   -321.93461839 </i>
    <i name="e_0_energy">   -321.93461839 </i>
   </energy>
  </scstep>
  <scstep>
   <time name="dav">    0.07    0.07</time>
   <time name="total">    0.07    0.07</time>
   <energy>
    <i name="e_fr_energy">   -322.54930543 </i>
    <i name="e_wo_entrp">   -322.54930543 </i>
    <i name="e_0_energy">   -322.54930543 </i>
   </energy>
  </scstep>
  <scstep>
   <time name="dav">    0.09    0.09</time>
   <time name="total">    0.09    0.10</time>
   <energy>
    <i name="e_fr_energy">   -322.55001926 </i>
    <i name="e_wo_entrp">   -322.55001926 </i>
    <i name="e_0_energy">   -322.55001926 </i>
   </energy>
  </scstep>
  <scstep>
   <time name="dav">    0.07    0.07</time>
   <time name="total">    0.08    0.09</time>
   <energy>
    <i name="e_fr_energy">   -322.55001979 </i>
    <i name="e_wo_entrp">   -322.55001979 </i>
    <i name="e_0_energy">   -322.55001979 </i>
   </energy>
  </scstep>
  <scstep>
   <time name="dav">    0.05    0.05</time>
   <time name="total">    0.07    0.07</time>
   <energy>
    <i name="e_fr_energy">    -72.53778793 </i>
    <i name="e_wo_entrp">    -72.53778793 </i>
    <i name="e_0_energy">    -72.53778793 </i>
   </energy>
  </scstep>
  <scstep>
   <time name="dav">    0.08    0.08</time>
   <time name="total">    0.10    0.10</time>
   <energy>
    <i name="e_fr_energy">    -23.65822440 </i>
    <i name="e_wo_entrp">    -23.65822440 </i>
    <i name="e_0_energy">    -23.65822440 </i>
   </energy>
  </scstep>
  <scstep>
   <time name="dav">    0.05    0.05</time>
   <time name="total">    0.07    0.07</time>
   <energy>
    <i name="e_fr_energy">    -21.35728896 </i>
    <i name="e_wo_entrp">    -21.35728896 </i>
    <i name="e_0_energy">    -21.35728896 </i>
   </energy>
  </scstep>
  <scstep>
   <time name="dav">    0.05    0.05</time>
   <time name="total">    0.07    0.07</time>
   <energy>
    <i name="e_fr_energy">    -11.99135799 </i>
    <i name="e_wo_entrp">    -11.99135799 </i>
    <i name="e_0_energy">    -11.99135799 </i>
   </energy>
  </scstep>
  <scstep>
   <time name="dav">    0.06    0.06</time>
   <time name="total">    0.08    0.08</time>
   <energy>
    <i name="e_fr_energy">    -11.99336562 </i>
    <i name="e_wo_entrp">    -11.99336562 </i>
    <i name="e_0_energy">    -11.99336562 </i>
   </energy>
  </scstep>
  <scstep>
   <time name="dav">    0.05    0.06</time>
   <time name="total">    0.07    0.08</time>
   <energy>
    <i name="e_fr_energy">    -11.92336917 </i>
    <i name="e_wo_entrp">    -11.92336917 </i>
    <i name="e_0_energy">    -11.92336917 </i>
   </energy>
  </scstep>
  <scstep>
   <time name="dav">    0.08    0.08</time>
   <time name="total">    0.12    0.12</time>
   <energy>
    <i name="e_fr_energy">    -11.91976192 </i>
    <i name="e_wo_entrp">    -11.91976192 </i>
    <i name="e_0_energy">    -11.91976192 </i>
   </energy>
  </scstep>
  <scstep>
   <time name="dav">    0.07    0.07</time>
   <time name="total">    0.09    0.09</time>
   <energy>
    <i name="e_fr_energy">    -11.91983068 </i>
    <i name="e_wo_entrp">    -11.91983068 </i>
    <i name="e_0_energy">    -11.91983068 </i>
   </energy>
  </scstep>
  <scstep>
   <time name="dav">    0.07    0.07</time>
   <time name="total">    0.08    0.09</time>
   <energy>
    <i name="e_fr_energy">    -11.91979552 </i>
    <i name="e_wo_entrp">    -11.91979552 </i>
    <i name="e_0_energy">    -11.91979552 </i>
   </energy>
  </scstep>
  <scstep>
   <time name="dav">    0.05    0.05</time>
   <time name="total">    0.07    0.07</time>
   <energy>
    <i name="e_fr_energy">    -11.91979419 </i>
    <i name="e_wo_entrp">    -11.91979419 </i>
    <i name="e_0_energy">    -11.91979419 </i>
   </energy>
  </scstep>
  <scstep>
   <time name="dav">    0.03    0.03</time>
   <time name="total">    0.04    0.04</time>
   <energy>
    <i name="alphaZ">     15.91937336 </i>
    <i name="ewald">   -355.39410472 </i>
    <i name="hartreedc">   -141.37177750 </i>
    <i name="XCdc">    -20.65059179 </i>
    <i name="pawpsdc">    631.76154189 </i>
    <i name="pawaedc">   -581.38845786 </i>
    <i name="eentropy">     -0.00000000 </i>
    <i name="bandstr">    -16.19444065 </i>
    <i name="atom">    455.39866312 </i>
    <i name="e_fr_energy">    -11.91979415 </i>
    <i name="e_wo_entrp">    -11.91979415 </i>
    <i name="e_0_energy">    -11.91979415 </i>
   </energy>
  </scstep>
  <structure>
   <crystal>
    <varray name="basis" >
     <v>       3.00181900       0.00000000       0.00000000 </v>
     <v>       1.50091000       2.59965200       0.00000000 </v>
     <v>       1.50091000       0.86655100       2.45097500 </v>
    </varray>
    <i name="volume">     19.12663627 </i>
    <varray name="rec_basis" >
     <v>       0.33313134      -0.19233350      -0.13600032 </v>
     <v>       0.00000000       0.38466687      -0.13600035 </v>
     <v>       0.00000000       0.00000000       0.40800090 </v>
    </varray>
   </crystal>
   <varray name="positions" >
    <v>       0.50000000       0.50000000       0.50000000 </v>
    <v>       0.00000000       0.00000000       0.00000000 </v>
   </varray>
  </structure>
  <varray name="forces" >
   <v>      -0.00000000      -0.00000000      -0.00000000 </v>
   <v>       0.00000000       0.00000000       0.00000000 </v>
  </varray>
  <varray name="stress" >
   <v>       2.22615426       0.00000043       0.00000030 </v>
   <v>       0.00000043       2.22615510       0.00000030 </v>
   <v>       0.00000030       0.00000030       2.22615435 </v>
  </varray>
  <energy>
   <i name="e_fr_energy">    -11.91979415 </i>
   <i name="e_wo_entrp">    -11.91979415 </i>
   <i name="e_0_energy">     -0.00000000 </i>
  </energy>
  <time name="totalsc">    1.31    1.38</time>
  <eigenvalues>
   <array>
    <dimension dim="1">band</dimension>
    <dimension dim="2">kpoint</dimension>
    <dimension dim="3">spin</dimension>
    <field>eigene</field>
    <field>occ</field>
    <set>
     <set comment="spin 1">
      <set comment="kpoint 1">
       <r>  -13.5728    1.0000 </r>
       <r>    2.4687    1.0000 </r>
       <r>    3.3154    1.0000 </r>
       <r>    3.3154    1.0000 </r>
       <r>    8.8338    0.0000 </r>
       <r>   17.4123    0.0000 </r>
       <r>   19.4288    0.0000 </r>
       <r>   19.4288    0.0000 </r>
       <r>   23.6792    0.0000 </r>
       <r>   23.6792    0.0000 </r>
       <r>   25.0177    0.0000 </r>
       <r>   27.4551    0.0000 </r>
       <r>   28.8862    0.0000 </r>
       <r>   28.8862    0.0000 </r>
       <r>   39.1507    0.0000 </r>
       <r>   41.0529    0.0000 </r>
      </set>
      <set comment="kpoint 2">
       <r>  -12.9138    1.0000 </r>
       <r>    0.2963    1.0000 </r>
       <r>    2.4536    1.0000 </r>
       <r>    3.0170    1.0000 </r>
       <r>   11.2501    0.0000 </r>
       <r>   15.3506    0.0000 </r>
       <r>   18.7627    0.0000 </r>
       <r>   20.4304    0.0000 </r>
       <r>   22.2510    0.0000 </r>
       <r>   24.4818    0.0000 </r>
       <r>   26.6003    0.0000 </r>
       <r>   31.2614    0.0000 </r>
       <r>   32.5353    0.0000 </r>
       <r>   33.4104    0.0000 </r>
       <r>   35.7809    0.0000 </r>
       <r>   39.0743    0.0000 </r>
      </set>
      <set comment="kpoint 3">
       <r>  -12.4727    1.0000 </r>
       <r>   -0.8376    1.0000 </r>
       <r>    2.3025    1.0000 </r>
       <r>    2.6773    1.0000 </r>
       <r>   11.8373    0.0000 </r>
       <r>   15.5616    0.0000 </r>
       <r>   18.0521    0.0000 </r>
       <r>   19.8683    0.0000 </r>
       <r>   23.8583    0.0000 </r>
       <r>   26.1080    0.0000 </r>
       <r>   26.2041    0.0000 </r>
       <r>   32.4879    0.0000 </r>
       <r>   33.0840    0.0000 </r>
       <r>   33.4294    0.0000 </r>
       <r>   36.0108    0.0000 </r>
       <r>   37.7217    0.0000 </r>
      </set>
      <set comment="kpoint 4">
       <r>  -13.2059    1.0000 </r>
       <r>    1.1853    1.0000 </r>
       <r>    2.9446    1.0000 </r>
       <r>    2.9485    1.0000 </r>
       <r>   10.4225    0.0000 </r>
       <r>   15.5914    0.0000 </r>
       <r>   19.5568    0.0000 </r>
       <r>   20.0374    0.0000 </r>
       <r>   21.2128    0.0000 </r>
       <r>   25.0587    0.0000 </r>
       <r>   27.0579    0.0000 </r>
       <r>   30.1559    0.0000 </r>
       <r>   30.4407    0.0000 </r>
       <r>   31.1940    0.0000 </r>
       <r>   37.4161    0.0000 </r>
       <r>   39.1781    0.0000 </r>
      </set>
      <set comment="kpoint 5">
       <r>  -12.6758    1.0000 </r>
       <r>    0.1098    1.0000 </r>
       <r>    2.2532    1.0000 </r>
       <r>    2.4863    1.0000 </r>
       <r>   12.3531    0.0000 </r>
       <r>   13.9950    0.0000 </r>
       <r>   17.3064    0.0000 </r>
       <r>   20.9363    0.0000 </r>
       <r>   21.3933    0.0000 </r>
       <r>   27.2393    0.0000 </r>
       <r>   30.3451    0.0000 </r>
       <r>   30.6140    0.0000 </r>
       <r>   32.5274    0.0000 </r>
       <r>   35.0192    0.0000 </r>
       <r>   36.6723    0.0000 </r>
       <r>   38.0885    0.0000 </r>
      </set>
      <set comment="kpoint 6">
       <r>  -12.2596    1.0000 </r>
       <r>   -0.0085    1.0000 </r>
       <r>    0.9920    1.0000 </r>
       <r>    2.0746    1.0000 </r>
       <r>   13.8672    0.0000 </r>
       <r>   14.9059    0.0000 </r>
       <r>   15.6978    0.0000 </r>
       <r>   19.7112    0.0000 </r>
       <r>   23.1567    0.0000 </r>
       <r>   26.6099    0.0000 </r>
       <r>   30.1733    0.0000 </r>
       <r>   31.5957    0.0000 </r>
       <r>   32.8637    0.0000 </r>
       <r>   36.5380    0.0000 </r>
       <r>   39.1094    0.0000 </r>
       <r>   41.3288    0.0000 </r>
      </set>
      <set comment="kpoint 7">
       <r>  -12.5185    1.0000 </r>
       <r>   -0.2118    1.0000 </r>
       <r>    1.7349    1.0000 </r>
       <r>    2.5757    1.0000 </r>
       <r>   12.7111    0.0000 </r>
       <r>   14.9049    0.0000 </r>
       <r>   17.0788    0.0000 </r>
       <r>   20.2742    0.0000 </r>
       <r>   22.8436    0.0000 </r>
       <r>   25.5181    0.0000 </r>
       <r>   29.0530    0.0000 </r>
       <r>   31.8448    0.0000 </r>
       <r>   32.4265    0.0000 </r>
       <r>   35.0912    0.0000 </r>
       <r>   35.7342    0.0000 </r>
       <r>   41.2357    0.0000 </r>
      </set>
      <set comment="kpoint 8">
       <r>  -12.2963    1.0000 </r>
       <r>   -0.3731    1.0000 </r>
       <r>    1.7347    1.0000 </r>
       <r>    2.1917    1.0000 </r>
       <r>   12.9415    0.0000 </r>
       <r>   13.6241    0.0000 </r>
       <r>   16.1485    0.0000 </r>
       <r>   21.6473    0.0000 </r>
       <r>   21.6583    0.0000 </r>
       <r>   29.1270    0.0000 </r>
       <r>   29.5587    0.0000 </r>
       <r>   32.1415    0.0000 </r>
       <r>   32.8561    0.0000 </r>
       <r>   38.0049    0.0000 </r>
       <r>   38.3866    0.0000 </r>
       <r>   41.3176    0.0000 </r>
      </set>
      <set comment="kpoint 9">
       <r>  -12.7120    1.0000 </r>
       <r>   -0.5671    1.0000 </r>
       <r>    2.8727    1.0000 </r>
       <r>    2.8727    1.0000 </r>
       <r>   11.0474    0.0000 </r>
       <r>   15.5669    0.0000 </r>
       <r>   19.6639    0.0000 </r>
       <r>   19.6639    0.0000 </r>
       <r>   24.2533    0.0000 </r>
       <r>   24.5932    0.0000 </r>
       <r>   24.5932    0.0000 </r>
       <r>   32.1079    0.0000 </r>
       <r>   33.4278    0.0000 </r>
       <r>   33.4278    0.0000 </r>
       <r>   37.0417    0.0000 </r>
       <r>   37.0417    0.0000 </r>
      </set>
      <set comment="kpoint 10">
       <r>  -12.3439    1.0000 </r>
       <r>   -0.2507    1.0000 </r>
       <r>    1.0980    1.0000 </r>
       <r>    2.5453    1.0000 </r>
       <r>   13.1900    0.0000 </r>
       <r>   15.3641    0.0000 </r>
       <r>   16.2701    0.0000 </r>
       <r>   20.5860    0.0000 </r>
       <r>   22.6698    0.0000 </r>
       <r>   25.6943    0.0000 </r>
       <r>   29.2732    0.0000 </r>
       <r>   31.8151    0.0000 </r>
       <r>   32.2378    0.0000 </r>
       <r>   35.5766    0.0000 </r>
       <r>   37.4613    0.0000 </r>
       <r>   40.3351    0.0000 </r>
      </set>
     </set>
    </set>
   </array>
  </eigenvalues>
  <separator name="orbital magnetization" >
   <v name="MAGDIPOLOUT">      0.00000000      0.00000000      0.00000000</v>
  </separator>
  <dos>
   <i name="efermi">      3.63652739 </i>
   <total>
    <array>
     <dimension dim="1">gridpoints</dimension>
     <dimension dim="2">spin</dimension>
     <field>energy</field>
     <field>total</field>
     <field>integrated</field>
     <set>
      <set comment="spin 1">
       <r>   -16.3179     0.0000     0.0000 </r>
       <r>   -16.1166     0.0000     0.0000 </r>
       <r>   -15.9153     0.0000     0.0000 </r>
       <r>   -15.7140     0.0000     0.0000 </r>
       <r>   -15.5127     0.0000     0.0000 </r>
       <r>   -15.3114     0.0000     0.0000 </r>
       <r>   -15.1101     0.0000     0.0000 </r>
       <r>   -14.9088     0.0000     0.0000 </r>
       <r>   -14.7075     0.0000     0.0000 </r>
       <r>   -14.5062     0.0000     0.0000 </r>
       <r>   -14.3049     0.0000     0.0000 </r>
       <r>   -14.1036     0.0000     0.0000 </r>
       <r>   -13.9022     0.0000     0.0000 </r>
       <r>   -13.7009     0.0000     0.0000 </r>
       <r>   -13.4996     0.3045     0.0613 </r>
       <r>   -13.2983     0.0101     0.0633 </r>
       <r>   -13.0970     0.9263     0.2498 </r>
       <r>   -12.8957     0.6487     0.3804 </r>
       <r>   -12.6944     0.7769     0.5368 </r>
       <r>   -12.4931     2.4345     1.0269 </r>
       <r>   -12.2918     2.8245     1.5955 </r>
       <r>   -12.0905     2.0095     2.0000 </r>
       <r>   -11.8892     0.0000     2.0000 </r>
       <r>   -11.6879     0.0000     2.0000 </r>
       <r>   -11.4866     0.0000     2.0000 </r>
       <r>   -11.2853     0.0000     2.0000 </r>
       <r>   -11.0840     0.0000     2.0000 </r>
       <r>   -10.8827     0.0000     2.0000 </r>
       <r>   -10.6814     0.0000     2.0000 </r>
       <r>   -10.4800     0.0000     2.0000 </r>
       <r>   -10.2787     0.0000     2.0000 </r>
       <r>   -10.0774     0.0000     2.0000 </r>
       <r>    -9.8761     0.0000     2.0000 </r>
       <r>    -9.6748     0.0000     2.0000 </r>
       <r>    -9.4735     0.0000     2.0000 </r>
       <r>    -9.2722     0.0000     2.0000 </r>
       <r>    -9.0709     0.0000     2.0000 </r>
       <r>    -8.8696     0.0000     2.0000 </r>
       <r>    -8.6683     0.0000     2.0000 </r>
       <r>    -8.4670     0.0000     2.0000 </r>
       <r>    -8.2657     0.0000     2.0000 </r>
       <r>    -8.0644     0.0000     2.0000 </r>
       <r>    -7.8631     0.0000     2.0000 </r>
       <r>    -7.6618     0.0000     2.0000 </r>
       <r>    -7.4605     0.0000     2.0000 </r>
       <r>    -7.2592     0.0000     2.0000 </r>
       <r>    -7.0578     0.0000     2.0000 </r>
       <r>    -6.8565     0.0000     2.0000 </r>
       <r>    -6.6552     0.0000     2.0000 </r>
       <r>    -6.4539     0.0000     2.0000 </r>
       <r>    -6.2526     0.0000     2.0000 </r>
       <r>    -6.0513     0.0000     2.0000 </r>
       <r>    -5.8500     0.0000     2.0000 </r>
       <r>    -5.6487     0.0000     2.0000 </r>
       <r>    -5.4474     0.0000     2.0000 </r>
       <r>    -5.2461     0.0000     2.0000 </r>
       <r>    -5.0448     0.0000     2.0000 </r>
       <r>    -4.8435     0.0000     2.0000 </r>
       <r>    -4.6422     0.0000     2.0000 </r>
       <r>    -4.4409     0.0000     2.0000 </r>
       <r>    -4.2396     0.0000     2.0000 </r>
       <r>    -4.0383     0.0000     2.0000 </r>
       <r>    -3.8370     0.0000     2.0000 </r>
       <r>    -3.6356     0.0000     2.0000 </r>
       <r>    -3.4343     0.0000     2.0000 </r>
       <r>    -3.2330     0.0000     2.0000 </r>
       <r>    -3.0317     0.0000     2.0000 </r>
       <r>    -2.8304     0.0000     2.0000 </r>
       <r>    -2.6291     0.0000     2.0000 </r>
       <r>    -2.4278     0.0000     2.0000 </r>
       <r>    -2.2265     0.0000     2.0000 </r>
       <r>    -2.0252     0.0000     2.0000 </r>
       <r>    -1.8239     0.0000     2.0000 </r>
       <r>    -1.6226     0.0000     2.0000 </r>
       <r>    -1.4213     0.0000     2.0000 </r>
       <r>    -1.2200     0.0000     2.0000 </r>
       <r>    -1.0187     0.0000     2.0000 </r>
       <r>    -0.8174     0.6676     2.1344 </r>
       <r>    -0.6161     0.2896     2.1927 </r>
       <r>    -0.4148     0.3959     2.2724 </r>
       <r>    -0.2134     2.5125     2.7782 </r>
       <r>    -0.0121     1.9571     3.1721 </r>
       <r>     0.1892     1.9287     3.5604 </r>
       <r>     0.3905     0.9383     3.7493 </r>
       <r>     0.5918     0.0036     3.7500 </r>
       <r>     0.7931     0.0000     3.7500 </r>
       <r>     0.9944     0.9829     3.9479 </r>
       <r>     1.1957     2.3821     4.4274 </r>
       <r>     1.3970     0.3607     4.5000 </r>
       <r>     1.5983     0.0002     4.5000 </r>
       <r>     1.7996     2.7004     5.0436 </r>
       <r>     2.0009     0.1283     5.0695 </r>
       <r>     2.2022     2.4746     5.5676 </r>
       <r>     2.4035     2.2379     6.0181 </r>
       <r>     2.6048     4.4717     6.9183 </r>
       <r>     2.8061     1.3559     7.1912 </r>
       <r>     3.0074     2.7518     7.7452 </r>
       <r>     3.2088     0.6457     7.8752 </r>
       <r>     3.4101     0.6179     7.9995 </r>
       <r>     3.6114     0.0023     8.0000 </r>
       <r>     3.8127     0.0000     8.0000 </r>
       <r>     4.0140     0.0000     8.0000 </r>
       <r>     4.2153     0.0000     8.0000 </r>
       <r>     4.4166     0.0000     8.0000 </r>
       <r>     4.6179     0.0000     8.0000 </r>
       <r>     4.8192     0.0000     8.0000 </r>
       <r>     5.0205     0.0000     8.0000 </r>
       <r>     5.2218     0.0000     8.0000 </r>
       <r>     5.4231     0.0000     8.0000 </r>
       <r>     5.6244     0.0000     8.0000 </r>
       <r>     5.8257     0.0000     8.0000 </r>
       <r>     6.0270     0.0000     8.0000 </r>
       <r>     6.2283     0.0000     8.0000 </r>
       <r>     6.4296     0.0000     8.0000 </r>
       <r>     6.6310     0.0000     8.0000 </r>
       <r>     6.8323     0.0000     8.0000 </r>
       <r>     7.0336     0.0000     8.0000 </r>
       <r>     7.2349     0.0000     8.0000 </r>
       <r>     7.4362     0.0000     8.0000 </r>
       <r>     7.6375     0.0000     8.0000 </r>
       <r>     7.8388     0.0000     8.0000 </r>
       <r>     8.0401     0.0000     8.0000 </r>
       <r>     8.2414     0.0000     8.0000 </r>
       <r>     8.4427     0.0000     8.0000 </r>
       <r>     8.6440     0.0000     8.0000 </r>
       <r>     8.8453     0.1949     8.0392 </r>
       <r>     9.0466     0.1156     8.0625 </r>
       <r>     9.2479     0.0000     8.0625 </r>
       <r>     9.4492     0.0000     8.0625 </r>
       <r>     9.6505     0.0000     8.0625 </r>
       <r>     9.8518     0.0000     8.0625 </r>
       <r>    10.0532     0.0000     8.0625 </r>
       <r>    10.2545     0.0000     8.0625 </r>
       <r>    10.4558     0.7700     8.2175 </r>
       <r>    10.6571     0.1614     8.2500 </r>
       <r>    10.8584     0.0000     8.2500 </r>
       <r>    11.0597     0.1973     8.2897 </r>
       <r>    11.2610     0.6920     8.4290 </r>
       <r>    11.4623     0.3527     8.5000 </r>
       <r>    11.6636     0.0000     8.5000 </r>
       <r>    11.8649     0.7292     8.6468 </r>
       <r>    12.0662     0.2022     8.6875 </r>
       <r>    12.2675     0.0072     8.6890 </r>
       <r>    12.4688     0.9237     8.8749 </r>
       <r>    12.6701     0.2305     8.9213 </r>
       <r>    12.8714     1.6550     9.2544 </r>
       <r>    13.0727     0.9096     9.4376 </r>
       <r>    13.2740     0.9229     9.6234 </r>
       <r>    13.4754     0.0082     9.6250 </r>
       <r>    13.6767     0.8676     9.7996 </r>
       <r>    13.8780     1.2187    10.0450 </r>
       <r>    14.0793     1.6315    10.3734 </r>
       <r>    14.2806     0.0080    10.3750 </r>
       <r>    14.4819     0.0000    10.3750 </r>
       <r>    14.6832     0.0000    10.3750 </r>
       <r>    14.8845     1.0332    10.5830 </r>
       <r>    15.0858     2.6924    11.1250 </r>
       <r>    15.2871     0.0475    11.1346 </r>
       <r>    15.4884     1.8388    11.5047 </r>
       <r>    15.6897     2.9110    12.0907 </r>
       <r>    15.8910     1.1016    12.3125 </r>
       <r>    16.0923     0.0523    12.3230 </r>
       <r>    16.2936     1.5752    12.6401 </r>
       <r>    16.4949     0.2353    12.6875 </r>
       <r>    16.6962     0.0000    12.6875 </r>
       <r>    16.8976     0.0000    12.6875 </r>
       <r>    17.0989     1.3311    12.9555 </r>
       <r>    17.3002     0.9320    13.1431 </r>
       <r>    17.5015     0.8398    13.3121 </r>
       <r>    17.7028     0.0018    13.3125 </r>
       <r>    17.9041     0.0000    13.3125 </r>
       <r>    18.1054     0.8701    13.4877 </r>
       <r>    18.3067     0.0613    13.5000 </r>
       <r>    18.5080     0.0000    13.5000 </r>
       <r>    18.7093     0.0610    13.5123 </r>
       <r>    18.9106     0.8704    13.6875 </r>
       <r>    19.1119     0.0000    13.6875 </r>
       <r>    19.3132     0.0003    13.6876 </r>
       <r>    19.5145     0.7239    13.8333 </r>
       <r>    19.7158     2.4342    14.3233 </r>
       <r>    19.9171     1.7317    14.6719 </r>
       <r>    20.1184     0.9987    14.8729 </r>
       <r>    20.3198     1.6896    15.2131 </r>
       <r>    20.5211     1.1408    15.4427 </r>
       <r>    20.7224     0.9054    15.6250 </r>
       <r>    20.9237     0.3356    15.6926 </r>
       <r>    21.1250     0.6019    15.8137 </r>
       <r>    21.3263     0.9517    16.0053 </r>
       <r>    21.5276     0.9054    16.1876 </r>
       <r>    21.7289     1.8314    16.5562 </r>
       <r>    21.9302     0.0311    16.5625 </r>
       <r>    22.1315     0.0003    16.5626 </r>
       <r>    22.3328     0.9214    16.7481 </r>
       <r>    22.5341     0.0097    16.7500 </r>
       <r>    22.7354     0.9038    16.9320 </r>
       <r>    22.9367     1.8825    17.3109 </r>
       <r>    23.1380     0.5638    17.4244 </r>
       <r>    23.3393     1.3069    17.6875 </r>
       <r>    23.5406     0.0000    17.6875 </r>
       <r>    23.7420     0.5978    17.8079 </r>
       <r>    23.9433     0.9469    17.9985 </r>
       <r>    24.1446     0.0079    18.0001 </r>
       <r>    24.3459     0.3088    18.0622 </r>
       <r>    24.5472     0.9625    18.2560 </r>
       <r>    24.7485     0.5911    18.3750 </r>
       <r>    24.9498     0.0095    18.3769 </r>
       <r>    25.1511     1.2282    18.6242 </r>
       <r>    25.3524     0.0042    18.6250 </r>
       <r>    25.5537     1.5702    18.9411 </r>
       <r>    25.7550     1.1840    19.1794 </r>
       <r>    25.9563     0.0401    19.1875 </r>
       <r>    26.1576     0.9444    19.3776 </r>
       <r>    26.3589     0.9185    19.5625 </r>
       <r>    26.5602     0.2686    19.6166 </r>
       <r>    26.7615     2.5257    20.1250 </r>
       <r>    26.9628     0.0033    20.1257 </r>
       <r>    27.1641     0.9424    20.3154 </r>
       <r>    27.3655     0.9186    20.5003 </r>
       <r>    27.5668     0.3087    20.5625 </r>
       <r>    27.7681     0.0002    20.5625 </r>
       <r>    27.9694     0.0000    20.5625 </r>
       <r>    28.1707     0.0000    20.5625 </r>
       <r>    28.3720     0.0000    20.5625 </r>
       <r>    28.5733     0.0000    20.5625 </r>
       <r>    28.7746     0.0005    20.5626 </r>
       <r>    28.9759     0.6442    20.6923 </r>
       <r>    29.1772     2.7007    21.2360 </r>
       <r>    29.3785     0.9999    21.4372 </r>
       <r>    29.5798     0.6767    21.5735 </r>
       <r>    29.7811     0.2560    21.6250 </r>
       <r>    29.9824     0.0000    21.6250 </r>
       <r>    30.1837     1.8782    22.0031 </r>
       <r>    30.3850     1.7805    22.3615 </r>
       <r>    30.5863     1.2008    22.6032 </r>
       <r>    30.7877     0.7291    22.7500 </r>
       <r>    30.9890     0.0000    22.7500 </r>
       <r>    31.1903     0.4471    22.8400 </r>
       <r>    31.3916     1.4157    23.1250 </r>
       <r>    31.5929     0.8728    23.3007 </r>
       <r>    31.7942     1.3903    23.5806 </r>
       <r>    31.9955     2.3943    24.0625 </r>
       <r>    32.1968     1.2994    24.3241 </r>
       <r>    32.3981     1.2718    24.5801 </r>
       <r>    32.5994     4.2064    25.4269 </r>
       <r>    32.8007     0.1769    25.4625 </r>
       <r>    33.0020     2.6794    26.0019 </r>
       <r>    33.2033     0.9217    26.1874 </r>
       <r>    33.4046     0.7902    26.3465 </r>
       <r>    33.6059     1.6939    26.6875 </r>
       <r>    33.8072     0.0000    26.6875 </r>
       <r>    34.0085     0.0000    26.6875 </r>
       <r>    34.2099     0.0000    26.6875 </r>
       <r>    34.4112     0.0000    26.6875 </r>
       <r>    34.6125     0.0000    26.6875 </r>
       <r>    34.8138     0.0000    26.6875 </r>
       <r>    35.0151     0.4516    26.7784 </r>
       <r>    35.2164     2.3423    27.2499 </r>
       <r>    35.4177     0.0004    27.2500 </r>
       <r>    35.6190     0.8251    27.4161 </r>
       <r>    35.8203     2.7633    27.9724 </r>
       <r>    36.0216     0.7147    28.1162 </r>
       <r>    36.2229     0.3540    28.1875 </r>
       <r>    36.4242     0.0012    28.1877 </r>
       <r>    36.6255     1.9359    28.5774 </r>
       <r>    36.8268     0.8572    28.7500 </r>
       <r>    37.0281     0.2178    28.7938 </r>
       <r>    37.2294     0.4032    28.8750 </r>
       <r>    37.4307     0.7965    29.0353 </r>
       <r>    37.6321     1.0715    29.2511 </r>
       <r>    37.8334     0.9254    29.4374 </r>
       <r>    38.0347     0.8053    29.5995 </r>
       <r>    38.2360     1.0583    29.8125 </r>
       <r>    38.4373     0.8608    29.9858 </r>
       <r>    38.6386     0.0706    30.0000 </r>
       <r>    38.8399     0.0000    30.0000 </r>
       <r>    39.0412     0.2131    30.0429 </r>
       <r>    39.2425     3.7895    30.8057 </r>
       <r>    39.4438     0.0336    30.8125 </r>
       <r>    39.6451     0.0000    30.8125 </r>
       <r>    39.8464     0.0000    30.8125 </r>
       <r>    40.0477     0.0000    30.8125 </r>
       <r>    40.2490     0.0070    30.8139 </r>
       <r>    40.4503     0.9239    30.9999 </r>
       <r>    40.6516     0.0005    31.0000 </r>
       <r>    40.8529     0.0000    31.0000 </r>
       <r>    41.0543     0.1599    31.0322 </r>
       <r>    41.2556     1.5513    31.3445 </r>
       <r>    41.4569     3.2561    31.9999 </r>
       <r>    41.6582     0.0003    32.0000 </r>
       <r>    41.8595     0.0000    32.0000 </r>
       <r>    42.0608     0.0000    32.0000 </r>
       <r>    42.2621     0.0000    32.0000 </r>
       <r>    42.4634     0.0000    32.0000 </r>
       <r>    42.6647     0.0000    32.0000 </r>
       <r>    42.8660     0.0000    32.0000 </r>
       <r>    43.0673     0.0000    32.0000 </r>
       <r>    43.2686     0.0000    32.0000 </r>
       <r>    43.4699     0.0000    32.0000 </r>
       <r>    43.6712     0.0000    32.0000 </r>
       <r>    43.8725     0.0000    32.0000 </r>
       <r>    44.0738     0.0000    32.0000 </r>
      </set>
     </set>
    </array>
   </total>
  </dos>
 </calculation>
 <structure name="finalpos" >
  <crystal>
   <varray name="basis" >
    <v>       3.00181900       0.00000000       0.00000000 </v>
    <v>       1.50091000       2.59965200       0.00000000 </v>
    <v>       1.50091000       0.86655100       2.45097500 </v>
   </varray>
   <i name="volume">     19.12663627 </i>
   <varray name="rec_basis" >
    <v>       0.33313134      -0.19233350      -0.13600032 </v>
    <v>       0.00000000       0.38466687      -0.13600035 </v>
    <v>       0.00000000       0.00000000       0.40800090 </v>
   </varray>
  </crystal>
  <varray name="positions" >
   <v>       0.50000000       0.50000000       0.50000000 </v>
   <v>       0.00000000       0.00000000       0.00000000 </v>
  </varray>
 </structure>
</modeling>
