# ['Mg', 'O']

214 atoms
2 atom types

    0.0000    12.7919 xlo xhi
    0.0000    12.7919 ylo yhi
    0.0000    12.7919 zlo zhi

    0.0000     0.0000     0.0000 xy xz yz

Atoms

1 1     1.0000     2.1320     2.1320     0.0000
2 1     1.0000     2.1320     0.0000     2.1320
3 1     1.0000     0.0000     0.0000     0.0000
4 1     1.0000     0.0000     2.1320     2.1320
5 1     1.0000     2.1320     2.1320     4.2640
6 1     1.0000     2.1320     0.0000     6.3960
7 1     1.0000     0.0000     0.0000     4.2640
8 1     1.0000     0.0000     2.1320     6.3960
9 1     1.0000     2.1320     2.1320     8.5280
10 1     1.0000     2.1320     0.0000    10.6600
11 1     1.0000     0.0000     0.0000     8.5280
12 1     1.0000     0.0000     2.1320    10.6600
13 1     1.0000     2.1320     6.3960     0.0000
14 1     1.0000     2.1320     4.2640     2.1320
15 1     1.0000     0.0000     4.2640     0.0000
16 1     1.0000     0.0000     6.3960     2.1320
17 1     1.0000     2.1320     6.3960     4.2640
18 1     1.0000     2.1320     4.2640     6.3960
19 1     1.0000     0.0000     4.2640     4.2640
20 1     1.0000     0.0000     6.3960     6.3960
21 1     1.0000     2.1320     6.3960     8.5280
22 1     1.0000     2.1320     4.2640    10.6600
23 1     1.0000     0.0000     4.2640     8.5280
24 1     1.0000     0.0000     6.3960    10.6600
25 1     1.0000     2.1320    10.6600     0.0000
26 1     1.0000     2.1320     8.5280     2.1320
27 1     1.0000     0.0000     8.5280     0.0000
28 1     1.0000     0.0000    10.6600     2.1320
29 1     1.0000     2.1320    10.6600     4.2640
30 1     1.0000     2.1320     8.5280     6.3960
31 1     1.0000     0.0000     8.5280     4.2640
32 1     1.0000     0.0000    10.6600     6.3960
33 1     1.0000     2.1320    10.6600     8.5280
34 1     1.0000     2.1320     8.5280    10.6600
35 1     1.0000     0.0000     8.5280     8.5280
36 1     1.0000     0.0000    10.6600    10.6600
37 1     1.0000     6.3960     2.1320     0.0000
38 1     1.0000     6.3960     0.0000     2.1320
39 1     1.0000     4.2640     0.0000     0.0000
40 1     1.0000     4.2640     2.1320     2.1320
41 1     1.0000     6.3960     2.1320     4.2640
42 1     1.0000     6.3960     0.0000     6.3960
43 1     1.0000     4.2640     0.0000     4.2640
44 1     1.0000     4.2640     2.1320     6.3960
45 1     1.0000     6.3960     2.1320     8.5280
46 1     1.0000     6.3960     0.0000    10.6600
47 1     1.0000     4.2640     0.0000     8.5280
48 1     1.0000     4.2640     2.1320    10.6600
49 1     1.0000     6.3960     6.3960     0.0000
50 1     1.0000     6.3960     4.2640     2.1320
51 1     1.0000     4.2640     4.2640     0.0000
52 1     1.0000     4.2640     6.3960     2.1320
53 1     1.0000     6.3960     6.3960     4.2640
54 1     1.0000     6.3960     4.2640     6.3960
55 1     1.0000     4.2640     6.3960     6.3960
56 1     1.0000     6.3960     6.3960     8.5280
57 1     1.0000     6.3960     4.2640    10.6600
58 1     1.0000     4.2640     4.2640     8.5280
59 1     1.0000     4.2640     6.3960    10.6600
60 1     1.0000     6.3960    10.6600     0.0000
61 1     1.0000     6.3960     8.5280     2.1320
62 1     1.0000     4.2640     8.5280     0.0000
63 1     1.0000     4.2640    10.6600     2.1320
64 1     1.0000     6.3960    10.6600     4.2640
65 1     1.0000     6.3960     8.5280     6.3960
66 1     1.0000     4.2640     8.5280     4.2640
67 1     1.0000     4.2640    10.6600     6.3960
68 1     1.0000     6.3960    10.6600     8.5280
69 1     1.0000     6.3960     8.5280    10.6600
70 1     1.0000     4.2640     8.5280     8.5280
71 1     1.0000     4.2640    10.6600    10.6600
72 1     1.0000    10.6600     2.1320     0.0000
73 1     1.0000    10.6600     0.0000     2.1320
74 1     1.0000     8.5280     0.0000     0.0000
75 1     1.0000     8.5280     2.1320     2.1320
76 1     1.0000    10.6600     2.1320     4.2640
77 1     1.0000    10.6600     0.0000     6.3960
78 1     1.0000     8.5280     0.0000     4.2640
79 1     1.0000     8.5280     2.1320     6.3960
80 1     1.0000    10.6600     2.1320     8.5280
81 1     1.0000    10.6600     0.0000    10.6600
82 1     1.0000     8.5280     0.0000     8.5280
83 1     1.0000     8.5280     2.1320    10.6600
84 1     1.0000    10.6600     6.3960     0.0000
85 1     1.0000    10.6600     4.2640     2.1320
86 1     1.0000     8.5280     4.2640     0.0000
87 1     1.0000     8.5280     6.3960     2.1320
88 1     1.0000    10.6600     6.3960     4.2640
89 1     1.0000    10.6600     4.2640     6.3960
90 1     1.0000     8.5280     4.2640     4.2640
91 1     1.0000     8.5280     6.3960     6.3960
92 1     1.0000    10.6600     6.3960     8.5280
93 1     1.0000    10.6600     4.2640    10.6600
94 1     1.0000     8.5280     4.2640     8.5280
95 1     1.0000     8.5280     6.3960    10.6600
96 1     1.0000    10.6600    10.6600     0.0000
97 1     1.0000    10.6600     8.5280     2.1320
98 1     1.0000     8.5280     8.5280     0.0000
99 1     1.0000     8.5280    10.6600     2.1320
100 1     1.0000    10.6600    10.6600     4.2640
101 1     1.0000    10.6600     8.5280     6.3960
102 1     1.0000     8.5280     8.5280     4.2640
103 1     1.0000     8.5280    10.6600     6.3960
104 1     1.0000    10.6600    10.6600     8.5280
105 1     1.0000    10.6600     8.5280    10.6600
106 1     1.0000     8.5280     8.5280     8.5280
107 1     1.0000     8.5280    10.6600    10.6600
108 2     1.0000     0.0000     2.1320     0.0000
109 2     1.0000     2.1320     0.0000     0.0000
110 2     1.0000     2.1320     2.1320     2.1320
111 2     1.0000     0.0000     0.0000     2.1320
112 2     1.0000     0.0000     2.1320     4.2640
113 2     1.0000     2.1320     0.0000     4.2640
114 2     1.0000     2.1320     2.1320     6.3960
115 2     1.0000     0.0000     0.0000     6.3960
116 2     1.0000     0.0000     2.1320     8.5280
117 2     1.0000     2.1320     0.0000     8.5280
118 2     1.0000     2.1320     2.1320    10.6600
119 2     1.0000     0.0000     0.0000    10.6600
120 2     1.0000     0.0000     6.3960     0.0000
121 2     1.0000     2.1320     4.2640     0.0000
122 2     1.0000     2.1320     6.3960     2.1320
123 2     1.0000     0.0000     4.2640     2.1320
124 2     1.0000     0.0000     6.3960     4.2640
125 2     1.0000     2.1320     4.2640     4.2640
126 2     1.0000     2.1320     6.3960     6.3960
127 2     1.0000     0.0000     4.2640     6.3960
128 2     1.0000     0.0000     6.3960     8.5280
129 2     1.0000     2.1320     4.2640     8.5280
130 2     1.0000     2.1320     6.3960    10.6600
131 2     1.0000     0.0000     4.2640    10.6600
132 2     1.0000     0.0000    10.6600     0.0000
133 2     1.0000     2.1320     8.5280     0.0000
134 2     1.0000     2.1320    10.6600     2.1320
135 2     1.0000     0.0000     8.5280     2.1320
136 2     1.0000     0.0000    10.6600     4.2640
137 2     1.0000     2.1320     8.5280     4.2640
138 2     1.0000     2.1320    10.6600     6.3960
139 2     1.0000     0.0000     8.5280     6.3960
140 2     1.0000     0.0000    10.6600     8.5280
141 2     1.0000     2.1320     8.5280     8.5280
142 2     1.0000     2.1320    10.6600    10.6600
143 2     1.0000     0.0000     8.5280    10.6600
144 2     1.0000     4.2640     2.1320     0.0000
145 2     1.0000     6.3960     0.0000     0.0000
146 2     1.0000     6.3960     2.1320     2.1320
147 2     1.0000     4.2640     0.0000     2.1320
148 2     1.0000     4.2640     2.1320     4.2640
149 2     1.0000     6.3960     0.0000     4.2640
150 2     1.0000     6.3960     2.1320     6.3960
151 2     1.0000     4.2640     0.0000     6.3960
152 2     1.0000     4.2640     2.1320     8.5280
153 2     1.0000     6.3960     0.0000     8.5280
154 2     1.0000     6.3960     2.1320    10.6600
155 2     1.0000     4.2640     0.0000    10.6600
156 2     1.0000     4.2640     6.3960     0.0000
157 2     1.0000     6.3960     4.2640     0.0000
158 2     1.0000     6.3960     6.3960     2.1320
159 2     1.0000     4.2640     4.2640     2.1320
160 2     1.0000     4.2640     6.3960     4.2640
161 2     1.0000     6.3960     4.2640     4.2640
162 2     1.0000     6.3960     6.3960     6.3960
163 2     1.0000     4.2640     4.2640     6.3960
164 2     1.0000     4.2640     6.3960     8.5280
165 2     1.0000     6.3960     4.2640     8.5280
166 2     1.0000     6.3960     6.3960    10.6600
167 2     1.0000     4.2640     4.2640    10.6600
168 2     1.0000     4.2640    10.6600     0.0000
169 2     1.0000     6.3960     8.5280     0.0000
170 2     1.0000     6.3960    10.6600     2.1320
171 2     1.0000     4.2640     8.5280     2.1320
172 2     1.0000     4.2640    10.6600     4.2640
173 2     1.0000     6.3960     8.5280     4.2640
174 2     1.0000     6.3960    10.6600     6.3960
175 2     1.0000     4.2640     8.5280     6.3960
176 2     1.0000     4.2640    10.6600     8.5280
177 2     1.0000     6.3960     8.5280     8.5280
178 2     1.0000     6.3960    10.6600    10.6600
179 2     1.0000     4.2640     8.5280    10.6600
180 2     1.0000     8.5280     2.1320     0.0000
181 2     1.0000    10.6600     0.0000     0.0000
182 2     1.0000    10.6600     2.1320     2.1320
183 2     1.0000     8.5280     0.0000     2.1320
184 2     1.0000     8.5280     2.1320     4.2640
185 2     1.0000    10.6600     0.0000     4.2640
186 2     1.0000    10.6600     2.1320     6.3960
187 2     1.0000     8.5280     0.0000     6.3960
188 2     1.0000     8.5280     2.1320     8.5280
189 2     1.0000    10.6600     0.0000     8.5280
190 2     1.0000    10.6600     2.1320    10.6600
191 2     1.0000     8.5280     0.0000    10.6600
192 2     1.0000     8.5280     6.3960     0.0000
193 2     1.0000    10.6600     4.2640     0.0000
194 2     1.0000    10.6600     6.3960     2.1320
195 2     1.0000     8.5280     4.2640     2.1320
196 2     1.0000     8.5280     6.3960     4.2640
197 2     1.0000    10.6600     4.2640     4.2640
198 2     1.0000    10.6600     6.3960     6.3960
199 2     1.0000     8.5280     4.2640     6.3960
200 2     1.0000     8.5280     6.3960     8.5280
201 2     1.0000    10.6600     4.2640     8.5280
202 2     1.0000    10.6600     6.3960    10.6600
203 2     1.0000     8.5280     4.2640    10.6600
204 2     1.0000     8.5280    10.6600     0.0000
205 2     1.0000    10.6600     8.5280     0.0000
206 2     1.0000    10.6600    10.6600     2.1320
207 2     1.0000     8.5280     8.5280     2.1320
208 2     1.0000     8.5280    10.6600     4.2640
209 2     1.0000    10.6600     8.5280     4.2640
210 2     1.0000    10.6600    10.6600     6.3960
211 2     1.0000     8.5280     8.5280     6.3960
212 2     1.0000     8.5280    10.6600     8.5280
213 2     1.0000    10.6600     8.5280     8.5280
214 2     1.0000    10.6600    10.6600    10.6600
