LAMMPS (11 Aug 2017)
# ---- initialize simulations
clear
units metal
dimension 3
boundary p p p
atom_style atomic
atom_modify map array
# ---- create atoms
read_data /home/sullberg/repos/pypospack/dev/cluster_sampling/dev__cluster_sampling/rank_6/Ni_bcc.lmps_min_all/lammps.structure
  triclinic box = (0 0 0) to (2.8005 2.8005 2.8005) with tilt (0 0 0)
  1 by 1 by 1 MPI processor grid
  reading atoms ...
  2 atoms
# ---- define interatomic potential
include potential.mod
mass 1 58.6934

group Ni type 1
2 atoms in group Ni

pair_style eam/alloy
pair_coeff * * /home/sullberg/repos/pypospack/dev/cluster_sampling/dev__cluster_sampling/rank_6/Ni_bcc.lmps_min_all/Ni.eam.alloy Ni

neighbor 1.0 bin
neigh_modify every 1 delay 0 check yes
# ---- define settings
compute eng all pe/atom
compute eatoms all reduce sum c_eng
# ---- run minimization
reset_timestep 0
fix 1 all box/relax aniso 0.0 vmax 0.001
thermo 10
thermo_style custom step pe xhi xlo yhi ylo zhi xy xz yz press pxx pyy pzz pxy pxz pyz c_eatoms
min_style cg
minimize 1e-25 1e-25 5000 10000
Neighbor list info ...
  update every 1 steps, delay 0 steps, check yes
  max neighbors/atom: 2000, page size: 100000
  master list distance cutoff = 5.64464
  ghost atom cutoff = 5.64464
  binsize = 2.82232, bins = 1 1 1
  1 neighbor lists, perpetual/occasional/extra = 1 0 0
  (1) pair eam/alloy, perpetual
      attributes: half, newton on
      pair build: half/bin/newton/tri
      stencil: half/bin/3d/newton/tri
      bin: standard
Per MPI rank memory allocation (min/avg/max) = 4.24 | 4.24 | 4.24 Mbytes
Step PotEng Xhi Xlo Yhi Ylo Zhi Xy Xz Yz Press Pxx Pyy Pzz Pxy Pxz Pyz c_eatoms 
       0   -4.4749748       2.8005            0       2.8005            0       2.8005            0            0            0    132816.33    132816.33    132816.33    132816.33 0.0077664222 0.0077664222 0.0077664222   -4.4749748 
      10   -4.5202023    2.8145025   -0.0140025    2.8145025   -0.0140025    2.8145025            0            0            0    86243.541    86243.541    86243.541    86243.541 0.0024702236 0.0024702237 0.0024702237   -4.5202023 
      20   -4.5480019     2.828505    -0.028005     2.828505    -0.028005     2.828505            0            0            0    46120.765    46120.765    46120.765    46120.765 0.0018331294 0.0018331294 0.0018331294   -4.5480019 
      30   -4.5602732    2.8425075   -0.0420075    2.8425075   -0.0420075    2.8425075            0            0            0    11679.484    11679.484    11679.484    11679.484 0.0011068417 0.0011068417 0.0011068417   -4.5602732 
      40   -4.5612288    2.8477993 -0.047299317    2.8477993 -0.047299317    2.8477993            0            0            0 2.0926137e-10 2.0708514e-10 2.2002797e-10  2.00671e-10 2.7489179e-12 2.7489179e-12 9.0485213e-12   -4.5612288 
      41   -4.5612288    2.8477993 -0.047299317    2.8477993 -0.047299317    2.8477993            0            0            0 2.648506e-10 2.6023089e-10 2.6950849e-10 2.6481242e-10 -3.2528861e-11 2.8749099e-11 -3.6766776e-11   -4.5612288 
Loop time of 0.000641108 on 1 procs for 41 steps with 2 atoms

66.8% CPU use with 1 MPI tasks x no OpenMP threads

Minimization stats:
  Stopping criterion = energy tolerance
  Energy initial, next-to-last, final = 
        -4.47497479045       -4.561228836       -4.561228836
  Force two-norm initial, final = 3.15361 6.76209e-15
  Force max component initial, final = 1.82074 3.94843e-15
  Final line search alpha, max atom move = 1 3.94843e-15
  Iterations, force evaluations = 41 49

MPI task timing breakdown:
Section |  min time  |  avg time  |  max time  |%varavg| %total
---------------------------------------------------------------
Pair    | 0.00024247 | 0.00024247 | 0.00024247 |   0.0 | 37.82
Neigh   | 0          | 0          | 0          |   0.0 |  0.00
Comm    | 8.5831e-05 | 8.5831e-05 | 8.5831e-05 |   0.0 | 13.39
Output  | 4.0054e-05 | 4.0054e-05 | 4.0054e-05 |   0.0 |  6.25
Modify  | 0          | 0          | 0          |   0.0 |  0.00
Other   |            | 0.0002728  |            |       | 42.54

Nlocal:    2 ave 2 max 2 min
Histogram: 1 0 0 0 0 0 0 0 0 0
Nghost:    339 ave 339 max 339 min
Histogram: 1 0 0 0 0 0 0 0 0 0
Neighs:    64 ave 64 max 64 min
Histogram: 1 0 0 0 0 0 0 0 0 0

Total # of neighbors = 64
Ave neighs/atom = 32
Neighbor list builds = 0
Dangerous builds = 0
# ---- define output variables ----
variable natoms equal "count(all)"
variable tot_energy equal "c_eatoms"
variable a11 equal "xhi-xlo"
variable a22 equal "yhi-ylo"
variable a33 equal "zhi-zlo"
variable tilt_xy equal "xy"
variable tilt_xz equal "xz"
variable tilt_yz equal "yz"
variable tot_press equal "press"
variable press_xx equal "pxx"
variable press_yy equal "pyy"
variable press_zz equal "pzz"
variable press_xy equal "pxy"
variable press_xz equal "pxz"
variable press_yz equal "pyz"

# ---- output ----
print "pypospack:output_section:begin"
pypospack:output_section:begin
print "tot_energy = ${tot_energy}"
tot_energy = -4.56122883599567
print "num_atoms = ${natoms}"
num_atoms = 2
print "a11 = ${a11}"
a11 = 2.89509863386188
print "a22 = ${a22}"
a22 = 2.89509863386188
print "a33 = ${a33}"
a33 = 2.89509863386188
print "a12 = ${tilt_xy}"
a12 = 0
print "a13 = ${tilt_xz}"
a13 = 0
print "a23 = ${tilt_yz}"
a23 = 0
print "tot_press = ${tot_press}"
tot_press = 2.64850599184615e-10
print "pxx = ${press_xx}"
pxx = 2.60230890016194e-10
print "pyy = ${press_yy}"
pyy = 2.69508487767651e-10
print "pzz = ${press_zz}"
pzz = 2.6481241977e-10
print "pxy = ${press_xy}"
pxy = -3.25288612520242e-11
print "pxz = ${press_xz}"
pxz = 2.87490992051341e-11
print "pyz = ${press_yz}"
pyz = -3.6766776274295e-11
print "pypospack:output_section:done"
pypospack:output_section:done
print "pypospack:lammps_sim:done"
pypospack:lammps_sim:done
Total wall time: 0:00:00
