# ['Ni']

28 atoms
1 atom types

    0.0000     2.2889 xlo xhi
    0.0000     3.9645 ylo yhi
    0.0000    26.1645 zlo zhi

    0.0000     0.0000     0.0000 xy xz yz

Atoms

1 1     0.0000     0.0000     0.0000
2 1     1.1445     1.9823     0.0000
3 1     1.1445     0.6608     1.8689
4 1     0.0000     2.6430     1.8689
5 1     0.0000     1.3215     3.7378
6 1     1.1445     3.3038     3.7378
7 1     0.0000     0.0000     5.6067
8 1     1.1445     1.9823     5.6067
9 1     1.1445     0.6608     7.4756
10 1     0.0000     2.6430     7.4756
11 1     0.0000     1.3215     9.3445
12 1     1.1445     3.3038     9.3445
13 1     0.0000     0.0000    11.2134
14 1     1.1445     1.9823    11.2134
15 1     0.0000     1.3215    13.0823
16 1     1.1445     3.3038    13.0823
17 1     0.0000     0.0000    14.9512
18 1     1.1445     1.9823    14.9512
19 1     1.1445     0.6608    16.8201
20 1     0.0000     2.6430    16.8201
21 1     0.0000     1.3215    18.6890
22 1     1.1445     3.3038    18.6890
23 1     0.0000     0.0000    20.5579
24 1     1.1445     1.9823    20.5579
25 1     1.1445     0.6608    22.4268
26 1     0.0000     2.6430    22.4268
27 1     0.0000     1.3215    24.2956
28 1     1.1445     3.3038    24.2956
